<LesHouchesEvents version="3.0">
<header>
<!--
#*********************************************************************
#                                                                    *
#                        MadGraph5_aMC@NLO                           *
#                                                                    *
#                           Going Beyond                             *
#                                                                    *
#                   http://madgraph.hep.uiuc.edu                     *
#                   http://madgraph.phys.ucl.ac.be                   *
#                   http://amcatnlo.cern.ch                          *
#                                                                    *
#                     The MadGraph5_aMC@NLO team                     *
#                                                                    *
#....................................................................*
#                                                                    *
# This file contains all the information necessary to reproduce      *
# the events generated:                                              *
#                                                                    *
# 1. software version                                                *
# 2. proc_card          : code generation info including model       *
# 3. param_card         : model primary parameters in the LH format  *
# 4. run_card           : running parameters (collider and cuts)     *
# 5. pythia_card        : present only if pythia has been run        *
# 6. pgs_card           : present only if pgs has been run           *
# 7. delphes_cards      : present only if delphes has been run       *
#                                                                    *
#                                                                    *
#*********************************************************************
-->
<MGVersion>
#5.2.2.3
</MGVersion>
<MG5ProcCard>
#************************************************************
#*                     MadGraph5_aMC@NLO                    *
#*                                                          *
#*                *                       *                 *
#*                  *        * *        *                   *
#*                    * * * * 5 * * * *                     *
#*                  *        * *        *                   *
#*                *                       *                 *
#*                                                          *
#*                                                          *
#*         VERSION 2.2.3                 2015-02-10         *
#*                                                          *
#*    The MadGraph5_aMC@NLO Development Team - Find us at   *
#*    https://server06.fynu.ucl.ac.be/projects/madgraph     *
#*                                                          *
#************************************************************
#*                                                          *
#*               Command File for MadGraph5_aMC@NLO         *
#*                                                          *
#*     run as ./bin/mg5_aMC  filename                       *
#*                                                          *
#************************************************************
set group_subprocesses Auto
set ignore_six_quark_processes False
set loop_optimized_output True
set gauge unitary
set complex_mass_scheme False
import model sm
define p = g u c d s u~ c~ d~ s~
define j = g u c d s u~ c~ d~ s~
define l+ = e+ mu+
define l- = e- mu-
define vl = ve vm vt
define vl~ = ve~ vm~ vt~
import model Zprime_UFO
generate p p > zph, zph > j j
add process p p > zph, zph > b b~
output Dijet_signal
</MG5ProcCard>
<MGProcCard>
#*********************************************************************
#                        MadGraph/MadEvent                           *
#                   http://madgraph.hep.uiuc.edu                     *
#                                                                    *
#                          proc_card.dat                             *
#*********************************************************************
#                                                                    *
#            This Files is generated by MADGRAPH 5                   *
#                                                                    *
# WARNING: This Files is generated for MADEVENT (compatibility issue)*
#          This files is NOT a valid MG4 proc_card.dat               *
#          Running this in MG4 will NEVER reproduce the result of MG5*
#                                                                    *
#*********************************************************************
#*********************************************************************
# Process(es) requested : mg2 input                                  *
#*********************************************************************
# Begin PROCESS # This is TAG. Do not modify this line
p p > zph , zph > j j           #Process
# Be carefull the coupling are here in MG5 convention
          
end_coup           # End the couplings input

done               # this tells MG there are no more procs
# End PROCESS  # This is TAG. Do not modify this line
#*********************************************************************
# Model information                                                  *
#*********************************************************************
# Begin MODEL  # This is TAG. Do not modify this line
Zprime_UFO
# End   MODEL  # This is TAG. Do not modify this line
#*********************************************************************
# Start multiparticle definitions                                    *
#*********************************************************************
# Begin MULTIPARTICLES # This is TAG. Do not modify this line

# End  MULTIPARTICLES # This is TAG. Do not modify this line
</MGProcCard>
<MGRunCard>
#*********************************************************************
#                       MadGraph5_aMC@NLO                            *
#                                                                    *
#                     run_card.dat MadEvent                          *
#                                                                    *
#  This file is used to set the parameters of the run.               *
#                                                                    *
#  Some notation/conventions:                                        *
#                                                                    *
#   Lines starting with a '# ' are info or comments                  *
#                                                                    *
#   mind the format:   value    = variable     ! comment             *
#*********************************************************************
#
#*******************                                                 
# Running parameters
#*******************                                                 
#                                                                    
#*********************************************************************
# Tag name for the run (one word)                                    *
#*********************************************************************
  tag_1     = run_tag ! name of the run 
#*********************************************************************
# Run to generate the grid pack                                      *
#*********************************************************************
  .false.     = gridpack  !True = setting up the grid pack
#*********************************************************************
# Number of events and rnd seed                                      *
# Warning: Do not generate more than 1M events in a single run       *
# If you want to run Pythia, avoid more than 50k events in a run.    *
#*********************************************************************
  2000 = nevents ! Number of unweighted events requested 
 2766 = iseed   ! rnd seed (0=assigned automatically=default))
#*********************************************************************
# Collider type and energy                                           *
# lpp: 0=No PDF, 1=proton, -1=antiproton, 2=photon from proton,      *
#                                         3=photon from electron     *
#*********************************************************************
        1     = lpp1    ! beam 1 type 
        1     = lpp2    ! beam 2 type
     4000     = ebeam1  ! beam 1 total energy in GeV
     4000     = ebeam2  ! beam 2 total energy in GeV
#*********************************************************************
# Beam polarization from -100 (left-handed) to 100 (right-handed)    *
#*********************************************************************
        0     = polbeam1 ! beam polarization for beam 1
        0     = polbeam2 ! beam polarization for beam 2
#*********************************************************************
# PDF CHOICE: this automatically fixes also alpha_s and its evol.    *
#*********************************************************************
 'nn23lo1'    = pdlabel     ! PDF set                                     
 230000    = lhaid     ! if pdlabel=lhapdf, this is the lhapdf number
#*********************************************************************
# Renormalization and factorization scales                           *
#*********************************************************************
 F        = fixed_ren_scale  ! if .true. use fixed ren scale
 F        = fixed_fac_scale  ! if .true. use fixed fac scale
 91.1880  = scale            ! fixed ren scale
 91.1880  = dsqrt_q2fact1    ! fixed fact scale for pdf1
 91.1880  = dsqrt_q2fact2    ! fixed fact scale for pdf2
 1        = scalefact        ! scale factor for event-by-event scales
#*********************************************************************
# Matching - Warning! ickkw > 1 is still beta
#*********************************************************************
 0        = ickkw            ! 0 no matching, 1 MLM, 2 CKKW matching
 1        = highestmult      ! for ickkw=2, highest mult group
 1        = ktscheme         ! for ickkw=1, 1 Durham kT, 2 Pythia pTE
 1        = alpsfact         ! scale factor for QCD emission vx
 F        = chcluster        ! cluster only according to channel diag
 T        = pdfwgt           ! for ickkw=1, perform pdf reweighting
 5        = asrwgtflavor     ! highest quark flavor for a_s reweight
 T        = clusinfo         ! include clustering tag in output
 3.0      = lhe_version       ! Change the way clustering information pass to shower.        
#*********************************************************************
#**********************************************************
#
#**********************************************************
# Automatic ptj and mjj cuts if xqcut > 0
# (turn off for VBF and single top processes)
#**********************************************************
   T  = auto_ptj_mjj  ! Automatic setting of ptj and mjj
#**********************************************************
#                                                                    
#**********************************
# BW cutoff (M+/-bwcutoff*Gamma)
#**********************************
  15  = bwcutoff      ! (M+/-bwcutoff*Gamma)
#**********************************************************
# Apply pt/E/eta/dr/mij cuts on decay products or not
# (note that etmiss/ptll/ptheavy/ht/sorted cuts always apply)
#**********************************************************
   T  = cut_decays    ! Cut decay products 
#*************************************************************
# Number of helicities to sum per event (0 = all helicities)
# 0 gives more stable result, but longer run time (needed for
# long decay chains e.g.).
# Use >=2 if most helicities contribute, e.g. pure QCD.
#*************************************************************
   0  = nhel          ! Number of helicities used per event
#*******************                                                 
# Standard Cuts
#*******************                                                 
#                                                                    
#*********************************************************************
# Minimum and maximum pt's (for max, -1 means no cut)                *
#*********************************************************************
 20  = ptj       ! minimum pt for the jets 
  0  = ptb       ! minimum pt for the b 
 10  = pta       ! minimum pt for the photons 
 10  = ptl       ! minimum pt for the charged leptons 
  0  = misset    ! minimum missing Et (sum of neutrino's momenta)
  0  = ptheavy   ! minimum pt for one heavy final state
 1.0 = ptonium   ! minimum pt for the quarkonium states
 -1  = ptjmax    ! maximum pt for the jets
 -1  = ptbmax    ! maximum pt for the b
 -1  = ptamax    ! maximum pt for the photons
 -1  = ptlmax    ! maximum pt for the charged leptons
 -1  = missetmax ! maximum missing Et (sum of neutrino's momenta)
#*********************************************************************
# Minimum and maximum E's (in the center of mass frame)              *
#*********************************************************************
  0  = ej     ! minimum E for the jets 
  0  = eb     ! minimum E for the b 
  0  = ea     ! minimum E for the photons 
  0  = el     ! minimum E for the charged leptons 
 -1   = ejmax ! maximum E for the jets
 -1   = ebmax ! maximum E for the b
 -1   = eamax ! maximum E for the photons
 -1   = elmax ! maximum E for the charged leptons
#*********************************************************************
# Maximum and minimum absolute rapidity (for max, -1 means no cut)   *
#*********************************************************************
   5  = etaj    ! max rap for the jets 
  -1  = etab    ! max rap for the b
 2.5  = etaa    ! max rap for the photons 
 2.5  = etal    ! max rap for the charged leptons 
 0.6  = etaonium ! max rap for the quarkonium states
   0  = etajmin ! min rap for the jets
   0  = etabmin ! min rap for the b
   0  = etaamin ! min rap for the photons
   0  = etalmin ! main rap for the charged leptons
#*********************************************************************
# Minimum and maximum DeltaR distance                                *
#*********************************************************************
 0.4 = drjj    ! min distance between jets 
 0   = drbb    ! min distance between b's 
 0.4 = drll    ! min distance between leptons 
 0.4 = draa    ! min distance between gammas 
 0   = drbj    ! min distance between b and jet 
 0.4 = draj    ! min distance between gamma and jet 
 0.4 = drjl    ! min distance between jet and lepton 
 0   = drab    ! min distance between gamma and b 
 0   = drbl    ! min distance between b and lepton 
 0.4 = dral    ! min distance between gamma and lepton 
 -1  = drjjmax ! max distance between jets
 -1  = drbbmax ! max distance between b's
 -1  = drllmax ! max distance between leptons
 -1  = draamax ! max distance between gammas
 -1  = drbjmax ! max distance between b and jet
 -1  = drajmax ! max distance between gamma and jet
 -1  = drjlmax ! max distance between jet and lepton
 -1  = drabmax ! max distance between gamma and b
 -1  = drblmax ! max distance between b and lepton
 -1  = dralmax ! maxdistance between gamma and lepton
#*********************************************************************
# Minimum and maximum invariant mass for pairs                       *
# WARNING: for four lepton final state mmll cut require to have      *
#          different lepton masses for each flavor!                  *           
#*********************************************************************
 0   = mmjj    ! min invariant mass of a jet pair 
 0   = mmbb    ! min invariant mass of a b pair 
 0   = mmaa    ! min invariant mass of gamma gamma pair
 0   = mmll    ! min invariant mass of l+l- (same flavour) lepton pair
 -1  = mmjjmax ! max invariant mass of a jet pair
 -1  = mmbbmax ! max invariant mass of a b pair
 -1  = mmaamax ! max invariant mass of gamma gamma pair
 -1  = mmllmax ! max invariant mass of l+l- (same flavour) lepton pair
#*********************************************************************
# Minimum and maximum invariant mass for all letpons                 *
#*********************************************************************
 0   = mmnl    ! min invariant mass for all letpons (l+- and vl) 
 -1  = mmnlmax ! max invariant mass for all letpons (l+- and vl) 
#*********************************************************************
# Minimum and maximum pt for 4-momenta sum of leptons                *
#*********************************************************************
 0   = ptllmin  ! Minimum pt for 4-momenta sum of leptons(l and vl)
 -1  = ptllmax  ! Maximum pt for 4-momenta sum of leptons(l and vl)
#*********************************************************************
# Inclusive cuts                                                     *
#*********************************************************************
 0  = xptj ! minimum pt for at least one jet  
 0  = xptb ! minimum pt for at least one b 
 0  = xpta ! minimum pt for at least one photon 
 0  = xptl ! minimum pt for at least one charged lepton 
#*********************************************************************
# Control the pt's of the jets sorted by pt                          *
#*********************************************************************
 0   = ptj1min ! minimum pt for the leading jet in pt
 0   = ptj2min ! minimum pt for the second jet in pt
 0   = ptj3min ! minimum pt for the third jet in pt
 0   = ptj4min ! minimum pt for the fourth jet in pt
 -1  = ptj1max ! maximum pt for the leading jet in pt 
 -1  = ptj2max ! maximum pt for the second jet in pt
 -1  = ptj3max ! maximum pt for the third jet in pt
 -1  = ptj4max ! maximum pt for the fourth jet in pt
 0   = cutuse  ! reject event if fails any (0) / all (1) jet pt cuts
#*********************************************************************
# Control the pt's of leptons sorted by pt                           *
#*********************************************************************
 0   = ptl1min ! minimum pt for the leading lepton in pt
 0   = ptl2min ! minimum pt for the second lepton in pt
 0   = ptl3min ! minimum pt for the third lepton in pt
 0   = ptl4min ! minimum pt for the fourth lepton in pt
 -1  = ptl1max ! maximum pt for the leading lepton in pt 
 -1  = ptl2max ! maximum pt for the second lepton in pt
 -1  = ptl3max ! maximum pt for the third lepton in pt
 -1  = ptl4max ! maximum pt for the fourth lepton in pt
#*********************************************************************
# Control the Ht(k)=Sum of k leading jets                            *
#*********************************************************************
 0   = htjmin ! minimum jet HT=Sum(jet pt)
 -1  = htjmax ! maximum jet HT=Sum(jet pt)
 0   = ihtmin  !inclusive Ht for all partons (including b)
 -1  = ihtmax  !inclusive Ht for all partons (including b)
 0   = ht2min ! minimum Ht for the two leading jets
 0   = ht3min ! minimum Ht for the three leading jets
 0   = ht4min ! minimum Ht for the four leading jets
 -1  = ht2max ! maximum Ht for the two leading jets
 -1  = ht3max ! maximum Ht for the three leading jets
 -1  = ht4max ! maximum Ht for the four leading jets
#***********************************************************************
# Photon-isolation cuts, according to hep-ph/9801442                   *
# When ptgmin=0, all the other parameters are ignored                  *
# When ptgmin>0, pta and draj are not going to be used                 *
#***********************************************************************
   0 = ptgmin ! Min photon transverse momentum
 0.4 = R0gamma ! Radius of isolation code
 1.0 = xn ! n parameter of eq.(3.4) in hep-ph/9801442
 1.0 = epsgamma ! epsilon_gamma parameter of eq.(3.4) in hep-ph/9801442
 .true. = isoEM ! isolate photons from EM energy (photons and leptons)
#*********************************************************************
# WBF cuts                                                           *
#*********************************************************************
 0   = xetamin ! minimum rapidity for two jets in the WBF case  
 0   = deltaeta ! minimum rapidity for two jets in the WBF case 
#*********************************************************************
# KT DURHAM CUT                                                      *
#*********************************************************************
 -1    =  ktdurham        
 0.4  =  dparameter 
#*********************************************************************
# maximal pdg code for quark to be considered as a light jet         *
# (otherwise b cuts are applied)                                     *
#*********************************************************************
 4 = maxjetflavor    ! Maximum jet pdg code
#*********************************************************************
# Jet measure cuts                                                   *
#*********************************************************************
 0   = xqcut   ! minimum kt jet measure between partons
#*********************************************************************
#
#*********************************************************************
# Store info for systematics studies                                 *
# WARNING: If use_syst is T, matched Pythia output is                *
#          meaningful ONLY if plotted taking matchscale              *
#          reweighting into account!                                 *
#*********************************************************************
   F  = use_syst      ! Enable systematics studies
#
#**************************************
# Parameter of the systematics study
#  will be used by SysCalc (if installed)
#**************************************                                  
#
0.5 1 2 = sys_scalefact  # factorization/renormalization scale factor
0.5 1 2 = sys_alpsfact  # \alpha_s emission scale factors
30 50 = sys_matchscale # variation of merging scale
# PDF sets and number of members (0 or none for all members).
CT10nlo.LHgrid = sys_pdf # matching scales
# MSTW2008nlo68cl.LHgrid 1  = sys_pdf
</MGRunCard>
<slha>
######################################################################
## PARAM_CARD AUTOMATICALY GENERATED BY MG5 FOLLOWING UFO MODEL   ####
######################################################################
##                                                                  ##
##  Width set on Auto will be computed following the information    ##
##        present in the decay.py files of the model.               ##
##        See  arXiv:1402.1178 for more details.                    ##
##                                                                  ##
######################################################################

###################################
## INFORMATION FOR CKMBLOCK
###################################
Block ckmblock 
    1 2.277360e-01 # cabi 

###################################
## INFORMATION FOR FRBLOCK
###################################
Block frblock 
    1 1.600000e+00 # gz 

###################################
## INFORMATION FOR MASS
###################################
Block mass 
    1 5.040000e-03 # MD 
    2 2.550000e-03 # MU 
    3 1.010000e-01 # MS 
    4 1.270000e+00 # MC 
    5 4.700000e+00 # MB 
    6 1.720000e+02 # MT 
   11 5.110000e-04 # Me 
   13 1.056600e-01 # MM 
   15 1.777000e+00 # MTA 
   23 9.118760e+01 # MZ 
   25 1.200000e+02 # MH 
  10030 5.000000e+02 # MZph 
  10031 3.000000e+02 # MZpl 
## Dependent parameters, given by model restrictions.
## Those values should be edited following the 
## analytical expression. MG5 ignores those values 
## but they are important for interfacing the output of MG5
## to external program such as Pythia.
  12 0.000000 # ve : 0.0 
  14 0.000000 # vm : 0.0 
  16 0.000000 # vt : 0.0 
  21 0.000000 # g : 0.0 
  22 0.000000 # a : 0.0 
  24 79.824360 # w+ : cmath.sqrt(MZ__exp__2/2. + cmath.sqrt(MZ__exp__4/4. - (aEW*cmath.pi*MZ__exp__2)/(Gf*sqrt__2))) 

###################################
## INFORMATION FOR SMINPUTS
###################################
Block sminputs 
    1 1.279000e+02 # aEWM1 
    2 1.166370e-05 # Gf 
    3 1.184000e-01 # aS 

###################################
## INFORMATION FOR YUKAWA
###################################
Block yukawa 
    1 5.040000e-03 # ymdo 
    2 2.550000e-03 # ymup 
    3 1.010000e-01 # yms 
    4 1.270000e+00 # ymc 
    5 4.700000e+00 # ymb 
    6 1.720000e+02 # ymt 
   11 5.110000e-04 # yme 
   13 1.056600e-01 # ymm 
   15 1.777000e+00 # ymtau 

###################################
## INFORMATION FOR DECAY
###################################
DECAY   6 1.508336e+00 # WT 
DECAY  23 2.495200e+00 # WZ 
DECAY  24 2.085000e+00 # WW 
DECAY  25 5.753088e-03 # WH 
## Dependent parameters, given by model restrictions.
## Those values should be edited following the 
## analytical expression. MG5 ignores those values 
## but they are important for interfacing the output of MG5
## to external program such as Pythia.
DECAY  1 0.000000 # d : 0.0 
DECAY  2 0.000000 # u : 0.0 
DECAY  3 0.000000 # s : 0.0 
DECAY  4 0.000000 # c : 0.0 
DECAY  5 0.000000 # b : 0.0 
DECAY  11 0.000000 # e- : 0.0 
DECAY  12 0.000000 # ve : 0.0 
DECAY  13 0.000000 # mu- : 0.0 
DECAY  14 0.000000 # vm : 0.0 
DECAY  15 0.000000 # ta- : 0.0 
DECAY  16 0.000000 # vt : 0.0 
DECAY  21 0.000000 # g : 0.0 
DECAY  22 0.000000 # a : 0.0 
DECAY  10030 0.308725 # zph : (gz__exp__2*MZph*(5 + cmath.sqrt(1 - (4*MT__exp__2)/MZph__exp__2)))/(144.*cmath.pi) 
DECAY  10031 0.132629 # zpl : (5*gz__exp__2*MZpl)/(144.*cmath.pi) 
#===========================================================
# QUANTUM NUMBERS OF NEW STATE(S) (NON SM PDG CODE)
#===========================================================

Block QNUMBERS 10030  # zph 
        1 0  # 3 times electric charge
        2 3  # number of spin states (2S+1)
        3 1  # colour rep (1: singlet, 3: triplet, 8: octet)
        4 0  # Particle/Antiparticle distinction (0=own anti)
Block QNUMBERS 10031  # zpl 
        1 0  # 3 times electric charge
        2 3  # number of spin states (2S+1)
        3 1  # colour rep (1: singlet, 3: triplet, 8: octet)
        4 0  # Particle/Antiparticle distinction (0=own anti)
</slha>
## END BANNER##
<MGGenerationInfo>
#  Number of Events        :         4194
#  Integrated weight (pb)  :  0.10339E+03
#  Max wgt                 :  0.33292E-01
#  Average wgt             :  0.24652E-01
</MGGenerationInfo>
</header>
<init>
     2212     2212  0.40000000000E+04  0.40000000000E+04 0 0  247000  247000 2   1
  0.10330333139E+03  0.18818212046E+00  0.33292460000E-01   0
</init>
<event>
 5   0  0.3111146E-01  0.5182144E+03  0.7818609E-02  0.1009131E+00
       -2   -1    0    0    0  501  0.00000000000E+00  0.00000000000E+00  0.15911438966E+03  0.15911438968E+03  0.25500000920E-02 0.  1.
        2   -1    0    0  501    0  0.00000000000E+00  0.00000000000E+00 -0.42193880398E+03  0.42193880398E+03  0.25500000920E-02 0. -1.
    10030    2    1    2    0    0  0.00000000000E+00  0.00000000000E+00 -0.26282441432E+03  0.58105319366E+03  0.51821437755E+03 0.  0.
        1    1    3    3  502    0  0.10538108075E+01 -0.70058578902E+02 -0.41111489194E+03  0.41704288675E+03  0.50400001928E-02 0. -1.
       -1    1    3    3    0  502 -0.10538108075E+01  0.70058578902E+02  0.14829047762E+03  0.16401030691E+03  0.50400001928E-02 0.  1.
</event>
<event>
 5   0  0.1292375E-01  0.4980189E+03  0.7818609E-02  0.1014297E+00
       -3   -1    0    0    0  501  0.00000000000E+00  0.00000000000E+00  0.21660835485E+03  0.21660837839E+03  0.10100000352E+00 0. -1.
        3   -1    0    0  501    0  0.00000000000E+00  0.00000000000E+00 -0.28625719371E+03  0.28625721153E+03  0.10100000352E+00 0.  1.
    10030    2    1    2    0    0  0.00000000000E+00  0.00000000000E+00 -0.69648838864E+02  0.50286558992E+03  0.49801891608E+03 0.  0.
        1    1    3    3  502    0 -0.18439889030E+01  0.12515354125E+03  0.18253523990E+03  0.22132763726E+03  0.50400001928E-02 0. -1.
       -1    1    3    3    0  502  0.18439889030E+01 -0.12515354125E+03 -0.25218407877E+03  0.28153795267E+03  0.50400001928E-02 0.  1.
</event>
<event>
 5   0  0.3111146E-01  0.4932445E+03  0.7818609E-02  0.1015557E+00
       -2   -1    0    0    0  501  0.00000000000E+00  0.00000000000E+00  0.72130420297E+02  0.72130420342E+02  0.25500000920E-02 0. -1.
        2   -1    0    0  501    0  0.00000000000E+00  0.00000000000E+00 -0.84322999477E+03  0.84322999477E+03  0.25500000920E-02 0.  1.
    10030    2    1    2    0    0  0.00000000000E+00  0.00000000000E+00 -0.77109957447E+03  0.91536041512E+03  0.49324449901E+03 0.  0.
        1    1    3    3  502    0 -0.85095835260E+02  0.23090442873E+03 -0.41572443140E+03  0.48309932651E+03  0.50400001928E-02 0.  1.
       -1    1    3    3    0  502  0.85095835260E+02 -0.23090442873E+03 -0.35537514307E+03  0.43226108861E+03  0.50400001928E-02 0. -1.
</event>
<event>
 5   0  0.3178149E-01  0.4692948E+03  0.7818609E-02  0.1022119E+00
        2   -1    0    0  501    0  0.00000000000E+00  0.00000000000E+00  0.14583762781E+03  0.14583762784E+03  0.25500000920E-02 0.  1.
       -2   -1    0    0    0  501  0.00000000000E+00  0.00000000000E+00 -0.37753908152E+03  0.37753908153E+03  0.25500000920E-02 0. -1.
    10030    2    1    2    0    0  0.00000000000E+00  0.00000000000E+00 -0.23170145370E+03  0.52337670936E+03  0.46929480740E+03 0.  0.
        3    1    3    3  502    0  0.50689006277E+02  0.22822200481E+03 -0.13828717150E+03  0.27162107952E+03  0.10100000352E+00 0. -1.
       -3    1    3    3    0  502 -0.50689006277E+02 -0.22822200481E+03 -0.93414282205E+02  0.25175562984E+03  0.10100000352E+00 0.  1.
</event>
<event>
 5   0  0.3111146E-01  0.4810676E+03  0.7818609E-02  0.1018842E+00
       -2   -1    0    0    0  501  0.00000000000E+00  0.00000000000E+00  0.68255602441E+02  0.68255602488E+02  0.25500000920E-02 0. -1.
        2   -1    0    0  501    0  0.00000000000E+00  0.00000000000E+00 -0.84764496649E+03  0.84764496650E+03  0.25500000920E-02 0.  1.
    10030    2    1    2    0    0  0.00000000000E+00  0.00000000000E+00 -0.77938936405E+03  0.91590056899E+03  0.48106763710E+03 0.  0.
        1    1    3    3  502    0  0.87815314608E+02  0.21346507145E+03 -0.26088053655E+03  0.34833535649E+03  0.50400001928E-02 0. -1.
       -1    1    3    3    0  502 -0.87815314608E+02 -0.21346507145E+03 -0.51850882750E+03  0.56756521249E+03  0.50400001928E-02 0.  1.
</event>
<event>
 5   0  0.3178149E-01  0.3545955E+03  0.7818609E-02  0.1060745E+00
       -2   -1    0    0    0  501  0.00000000000E+00  0.00000000000E+00  0.22383285387E+02  0.22383285532E+02  0.25500000920E-02 0.  1.
        2   -1    0    0  501    0  0.00000000000E+00  0.00000000000E+00 -0.14043736831E+04  0.14043736831E+04  0.25500000920E-02 0. -1.
    10030    2    1    2    0    0  0.00000000000E+00  0.00000000000E+00 -0.13819903977E+04  0.14267569687E+04  0.35459552758E+03 0.  0.
        3    1    3    3  502    0  0.16341832624E+03 -0.59293189576E+02 -0.83114510870E+03  0.84913098731E+03  0.10100000352E+00 0. -1.
       -3    1    3    3    0  502 -0.16341832624E+03  0.59293189576E+02 -0.55084528903E+03  0.57762598135E+03  0.10100000352E+00 0.  1.
</event>
<event>
 5   0  0.1967161E-01  0.4331221E+03  0.7818609E-02  0.1032878E+00
        1   -1    0    0  501    0  0.00000000000E+00  0.00000000000E+00  0.31526410722E+03  0.31526410726E+03  0.50400001928E-02 0. -1.
       -1   -1    0    0    0  501  0.00000000000E+00  0.00000000000E+00 -0.14875998674E+03  0.14875998682E+03  0.50400001928E-02 0.  1.
    10030    2    1    2    0    0  0.00000000000E+00  0.00000000000E+00  0.16650412048E+03  0.46402409408E+03  0.43312208181E+03 0.  0.
        1    1    3    3  502    0 -0.19626658228E+03  0.10341435699E+02  0.18068675333E+03  0.26697419251E+03  0.50400001928E-02 0. -1.
       -1    1    3    3    0  502  0.19626658228E+03 -0.10341435699E+02 -0.14182632845E+02  0.19704990157E+03  0.50400001928E-02 0.  1.
</event>
<event>
 5   0  0.1984297E-01  0.4886063E+03  0.7818609E-02  0.1016796E+00
       -1   -1    0    0    0  501  0.00000000000E+00  0.00000000000E+00  0.72659188330E+02  0.72659188505E+02  0.50400001928E-02 0.  1.
        1   -1    0    0  501    0  0.00000000000E+00  0.00000000000E+00 -0.82142443708E+03  0.82142443709E+03  0.50400001928E-02 0. -1.
    10030    2    1    2    0    0  0.00000000000E+00  0.00000000000E+00 -0.74876524875E+03  0.89408362560E+03  0.48860631579E+03 0.  0.
        3    1    3    3  502    0 -0.34945480459E+02  0.25567701057E+02 -0.81434676138E+03  0.81549711950E+03  0.10100000352E+00 0. -1.
       -3    1    3    3    0  502  0.34945480459E+02 -0.25567701057E+02  0.65581512628E+02  0.78586506103E+02  0.10100000352E+00 0.  1.
</event>
<event>
 5   0  0.3111146E-01  0.4937979E+03  0.7818609E-02  0.1015411E+00
       -2   -1    0    0    0  501  0.00000000000E+00  0.00000000000E+00  0.80855645708E+02  0.80855645748E+02  0.25500000920E-02 0.  1.
        2   -1    0    0  501    0  0.00000000000E+00  0.00000000000E+00 -0.75392500823E+03  0.75392500824E+03  0.25500000920E-02 0. -1.
    10030    2    1    2    0    0  0.00000000000E+00  0.00000000000E+00 -0.67306936253E+03  0.83478065399E+03  0.49379790755E+03 0.  0.
        1    1    3    3  502    0  0.15367625162E+02  0.23252592993E+03 -0.47444120311E+03  0.52858199669E+03  0.50400001928E-02 0.  1.
       -1    1    3    3    0  502 -0.15367625162E+02 -0.23252592993E+03 -0.19862815941E+03  0.30619865729E+03  0.50400001928E-02 0. -1.
</event>
<event>
 5   0  0.1292375E-01  0.4949399E+03  0.7818609E-02  0.1015108E+00
       -4   -1    0    0    0  501  0.00000000000E+00  0.00000000000E+00  0.26424049885E+03  0.26424355079E+03  0.12699999809E+01 0. -1.
        4   -1    0    0  501    0  0.00000000000E+00  0.00000000000E+00 -0.23175763247E+03  0.23176111216E+03  0.12699999809E+01 0.  1.
    10030    2    1    2    0    0  0.00000000000E+00  0.00000000000E+00  0.32482866380E+02  0.49600466294E+03  0.49493988428E+03 0.  0.
        1    1    3    3  502    0 -0.71312952417E+02  0.27543842754E+02  0.25211382091E+03  0.26344938636E+03  0.50400001928E-02 0. -1.
       -1    1    3    3    0  502  0.71312952417E+02 -0.27543842754E+02 -0.21963095453E+03  0.23255527658E+03  0.50400001928E-02 0.  1.
</event>
<event>
 5   0  0.3111146E-01  0.4798922E+03  0.7818609E-02  0.1019165E+00
        2   -1    0    0  501    0  0.00000000000E+00  0.00000000000E+00  0.19870584519E+04  0.19870584519E+04  0.25500000920E-02 0.  1.
       -2   -1    0    0    0  501  0.00000000000E+00  0.00000000000E+00 -0.28974555279E+02  0.28974555391E+02  0.25500000920E-02 0. -1.
    10030    2    1    2    0    0  0.00000000000E+00  0.00000000000E+00  0.19580838966E+04  0.20160330072E+04  0.47989221736E+03 0.  0.
        1    1    3    3  502    0  0.94527122636E+02 -0.19170531474E+03  0.52100002218E+03  0.56314059324E+03  0.50400001928E-02 0. -1.
       -1    1    3    3    0  502 -0.94527122636E+02  0.19170531474E+03  0.14370838744E+04  0.14528924140E+04  0.50400001928E-02 0.  1.
</event>
<event>
 5   0  0.1292375E-01  0.5064568E+03  0.7818609E-02  0.1012107E+00
       -4   -1    0    0    0  501  0.00000000000E+00  0.00000000000E+00  0.10076953717E+03  0.10077753977E+03  0.12699999809E+01 0. -1.
        4   -1    0    0  501    0  0.00000000000E+00  0.00000000000E+00 -0.63631542487E+03  0.63631669225E+03  0.12699999809E+01 0.  1.
    10030    2    1    2    0    0  0.00000000000E+00  0.00000000000E+00 -0.53554588770E+03  0.73709423201E+03  0.50645681853E+03 0.  0.
        2    1    3    3  502    0  0.57930578458E+02  0.16065886939E+02 -0.62578379133E+03  0.62866478997E+03  0.25500000920E-02 0.  1.
       -2    1    3    3    0  502 -0.57930578458E+02 -0.16065886939E+02  0.90237903632E+02  0.10842944204E+03  0.25500000920E-02 0. -1.
</event>
<event>
 5   0  0.3187123E-01  0.5514830E+03  0.7818609E-02  0.1001151E+00
        2   -1    0    0  501    0  0.00000000000E+00  0.00000000000E+00  0.95239514456E+03  0.95239514456E+03  0.25500000920E-02 0.  1.
       -2   -1    0    0    0  501  0.00000000000E+00  0.00000000000E+00 -0.79833856751E+02  0.79833856792E+02  0.25500000920E-02 0. -1.
    10030    2    1    2    0    0  0.00000000000E+00  0.00000000000E+00  0.87256128781E+03  0.10322290014E+04  0.55148300994E+03 0.  0.
        5    1    3    3  502    0  0.23857374805E+03  0.11919466007E+03  0.56712117774E+03  0.62671629984E+03  0.46999998093E+01 0.  1.
       -5    1    3    3    0  502 -0.23857374805E+03 -0.11919466007E+03  0.30544011007E+03  0.40551270151E+03  0.46999998093E+01 0. -1.
</event>
<event>
 5   0  0.1984680E-01  0.4918600E+03  0.7818609E-02  0.1015926E+00
       -1   -1    0    0    0  501  0.00000000000E+00  0.00000000000E+00  0.73253299035E+02  0.73253299209E+02  0.50400001928E-02 0. -1.
        1   -1    0    0  501    0  0.00000000000E+00  0.00000000000E+00 -0.82564977639E+03  0.82564977641E+03  0.50400001928E-02 0.  1.
    10030    2    1    2    0    0  0.00000000000E+00  0.00000000000E+00 -0.75239647736E+03  0.89890307562E+03  0.49186002095E+03 0.  0.
        5    1    3    3  502    0 -0.48143233831E+02  0.39475009304E+02  0.58528134531E+02  0.85578501115E+02  0.46999998093E+01 0. -1.
       -5    1    3    3    0  502  0.48143233831E+02 -0.39475009304E+02 -0.81092461189E+03  0.81332457450E+03  0.46999998093E+01 0.  1.
</event>
<event>
 5   0  0.1292375E-01  0.4810642E+03  0.7818609E-02  0.1018843E+00
        3   -1    0    0  501    0  0.00000000000E+00  0.00000000000E+00  0.37105550315E+02  0.37105687774E+02  0.10100000352E+00 0. -1.
       -3   -1    0    0    0  501  0.00000000000E+00  0.00000000000E+00 -0.15592161717E+04  0.15592161750E+04  0.10100000352E+00 0.  1.
    10030    2    1    2    0    0  0.00000000000E+00  0.00000000000E+00 -0.15221106214E+04  0.15963218627E+04  0.48106418048E+03 0.  0.
        2    1    3    3  502    0 -0.80003274182E+02 -0.13503019918E+03 -0.15622941263E+03  0.22145272170E+03  0.25500000920E-02 0. -1.
       -2    1    3    3    0  502  0.80003274182E+02  0.13503019918E+03 -0.13658812087E+04  0.13748691410E+04  0.25500000920E-02 0.  1.
</event>
<event>
 5   0  0.1292375E-01  0.5064119E+03  0.7818609E-02  0.1012119E+00
       -3   -1    0    0    0  501  0.00000000000E+00  0.00000000000E+00  0.22461131223E+03  0.22461133493E+03  0.10100000352E+00 0. -1.
        3   -1    0    0  501    0  0.00000000000E+00  0.00000000000E+00 -0.28544085763E+03  0.28544087550E+03  0.10100000352E+00 0.  1.
    10030    2    1    2    0    0  0.00000000000E+00  0.00000000000E+00 -0.60829545402E+02  0.51005221043E+03  0.50641191117E+03 0.  0.
        5    1    3    3  502    0 -0.21914912110E+03  0.23773526600E+02  0.94977750360E+02  0.24007161621E+03  0.46999998093E+01 0. -1.
       -5    1    3    3    0  502  0.21914912110E+03 -0.23773526600E+02 -0.15580729576E+03  0.26998059422E+03  0.46999998093E+01 0.  1.
</event>
<event>
 5   0  0.1967161E-01  0.4984336E+03  0.7818609E-02  0.1014189E+00
        1   -1    0    0  501    0  0.00000000000E+00  0.00000000000E+00  0.11225670889E+03  0.11225670900E+03  0.50400001928E-02 0.  1.
       -1   -1    0    0    0  501  0.00000000000E+00  0.00000000000E+00 -0.55327668072E+03  0.55327668074E+03  0.50400001928E-02 0. -1.
    10030    2    1    2    0    0  0.00000000000E+00  0.00000000000E+00 -0.44101997183E+03  0.66553338974E+03  0.49843362378E+03 0.  0.
        1    1    3    3  502    0  0.20200911176E+03  0.11442074006E+03 -0.99529927405E+02  0.25259848270E+03  0.50400001928E-02 0. -1.
       -1    1    3    3    0  502 -0.20200911176E+03 -0.11442074006E+03 -0.34149004442E+03  0.41293490704E+03  0.50400001928E-02 0.  1.
</event>
<event>
 5   0  0.1984297E-01  0.5023357E+03  0.7818609E-02  0.1013171E+00
       -1   -1    0    0    0  501  0.00000000000E+00  0.00000000000E+00  0.12194731985E+04  0.12194731985E+04  0.50400001928E-02 0. -1.
        1   -1    0    0  501    0  0.00000000000E+00  0.00000000000E+00 -0.51731592266E+02  0.51731592512E+02  0.50400001928E-02 0.  1.
    10030    2    1    2    0    0  0.00000000000E+00  0.00000000000E+00  0.11677416062E+04  0.12712047910E+04  0.50233570626E+03 0.  0.
        3    1    3    3  502    0  0.10354765760E+03  0.22224379172E+03  0.44593958960E+03  0.50889738467E+03  0.10100000352E+00 0. -1.
       -3    1    3    3    0  502 -0.10354765760E+03 -0.22224379172E+03  0.72180201663E+03  0.76230740634E+03  0.10100000352E+00 0.  1.
</event>
<event>
 5   0  0.1984297E-01  0.4309648E+03  0.7818609E-02  0.1033556E+00
        1   -1    0    0  501    0  0.00000000000E+00  0.00000000000E+00  0.20965028687E+03  0.20965028693E+03  0.50400001928E-02 0. -1.
       -1   -1    0    0    0  501  0.00000000000E+00  0.00000000000E+00 -0.22147675349E+03  0.22147675354E+03  0.50400001928E-02 0.  1.
    10030    2    1    2    0    0  0.00000000000E+00  0.00000000000E+00 -0.11826466618E+02  0.43112704047E+03  0.43096480101E+03 0.  0.
        3    1    3    3  502    0  0.20865572887E+03 -0.90295138815E+01 -0.58979497947E+02  0.21701920812E+03  0.10100000352E+00 0.  1.
       -3    1    3    3    0  502 -0.20865572887E+03  0.90295138815E+01  0.47153031329E+02  0.21410783236E+03  0.10100000352E+00 0. -1.
</event>
<event>
 5   0  0.3111146E-01  0.4965144E+03  0.7818609E-02  0.1014693E+00
       -2   -1    0    0    0  501  0.00000000000E+00  0.00000000000E+00  0.46917305549E+02  0.46917305619E+02  0.25500000920E-02 0.  1.
        2   -1    0    0  501    0  0.00000000000E+00  0.00000000000E+00 -0.13136224588E+04  0.13136224588E+04  0.25500000920E-02 0. -1.
    10030    2    1    2    0    0  0.00000000000E+00  0.00000000000E+00 -0.12667051532E+04  0.13605397644E+04  0.49651435557E+03 0.  0.
        1    1    3    3  502    0  0.10230917288E+02  0.17442691134E+03 -0.15009904659E+03  0.23034570298E+03  0.50400001928E-02 0.  1.
       -1    1    3    3    0  502 -0.10230917288E+02 -0.17442691134E+03 -0.11166061066E+04  0.11301940614E+04  0.50400001928E-02 0. -1.
</event>
<event>
 5   0  0.2013450E-01  0.5111161E+03  0.7818609E-02  0.1010918E+00
        1   -1    0    0  501    0  0.00000000000E+00  0.00000000000E+00  0.23852310669E+03  0.23852310675E+03  0.50400001928E-02 0.  1.
       -1   -1    0    0    0  501  0.00000000000E+00  0.00000000000E+00 -0.27380959711E+03  0.27380959715E+03  0.50400001928E-02 0. -1.
    10030    2    1    2    0    0  0.00000000000E+00  0.00000000000E+00 -0.35286490411E+02  0.51233270390E+03  0.51111609550E+03 0.  0.
        4    1    3    3  502    0  0.45467347895E+02  0.21099759554E+03  0.11950728222E+03  0.24672022303E+03  0.12699999809E+01 0.  1.
       -4    1    3    3    0  502 -0.45467347895E+02 -0.21099759554E+03 -0.15479377263E+03  0.26561248087E+03  0.12699999809E+01 0. -1.
</event>
<event>
 5   0  0.1967161E-01  0.4911819E+03  0.7818609E-02  0.1016107E+00
        1   -1    0    0  501    0  0.00000000000E+00  0.00000000000E+00  0.67268677829E+03  0.67268677831E+03  0.50400001928E-02 0. -1.
       -1   -1    0    0    0  501  0.00000000000E+00  0.00000000000E+00 -0.89662699165E+02  0.89662699307E+02  0.50400001928E-02 0.  1.
    10030    2    1    2    0    0  0.00000000000E+00  0.00000000000E+00  0.58302407913E+03  0.76234947762E+03  0.49118189012E+03 0.  0.
        1    1    3    3  502    0  0.17544613722E+02 -0.21042072733E+03  0.96850968577E+02  0.23230326321E+03  0.50400001928E-02 0.  1.
       -1    1    3    3    0  502 -0.17544613722E+02  0.21042072733E+03  0.48617311055E+03  0.53004621440E+03  0.50400001928E-02 0. -1.
</event>
<event>
 5   0  0.3329246E-01  0.5012765E+03  0.7818609E-02  0.1013446E+00
        2   -1    0    0  501    0  0.00000000000E+00  0.00000000000E+00  0.73606222242E+03  0.73606222242E+03  0.25500000920E-02 0. -1.
       -2   -1    0    0    0  501  0.00000000000E+00  0.00000000000E+00 -0.85345424592E+02  0.85345424630E+02  0.25500000920E-02 0.  1.
    10030    2    1    2    0    0  0.00000000000E+00  0.00000000000E+00  0.65071679782E+03  0.82140764705E+03  0.50127654210E+03 0.  0.
        2    1    3    3  502    0 -0.42109160861E+02 -0.10810220316E+03 -0.38699238157E+02  0.12229840063E+03  0.25500000920E-02 0.  1.
       -2    1    3    3    0  502  0.42109160861E+02  0.10810220316E+03  0.68941603598E+03  0.69910924642E+03  0.25500000920E-02 0. -1.
</event>
<event>
 5   0  0.1984297E-01  0.4980925E+03  0.7818609E-02  0.1014278E+00
        1   -1    0    0  501    0  0.00000000000E+00  0.00000000000E+00  0.68998778289E+03  0.68998778291E+03  0.50400001928E-02 0.  1.
       -1   -1    0    0    0  501  0.00000000000E+00  0.00000000000E+00 -0.89891502735E+02  0.89891502876E+02  0.50400001928E-02 0. -1.
    10030    2    1    2    0    0  0.00000000000E+00  0.00000000000E+00  0.60009628016E+03  0.77987928579E+03  0.49809251645E+03 0.  0.
        3    1    3    3  502    0 -0.12058070617E+03  0.21772228293E+03  0.28592793442E+03  0.37907452178E+03  0.10100000352E+00 0. -1.
       -3    1    3    3    0  502  0.12058070617E+03 -0.21772228293E+03  0.31416834574E+03  0.40080476400E+03  0.10100000352E+00 0.  1.
</event>
<event>
 5   0  0.1292375E-01  0.5117832E+03  0.7818609E-02  0.1010748E+00
       -3   -1    0    0    0  501  0.00000000000E+00  0.00000000000E+00  0.62547859732E+03  0.62547860548E+03  0.10100000352E+00 0. -1.
        3   -1    0    0  501    0  0.00000000000E+00  0.00000000000E+00 -0.10468860763E+03  0.10468865635E+03  0.10100000352E+00 0.  1.
    10030    2    1    2    0    0  0.00000000000E+00  0.00000000000E+00  0.52078998969E+03  0.73016726183E+03  0.51178317370E+03 0.  0.
        2    1    3    3  502    0 -0.11874047313E+03  0.16555774653E+03  0.48129056673E+03  0.52263685004E+03  0.25500000920E-02 0. -1.
       -2    1    3    3    0  502  0.11874047313E+03 -0.16555774653E+03  0.39499422968E+02  0.20753041179E+03  0.25500000920E-02 0.  1.
</event>
<event>
 5   0  0.3178149E-01  0.4735731E+03  0.7818609E-02  0.1020917E+00
        2   -1    0    0  501    0  0.00000000000E+00  0.00000000000E+00  0.13330910329E+04  0.13330910329E+04  0.25500000920E-02 0. -1.
       -2   -1    0    0    0  501  0.00000000000E+00  0.00000000000E+00 -0.42058551834E+02  0.42058551912E+02  0.25500000920E-02 0.  1.
    10030    2    1    2    0    0  0.00000000000E+00  0.00000000000E+00  0.12910324810E+04  0.13751495848E+04  0.47357313421E+03 0.  0.
        3    1    3    3  502    0 -0.16007320314E+03 -0.10062288531E+03  0.10594388054E+04  0.10761779536E+04  0.10100000352E+00 0.  1.
       -3    1    3    3    0  502  0.16007320314E+03  0.10062288531E+03  0.23159367569E+03  0.29897163115E+03  0.10100000352E+00 0. -1.
</event>
<event>
 5   0  0.2013450E-01  0.4954311E+03  0.7818609E-02  0.1014978E+00
       -1   -1    0    0    0  501  0.00000000000E+00  0.00000000000E+00  0.17579394815E+03  0.17579394822E+03  0.50400001928E-02 0. -1.
        1   -1    0    0  501    0  0.00000000000E+00  0.00000000000E+00 -0.34906208551E+03  0.34906208555E+03  0.50400001928E-02 0.  1.
    10030    2    1    2    0    0  0.00000000000E+00  0.00000000000E+00 -0.17326813736E+03  0.52485603377E+03  0.49543113423E+03 0.  0.
        4    1    3    3  502    0  0.22570709593E+03  0.95637900811E+01  0.21019342840E+02  0.22688892636E+03  0.12699999809E+01 0. -1.
       -4    1    3    3    0  502 -0.22570709593E+03 -0.95637900811E+01 -0.19428748020E+03  0.29796710740E+03  0.12699999809E+01 0.  1.
</event>
<event>
 5   0  0.3329246E-01  0.4959772E+03  0.7818609E-02  0.1014834E+00
       -2   -1    0    0    0  501  0.00000000000E+00  0.00000000000E+00  0.29852466609E+02  0.29852466718E+02  0.25500000920E-02 0.  1.
        2   -1    0    0  501    0  0.00000000000E+00  0.00000000000E+00 -0.20600759609E+04  0.20600759609E+04  0.25500000920E-02 0. -1.
    10030    2    1    2    0    0  0.00000000000E+00  0.00000000000E+00 -0.20302234943E+04  0.20899284276E+04  0.49597721298E+03 0.  0.
        2    1    3    3  502    0 -0.14741194915E+03 -0.77358149237E+02 -0.24060745558E+03  0.29258590823E+03  0.25500000920E-02 0.  1.
       -2    1    3    3    0  502  0.14741194915E+03  0.77358149237E+02 -0.17896160387E+04  0.17973425193E+04  0.25500000920E-02 0. -1.
</event>
<event>
 5   0  0.2000612E-01  0.5030197E+03  0.7818609E-02  0.1012994E+00
        1   -1    0    0  501    0  0.00000000000E+00  0.00000000000E+00  0.74188345421E+03  0.74188345423E+03  0.50400001928E-02 0. -1.
       -1   -1    0    0    0  501  0.00000000000E+00  0.00000000000E+00 -0.85265681030E+02  0.85265681179E+02  0.50400001928E-02 0.  1.
    10030    2    1    2    0    0  0.00000000000E+00  0.00000000000E+00  0.65661777318E+03  0.82714913541E+03  0.50301967372E+03 0.  0.
        2    1    3    3  502    0  0.27753464841E+02  0.43302676259E+01 -0.82678333275E+02  0.87319601625E+02  0.25500000920E-02 0.  1.
       -2    1    3    3    0  502 -0.27753464841E+02 -0.43302676259E+01  0.73929610646E+03  0.73982953378E+03  0.25500000920E-02 0. -1.
</event>
<event>
 5   0  0.3178149E-01  0.4559160E+03  0.7818609E-02  0.1025972E+00
        2   -1    0    0  501    0  0.00000000000E+00  0.00000000000E+00  0.31796645584E+03  0.31796645585E+03  0.25500000920E-02 0.  1.
       -2   -1    0    0    0  501  0.00000000000E+00  0.00000000000E+00 -0.16342874354E+03  0.16342874356E+03  0.25500000920E-02 0. -1.
    10030    2    1    2    0    0  0.00000000000E+00  0.00000000000E+00  0.15453771230E+03  0.48139519940E+03  0.45591603776E+03 0.  0.
        3    1    3    3  502    0 -0.14812380752E+03 -0.13824979686E+03  0.18756307147E+03  0.27610430034E+03  0.10100000352E+00 0.  1.
       -3    1    3    3    0  502  0.14812380752E+03  0.13824979686E+03 -0.33025359175E+02  0.20529089906E+03  0.10100000352E+00 0. -1.
</event>
<event>
 5   0  0.3187123E-01  0.4787895E+03  0.7818609E-02  0.1019468E+00
        2   -1    0    0  501    0  0.00000000000E+00  0.00000000000E+00  0.10194894294E+03  0.10194894297E+03  0.25500000920E-02 0.  1.
       -2   -1    0    0    0  501  0.00000000000E+00  0.00000000000E+00 -0.56214262249E+03  0.56214262249E+03  0.25500000920E-02 0. -1.
    10030    2    1    2    0    0  0.00000000000E+00  0.00000000000E+00 -0.46019367955E+03  0.66409156546E+03  0.47878949928E+03 0.  0.
        5    1    3    3  502    0 -0.21087471088E+03 -0.11245487939E+03 -0.24836727197E+03  0.34470659316E+03  0.46999998093E+01 0. -1.
       -5    1    3    3    0  502  0.21087471088E+03  0.11245487939E+03 -0.21182640758E+03  0.31938497230E+03  0.46999998093E+01 0.  1.
</event>
<event>
 5   0  0.2000612E-01  0.4652208E+03  0.7818609E-02  0.1023278E+00
        1   -1    0    0  501    0  0.00000000000E+00  0.00000000000E+00  0.49316550824E+03  0.49316550827E+03  0.50400001928E-02 0. -1.
       -1   -1    0    0    0  501  0.00000000000E+00  0.00000000000E+00 -0.10971489448E+03  0.10971489460E+03  0.50400001928E-02 0.  1.
    10030    2    1    2    0    0  0.00000000000E+00  0.00000000000E+00  0.38345061376E+03  0.60288040287E+03  0.46522081528E+03 0.  0.
        2    1    3    3  502    0  0.21695031040E+03  0.78980101442E+01  0.29997604135E+03  0.37029102222E+03  0.25500000920E-02 0. -1.
       -2    1    3    3    0  502 -0.21695031040E+03 -0.78980101442E+01  0.83474572409E+02  0.23258938065E+03  0.25500000920E-02 0.  1.
</event>
<event>
 5   0  0.3178149E-01  0.5038026E+03  0.7818609E-02  0.1012791E+00
        2   -1    0    0  501    0  0.00000000000E+00  0.00000000000E+00  0.92893726999E+03  0.92893727000E+03  0.25500000920E-02 0.  1.
       -2   -1    0    0    0  501  0.00000000000E+00  0.00000000000E+00 -0.68308443014E+02  0.68308443061E+02  0.25500000920E-02 0. -1.
    10030    2    1    2    0    0  0.00000000000E+00  0.00000000000E+00  0.86062882698E+03  0.99724571306E+03  0.50380257481E+03 0.  0.
        3    1    3    3  502    0 -0.16721045984E+03  0.80884006836E+02  0.76712539279E+03  0.78929268267E+03  0.10100000352E+00 0.  1.
       -3    1    3    3    0  502  0.16721045984E+03 -0.80884006836E+02  0.93503434187E+02  0.20795303039E+03  0.10100000352E+00 0. -1.
</event>
<event>
 5   0  0.3111146E-01  0.4913929E+03  0.7818609E-02  0.1016050E+00
       -2   -1    0    0    0  501  0.00000000000E+00  0.00000000000E+00  0.25214056474E+03  0.25214056475E+03  0.25500000920E-02 0.  1.
        2   -1    0    0  501    0  0.00000000000E+00  0.00000000000E+00 -0.23941699758E+03  0.23941699759E+03  0.25500000920E-02 0. -1.
    10030    2    1    2    0    0  0.00000000000E+00  0.00000000000E+00  0.12723567156E+02  0.49155756234E+03  0.49139286516E+03 0.  0.
        1    1    3    3  502    0 -0.15965755864E+03 -0.11189834748E+03  0.15592765009E+03  0.24965017181E+03  0.50400001928E-02 0.  1.
       -1    1    3    3    0  502  0.15965755864E+03  0.11189834748E+03 -0.14320408293E+03  0.24190739053E+03  0.50400001928E-02 0. -1.
</event>
<event>
 5   0  0.1984297E-01  0.3567693E+03  0.7818609E-02  0.1059870E+00
        1   -1    0    0  501    0  0.00000000000E+00  0.00000000000E+00  0.52622137090E+03  0.52622137092E+03  0.50400001928E-02 0. -1.
       -1   -1    0    0    0  501  0.00000000000E+00  0.00000000000E+00 -0.60470903873E+02  0.60470904083E+02  0.50400001928E-02 0.  1.
    10030    2    1    2    0    0  0.00000000000E+00  0.00000000000E+00  0.46575046703E+03  0.58669227501E+03  0.35676929243E+03 0.  0.
        3    1    3    3  502    0 -0.10284015484E+03  0.13918065227E+03  0.30405807075E+03  0.34985521577E+03  0.10100000352E+00 0.  1.
       -3    1    3    3    0  502  0.10284015484E+03 -0.13918065227E+03  0.16169239627E+03  0.23683705924E+03  0.10100000352E+00 0. -1.
</event>
<event>
 5   0  0.3178149E-01  0.5026884E+03  0.7818609E-02  0.1013080E+00
        2   -1    0    0  501    0  0.00000000000E+00  0.00000000000E+00  0.21692281482E+04  0.21692281482E+04  0.25500000920E-02 0. -1.
       -2   -1    0    0    0  501  0.00000000000E+00  0.00000000000E+00 -0.29122763461E+02  0.29122763573E+02  0.25500000920E-02 0.  1.
    10030    2    1    2    0    0  0.00000000000E+00  0.00000000000E+00  0.21401053847E+04  0.21983509117E+04  0.50268844577E+03 0.  0.
        3    1    3    3  502    0 -0.19897000138E+03  0.37049192919E+02  0.41828333003E+03  0.46467478792E+03  0.10100000352E+00 0.  1.
       -3    1    3    3    0  502  0.19897000138E+03 -0.37049192919E+02  0.17218220547E+04  0.17336761238E+04  0.10100000352E+00 0. -1.
</event>
<event>
 5   0  0.2013450E-01  0.2998455E+03  0.7818609E-02  0.1085318E+00
        1   -1    0    0  501    0  0.00000000000E+00  0.00000000000E+00  0.41441509136E+03  0.41441509139E+03  0.50400001928E-02 0.  1.
       -1   -1    0    0    0  501  0.00000000000E+00  0.00000000000E+00 -0.54237477754E+02  0.54237477988E+02  0.50400001928E-02 0. -1.
    10030    2    1    2    0    0  0.00000000000E+00  0.00000000000E+00  0.36017761360E+03  0.46865256938E+03  0.29984548928E+03 0.  0.
        4    1    3    3  502    0 -0.14379459332E+03 -0.28979062049E+02  0.13169833950E+03  0.19713634021E+03  0.12699999809E+01 0. -1.
       -4    1    3    3    0  502  0.14379459332E+03  0.28979062049E+02  0.22847927411E+03  0.27151622917E+03  0.12699999809E+01 0.  1.
</event>
<event>
 5   0  0.2013450E-01  0.5038140E+03  0.7818609E-02  0.1012788E+00
        1   -1    0    0  501    0  0.00000000000E+00  0.00000000000E+00  0.42087548952E+03  0.42087548955E+03  0.50400001928E-02 0.  1.
       -1   -1    0    0    0  501  0.00000000000E+00  0.00000000000E+00 -0.15077414587E+03  0.15077414595E+03  0.50400001928E-02 0. -1.
    10030    2    1    2    0    0  0.00000000000E+00  0.00000000000E+00  0.27010134365E+03  0.57164963550E+03  0.50381402315E+03 0.  0.
        4    1    3    3  502    0  0.16691711034E+02  0.15068411435E+03 -0.93210895870E+02  0.17797246850E+03  0.12699999809E+01 0. -1.
       -4    1    3    3    0  502 -0.16691711034E+02 -0.15068411435E+03  0.36331223952E+03  0.39367716701E+03  0.12699999809E+01 0.  1.
</event>
<event>
 5   0  0.1984297E-01  0.5010845E+03  0.7818609E-02  0.1013496E+00
       -1   -1    0    0    0  501  0.00000000000E+00  0.00000000000E+00  0.48733799519E+02  0.48733799780E+02  0.50400001928E-02 0. -1.
        1   -1    0    0  501    0  0.00000000000E+00  0.00000000000E+00 -0.12880466865E+04  0.12880466865E+04  0.50400001928E-02 0.  1.
    10030    2    1    2    0    0  0.00000000000E+00  0.00000000000E+00 -0.12393128870E+04  0.13367804863E+04  0.50108446064E+03 0.  0.
        3    1    3    3  502    0 -0.16993233091E+03 -0.12374737798E+03 -0.98330642324E+03  0.10055257047E+04  0.10100000352E+00 0.  1.
       -3    1    3    3    0  502  0.16993233091E+03  0.12374737798E+03 -0.25600646376E+03  0.33125478160E+03  0.10100000352E+00 0. -1.
</event>
<event>
 5   0  0.3117389E-01  0.5088915E+03  0.7818609E-02  0.1011484E+00
        2   -1    0    0  501    0  0.00000000000E+00  0.00000000000E+00  0.16533968004E+03  0.16533968006E+03  0.25500000920E-02 0.  1.
       -2   -1    0    0    0  501  0.00000000000E+00  0.00000000000E+00 -0.39157352888E+03  0.39157352888E+03  0.25500000920E-02 0. -1.
    10030    2    1    2    0    0  0.00000000000E+00  0.00000000000E+00 -0.22623384883E+03  0.55691320895E+03  0.50889150901E+03 0.  0.
        4    1    3    3  502    0 -0.91335684654E+02  0.23475729674E+03 -0.73844097843E+02  0.26250287494E+03  0.12699999809E+01 0. -1.
       -4    1    3    3    0  502  0.91335684654E+02 -0.23475729674E+03 -0.15238975099E+03  0.29441033401E+03  0.12699999809E+01 0.  1.
</event>
<event>
 5   0  0.3117389E-01  0.4997698E+03  0.7818609E-02  0.1013839E+00
        2   -1    0    0  501    0  0.00000000000E+00  0.00000000000E+00  0.58504321241E+03  0.58504321241E+03  0.25500000920E-02 0.  1.
       -2   -1    0    0    0  501  0.00000000000E+00  0.00000000000E+00 -0.10673138795E+03  0.10673138798E+03  0.25500000920E-02 0. -1.
    10030    2    1    2    0    0  0.00000000000E+00  0.00000000000E+00  0.47831182446E+03  0.69177460039E+03  0.49976984336E+03 0.  0.
        4    1    3    3  502    0 -0.23753153262E+03  0.27032197125E+02  0.33982055014E+03  0.41548957613E+03  0.12699999809E+01 0.  1.
       -4    1    3    3    0  502  0.23753153262E+03 -0.27032197125E+02  0.13849127431E+03  0.27628502426E+03  0.12699999809E+01 0. -1.
</event>
<event>
 5   0  0.1292375E-01  0.4921417E+03  0.7818609E-02  0.1015851E+00
       -4   -1    0    0    0  501  0.00000000000E+00  0.00000000000E+00  0.32465251247E+03  0.32465499650E+03  0.12699999809E+01 0. -1.
        4   -1    0    0  501    0  0.00000000000E+00  0.00000000000E+00 -0.18650442750E+03  0.18650875148E+03  0.12699999809E+01 0.  1.
    10030    2    1    2    0    0  0.00000000000E+00  0.00000000000E+00  0.13814808496E+03  0.51116374798E+03  0.49214173148E+03 0.  0.
        4    1    3    3  502    0  0.98125895457E+02  0.22413441357E+03  0.41903201842E+02  0.24823863101E+03  0.12699999809E+01 0. -1.
       -4    1    3    3    0  502 -0.98125895457E+02 -0.22413441357E+03  0.96244883121E+02  0.26292511696E+03  0.12699999809E+01 0.  1.
</event>
<event>
 5   0  0.1984297E-01  0.4859255E+03  0.7818609E-02  0.1017519E+00
       -1   -1    0    0    0  501  0.00000000000E+00  0.00000000000E+00  0.15387280282E+03  0.15387280290E+03  0.50400001928E-02 0.  1.
        1   -1    0    0  501    0  0.00000000000E+00  0.00000000000E+00 -0.38363439735E+03  0.38363439739E+03  0.50400001928E-02 0. -1.
    10030    2    1    2    0    0  0.00000000000E+00  0.00000000000E+00 -0.22976159454E+03  0.53750720029E+03  0.48592550873E+03 0.  0.
        3    1    3    3  502    0 -0.13642165949E+03 -0.51519198858E+02 -0.32984388476E+03  0.36064122830E+03  0.10100000352E+00 0. -1.
       -3    1    3    3    0  502  0.13642165949E+03  0.51519198858E+02  0.10008229023E+03  0.17686597199E+03  0.10100000352E+00 0.  1.
</event>
<event>
 5   0  0.1984680E-01  0.5385196E+03  0.7818609E-02  0.1004187E+00
       -1   -1    0    0    0  501  0.00000000000E+00  0.00000000000E+00  0.62997194255E+02  0.62997194457E+02  0.50400001928E-02 0.  1.
        1   -1    0    0  501    0  0.00000000000E+00  0.00000000000E+00 -0.11508583241E+04  0.11508583241E+04  0.50400001928E-02 0. -1.
    10030    2    1    2    0    0  0.00000000000E+00  0.00000000000E+00 -0.10878611298E+04  0.12138555185E+04  0.53851962093E+03 0.  0.
        5    1    3    3  502    0 -0.13109138918E+03 -0.41135989923E+02 -0.22070002057E+02  0.13923468309E+03  0.46999998093E+01 0.  1.
       -5    1    3    3    0  502  0.13109138918E+03  0.41135989923E+02 -0.10657911278E+04  0.10746208354E+04  0.46999998093E+01 0. -1.
</event>
<event>
 5   0  0.3329246E-01  0.5076153E+03  0.7818609E-02  0.1011810E+00
       -2   -1    0    0    0  501  0.00000000000E+00  0.00000000000E+00  0.23566151872E+03  0.23566151874E+03  0.25500000920E-02 0. -1.
        2   -1    0    0  501    0  0.00000000000E+00  0.00000000000E+00 -0.27335108992E+03  0.27335108993E+03  0.25500000920E-02 0.  1.
    10030    2    1    2    0    0  0.00000000000E+00  0.00000000000E+00 -0.37689571194E+02  0.50901260866E+03  0.50761533862E+03 0.  0.
        2    1    3    3  502    0  0.35890318417E+02 -0.12773236235E+03 -0.23580732135E+03  0.27057118131E+03  0.25500000920E-02 0.  1.
       -2    1    3    3    0  502 -0.35890318417E+02  0.12773236235E+03  0.19811775015E+03  0.23844142736E+03  0.25500000920E-02 0. -1.
</event>
<event>
 5   0  0.3178149E-01  0.4995311E+03  0.7818609E-02  0.1013901E+00
        2   -1    0    0  501    0  0.00000000000E+00  0.00000000000E+00  0.82796545293E+03  0.82796545293E+03  0.25500000920E-02 0.  1.
       -2   -1    0    0    0  501  0.00000000000E+00  0.00000000000E+00 -0.75344715725E+02  0.75344715768E+02  0.25500000920E-02 0. -1.
    10030    2    1    2    0    0  0.00000000000E+00  0.00000000000E+00  0.75262073720E+03  0.90331016870E+03  0.49953106691E+03 0.  0.
        3    1    3    3  502    0 -0.24882946430E+03 -0.20364818842E+02  0.36327250232E+03  0.44079218379E+03  0.10100000352E+00 0.  1.
       -3    1    3    3    0  502  0.24882946430E+03  0.20364818842E+02  0.38934823489E+03  0.46251798491E+03  0.10100000352E+00 0. -1.
</event>
<event>
 5   0  0.3111146E-01  0.4953750E+03  0.7818609E-02  0.1014993E+00
        2   -1    0    0  501    0  0.00000000000E+00  0.00000000000E+00  0.11248560104E+03  0.11248560107E+03  0.25500000920E-02 0.  1.
       -2   -1    0    0    0  501  0.00000000000E+00  0.00000000000E+00 -0.54539514922E+03  0.54539514923E+03  0.25500000920E-02 0. -1.
    10030    2    1    2    0    0  0.00000000000E+00  0.00000000000E+00 -0.43290954818E+03  0.65788075029E+03  0.49537501421E+03 0.  0.
        1    1    3    3  502    0 -0.20717317936E+03  0.23438692629E+02 -0.39403096050E+03  0.44579198783E+03  0.50400001928E-02 0. -1.
       -1    1    3    3    0  502  0.20717317936E+03 -0.23438692629E+02 -0.38878587688E+02  0.21208876247E+03  0.50400001928E-02 0.  1.
</event>
<event>
 5   0  0.3329246E-01  0.4995716E+03  0.7818609E-02  0.1013891E+00
       -2   -1    0    0    0  501  0.00000000000E+00  0.00000000000E+00  0.13284131465E+03  0.13284131467E+03  0.25500000920E-02 0.  1.
        2   -1    0    0  501    0  0.00000000000E+00  0.00000000000E+00 -0.46968027696E+03  0.46968027697E+03  0.25500000920E-02 0. -1.
    10030    2    1    2    0    0  0.00000000000E+00  0.00000000000E+00 -0.33683896232E+03  0.60252159164E+03  0.49957159833E+03 0.  0.
        2    1    3    3  502    0 -0.11299354107E+03  0.42109044728E+02 -0.43225057702E+03  0.44875524878E+03  0.25500000920E-02 0. -1.
       -2    1    3    3    0  502  0.11299354107E+03 -0.42109044728E+02  0.95411614698E+02  0.15376634286E+03  0.25500000920E-02 0.  1.
</event>
<event>
 5   0  0.3178149E-01  0.4875721E+03  0.7818609E-02  0.1017075E+00
        2   -1    0    0  501    0  0.00000000000E+00  0.00000000000E+00  0.26351533873E+04  0.26351533873E+04  0.25500000920E-02 0.  1.
       -2   -1    0    0    0  501  0.00000000000E+00  0.00000000000E+00 -0.22553385472E+02  0.22553385617E+02  0.25500000920E-02 0. -1.
    10030    2    1    2    0    0  0.00000000000E+00  0.00000000000E+00  0.26126000018E+04  0.26577067729E+04  0.48757206776E+03 0.  0.
        3    1    3    3  502    0  0.10216253312E+03 -0.15692881224E+03  0.21571955876E+04  0.21653075182E+04  0.10100000352E+00 0.  1.
       -3    1    3    3    0  502 -0.10216253312E+03  0.15692881224E+03  0.45540441423E+03  0.49239925465E+03  0.10100000352E+00 0. -1.
</event>
<event>
 5   0  0.1984297E-01  0.5681794E+03  0.7818609E-02  0.9973715E-01
        1   -1    0    0  501    0  0.00000000000E+00  0.00000000000E+00  0.73082435529E+03  0.73082435530E+03  0.50400001928E-02 0. -1.
       -1   -1    0    0    0  501  0.00000000000E+00  0.00000000000E+00 -0.11043276629E+03  0.11043276640E+03  0.50400001928E-02 0.  1.
    10030    2    1    2    0    0  0.00000000000E+00  0.00000000000E+00  0.62039158900E+03  0.84125712171E+03  0.56817939168E+03 0.  0.
        3    1    3    3  502    0  0.20154585510E+03  0.11650152044E+03  0.69106624998E+02  0.24283548297E+03  0.10100000352E+00 0.  1.
       -3    1    3    3    0  502 -0.20154585510E+03 -0.11650152044E+03  0.55128496400E+03  0.59842163873E+03  0.10100000352E+00 0. -1.
</event>
<event>
 5   0  0.3187123E-01  0.5040872E+03  0.7818609E-02  0.1012718E+00
        2   -1    0    0  501    0  0.00000000000E+00  0.00000000000E+00  0.67185120517E+03  0.67185120518E+03  0.25500000920E-02 0. -1.
       -2   -1    0    0    0  501  0.00000000000E+00  0.00000000000E+00 -0.94553625468E+02  0.94553625503E+02  0.25500000920E-02 0.  1.
    10030    2    1    2    0    0  0.00000000000E+00  0.00000000000E+00  0.57729757971E+03  0.76640483068E+03  0.50408716405E+03 0.  0.
        5    1    3    3  502    0  0.19673948294E+03  0.21355835047E+02  0.51443043703E+02  0.20452621490E+03  0.46999998093E+01 0.  1.
       -5    1    3    3    0  502 -0.19673948294E+03 -0.21355835047E+02  0.52585453600E+03  0.56187861578E+03  0.46999998093E+01 0. -1.
</event>
<event>
 5   0  0.1984680E-01  0.5126586E+03  0.7818609E-02  0.1010527E+00
        1   -1    0    0  501    0  0.00000000000E+00  0.00000000000E+00  0.82314113851E+03  0.82314113853E+03  0.50400001928E-02 0.  1.
       -1   -1    0    0    0  501  0.00000000000E+00  0.00000000000E+00 -0.79821917640E+02  0.79821917799E+02  0.50400001928E-02 0. -1.
    10030    2    1    2    0    0  0.00000000000E+00  0.00000000000E+00  0.74331922087E+03  0.90296305633E+03  0.51265857739E+03 0.  0.
        5    1    3    3  502    0 -0.19868425977E+03 -0.15666642951E+03  0.44348251114E+03  0.51060614264E+03  0.46999998093E+01 0. -1.
       -5    1    3    3    0  502  0.19868425977E+03  0.15666642951E+03  0.29983670973E+03  0.39235691368E+03  0.46999998093E+01 0.  1.
</event>
<event>
 5   0  0.1984297E-01  0.5161392E+03  0.7818609E-02  0.1009650E+00
       -1   -1    0    0    0  501  0.00000000000E+00  0.00000000000E+00  0.11849733097E+03  0.11849733108E+03  0.50400001928E-02 0. -1.
        1   -1    0    0  501    0  0.00000000000E+00  0.00000000000E+00 -0.56203737286E+03  0.56203737288E+03  0.50400001928E-02 0.  1.
    10030    2    1    2    0    0  0.00000000000E+00  0.00000000000E+00 -0.44354004188E+03  0.68053470396E+03  0.51613923949E+03 0.  0.
        3    1    3    3  502    0  0.11699011345E+03 -0.16797396386E+03 -0.14558398989E+02  0.20521670586E+03  0.10100000352E+00 0. -1.
       -3    1    3    3    0  502 -0.11699011345E+03  0.16797396386E+03 -0.42898164289E+03  0.47531799810E+03  0.10100000352E+00 0.  1.
</event>
<event>
 5   0  0.1292375E-01  0.4931164E+03  0.7818609E-02  0.1015591E+00
        3   -1    0    0  501    0  0.00000000000E+00  0.00000000000E+00  0.20601390849E+03  0.20601393325E+03  0.10100000352E+00 0. -1.
       -3   -1    0    0    0  501  0.00000000000E+00  0.00000000000E+00 -0.29508173025E+03  0.29508174753E+03  0.10100000352E+00 0.  1.
    10030    2    1    2    0    0  0.00000000000E+00  0.00000000000E+00 -0.89067821755E+02  0.50109568078E+03  0.49311642076E+03 0.  0.
        3    1    3    3  502    0 -0.93915465653E+02  0.16871935008E+03  0.11125900033E+03  0.22285625218E+03  0.10100000352E+00 0. -1.
       -3    1    3    3    0  502  0.93915465653E+02 -0.16871935008E+03 -0.20032682208E+03  0.27823942860E+03  0.10100000352E+00 0.  1.
</event>
<event>
 5   0  0.3178149E-01  0.5004249E+03  0.7818609E-02  0.1013668E+00
       -2   -1    0    0    0  501  0.00000000000E+00  0.00000000000E+00  0.42935222315E+02  0.42935222391E+02  0.25500000920E-02 0.  1.
        2   -1    0    0  501    0  0.00000000000E+00  0.00000000000E+00 -0.14581561491E+04  0.14581561491E+04  0.25500000920E-02 0. -1.
    10030    2    1    2    0    0  0.00000000000E+00  0.00000000000E+00 -0.14152209268E+04  0.15010913715E+04  0.50042485346E+03 0.  0.
        3    1    3    3  502    0  0.15835472558E+03 -0.29086951027E+02 -0.12821322109E+04  0.12922017204E+04  0.10100000352E+00 0. -1.
       -3    1    3    3    0  502 -0.15835472558E+03  0.29086951027E+02 -0.13308871591E+03  0.20888965110E+03  0.10100000352E+00 0.  1.
</event>
<event>
 5   0  0.1967161E-01  0.4900557E+03  0.7818609E-02  0.1016408E+00
       -1   -1    0    0    0  501  0.00000000000E+00  0.00000000000E+00  0.58701534863E+02  0.58701535080E+02  0.50400001928E-02 0. -1.
        1   -1    0    0  501    0  0.00000000000E+00  0.00000000000E+00 -0.10227782787E+04  0.10227782787E+04  0.50400001928E-02 0.  1.
    10030    2    1    2    0    0  0.00000000000E+00  0.00000000000E+00 -0.96407674381E+03  0.10814798138E+04  0.49005573114E+03 0.  0.
        1    1    3    3  502    0 -0.21679839509E+03 -0.39919765004E+01 -0.73386290130E+03  0.76522691923E+03  0.50400001928E-02 0.  1.
       -1    1    3    3    0  502  0.21679839509E+03  0.39919765004E+01 -0.23021384251E+03  0.31625289453E+03  0.50400001928E-02 0. -1.
</event>
<event>
 5   0  0.1984297E-01  0.5127273E+03  0.7818609E-02  0.1010509E+00
        1   -1    0    0  501    0  0.00000000000E+00  0.00000000000E+00  0.21706164613E+03  0.21706164619E+03  0.50400001928E-02 0. -1.
       -1   -1    0    0    0  501  0.00000000000E+00  0.00000000000E+00 -0.30278178921E+03  0.30278178925E+03  0.50400001928E-02 0.  1.
    10030    2    1    2    0    0  0.00000000000E+00  0.00000000000E+00 -0.85720143079E+02  0.51984343544E+03  0.51272727101E+03 0.  0.
        3    1    3    3  502    0 -0.10078280680E+03  0.15691296227E+03  0.13548886500E+03  0.23051267777E+03  0.10100000352E+00 0. -1.
       -3    1    3    3    0  502  0.10078280680E+03 -0.15691296227E+03 -0.22120900807E+03  0.28933075766E+03  0.10100000352E+00 0.  1.
</event>
<event>
 5   0  0.2000612E-01  0.5050576E+03  0.7818609E-02  0.1012467E+00
        1   -1    0    0  501    0  0.00000000000E+00  0.00000000000E+00  0.54442305228E+03  0.54442305230E+03  0.50400001928E-02 0.  1.
       -1   -1    0    0    0  501  0.00000000000E+00  0.00000000000E+00 -0.11713464235E+03  0.11713464246E+03  0.50400001928E-02 0. -1.
    10030    2    1    2    0    0  0.00000000000E+00  0.00000000000E+00  0.42728840993E+03  0.66155769476E+03  0.50505761874E+03 0.  0.
        2    1    3    3  502    0  0.77046028956E+02 -0.18264945980E+02  0.52774199271E+03  0.53364905107E+03  0.25500000920E-02 0.  1.
       -2    1    3    3    0  502 -0.77046028956E+02  0.18264945980E+02 -0.10045358279E+03  0.12790864369E+03  0.25500000920E-02 0. -1.
</event>
<event>
 5   0  0.1984680E-01  0.6485964E+03  0.7818609E-02  0.9809416E-01
        1   -1    0    0  501    0  0.00000000000E+00  0.00000000000E+00  0.50579975659E+03  0.50579975661E+03  0.50400001928E-02 0.  1.
       -1   -1    0    0    0  501  0.00000000000E+00  0.00000000000E+00 -0.20792681127E+03  0.20792681133E+03  0.50400001928E-02 0. -1.
    10030    2    1    2    0    0  0.00000000000E+00  0.00000000000E+00  0.29787294532E+03  0.71372656794E+03  0.64859642477E+03 0.  0.
        5    1    3    3  502    0 -0.26389335188E+03 -0.13130535134E+03  0.29766158959E+03  0.41893353694E+03  0.46999998093E+01 0.  1.
       -5    1    3    3    0  502  0.26389335188E+03  0.13130535134E+03  0.21135573411E+00  0.29479303100E+03  0.46999998093E+01 0. -1.
</event>
<event>
 5   0  0.3117389E-01  0.4921564E+03  0.7818609E-02  0.1015847E+00
        2   -1    0    0  501    0  0.00000000000E+00  0.00000000000E+00  0.21180414637E+04  0.21180414637E+04  0.25500000920E-02 0. -1.
       -2   -1    0    0    0  501  0.00000000000E+00  0.00000000000E+00 -0.28589844186E+02  0.28589844299E+02  0.25500000920E-02 0.  1.
    10030    2    1    2    0    0  0.00000000000E+00  0.00000000000E+00  0.20894516196E+04  0.21466313080E+04  0.49215637983E+03 0.  0.
        4    1    3    3  502    0 -0.14895249838E+03 -0.31791294955E+02  0.18877317315E+04  0.18938664779E+04  0.12699999809E+01 0. -1.
       -4    1    3    3    0  502  0.14895249838E+03  0.31791294955E+02  0.20171988807E+03  0.25276483013E+03  0.12699999809E+01 0.  1.
</event>
<event>
 5   0  0.3111146E-01  0.4993109E+03  0.7818609E-02  0.1013959E+00
       -2   -1    0    0    0  501  0.00000000000E+00  0.00000000000E+00  0.24658318098E+03  0.24658318100E+03  0.25500000920E-02 0. -1.
        2   -1    0    0  501    0  0.00000000000E+00  0.00000000000E+00 -0.25276601203E+03  0.25276601204E+03  0.25500000920E-02 0.  1.
    10030    2    1    2    0    0  0.00000000000E+00  0.00000000000E+00 -0.61828310449E+01  0.49934919304E+03  0.49931091435E+03 0.  0.
        1    1    3    3  502    0 -0.14174688210E+01  0.20756717705E+03 -0.14181652296E+03  0.25139226006E+03  0.50400001928E-02 0.  1.
       -1    1    3    3    0  502  0.14174688210E+01 -0.20756717705E+03  0.13563369192E+03  0.24795693298E+03  0.50400001928E-02 0. -1.
</event>
<event>
 5   0  0.2013450E-01  0.4840128E+03  0.7818609E-02  0.1018038E+00
        1   -1    0    0  501    0  0.00000000000E+00  0.00000000000E+00  0.52369175482E+03  0.52369175485E+03  0.50400001928E-02 0.  1.
       -1   -1    0    0    0  501  0.00000000000E+00  0.00000000000E+00 -0.11183505862E+03  0.11183505873E+03  0.50400001928E-02 0. -1.
    10030    2    1    2    0    0  0.00000000000E+00  0.00000000000E+00  0.41185669620E+03  0.63552681358E+03  0.48401280208E+03 0.  0.
        4    1    3    3  502    0 -0.18561792502E+03 -0.12184962816E+03  0.33230870209E+03  0.39966490008E+03  0.12699999809E+01 0.  1.
       -4    1    3    3    0  502  0.18561792502E+03  0.12184962816E+03  0.79547994114E+02  0.23586191350E+03  0.12699999809E+01 0. -1.
</event>
<event>
 5   0  0.3329246E-01  0.5224945E+03  0.7818609E-02  0.1008069E+00
        2   -1    0    0  501    0  0.00000000000E+00  0.00000000000E+00  0.14551715949E+04  0.14551715949E+04  0.25500000920E-02 0.  1.
       -2   -1    0    0    0  501  0.00000000000E+00  0.00000000000E+00 -0.46901774856E+02  0.46901774926E+02  0.25500000920E-02 0. -1.
    10030    2    1    2    0    0  0.00000000000E+00  0.00000000000E+00  0.14082698201E+04  0.15020733699E+04  0.52249451893E+03 0.  0.
        2    1    3    3  502    0  0.42139295250E+02 -0.13273003788E+03  0.13395733172E+04  0.13467923579E+04  0.25500000920E-02 0.  1.
       -2    1    3    3    0  502 -0.42139295250E+02  0.13273003788E+03  0.68696502885E+02  0.15528101196E+03  0.25500000920E-02 0. -1.
</event>
<event>
 5   0  0.1984297E-01  0.4977025E+03  0.7818609E-02  0.1014380E+00
       -1   -1    0    0    0  501  0.00000000000E+00  0.00000000000E+00  0.48631604852E+02  0.48631605113E+02  0.50400001928E-02 0.  1.
        1   -1    0    0  501    0  0.00000000000E+00  0.00000000000E+00 -0.12733889622E+04  0.12733889622E+04  0.50400001928E-02 0. -1.
    10030    2    1    2    0    0  0.00000000000E+00  0.00000000000E+00 -0.12247573573E+04  0.13220205673E+04  0.49770251761E+03 0.  0.
        3    1    3    3  502    0 -0.85287996026E+02 -0.23284814226E+03 -0.55700124636E+03  0.60970705939E+03  0.10100000352E+00 0. -1.
       -3    1    3    3    0  502  0.85287996026E+02  0.23284814226E+03 -0.66775611094E+03  0.71231350789E+03  0.10100000352E+00 0.  1.
</event>
<event>
 5   0  0.3329246E-01  0.5005176E+03  0.7818609E-02  0.1013644E+00
        2   -1    0    0  501    0  0.00000000000E+00  0.00000000000E+00  0.74437145530E+03  0.74437145531E+03  0.25500000920E-02 0. -1.
       -2   -1    0    0    0  501  0.00000000000E+00  0.00000000000E+00 -0.84137375004E+02  0.84137375043E+02  0.25500000920E-02 0.  1.
    10030    2    1    2    0    0  0.00000000000E+00  0.00000000000E+00  0.66023408030E+03  0.82850883035E+03  0.50051757330E+03 0.  0.
        2    1    3    3  502    0  0.65064092192E+02 -0.13954705573E+02  0.72945858268E+03  0.73248747003E+03  0.25500000920E-02 0. -1.
       -2    1    3    3    0  502 -0.65064092192E+02  0.13954705573E+02 -0.69224502383E+02  0.96021360317E+02  0.25500000920E-02 0.  1.
</event>
<event>
 5   0  0.2000612E-01  0.3306358E+03  0.7818609E-02  0.1070856E+00
        1   -1    0    0  501    0  0.00000000000E+00  0.00000000000E+00  0.23028551805E+03  0.23028551811E+03  0.50400001928E-02 0. -1.
       -1   -1    0    0    0  501  0.00000000000E+00  0.00000000000E+00 -0.11867876017E+03  0.11867876028E+03  0.50400001928E-02 0.  1.
    10030    2    1    2    0    0  0.00000000000E+00  0.00000000000E+00  0.11160675788E+03  0.34896427839E+03  0.33063575001E+03 0.  0.
        2    1    3    3  502    0  0.40385525004E+02  0.40430534840E+02 -0.10792294484E+03  0.12211871603E+03  0.25500000920E-02 0.  1.
       -2    1    3    3    0  502 -0.40385525004E+02 -0.40430534840E+02  0.21952970272E+03  0.22684556235E+03  0.25500000920E-02 0. -1.
</event>
<event>
 5   0  0.2000612E-01  0.5031357E+03  0.7818609E-02  0.1012964E+00
       -1   -1    0    0    0  501  0.00000000000E+00  0.00000000000E+00  0.75129405466E+02  0.75129405635E+02  0.50400001928E-02 0.  1.
        1   -1    0    0  501    0  0.00000000000E+00  0.00000000000E+00 -0.84236516120E+03  0.84236516122E+03  0.50400001928E-02 0. -1.
    10030    2    1    2    0    0  0.00000000000E+00  0.00000000000E+00 -0.76723575574E+03  0.91749456686E+03  0.50313574244E+03 0.  0.
        2    1    3    3  502    0 -0.32139549757E+02 -0.60733388991E+02  0.57685273399E+02  0.89716698393E+02  0.25500000920E-02 0.  1.
       -2    1    3    3    0  502  0.32139549757E+02  0.60733388991E+02 -0.82492102914E+03  0.82777786846E+03  0.25500000920E-02 0. -1.
</event>
<event>
 5   0  0.2000612E-01  0.5010989E+03  0.7818609E-02  0.1013492E+00
       -1   -1    0    0    0  501  0.00000000000E+00  0.00000000000E+00  0.25175419201E+02  0.25175419706E+02  0.50400001928E-02 0.  1.
        1   -1    0    0  501    0  0.00000000000E+00  0.00000000000E+00 -0.24935049917E+04  0.24935049917E+04  0.50400001928E-02 0. -1.
    10030    2    1    2    0    0  0.00000000000E+00  0.00000000000E+00 -0.24683295725E+04  0.25186804114E+04  0.50109892870E+03 0.  0.
        2    1    3    3  502    0 -0.13140340629E+03  0.10774155717E+03 -0.21596064076E+04  0.21662813608E+04  0.25500000920E-02 0. -1.
       -2    1    3    3    0  502  0.13140340629E+03 -0.10774155717E+03 -0.30872316487E+03  0.35239905060E+03  0.25500000920E-02 0.  1.
</event>
<event>
 5   0  0.3117389E-01  0.5035431E+03  0.7818609E-02  0.1012858E+00
       -2   -1    0    0    0  501  0.00000000000E+00  0.00000000000E+00  0.23890855522E+03  0.23890855523E+03  0.25500000920E-02 0. -1.
        2   -1    0    0  501    0  0.00000000000E+00  0.00000000000E+00 -0.26532708937E+03  0.26532708939E+03  0.25500000920E-02 0.  1.
    10030    2    1    2    0    0  0.00000000000E+00  0.00000000000E+00 -0.26418534157E+02  0.50423564461E+03  0.50354309285E+03 0.  0.
        4    1    3    3  502    0  0.14064602234E+03 -0.17508305681E+03  0.10075375254E+03  0.24614693160E+03  0.12699999809E+01 0. -1.
       -4    1    3    3    0  502 -0.14064602234E+03  0.17508305681E+03 -0.12717228670E+03  0.25808871302E+03  0.12699999809E+01 0.  1.
</event>
<event>
 5   0  0.1984680E-01  0.4967464E+03  0.7818609E-02  0.1014632E+00
       -1   -1    0    0    0  501  0.00000000000E+00  0.00000000000E+00  0.14097432194E+03  0.14097432203E+03  0.50400001928E-02 0.  1.
        1   -1    0    0  501    0  0.00000000000E+00  0.00000000000E+00 -0.43759199432E+03  0.43759199435E+03  0.50400001928E-02 0. -1.
    10030    2    1    2    0    0  0.00000000000E+00  0.00000000000E+00 -0.29661767238E+03  0.57856631638E+03  0.49674635266E+03 0.  0.
        5    1    3    3  502    0  0.18183456893E+03 -0.15496546138E+03 -0.69408403921E+02  0.24883271732E+03  0.46999998093E+01 0.  1.
       -5    1    3    3    0  502 -0.18183456893E+03  0.15496546138E+03 -0.22720926846E+03  0.32973359906E+03  0.46999998093E+01 0. -1.
</event>
<event>
 5   0  0.3187123E-01  0.4860718E+03  0.7818609E-02  0.1017480E+00
        2   -1    0    0  501    0  0.00000000000E+00  0.00000000000E+00  0.94621758663E+03  0.94621758663E+03  0.25500000920E-02 0.  1.
       -2   -1    0    0    0  501  0.00000000000E+00  0.00000000000E+00 -0.62423760271E+02  0.62423760323E+02  0.25500000920E-02 0. -1.
    10030    2    1    2    0    0  0.00000000000E+00  0.00000000000E+00  0.88379382636E+03  0.10086413470E+04  0.48607184580E+03 0.  0.
        5    1    3    3  502    0  0.11704118260E+02 -0.21350540269E+02 -0.59791731755E+02  0.64730001842E+02  0.46999998093E+01 0. -1.
       -5    1    3    3    0  502 -0.11704118260E+02  0.21350540269E+02  0.94358555811E+03  0.94391134511E+03  0.46999998093E+01 0.  1.
</event>
<event>
 5   0  0.3187123E-01  0.5067789E+03  0.7818609E-02  0.1012025E+00
       -2   -1    0    0    0  501  0.00000000000E+00  0.00000000000E+00  0.72944689804E+02  0.72944689849E+02  0.25500000920E-02 0. -1.
        2   -1    0    0  501    0  0.00000000000E+00  0.00000000000E+00 -0.88020395902E+03  0.88020395902E+03  0.25500000920E-02 0.  1.
    10030    2    1    2    0    0  0.00000000000E+00  0.00000000000E+00 -0.80725926921E+03  0.95314864887E+03  0.50677886609E+03 0.  0.
        5    1    3    3  502    0 -0.46515311563E+02  0.20366707819E+03 -0.13407669547E+03  0.24827928471E+03  0.46999998093E+01 0. -1.
       -5    1    3    3    0  502  0.46515311563E+02 -0.20366707819E+03 -0.67318257374E+03  0.70486936416E+03  0.46999998093E+01 0.  1.
</event>
<event>
 5   0  0.3117389E-01  0.4768319E+03  0.7818609E-02  0.1020009E+00
       -2   -1    0    0    0  501  0.00000000000E+00  0.00000000000E+00  0.13424103670E+03  0.13424103672E+03  0.25500000920E-02 0.  1.
        2   -1    0    0  501    0  0.00000000000E+00  0.00000000000E+00 -0.42343361108E+03  0.42343361109E+03  0.25500000920E-02 0. -1.
    10030    2    1    2    0    0  0.00000000000E+00  0.00000000000E+00 -0.28919257438E+03  0.55767464781E+03  0.47683190721E+03 0.  0.
        4    1    3    3  502    0  0.46507184631E+02  0.41364809312E+02  0.12456747712E+03  0.13925744119E+03  0.12699999809E+01 0.  1.
       -4    1    3    3    0  502 -0.46507184631E+02 -0.41364809312E+02 -0.41376005150E+03  0.41841720661E+03  0.12699999809E+01 0. -1.
</event>
<event>
 5   0  0.2013450E-01  0.4830738E+03  0.7818609E-02  0.1018294E+00
        1   -1    0    0  501    0  0.00000000000E+00  0.00000000000E+00  0.20000592849E+04  0.20000592849E+04  0.50400001928E-02 0. -1.
       -1   -1    0    0    0  501  0.00000000000E+00  0.00000000000E+00 -0.29169170631E+02  0.29169171067E+02  0.50400001928E-02 0.  1.
    10030    2    1    2    0    0  0.00000000000E+00  0.00000000000E+00  0.19708901143E+04  0.20292284560E+04  0.48307378733E+03 0.  0.
        4    1    3    3  502    0 -0.34707432013E+02  0.23483732507E+03  0.11726118011E+04  0.11964001104E+04  0.12699999809E+01 0.  1.
       -4    1    3    3    0  502  0.34707432013E+02 -0.23483732507E+03  0.79827831316E+03  0.83282834560E+03  0.12699999809E+01 0. -1.
</event>
<event>
 5   0  0.1292375E-01  0.4986212E+03  0.7818609E-02  0.1014139E+00
       -4   -1    0    0    0  501  0.00000000000E+00  0.00000000000E+00  0.15395762077E+04  0.15395767315E+04  0.12699999809E+01 0.  1.
        4   -1    0    0  501    0  0.00000000000E+00  0.00000000000E+00 -0.40361481893E+02  0.40381457633E+02  0.12699999809E+01 0. -1.
    10030    2    1    2    0    0  0.00000000000E+00  0.00000000000E+00  0.14992147258E+04  0.15799581891E+04  0.49862118424E+03 0.  0.
        3    1    3    3  502    0 -0.12124623588E+02  0.24021409378E+03  0.95753348152E+03  0.98727918837E+03  0.10100000352E+00 0.  1.
       -3    1    3    3    0  502  0.12124623588E+02 -0.24021409378E+03  0.54168124426E+03  0.59267900075E+03  0.10100000352E+00 0. -1.
</event>
<event>
 5   0  0.1292375E-01  0.5106358E+03  0.7818609E-02  0.1011039E+00
       -3   -1    0    0    0  501  0.00000000000E+00  0.00000000000E+00  0.30406383429E+03  0.30406385106E+03  0.10100000352E+00 0. -1.
        3   -1    0    0  501    0  0.00000000000E+00  0.00000000000E+00 -0.21438666196E+03  0.21438668575E+03  0.10100000352E+00 0.  1.
    10030    2    1    2    0    0  0.00000000000E+00  0.00000000000E+00  0.89677172331E+02  0.51845053681E+03  0.51063584273E+03 0.  0.
        4    1    3    3  502    0  0.19442561022E+03 -0.14294427331E+03 -0.39811484942E+02  0.24458321777E+03  0.12699999809E+01 0.  1.
       -4    1    3    3    0  502 -0.19442561022E+03  0.14294427331E+03  0.12948865727E+03  0.27386731905E+03  0.12699999809E+01 0. -1.
</event>
<event>
 5   0  0.3329246E-01  0.4977031E+03  0.7818609E-02  0.1014380E+00
       -2   -1    0    0    0  501  0.00000000000E+00  0.00000000000E+00  0.19664560596E+03  0.19664560598E+03  0.25500000920E-02 0.  1.
        2   -1    0    0  501    0  0.00000000000E+00  0.00000000000E+00 -0.31491723720E+03  0.31491723721E+03  0.25500000920E-02 0. -1.
    10030    2    1    2    0    0  0.00000000000E+00  0.00000000000E+00 -0.11827163124E+03  0.51156284319E+03  0.49770308797E+03 0.  0.
        2    1    3    3  502    0  0.82318388474E+02 -0.22657132878E+03  0.43599273883E+01  0.24110141658E+03  0.25500000920E-02 0.  1.
       -2    1    3    3    0  502 -0.82318388474E+02  0.22657132878E+03 -0.12263155862E+03  0.27046142660E+03  0.25500000920E-02 0. -1.
</event>
<event>
 5   0  0.2000612E-01  0.4961056E+03  0.7818609E-02  0.1014800E+00
       -1   -1    0    0    0  501  0.00000000000E+00  0.00000000000E+00  0.46359714904E+02  0.46359715178E+02  0.50400001928E-02 0. -1.
        1   -1    0    0  501    0  0.00000000000E+00  0.00000000000E+00 -0.13272338782E+04  0.13272338782E+04  0.50400001928E-02 0.  1.
    10030    2    1    2    0    0  0.00000000000E+00  0.00000000000E+00 -0.12808741633E+04  0.13735935934E+04  0.49610557102E+03 0.  0.
        2    1    3    3  502    0 -0.53551144091E+02  0.98347534452E+02 -0.12532654424E+04  0.12582584121E+04  0.25500000920E-02 0.  1.
       -2    1    3    3    0  502  0.53551144091E+02 -0.98347534452E+02 -0.27608720929E+02  0.11533518129E+03  0.25500000920E-02 0. -1.
</event>
<event>
 5   0  0.3178149E-01  0.5338062E+03  0.7818609E-02  0.1005313E+00
       -2   -1    0    0    0  501  0.00000000000E+00  0.00000000000E+00  0.51407094790E+02  0.51407094853E+02  0.25500000920E-02 0.  1.
        2   -1    0    0  501    0  0.00000000000E+00  0.00000000000E+00 -0.13857475200E+04  0.13857475200E+04  0.25500000920E-02 0. -1.
    10030    2    1    2    0    0  0.00000000000E+00  0.00000000000E+00 -0.13343404252E+04  0.14371546149E+04  0.53380616019E+03 0.  0.
        3    1    3    3  502    0 -0.15122607227E+03  0.12493736900E+03 -0.17988593480E+03  0.26615339720E+03  0.10100000352E+00 0.  1.
       -3    1    3    3    0  502  0.15122607227E+03 -0.12493736900E+03 -0.11544544904E+04  0.11710012177E+04  0.10100000352E+00 0. -1.
</event>
<event>
 5   0  0.3187123E-01  0.6440901E+03  0.7818609E-02  0.9817932E-01
       -2   -1    0    0    0  501  0.00000000000E+00  0.00000000000E+00  0.14716471856E+03  0.14716471858E+03  0.25500000920E-02 0. -1.
        2   -1    0    0  501    0  0.00000000000E+00  0.00000000000E+00 -0.70474100958E+03  0.70474100958E+03  0.25500000920E-02 0.  1.
    10030    2    1    2    0    0  0.00000000000E+00  0.00000000000E+00 -0.55757629102E+03  0.85190572816E+03  0.64409009413E+03 0.  0.
        5    1    3    3  502    0 -0.34684608616E+02  0.12271997991E+03 -0.66987161743E+03  0.68191882903E+03  0.46999998093E+01 0.  1.
       -5    1    3    3    0  502  0.34684608616E+02 -0.12271997991E+03  0.11229532641E+03  0.16998689913E+03  0.46999998093E+01 0. -1.
</event>
<event>
 5   0  0.1984680E-01  0.5255061E+03  0.7818609E-02  0.1007328E+00
        1   -1    0    0  501    0  0.00000000000E+00  0.00000000000E+00  0.83217465568E+03  0.83217465569E+03  0.50400001928E-02 0.  1.
       -1   -1    0    0    0  501  0.00000000000E+00  0.00000000000E+00 -0.82962362784E+02  0.82962362937E+02  0.50400001928E-02 0. -1.
    10030    2    1    2    0    0  0.00000000000E+00  0.00000000000E+00  0.74921229289E+03  0.91513701863E+03  0.52550613987E+03 0.  0.
        5    1    3    3  502    0  0.25321024932E+03  0.15014859680E+02  0.49369066465E+03  0.55506165309E+03  0.46999998093E+01 0.  1.
       -5    1    3    3    0  502 -0.25321024932E+03 -0.15014859680E+02  0.25552162824E+03  0.36007536553E+03  0.46999998093E+01 0. -1.
</event>
<event>
 5   0  0.1984297E-01  0.4917401E+03  0.7818609E-02  0.1015958E+00
        1   -1    0    0  501    0  0.00000000000E+00  0.00000000000E+00  0.16343793645E+03  0.16343793652E+03  0.50400001928E-02 0.  1.
       -1   -1    0    0    0  501  0.00000000000E+00  0.00000000000E+00 -0.36987797244E+03  0.36987797248E+03  0.50400001928E-02 0. -1.
    10030    2    1    2    0    0  0.00000000000E+00  0.00000000000E+00 -0.20644003600E+03  0.53331590900E+03  0.49174014513E+03 0.  0.
        3    1    3    3  502    0  0.18590435410E+03  0.51367964226E+02  0.62161980918E+02  0.20264061462E+03  0.10100000352E+00 0.  1.
       -3    1    3    3    0  502 -0.18590435410E+03 -0.51367964226E+02 -0.26860201692E+03  0.33067529438E+03  0.10100000352E+00 0. -1.
</event>
<event>
 5   0  0.3178149E-01  0.4929036E+03  0.7818609E-02  0.1015648E+00
        2   -1    0    0  501    0  0.00000000000E+00  0.00000000000E+00  0.13347107393E+04  0.13347107393E+04  0.25500000920E-02 0. -1.
       -2   -1    0    0    0  501  0.00000000000E+00  0.00000000000E+00 -0.45506857397E+02  0.45506857468E+02  0.25500000920E-02 0.  1.
    10030    2    1    2    0    0  0.00000000000E+00  0.00000000000E+00  0.12892038819E+04  0.13802175967E+04  0.49290360652E+03 0.  0.
        3    1    3    3  502    0 -0.61700333144E+02  0.23374067176E+02 -0.20316133261E+02  0.69036465712E+02  0.10100000352E+00 0.  1.
       -3    1    3    3    0  502  0.61700333144E+02 -0.23374067176E+02  0.13095200151E+04  0.13111811310E+04  0.10100000352E+00 0. -1.
</event>
<event>
 5   0  0.3111146E-01  0.4848882E+03  0.7818609E-02  0.1017800E+00
        2   -1    0    0  501    0  0.00000000000E+00  0.00000000000E+00  0.11514624680E+04  0.11514624680E+04  0.25500000920E-02 0.  1.
       -2   -1    0    0    0  501  0.00000000000E+00  0.00000000000E+00 -0.51047377899E+02  0.51047377962E+02  0.25500000920E-02 0. -1.
    10030    2    1    2    0    0  0.00000000000E+00  0.00000000000E+00  0.11004150901E+04  0.12025098460E+04  0.48488819240E+03 0.  0.
        1    1    3    3  502    0  0.83610554588E+02 -0.14999623581E+02 -0.12934450973E+02  0.85924464464E+02  0.50400001928E-02 0. -1.
       -1    1    3    3    0  502 -0.83610554588E+02  0.14999623581E+02  0.11133495411E+04  0.11165853815E+04  0.50400001928E-02 0.  1.
</event>
<event>
 5   0  0.3111146E-01  0.4494018E+03  0.7818609E-02  0.1027901E+00
       -2   -1    0    0    0  501  0.00000000000E+00  0.00000000000E+00  0.44034618497E+02  0.44034618571E+02  0.25500000920E-02 0.  1.
        2   -1    0    0  501    0  0.00000000000E+00  0.00000000000E+00 -0.11466092962E+04  0.11466092962E+04  0.25500000920E-02 0. -1.
    10030    2    1    2    0    0  0.00000000000E+00  0.00000000000E+00 -0.11025746777E+04  0.11906439148E+04  0.44940183786E+03 0.  0.
        1    1    3    3  502    0 -0.21418476359E+03  0.61583752640E+02 -0.62728539432E+03  0.66569860860E+03  0.50400001928E-02 0.  1.
       -1    1    3    3    0  502  0.21418476359E+03 -0.61583752640E+02 -0.47528928336E+03  0.52494530615E+03  0.50400001928E-02 0. -1.
</event>
<event>
 5   0  0.3329246E-01  0.5026729E+03  0.7818609E-02  0.1013084E+00
        2   -1    0    0  501    0  0.00000000000E+00  0.00000000000E+00  0.65729556800E+03  0.65729556800E+03  0.25500000920E-02 0.  1.
       -2   -1    0    0    0  501  0.00000000000E+00  0.00000000000E+00 -0.96105955410E+02  0.96105955444E+02  0.25500000920E-02 0. -1.
    10030    2    1    2    0    0  0.00000000000E+00  0.00000000000E+00  0.56118961259E+03  0.75340152345E+03  0.50267292970E+03 0.  0.
        2    1    3    3  502    0  0.12560960825E+03  0.17800246023E+03  0.46843681323E+03  0.51661949008E+03  0.25500000920E-02 0.  1.
       -2    1    3    3    0  502 -0.12560960825E+03 -0.17800246023E+03  0.92752799362E+02  0.23678203337E+03  0.25500000920E-02 0. -1.
</event>
<event>
 5   0  0.1967161E-01  0.4803153E+03  0.7818609E-02  0.1019049E+00
        1   -1    0    0  501    0  0.00000000000E+00  0.00000000000E+00  0.10317307960E+04  0.10317307960E+04  0.50400001928E-02 0. -1.
       -1   -1    0    0    0  501  0.00000000000E+00  0.00000000000E+00 -0.55901874611E+02  0.55901874838E+02  0.50400001928E-02 0.  1.
    10030    2    1    2    0    0  0.00000000000E+00  0.00000000000E+00  0.97582892142E+03  0.10876326709E+04  0.48031525365E+03 0.  0.
        1    1    3    3  502    0 -0.24089612662E+02  0.76463807627E+02  0.10005363335E+04  0.10037429841E+04  0.50400001928E-02 0. -1.
       -1    1    3    3    0  502  0.24089612662E+02 -0.76463807627E+02 -0.24707412114E+02  0.83889686815E+02  0.50400001928E-02 0.  1.
</event>
<event>
 5   0  0.3111146E-01  0.4943443E+03  0.7818609E-02  0.1015266E+00
        2   -1    0    0  501    0  0.00000000000E+00  0.00000000000E+00  0.12888804227E+04  0.12888804227E+04  0.25500000920E-02 0. -1.
       -2   -1    0    0    0  501  0.00000000000E+00  0.00000000000E+00 -0.47400875908E+02  0.47400875977E+02  0.25500000920E-02 0.  1.
    10030    2    1    2    0    0  0.00000000000E+00  0.00000000000E+00  0.12414795468E+04  0.13362812987E+04  0.49434425667E+03 0.  0.
        1    1    3    3  502    0 -0.15946161647E+03  0.91175688494E+02  0.17367416803E+03  0.25279187085E+03  0.50400001928E-02 0.  1.
       -1    1    3    3    0  502  0.15946161647E+03 -0.91175688494E+02  0.10678053788E+04  0.10834894278E+04  0.50400001928E-02 0. -1.
</event>
<event>
 5   0  0.3117389E-01  0.5040595E+03  0.7818609E-02  0.1012725E+00
        2   -1    0    0  501    0  0.00000000000E+00  0.00000000000E+00  0.78739418633E+03  0.78739418633E+03  0.25500000920E-02 0. -1.
       -2   -1    0    0    0  501  0.00000000000E+00  0.00000000000E+00 -0.80669869788E+02  0.80669869828E+02  0.25500000920E-02 0.  1.
    10030    2    1    2    0    0  0.00000000000E+00  0.00000000000E+00  0.70672431654E+03  0.86806405616E+03  0.50405946674E+03 0.  0.
        4    1    3    3  502    0 -0.22810918764E+03  0.84294108103E+02  0.46731144717E+03  0.52680252439E+03  0.12699999809E+01 0. -1.
       -4    1    3    3    0  502  0.22810918764E+03 -0.84294108103E+02  0.23941286937E+03  0.34126153177E+03  0.12699999809E+01 0.  1.
</event>
<event>
 5   0  0.3178149E-01  0.4982516E+03  0.7818609E-02  0.1014236E+00
       -2   -1    0    0    0  501  0.00000000000E+00  0.00000000000E+00  0.42074214428E+02  0.42074214505E+02  0.25500000920E-02 0.  1.
        2   -1    0    0  501    0  0.00000000000E+00  0.00000000000E+00 -0.14750999559E+04  0.14750999559E+04  0.25500000920E-02 0. -1.
    10030    2    1    2    0    0  0.00000000000E+00  0.00000000000E+00 -0.14330257414E+04  0.15171741704E+04  0.49825163083E+03 0.  0.
        3    1    3    3  502    0 -0.45676576161E+02 -0.22684441145E+03 -0.43546576896E+03  0.49312795779E+03  0.10100000352E+00 0. -1.
       -3    1    3    3    0  502  0.45676576161E+02  0.22684441145E+03 -0.99755997248E+03  0.10240462126E+04  0.10100000352E+00 0.  1.
</event>
<event>
 5   0  0.1984297E-01  0.4950128E+03  0.7818609E-02  0.1015089E+00
        1   -1    0    0  501    0  0.00000000000E+00  0.00000000000E+00  0.55977703679E+03  0.55977703681E+03  0.50400001928E-02 0. -1.
       -1   -1    0    0    0  501  0.00000000000E+00  0.00000000000E+00 -0.10943537491E+03  0.10943537503E+03  0.50400001928E-02 0.  1.
    10030    2    1    2    0    0  0.00000000000E+00  0.00000000000E+00  0.45034166188E+03  0.66921241184E+03  0.49501276725E+03 0.  0.
        3    1    3    3  502    0 -0.94265654521E+02  0.19679531149E+03  0.38308977138E+03  0.44087661696E+03  0.10100000352E+00 0.  1.
       -3    1    3    3    0  502  0.94265654521E+02 -0.19679531149E+03  0.67251890496E+02  0.22833579488E+03  0.10100000352E+00 0. -1.
</event>
<event>
 5   0  0.1292375E-01  0.4967455E+03  0.7818609E-02  0.1014632E+00
        4   -1    0    0  501    0  0.00000000000E+00  0.00000000000E+00  0.64106603166E+02  0.64119181759E+02  0.12699999809E+01 0.  1.
       -4   -1    0    0    0  501  0.00000000000E+00  0.00000000000E+00 -0.96218077577E+03  0.96218161392E+03  0.12699999809E+01 0. -1.
    10030    2    1    2    0    0  0.00000000000E+00  0.00000000000E+00 -0.89807417260E+03  0.10263007957E+04  0.49674551202E+03 0.  0.
        4    1    3    3  502    0 -0.61092905508E+02 -0.17342101350E+03 -0.10406112990E+03  0.21127593966E+03  0.12699999809E+01 0.  1.
       -4    1    3    3    0  502  0.61092905508E+02  0.17342101350E+03 -0.79401304271E+03  0.81502485601E+03  0.12699999809E+01 0. -1.
</event>
<event>
 5   0  0.3111146E-01  0.4756700E+03  0.7818609E-02  0.1020332E+00
       -2   -1    0    0    0  501  0.00000000000E+00  0.00000000000E+00  0.76744877405E+02  0.76744877448E+02  0.25500000920E-02 0. -1.
        2   -1    0    0  501    0  0.00000000000E+00  0.00000000000E+00 -0.73705878361E+03  0.73705878361E+03  0.25500000920E-02 0.  1.
    10030    2    1    2    0    0  0.00000000000E+00  0.00000000000E+00 -0.66031390620E+03  0.81380366106E+03  0.47566999488E+03 0.  0.
        1    1    3    3  502    0  0.45303497213E+02 -0.65333158914E+02  0.53337270803E+02  0.95737625809E+02  0.50400001928E-02 0. -1.
       -1    1    3    3    0  502 -0.45303497213E+02  0.65333158914E+02 -0.71365117700E+03  0.71806603525E+03  0.50400001928E-02 0.  1.
</event>
<event>
 5   0  0.3117389E-01  0.4928636E+03  0.7818609E-02  0.1015659E+00
       -2   -1    0    0    0  501  0.00000000000E+00  0.00000000000E+00  0.24993299523E+02  0.24993299653E+02  0.25500000920E-02 0.  1.
        2   -1    0    0  501    0  0.00000000000E+00  0.00000000000E+00 -0.24297965034E+04  0.24297965034E+04  0.25500000920E-02 0. -1.
    10030    2    1    2    0    0  0.00000000000E+00  0.00000000000E+00 -0.24048032039E+04  0.24547898030E+04  0.49286359959E+03 0.  0.
        4    1    3    3  502    0  0.13331086097E+03  0.69277835945E+02 -0.21753009948E+04  0.21804832572E+04  0.12699999809E+01 0. -1.
       -4    1    3    3    0  502 -0.13331086097E+03 -0.69277835945E+02 -0.22950220907E+03  0.27430654581E+03  0.12699999809E+01 0.  1.
</event>
<event>
 5   0  0.3178149E-01  0.5002686E+03  0.7818609E-02  0.1013709E+00
       -2   -1    0    0    0  501  0.00000000000E+00  0.00000000000E+00  0.17250975404E+03  0.17250975405E+03  0.25500000920E-02 0. -1.
        2   -1    0    0  501    0  0.00000000000E+00  0.00000000000E+00 -0.36268769494E+03  0.36268769495E+03  0.25500000920E-02 0.  1.
    10030    2    1    2    0    0  0.00000000000E+00  0.00000000000E+00 -0.19017794090E+03  0.53519744900E+03  0.50026858807E+03 0.  0.
        3    1    3    3  502    0 -0.11204022395E+03  0.18793994230E+02 -0.33349554046E+03  0.35231450681E+03  0.10100000352E+00 0.  1.
       -3    1    3    3    0  502  0.11204022395E+03 -0.18793994230E+02  0.14331759956E+03  0.18288294219E+03  0.10100000352E+00 0. -1.
</event>
<event>
 5   0  0.1967161E-01  0.4149289E+03  0.7818609E-02  0.1038730E+00
       -1   -1    0    0    0  501  0.00000000000E+00  0.00000000000E+00  0.20949975451E+03  0.20949975457E+03  0.50400001928E-02 0. -1.
        1   -1    0    0  501    0  0.00000000000E+00  0.00000000000E+00 -0.20544892625E+03  0.20544892631E+03  0.50400001928E-02 0.  1.
    10030    2    1    2    0    0  0.00000000000E+00  0.00000000000E+00  0.40508282594E+01  0.41494868088E+03  0.41492890783E+03 0.  0.
        1    1    3    3  502    0  0.35746715619E+02 -0.16227078308E+01  0.20639033044E+03  0.20946939963E+03  0.50400001928E-02 0. -1.
       -1    1    3    3    0  502 -0.35746715619E+02  0.16227078308E+01 -0.20233950218E+03  0.20547928125E+03  0.50400001928E-02 0.  1.
</event>
<event>
 5   0  0.3329246E-01  0.5194564E+03  0.7818609E-02  0.1008822E+00
        2   -1    0    0  501    0  0.00000000000E+00  0.00000000000E+00  0.68856836995E+03  0.68856836996E+03  0.25500000920E-02 0.  1.
       -2   -1    0    0    0  501  0.00000000000E+00  0.00000000000E+00 -0.97969551272E+02  0.97969551305E+02  0.25500000920E-02 0. -1.
    10030    2    1    2    0    0  0.00000000000E+00  0.00000000000E+00  0.59059881868E+03  0.78653792126E+03  0.51945638600E+03 0.  0.
        2    1    3    3  502    0  0.21980626280E+03  0.52768775540E+02  0.48896578607E+03  0.53868996351E+03  0.25500000920E-02 0.  1.
       -2    1    3    3    0  502 -0.21980626280E+03 -0.52768775540E+02  0.10163303261E+03  0.24784795775E+03  0.25500000920E-02 0. -1.
</event>
<event>
 5   0  0.2013450E-01  0.5133339E+03  0.7818609E-02  0.1010356E+00
        1   -1    0    0  501    0  0.00000000000E+00  0.00000000000E+00  0.17751721465E+03  0.17751721472E+03  0.50400001928E-02 0.  1.
       -1   -1    0    0    0  501  0.00000000000E+00  0.00000000000E+00 -0.37110718528E+03  0.37110718531E+03  0.50400001928E-02 0. -1.
    10030    2    1    2    0    0  0.00000000000E+00  0.00000000000E+00 -0.19358997063E+03  0.54862440004E+03  0.51333386367E+03 0.  0.
        4    1    3    3  502    0  0.29973088261E+02 -0.16749986873E+03  0.10856513087E+03  0.20184794422E+03  0.12699999809E+01 0.  1.
       -4    1    3    3    0  502 -0.29973088261E+02  0.16749986873E+03 -0.30215510150E+03  0.34677645581E+03  0.12699999809E+01 0. -1.
</event>
<event>
 5   0  0.2000612E-01  0.4928839E+03  0.7818609E-02  0.1015653E+00
        1   -1    0    0  501    0  0.00000000000E+00  0.00000000000E+00  0.83198363026E+03  0.83198363027E+03  0.50400001928E-02 0.  1.
       -1   -1    0    0    0  501  0.00000000000E+00  0.00000000000E+00 -0.72998607942E+02  0.72998608116E+02  0.50400001928E-02 0. -1.
    10030    2    1    2    0    0  0.00000000000E+00  0.00000000000E+00  0.75898502232E+03  0.90498223839E+03  0.49288394952E+03 0.  0.
        2    1    3    3  502    0 -0.17597017993E+03 -0.49677218669E+02  0.76117907558E+02  0.19805874415E+03  0.25500000920E-02 0. -1.
       -2    1    3    3    0  502  0.17597017993E+03  0.49677218669E+02  0.68286711476E+03  0.70692349424E+03  0.25500000920E-02 0.  1.
</event>
<event>
 5   0  0.3187123E-01  0.4955284E+03  0.7818609E-02  0.1014953E+00
       -2   -1    0    0    0  501  0.00000000000E+00  0.00000000000E+00  0.27873609675E+03  0.27873609676E+03  0.25500000920E-02 0. -1.
        2   -1    0    0  501    0  0.00000000000E+00  0.00000000000E+00 -0.22023374415E+03  0.22023374417E+03  0.25500000920E-02 0.  1.
    10030    2    1    2    0    0  0.00000000000E+00  0.00000000000E+00  0.58502352593E+02  0.49896984093E+03  0.49552838153E+03 0.  0.
        5    1    3    3  502    0  0.71129529596E+02 -0.18793119383E+03  0.17512780229E+03  0.26658841071E+03  0.46999998093E+01 0. -1.
       -5    1    3    3    0  502 -0.71129529596E+02  0.18793119383E+03 -0.11662544970E+03  0.23238143021E+03  0.46999998093E+01 0.  1.
</event>
<event>
 5   0  0.1967161E-01  0.5050452E+03  0.7818609E-02  0.1012470E+00
        1   -1    0    0  501    0  0.00000000000E+00  0.00000000000E+00  0.27179343048E+03  0.27179343053E+03  0.50400001928E-02 0. -1.
       -1   -1    0    0    0  501  0.00000000000E+00  0.00000000000E+00 -0.23461811810E+03  0.23461811815E+03  0.50400001928E-02 0.  1.
    10030    2    1    2    0    0  0.00000000000E+00  0.00000000000E+00  0.37175312384E+02  0.50641154868E+03  0.50504519875E+03 0.  0.
        1    1    3    3  502    0 -0.24659286617E+03  0.53961965264E+02  0.11660432689E+02  0.25269725178E+03  0.50400001928E-02 0.  1.
       -1    1    3    3    0  502  0.24659286617E+03 -0.53961965264E+02  0.25514879695E+02  0.25371429690E+03  0.50400001928E-02 0. -1.
</event>
<event>
 5   0  0.3117389E-01  0.5015845E+03  0.7818609E-02  0.1013366E+00
        2   -1    0    0  501    0  0.00000000000E+00  0.00000000000E+00  0.62912129160E+03  0.62912129160E+03  0.25500000920E-02 0.  1.
       -2   -1    0    0    0  501  0.00000000000E+00  0.00000000000E+00 -0.99975562205E+02  0.99975562237E+02  0.25500000920E-02 0. -1.
    10030    2    1    2    0    0  0.00000000000E+00  0.00000000000E+00  0.52914572939E+03  0.72909685384E+03  0.50158450868E+03 0.  0.
        4    1    3    3  502    0 -0.13353293295E+03  0.16643884254E+03  0.45610586189E+03  0.50355446839E+03  0.12699999809E+01 0.  1.
       -4    1    3    3    0  502  0.13353293295E+03 -0.16643884254E+03  0.73039867498E+02  0.22554238544E+03  0.12699999809E+01 0. -1.
</event>
<event>
 5   0  0.1984680E-01  0.5035854E+03  0.7818609E-02  0.1012847E+00
       -1   -1    0    0    0  501  0.00000000000E+00  0.00000000000E+00  0.51544839695E+02  0.51544839941E+02  0.50400001928E-02 0. -1.
        1   -1    0    0  501    0  0.00000000000E+00  0.00000000000E+00 -0.12299886032E+04  0.12299886032E+04  0.50400001928E-02 0.  1.
    10030    2    1    2    0    0  0.00000000000E+00  0.00000000000E+00 -0.11784437635E+04  0.12815334432E+04  0.50358540703E+03 0.  0.
        5    1    3    3  502    0  0.14508258386E+03 -0.24568970076E+02 -0.69400209148E+02  0.16276077371E+03  0.46999998093E+01 0. -1.
       -5    1    3    3    0  502 -0.14508258386E+03  0.24568970076E+02 -0.11090435544E+04  0.11187726695E+04  0.46999998093E+01 0.  1.
</event>
<event>
 5   0  0.3178149E-01  0.4743130E+03  0.7818609E-02  0.1020710E+00
       -2   -1    0    0    0  501  0.00000000000E+00  0.00000000000E+00  0.34549404386E+03  0.34549404387E+03  0.25500000920E-02 0.  1.
        2   -1    0    0  501    0  0.00000000000E+00  0.00000000000E+00 -0.16279067469E+03  0.16279067471E+03  0.25500000920E-02 0. -1.
    10030    2    1    2    0    0  0.00000000000E+00  0.00000000000E+00  0.18270336917E+03  0.50828471857E+03  0.47431301271E+03 0.  0.
        3    1    3    3  502    0 -0.15199404306E+03 -0.62726181059E+02 -0.91787506199E+02  0.18831282328E+03  0.10100000352E+00 0. -1.
       -3    1    3    3    0  502  0.15199404306E+03  0.62726181059E+02  0.27449087537E+03  0.31997189530E+03  0.10100000352E+00 0.  1.
</event>
<event>
 5   0  0.3178149E-01  0.4343918E+03  0.7818609E-02  0.1032482E+00
        2   -1    0    0  501    0  0.00000000000E+00  0.00000000000E+00  0.10592811624E+04  0.10592811624E+04  0.25500000920E-02 0.  1.
       -2   -1    0    0    0  501  0.00000000000E+00  0.00000000000E+00 -0.44534038521E+02  0.44534038594E+02  0.25500000920E-02 0. -1.
    10030    2    1    2    0    0  0.00000000000E+00  0.00000000000E+00  0.10147471239E+04  0.11038152010E+04  0.43439184215E+03 0.  0.
        3    1    3    3  502    0  0.19813555191E+03 -0.76306929600E+02  0.62364230154E+03  0.65879448609E+03  0.10100000352E+00 0. -1.
       -3    1    3    3    0  502 -0.19813555191E+03  0.76306929600E+02  0.39110482231E+03  0.44502071488E+03  0.10100000352E+00 0.  1.
</event>
<event>
 5   0  0.1984297E-01  0.4967289E+03  0.7818609E-02  0.1014636E+00
        1   -1    0    0  501    0  0.00000000000E+00  0.00000000000E+00  0.15945496189E+03  0.15945496197E+03  0.50400001928E-02 0. -1.
       -1   -1    0    0    0  501  0.00000000000E+00  0.00000000000E+00 -0.38684840600E+03  0.38684840603E+03  0.50400001928E-02 0.  1.
    10030    2    1    2    0    0  0.00000000000E+00  0.00000000000E+00 -0.22739344410E+03  0.54630336800E+03  0.49672889132E+03 0.  0.
        3    1    3    3  502    0 -0.13913635669E+03 -0.17839184491E+03 -0.22640528351E+03  0.32006552249E+03  0.10100000352E+00 0. -1.
       -3    1    3    3    0  502  0.13913635669E+03  0.17839184491E+03 -0.98816059215E+00  0.22623784551E+03  0.10100000352E+00 0.  1.
</event>
<event>
 5   0  0.3329246E-01  0.4809907E+03  0.7818609E-02  0.1018863E+00
       -2   -1    0    0    0  501  0.00000000000E+00  0.00000000000E+00  0.73320786630E+02  0.73320786675E+02  0.25500000920E-02 0.  1.
        2   -1    0    0  501    0  0.00000000000E+00  0.00000000000E+00 -0.78883503252E+03  0.78883503252E+03  0.25500000920E-02 0. -1.
    10030    2    1    2    0    0  0.00000000000E+00  0.00000000000E+00 -0.71551424589E+03  0.86215581919E+03  0.48099066572E+03 0.  0.
        2    1    3    3  502    0  0.20707862188E+03  0.11380437953E+03 -0.27749554807E+03  0.36446779233E+03  0.25500000920E-02 0.  1.
       -2    1    3    3    0  502 -0.20707862188E+03 -0.11380437953E+03 -0.43801869781E+03  0.49768802686E+03  0.25500000920E-02 0. -1.
</event>
<event>
 5   0  0.3117389E-01  0.4995110E+03  0.7818609E-02  0.1013907E+00
       -2   -1    0    0    0  501  0.00000000000E+00  0.00000000000E+00  0.39159322230E+03  0.39159322231E+03  0.25500000920E-02 0.  1.
        2   -1    0    0  501    0  0.00000000000E+00  0.00000000000E+00 -0.15929233746E+03  0.15929233748E+03  0.25500000920E-02 0. -1.
    10030    2    1    2    0    0  0.00000000000E+00  0.00000000000E+00  0.23230088485E+03  0.55088555979E+03  0.49951095972E+03 0.  0.
        4    1    3    3  502    0  0.12977857480E+03  0.21338052744E+03  0.11787979101E+03  0.27617202247E+03  0.12699999809E+01 0.  1.
       -4    1    3    3    0  502 -0.12977857480E+03 -0.21338052744E+03  0.11442109384E+03  0.27471353731E+03  0.12699999809E+01 0. -1.
</event>
<event>
 5   0  0.3117389E-01  0.5217351E+03  0.7818609E-02  0.1008256E+00
       -2   -1    0    0    0  501  0.00000000000E+00  0.00000000000E+00  0.28997849708E+03  0.28997849709E+03  0.25500000920E-02 0. -1.
        2   -1    0    0  501    0  0.00000000000E+00  0.00000000000E+00 -0.23467902798E+03  0.23467902799E+03  0.25500000920E-02 0.  1.
    10030    2    1    2    0    0  0.00000000000E+00  0.00000000000E+00  0.55299469105E+02  0.52465752508E+03  0.52173507391E+03 0.  0.
        4    1    3    3  502    0  0.21858040172E+03  0.12432462109E+03 -0.42138246160E+02  0.25497303409E+03  0.12699999809E+01 0.  1.
       -4    1    3    3    0  502 -0.21858040172E+03 -0.12432462109E+03  0.97437715265E+02  0.26968449099E+03  0.12699999809E+01 0. -1.
</event>
<event>
 5   0  0.2000612E-01  0.4916126E+03  0.7818609E-02  0.1015992E+00
       -1   -1    0    0    0  501  0.00000000000E+00  0.00000000000E+00  0.25391800081E+03  0.25391800086E+03  0.50400001928E-02 0. -1.
        1   -1    0    0  501    0  0.00000000000E+00  0.00000000000E+00 -0.23795375205E+03  0.23795375210E+03  0.50400001928E-02 0.  1.
    10030    2    1    2    0    0  0.00000000000E+00  0.00000000000E+00  0.15964248770E+02  0.49187175296E+03  0.49161261591E+03 0.  0.
        2    1    3    3  502    0  0.30471798257E+02 -0.12457939213E+03  0.21778811745E+03  0.25274536503E+03  0.25500000920E-02 0. -1.
       -2    1    3    3    0  502 -0.30471798257E+02  0.12457939213E+03 -0.20182386868E+03  0.23912638794E+03  0.25500000920E-02 0.  1.
</event>
<event>
 5   0  0.1984297E-01  0.5048808E+03  0.7818609E-02  0.1012513E+00
        1   -1    0    0  501    0  0.00000000000E+00  0.00000000000E+00  0.37850935521E+03  0.37850935524E+03  0.50400001928E-02 0. -1.
       -1   -1    0    0    0  501  0.00000000000E+00  0.00000000000E+00 -0.16836084645E+03  0.16836084652E+03  0.50400001928E-02 0.  1.
    10030    2    1    2    0    0  0.00000000000E+00  0.00000000000E+00  0.21014850876E+03  0.54687020177E+03  0.50488079964E+03 0.  0.
        3    1    3    3  502    0 -0.18268703737E+03  0.17058238235E+03  0.66728882271E+02  0.25869993568E+03  0.10100000352E+00 0.  1.
       -3    1    3    3    0  502  0.18268703737E+03 -0.17058238235E+03  0.14341962649E+03  0.28817026608E+03  0.10100000352E+00 0. -1.
</event>
<event>
 5   0  0.1967161E-01  0.4917925E+03  0.7818609E-02  0.1015944E+00
        1   -1    0    0  501    0  0.00000000000E+00  0.00000000000E+00  0.43462820982E+03  0.43462820985E+03  0.50400001928E-02 0.  1.
       -1   -1    0    0    0  501  0.00000000000E+00  0.00000000000E+00 -0.13911884665E+03  0.13911884675E+03  0.50400001928E-02 0. -1.
    10030    2    1    2    0    0  0.00000000000E+00  0.00000000000E+00  0.29550936317E+03  0.57374705660E+03  0.49179253881E+03 0.  0.
        1    1    3    3  502    0 -0.42823706570E+02 -0.21624987595E+03  0.20664858957E+02  0.22141570657E+03  0.50400001928E-02 0. -1.
       -1    1    3    3    0  502  0.42823706570E+02  0.21624987595E+03  0.27484450421E+03  0.35233135003E+03  0.50400001928E-02 0.  1.
</event>
<event>
 5   0  0.2000612E-01  0.4999747E+03  0.7818609E-02  0.1013786E+00
        1   -1    0    0  501    0  0.00000000000E+00  0.00000000000E+00  0.45723128403E+03  0.45723128405E+03  0.50400001928E-02 0. -1.
       -1   -1    0    0    0  501  0.00000000000E+00  0.00000000000E+00 -0.13667846884E+03  0.13667846893E+03  0.50400001928E-02 0.  1.
    10030    2    1    2    0    0  0.00000000000E+00  0.00000000000E+00  0.32055281519E+03  0.59390975298E+03  0.49997468672E+03 0.  0.
        2    1    3    3  502    0 -0.17818894596E+03 -0.12220708645E+03  0.30962741219E+03  0.37756457306E+03  0.25500000920E-02 0. -1.
       -2    1    3    3    0  502  0.17818894596E+03  0.12220708645E+03  0.10925402997E+02  0.21634517993E+03  0.25500000920E-02 0.  1.
</event>
<event>
 5   0  0.1967161E-01  0.5647549E+03  0.7818609E-02  0.9981353E-01
        1   -1    0    0  501    0  0.00000000000E+00  0.00000000000E+00  0.46923984852E+03  0.46923984854E+03  0.50400001928E-02 0. -1.
       -1   -1    0    0    0  501  0.00000000000E+00  0.00000000000E+00 -0.16992805405E+03  0.16992805413E+03  0.50400001928E-02 0.  1.
    10030    2    1    2    0    0  0.00000000000E+00  0.00000000000E+00  0.29931179446E+03  0.63916790267E+03  0.56475486496E+03 0.  0.
        1    1    3    3  502    0 -0.13669122229E+03 -0.14580844882E+03  0.37542013826E+03  0.42530562451E+03  0.50400001928E-02 0. -1.
       -1    1    3    3    0  502  0.13669122229E+03  0.14580844882E+03 -0.76108343798E+02  0.21386227816E+03  0.50400001928E-02 0.  1.
</event>
<event>
 5   0  0.3329246E-01  0.5122733E+03  0.7818609E-02  0.1010624E+00
        2   -1    0    0  501    0  0.00000000000E+00  0.00000000000E+00  0.11088080644E+04  0.11088080644E+04  0.25500000920E-02 0.  1.
       -2   -1    0    0    0  501  0.00000000000E+00  0.00000000000E+00 -0.59168020989E+02  0.59168021044E+02  0.25500000920E-02 0. -1.
    10030    2    1    2    0    0  0.00000000000E+00  0.00000000000E+00  0.10496400434E+04  0.11679760854E+04  0.51227328199E+03 0.  0.
        2    1    3    3  502    0 -0.22253107533E+03  0.11202838140E+03  0.38925108431E+03  0.46215456762E+03  0.25500000920E-02 0. -1.
       -2    1    3    3    0  502  0.22253107533E+03 -0.11202838140E+03  0.66038895908E+03  0.70582151781E+03  0.25500000920E-02 0.  1.
</event>
<event>
 5   0  0.2000612E-01  0.5039641E+03  0.7818609E-02  0.1012749E+00
       -1   -1    0    0    0  501  0.00000000000E+00  0.00000000000E+00  0.18995357178E+03  0.18995357184E+03  0.50400001928E-02 0. -1.
        1   -1    0    0  501    0  0.00000000000E+00  0.00000000000E+00 -0.33426564064E+03  0.33426564068E+03  0.50400001928E-02 0.  1.
    10030    2    1    2    0    0  0.00000000000E+00  0.00000000000E+00 -0.14431206886E+03  0.52421921252E+03  0.50396409551E+03 0.  0.
        2    1    3    3  502    0  0.23231203320E+03 -0.96219748510E+02 -0.55132714832E+02  0.25742326434E+03  0.25500000920E-02 0. -1.
       -2    1    3    3    0  502 -0.23231203320E+03  0.96219748510E+02 -0.89179354032E+02  0.26679594818E+03  0.25500000920E-02 0.  1.
</event>
<event>
 5   0  0.3117389E-01  0.4487222E+03  0.7818609E-02  0.1028104E+00
       -2   -1    0    0    0  501  0.00000000000E+00  0.00000000000E+00  0.53213891189E+02  0.53213891250E+02  0.25500000920E-02 0.  1.
        2   -1    0    0  501    0  0.00000000000E+00  0.00000000000E+00 -0.94595425027E+03  0.94595425027E+03  0.25500000920E-02 0. -1.
    10030    2    1    2    0    0  0.00000000000E+00  0.00000000000E+00 -0.89274035908E+03  0.99916814152E+03  0.44872221508E+03 0.  0.
        4    1    3    3  502    0  0.11536533943E+03  0.21887609149E+02 -0.87205993607E+03  0.87993089159E+03  0.12699999809E+01 0. -1.
       -4    1    3    3    0  502 -0.11536533943E+03 -0.21887609149E+02 -0.20680423011E+02  0.11923724993E+03  0.12699999809E+01 0.  1.
</event>
<event>
 5   0  0.2013450E-01  0.4881510E+03  0.7818609E-02  0.1016919E+00
        1   -1    0    0  501    0  0.00000000000E+00  0.00000000000E+00  0.64475367648E+03  0.64475367649E+03  0.50400001928E-02 0.  1.
       -1   -1    0    0    0  501  0.00000000000E+00  0.00000000000E+00 -0.92396311001E+02  0.92396311139E+02  0.50400001928E-02 0. -1.
    10030    2    1    2    0    0  0.00000000000E+00  0.00000000000E+00  0.55235736547E+03  0.73714998763E+03  0.48815104740E+03 0.  0.
        4    1    3    3  502    0  0.14886784850E+03  0.37521745439E+02 -0.10346848502E+02  0.15387718437E+03  0.12699999809E+01 0. -1.
       -4    1    3    3    0  502 -0.14886784850E+03 -0.37521745439E+02  0.56270421398E+03  0.58327280326E+03  0.12699999809E+01 0.  1.
</event>
<event>
 5   0  0.1984297E-01  0.4831656E+03  0.7818609E-02  0.1018269E+00
       -1   -1    0    0    0  501  0.00000000000E+00  0.00000000000E+00  0.86419511843E+02  0.86419511990E+02  0.50400001928E-02 0.  1.
        1   -1    0    0  501    0  0.00000000000E+00  0.00000000000E+00 -0.67533652652E+03  0.67533652654E+03  0.50400001928E-02 0. -1.
    10030    2    1    2    0    0  0.00000000000E+00  0.00000000000E+00 -0.58891701468E+03  0.76175603853E+03  0.48316561556E+03 0.  0.
        3    1    3    3  502    0  0.12062809092E+02  0.17762156424E+03 -0.36998663599E+02  0.18183465774E+03  0.10100000352E+00 0.  1.
       -3    1    3    3    0  502 -0.12062809092E+02 -0.17762156424E+03 -0.55191835108E+03  0.57992138079E+03  0.10100000352E+00 0. -1.
</event>
<event>
 5   0  0.3329246E-01  0.4927376E+03  0.7818609E-02  0.1015692E+00
       -2   -1    0    0    0  501  0.00000000000E+00  0.00000000000E+00  0.60171232349E+02  0.60171232403E+02  0.25500000920E-02 0. -1.
        2   -1    0    0  501    0  0.00000000000E+00  0.00000000000E+00 -0.10087474541E+04  0.10087474541E+04  0.25500000920E-02 0.  1.
    10030    2    1    2    0    0  0.00000000000E+00  0.00000000000E+00 -0.94857622174E+03  0.10689186865E+04  0.49273756696E+03 0.  0.
        2    1    3    3  502    0 -0.19467118382E+02  0.18473421330E+03 -0.82537315083E+03  0.84601804731E+03  0.25500000920E-02 0.  1.
       -2    1    3    3    0  502  0.19467118382E+02 -0.18473421330E+03 -0.12320307092E+03  0.22290063919E+03  0.25500000920E-02 0. -1.
</event>
<event>
 5   0  0.3111146E-01  0.5180428E+03  0.7818609E-02  0.1009174E+00
       -2   -1    0    0    0  501  0.00000000000E+00  0.00000000000E+00  0.12869592594E+03  0.12869592597E+03  0.25500000920E-02 0.  1.
        2   -1    0    0  501    0  0.00000000000E+00  0.00000000000E+00 -0.52132243162E+03  0.52132243162E+03  0.25500000920E-02 0. -1.
    10030    2    1    2    0    0  0.00000000000E+00  0.00000000000E+00 -0.39262650568E+03  0.65001835759E+03  0.51804275136E+03 0.  0.
        1    1    3    3  502    0  0.17537878648E+03  0.15976492757E+03 -0.65857489673E+02  0.24621080358E+03  0.50400001928E-02 0.  1.
       -1    1    3    3    0  502 -0.17537878648E+03 -0.15976492757E+03 -0.32676901600E+03  0.40380755401E+03  0.50400001928E-02 0. -1.
</event>
<event>
 5   0  0.3187123E-01  0.5027984E+03  0.7818609E-02  0.1013051E+00
       -2   -1    0    0    0  501  0.00000000000E+00  0.00000000000E+00  0.51851123620E+02  0.51851123683E+02  0.25500000920E-02 0.  1.
        2   -1    0    0  501    0  0.00000000000E+00  0.00000000000E+00 -0.12189045323E+04  0.12189045323E+04  0.25500000920E-02 0. -1.
    10030    2    1    2    0    0  0.00000000000E+00  0.00000000000E+00 -0.11670534086E+04  0.12707556559E+04  0.50279844719E+03 0.  0.
        5    1    3    3  502    0  0.15621277635E+03 -0.19183597111E+03 -0.47117943840E+03  0.53219885802E+03  0.46999998093E+01 0. -1.
       -5    1    3    3    0  502 -0.15621277635E+03  0.19183597111E+03 -0.69587397023E+03  0.73855679792E+03  0.46999998093E+01 0.  1.
</event>
<event>
 5   0  0.2000612E-01  0.4775717E+03  0.7818609E-02  0.1019805E+00
        1   -1    0    0  501    0  0.00000000000E+00  0.00000000000E+00  0.29567302956E+03  0.29567302960E+03  0.50400001928E-02 0.  1.
       -1   -1    0    0    0  501  0.00000000000E+00  0.00000000000E+00 -0.19284374195E+03  0.19284374201E+03  0.50400001928E-02 0. -1.
    10030    2    1    2    0    0  0.00000000000E+00  0.00000000000E+00  0.10282928761E+03  0.48851677162E+03  0.47757174724E+03 0.  0.
        2    1    3    3  502    0 -0.22128204599E+03 -0.84194375478E+02  0.19650497852E+02  0.23757226019E+03  0.25500000920E-02 0. -1.
       -2    1    3    3    0  502  0.22128204599E+03  0.84194375478E+02  0.83178789761E+02  0.25094451142E+03  0.25500000920E-02 0.  1.
</event>
<event>
 5   0  0.1967161E-01  0.4896753E+03  0.7818609E-02  0.1016509E+00
        1   -1    0    0  501    0  0.00000000000E+00  0.00000000000E+00  0.57176516794E+03  0.57176516796E+03  0.50400001928E-02 0. -1.
       -1   -1    0    0    0  501  0.00000000000E+00  0.00000000000E+00 -0.10484284277E+03  0.10484284290E+03  0.50400001928E-02 0.  1.
    10030    2    1    2    0    0  0.00000000000E+00  0.00000000000E+00  0.46692232516E+03  0.67660801086E+03  0.48967534410E+03 0.  0.
        1    1    3    3  502    0 -0.55403429272E+02  0.43379907257E+02 -0.90570212236E+02  0.11469228265E+03  0.50400001928E-02 0.  1.
       -1    1    3    3    0  502  0.55403429272E+02 -0.43379907257E+02  0.55749253740E+03  0.56191572821E+03  0.50400001928E-02 0. -1.
</event>
<event>
 5   0  0.1984297E-01  0.5048488E+03  0.7818609E-02  0.1012521E+00
       -1   -1    0    0    0  501  0.00000000000E+00  0.00000000000E+00  0.13081242890E+03  0.13081242900E+03  0.50400001928E-02 0. -1.
        1   -1    0    0  501    0  0.00000000000E+00  0.00000000000E+00 -0.48709498945E+03  0.48709498948E+03  0.50400001928E-02 0.  1.
    10030    2    1    2    0    0  0.00000000000E+00  0.00000000000E+00 -0.35628256055E+03  0.61790741848E+03  0.50484880395E+03 0.  0.
        3    1    3    3  502    0  0.78454899455E+01 -0.20081272686E+03  0.88091943874E+01  0.20115892993E+03  0.10100000352E+00 0. -1.
       -3    1    3    3    0  502 -0.78454899455E+01  0.20081272686E+03 -0.36509175494E+03  0.41674848855E+03  0.10100000352E+00 0.  1.
</event>
<event>
 5   0  0.3178149E-01  0.4263399E+03  0.7818609E-02  0.1035022E+00
       -2   -1    0    0    0  501  0.00000000000E+00  0.00000000000E+00  0.14778655139E+03  0.14778655141E+03  0.25500000920E-02 0.  1.
        2   -1    0    0  501    0  0.00000000000E+00  0.00000000000E+00 -0.30748015455E+03  0.30748015456E+03  0.25500000920E-02 0. -1.
    10030    2    1    2    0    0  0.00000000000E+00  0.00000000000E+00 -0.15969360316E+03  0.45526670597E+03  0.42633991916E+03 0.  0.
        3    1    3    3  502    0  0.29554164375E+02 -0.12392083724E+03 -0.26235717651E+03  0.29165239721E+03  0.10100000352E+00 0. -1.
       -3    1    3    3    0  502 -0.29554164375E+02  0.12392083724E+03  0.10266357335E+03  0.16361430875E+03  0.10100000352E+00 0.  1.
</event>
<event>
 5   0  0.3329246E-01  0.4999679E+03  0.7818609E-02  0.1013787E+00
       -2   -1    0    0    0  501  0.00000000000E+00  0.00000000000E+00  0.44901189405E+02  0.44901189477E+02  0.25500000920E-02 0. -1.
        2   -1    0    0  501    0  0.00000000000E+00  0.00000000000E+00 -0.13917665739E+04  0.13917665739E+04  0.25500000920E-02 0.  1.
    10030    2    1    2    0    0  0.00000000000E+00  0.00000000000E+00 -0.13468653845E+04  0.14366677634E+04  0.49996789735E+03 0.  0.
        2    1    3    3  502    0  0.13486079248E+03 -0.15912366563E+03 -0.27751001185E+03  0.34715930205E+03  0.25500000920E-02 0. -1.
       -2    1    3    3    0  502 -0.13486079248E+03  0.15912366563E+03 -0.10693553726E+04  0.10895084613E+04  0.25500000920E-02 0.  1.
</event>
<event>
 5   0  0.1292375E-01  0.4968291E+03  0.7818609E-02  0.1014610E+00
       -4   -1    0    0    0  501  0.00000000000E+00  0.00000000000E+00  0.38812644243E+03  0.38812852023E+03  0.12699999809E+01 0. -1.
        4   -1    0    0  501    0  0.00000000000E+00  0.00000000000E+00 -0.15898902576E+03  0.15899409804E+03  0.12699999809E+01 0.  1.
    10030    2    1    2    0    0  0.00000000000E+00  0.00000000000E+00  0.22913741667E+03  0.54712261827E+03  0.49682914941E+03 0.  0.
        4    1    3    3  502    0 -0.85676316858E+01  0.40461024443E+02 -0.15517098705E+03  0.16059310985E+03  0.12699999809E+01 0.  1.
       -4    1    3    3    0  502  0.85676316858E+01 -0.40461024443E+02  0.38430840372E+03  0.38652950842E+03  0.12699999809E+01 0. -1.
</event>
<event>
 5   0  0.1292375E-01  0.5002442E+03  0.7818609E-02  0.1013715E+00
       -4   -1    0    0    0  501  0.00000000000E+00  0.00000000000E+00  0.42654883434E+02  0.42673785638E+02  0.12699999809E+01 0. -1.
        4   -1    0    0  501    0  0.00000000000E+00  0.00000000000E+00 -0.14663358374E+04  0.14663363874E+04  0.12699999809E+01 0.  1.
    10030    2    1    2    0    0  0.00000000000E+00  0.00000000000E+00 -0.14236809539E+04  0.15090101730E+04  0.50024418395E+03 0.  0.
        3    1    3    3  502    0 -0.99851740541E+02 -0.12942885448E+03 -0.12829076102E+04  0.12932803814E+04  0.10100000352E+00 0.  1.
       -3    1    3    3    0  502  0.99851740541E+02  0.12942885448E+03 -0.14077334375E+03  0.21572979158E+03  0.10100000352E+00 0. -1.
</event>
<event>
 5   0  0.3111146E-01  0.4902008E+03  0.7818609E-02  0.1016369E+00
       -2   -1    0    0    0  501  0.00000000000E+00  0.00000000000E+00  0.78217138758E+02  0.78217138800E+02  0.25500000920E-02 0. -1.
        2   -1    0    0  501    0  0.00000000000E+00  0.00000000000E+00 -0.76804402424E+03  0.76804402425E+03  0.25500000920E-02 0.  1.
    10030    2    1    2    0    0  0.00000000000E+00  0.00000000000E+00 -0.68982688549E+03  0.84626116305E+03  0.49020079982E+03 0.  0.
        1    1    3    3  502    0 -0.18117251735E+03 -0.92149552188E+02 -0.58136238642E+03  0.61587112725E+03  0.50400001928E-02 0.  1.
       -1    1    3    3    0  502  0.18117251735E+03  0.92149552188E+02 -0.10846449907E+03  0.23039003580E+03  0.50400001928E-02 0. -1.
</event>
<event>
 5   0  0.1984297E-01  0.4752982E+03  0.7818609E-02  0.1020435E+00
       -1   -1    0    0    0  501  0.00000000000E+00  0.00000000000E+00  0.14638013692E+03  0.14638013700E+03  0.50400001928E-02 0. -1.
        1   -1    0    0  501    0  0.00000000000E+00  0.00000000000E+00 -0.38582480837E+03  0.38582480841E+03  0.50400001928E-02 0.  1.
    10030    2    1    2    0    0  0.00000000000E+00  0.00000000000E+00 -0.23944467146E+03  0.53220494541E+03  0.47529817297E+03 0.  0.
        3    1    3    3  502    0 -0.21216368314E+02 -0.42646354874E+02 -0.38042494832E+03  0.38339535387E+03  0.10100000352E+00 0.  1.
       -3    1    3    3    0  502  0.21216368314E+02  0.42646354874E+02  0.14098027686E+03  0.14880959154E+03  0.10100000352E+00 0. -1.
</event>
<event>
 5   0  0.3111146E-01  0.4998751E+03  0.7818609E-02  0.1013812E+00
        2   -1    0    0  501    0  0.00000000000E+00  0.00000000000E+00  0.91895804061E+03  0.91895804062E+03  0.25500000920E-02 0.  1.
       -2   -1    0    0    0  501  0.00000000000E+00  0.00000000000E+00 -0.67977840958E+02  0.67977841006E+02  0.25500000920E-02 0. -1.
    10030    2    1    2    0    0  0.00000000000E+00  0.00000000000E+00  0.85098019965E+03  0.98693588162E+03  0.49987511863E+03 0.  0.
        1    1    3    3  502    0 -0.23472636951E+03 -0.16468595428E+02  0.59186593308E+03  0.63692461559E+03  0.50400001928E-02 0.  1.
       -1    1    3    3    0  502  0.23472636951E+03  0.16468595428E+02  0.25911426658E+03  0.35001126603E+03  0.50400001928E-02 0. -1.
</event>
<event>
 5   0  0.1292375E-01  0.4906497E+03  0.7818609E-02  0.1016249E+00
        4   -1    0    0  501    0  0.00000000000E+00  0.00000000000E+00  0.74977503545E+02  0.74988258666E+02  0.12699999809E+01 0. -1.
       -4   -1    0    0    0  501  0.00000000000E+00  0.00000000000E+00 -0.80262892693E+03  0.80262993169E+03  0.12699999809E+01 0.  1.
    10030    2    1    2    0    0  0.00000000000E+00  0.00000000000E+00 -0.72765142339E+03  0.87761819036E+03  0.49064966533E+03 0.  0.
        1    1    3    3  502    0 -0.59248625217E+02  0.17636084899E+03 -0.77799635164E+02  0.20165894948E+03  0.50400001928E-02 0. -1.
       -1    1    3    3    0  502  0.59248625217E+02 -0.17636084899E+03 -0.64985178822E+03  0.67595924088E+03  0.50400001928E-02 0.  1.
</event>
<event>
 5   0  0.2000612E-01  0.5032267E+03  0.7818609E-02  0.1012940E+00
        1   -1    0    0  501    0  0.00000000000E+00  0.00000000000E+00  0.11800352857E+03  0.11800352868E+03  0.50400001928E-02 0. -1.
       -1   -1    0    0    0  501  0.00000000000E+00  0.00000000000E+00 -0.53650316767E+03  0.53650316769E+03  0.50400001928E-02 0.  1.
    10030    2    1    2    0    0  0.00000000000E+00  0.00000000000E+00 -0.41849963910E+03  0.65450669637E+03  0.50322665635E+03 0.  0.
        2    1    3    3  502    0 -0.21345547370E+03 -0.12529968044E+03 -0.26808067366E+03  0.36487052055E+03  0.25500000920E-02 0.  1.
       -2    1    3    3    0  502  0.21345547370E+03  0.12529968044E+03 -0.15041896544E+03  0.28963617582E+03  0.25500000920E-02 0. -1.
</event>
<event>
 5   0  0.3117389E-01  0.4513679E+03  0.7818609E-02  0.1027315E+00
        2   -1    0    0  501    0  0.00000000000E+00  0.00000000000E+00  0.20381097854E+03  0.20381097856E+03  0.25500000920E-02 0. -1.
       -2   -1    0    0    0  501  0.00000000000E+00  0.00000000000E+00 -0.24990436726E+03  0.24990436727E+03  0.25500000920E-02 0.  1.
    10030    2    1    2    0    0  0.00000000000E+00  0.00000000000E+00 -0.46093388715E+02  0.45371534583E+03  0.45136793700E+03 0.  0.
        4    1    3    3  502    0  0.74054532393E+02 -0.75248215207E+02  0.17745310137E+03  0.20648870125E+03  0.12699999809E+01 0. -1.
       -4    1    3    3    0  502 -0.74054532393E+02  0.75248215207E+02 -0.22354649008E+03  0.24722664457E+03  0.12699999809E+01 0.  1.
</event>
<event>
 5   0  0.3329246E-01  0.4850879E+03  0.7818609E-02  0.1017746E+00
        2   -1    0    0  501    0  0.00000000000E+00  0.00000000000E+00  0.12826721026E+04  0.12826721026E+04  0.25500000920E-02 0. -1.
       -2   -1    0    0    0  501  0.00000000000E+00  0.00000000000E+00 -0.45863298617E+02  0.45863298688E+02  0.25500000920E-02 0.  1.
    10030    2    1    2    0    0  0.00000000000E+00  0.00000000000E+00  0.12368088040E+04  0.13285354013E+04  0.48508792488E+03 0.  0.
        2    1    3    3  502    0  0.12019071058E+03  0.14445239781E+03  0.19842531340E+03  0.27328539505E+03  0.25500000920E-02 0.  1.
       -2    1    3    3    0  502 -0.12019071058E+03 -0.14445239781E+03  0.10383834906E+04  0.10552500062E+04  0.25500000920E-02 0. -1.
</event>
<event>
 5   0  0.1984680E-01  0.5042042E+03  0.7818609E-02  0.1012687E+00
       -1   -1    0    0    0  501  0.00000000000E+00  0.00000000000E+00  0.14937254881E+03  0.14937254890E+03  0.50400001928E-02 0. -1.
        1   -1    0    0  501    0  0.00000000000E+00  0.00000000000E+00 -0.42548300260E+03  0.42548300263E+03  0.50400001928E-02 0.  1.
    10030    2    1    2    0    0  0.00000000000E+00  0.00000000000E+00 -0.27611045378E+03  0.57485555153E+03  0.50420424674E+03 0.  0.
        5    1    3    3  502    0 -0.13063789973E+03  0.11004794560E+02  0.10739219393E+03  0.16953624882E+03  0.46999998093E+01 0. -1.
       -5    1    3    3    0  502  0.13063789973E+03 -0.11004794560E+02 -0.38350264771E+03  0.40531930271E+03  0.46999998093E+01 0.  1.
</event>
<event>
 5   0  0.3187123E-01  0.4955960E+03  0.7818609E-02  0.1014935E+00
       -2   -1    0    0    0  501  0.00000000000E+00  0.00000000000E+00  0.79417112761E+02  0.79417112801E+02  0.25500000920E-02 0. -1.
        2   -1    0    0  501    0  0.00000000000E+00  0.00000000000E+00 -0.77318168641E+03  0.77318168641E+03  0.25500000920E-02 0.  1.
    10030    2    1    2    0    0  0.00000000000E+00  0.00000000000E+00 -0.69376457364E+03  0.85259879921E+03  0.49559603385E+03 0.  0.
        5    1    3    3  502    0 -0.84760609332E+01 -0.12321087444E+03 -0.71637334547E+03  0.72695641086E+03  0.46999998093E+01 0.  1.
       -5    1    3    3    0  502  0.84760609332E+01  0.12321087444E+03  0.22608771827E+02  0.12564238835E+03  0.46999998093E+01 0. -1.
</event>
<event>
 5   0  0.3329246E-01  0.4828452E+03  0.7818609E-02  0.1018356E+00
        2   -1    0    0  501    0  0.00000000000E+00  0.00000000000E+00  0.81830320089E+03  0.81830320089E+03  0.25500000920E-02 0. -1.
       -2   -1    0    0    0  501  0.00000000000E+00  0.00000000000E+00 -0.71226497565E+02  0.71226497611E+02  0.25500000920E-02 0.  1.
    10030    2    1    2    0    0  0.00000000000E+00  0.00000000000E+00  0.74707670332E+03  0.88952969850E+03  0.48284519659E+03 0.  0.
        2    1    3    3  502    0 -0.15706780527E+02  0.24031805053E+03  0.34241534844E+03  0.41862601355E+03  0.25500000920E-02 0.  1.
       -2    1    3    3    0  502  0.15706780527E+02 -0.24031805053E+03  0.40466135488E+03  0.47090368496E+03  0.25500000920E-02 0. -1.
</event>
<event>
 5   0  0.1292375E-01  0.5022361E+03  0.7818609E-02  0.1013197E+00
       -4   -1    0    0    0  501  0.00000000000E+00  0.00000000000E+00  0.15443139183E+03  0.15443661380E+03  0.12699999809E+01 0.  1.
        4   -1    0    0  501    0  0.00000000000E+00  0.00000000000E+00 -0.40832539993E+03  0.40832737494E+03  0.12699999809E+01 0. -1.
    10030    2    1    2    0    0  0.00000000000E+00  0.00000000000E+00 -0.25389400810E+03  0.56276398874E+03  0.50223613935E+03 0.  0.
        2    1    3    3  502    0 -0.20583056176E+03 -0.83591432593E+02  0.42374018993E+01  0.22219744224E+03  0.25500000920E-02 0.  1.
       -2    1    3    3    0  502  0.20583056176E+03  0.83591432593E+02 -0.25813141000E+03  0.34056654650E+03  0.25500000920E-02 0. -1.
</event>
<event>
 5   0  0.1984297E-01  0.4596728E+03  0.7818609E-02  0.1024876E+00
       -1   -1    0    0    0  501  0.00000000000E+00  0.00000000000E+00  0.10621830142E+03  0.10621830154E+03  0.50400001928E-02 0.  1.
        1   -1    0    0  501    0  0.00000000000E+00  0.00000000000E+00 -0.49732268795E+03  0.49732268798E+03  0.50400001928E-02 0. -1.
    10030    2    1    2    0    0  0.00000000000E+00  0.00000000000E+00 -0.39110438653E+03  0.60354098952E+03  0.45967280197E+03 0.  0.
        3    1    3    3  502    0  0.10234792160E+03  0.10867412152E+03 -0.42500302144E+03  0.45045836675E+03  0.10100000352E+00 0. -1.
       -3    1    3    3    0  502 -0.10234792160E+03 -0.10867412152E+03  0.33898634908E+02  0.15308262277E+03  0.10100000352E+00 0.  1.
</event>
<event>
 5   0  0.3111146E-01  0.5063939E+03  0.7818609E-02  0.1012123E+00
        2   -1    0    0  501    0  0.00000000000E+00  0.00000000000E+00  0.25211573882E+03  0.25211573883E+03  0.25500000920E-02 0.  1.
       -2   -1    0    0    0  501  0.00000000000E+00  0.00000000000E+00 -0.25428276510E+03  0.25428276511E+03  0.25500000920E-02 0. -1.
    10030    2    1    2    0    0  0.00000000000E+00  0.00000000000E+00 -0.21670262793E+01  0.50639850394E+03  0.50639386725E+03 0.  0.
        1    1    3    3  502    0  0.19618328783E+03 -0.11189575387E+03  0.11337339976E+03  0.25270945760E+03  0.50400001928E-02 0.  1.
       -1    1    3    3    0  502 -0.19618328783E+03  0.11189575387E+03 -0.11554042604E+03  0.25368904634E+03  0.50400001928E-02 0. -1.
</event>
<event>
 5   0  0.1984297E-01  0.4935766E+03  0.7818609E-02  0.1015469E+00
        1   -1    0    0  501    0  0.00000000000E+00  0.00000000000E+00  0.35598008356E+03  0.35598008360E+03  0.50400001928E-02 0. -1.
       -1   -1    0    0    0  501  0.00000000000E+00  0.00000000000E+00 -0.17108953901E+03  0.17108953909E+03  0.50400001928E-02 0.  1.
    10030    2    1    2    0    0  0.00000000000E+00  0.00000000000E+00  0.18489054455E+03  0.52706962269E+03  0.49357661381E+03 0.  0.
        3    1    3    3  502    0  0.18584000480E+02 -0.81686915085E+02 -0.15544116190E+03  0.17657882711E+03  0.10100000352E+00 0.  1.
       -3    1    3    3    0  502 -0.18584000480E+02  0.81686915085E+02  0.34033170645E+03  0.35049079558E+03  0.10100000352E+00 0. -1.
</event>
<event>
 5   0  0.3329246E-01  0.5089360E+03  0.7818609E-02  0.1011472E+00
        2   -1    0    0  501    0  0.00000000000E+00  0.00000000000E+00  0.65738025391E+03  0.65738025392E+03  0.25500000920E-02 0. -1.
       -2   -1    0    0    0  501  0.00000000000E+00  0.00000000000E+00 -0.98503051013E+02  0.98503051046E+02  0.25500000920E-02 0.  1.
    10030    2    1    2    0    0  0.00000000000E+00  0.00000000000E+00  0.55887720290E+03  0.75588330496E+03  0.50893599087E+03 0.  0.
        2    1    3    3  502    0 -0.20709585462E+03 -0.39708677074E+00  0.59820859280E+02  0.21556295111E+03  0.25500000920E-02 0.  1.
       -2    1    3    3    0  502  0.20709585462E+03  0.39708677074E+00  0.49905634362E+03  0.54032035386E+03  0.25500000920E-02 0. -1.
</event>
<event>
 5   0  0.3178149E-01  0.5009062E+03  0.7818609E-02  0.1013543E+00
       -2   -1    0    0    0  501  0.00000000000E+00  0.00000000000E+00  0.12009722331E+03  0.12009722333E+03  0.25500000920E-02 0.  1.
        2   -1    0    0  501    0  0.00000000000E+00  0.00000000000E+00 -0.52229971326E+03  0.52229971327E+03  0.25500000920E-02 0. -1.
    10030    2    1    2    0    0  0.00000000000E+00  0.00000000000E+00 -0.40220248995E+03  0.64239693660E+03  0.50090616010E+03 0.  0.
        3    1    3    3  502    0 -0.23391869826E+03 -0.66042811281E+02 -0.27855141943E+03  0.36968975342E+03  0.10100000352E+00 0. -1.
       -3    1    3    3    0  502  0.23391869826E+03  0.66042811281E+02 -0.12365107052E+03  0.27270718318E+03  0.10100000352E+00 0.  1.
</event>
<event>
 5   0  0.3111146E-01  0.4975474E+03  0.7818609E-02  0.1014421E+00
       -2   -1    0    0    0  501  0.00000000000E+00  0.00000000000E+00  0.34748656110E+03  0.34748656111E+03  0.25500000920E-02 0. -1.
        2   -1    0    0  501    0  0.00000000000E+00  0.00000000000E+00 -0.17810286504E+03  0.17810286506E+03  0.25500000920E-02 0.  1.
    10030    2    1    2    0    0  0.00000000000E+00  0.00000000000E+00  0.16938369606E+03  0.52558942617E+03  0.49754739313E+03 0.  0.
        1    1    3    3  502    0 -0.19167857667E+03 -0.43288024468E+02  0.24584767796E+03  0.31473101309E+03  0.50400001928E-02 0. -1.
       -1    1    3    3    0  502  0.19167857667E+03  0.43288024468E+02 -0.76463981895E+02  0.21085841308E+03  0.50400001928E-02 0.  1.
</event>
<event>
 5   0  0.3187123E-01  0.4864024E+03  0.7818609E-02  0.1017390E+00
       -2   -1    0    0    0  501  0.00000000000E+00  0.00000000000E+00  0.48627505317E+02  0.48627505383E+02  0.25500000920E-02 0. -1.
        2   -1    0    0  501    0  0.00000000000E+00  0.00000000000E+00 -0.12163243083E+04  0.12163243083E+04  0.25500000920E-02 0.  1.
    10030    2    1    2    0    0  0.00000000000E+00  0.00000000000E+00 -0.11676968030E+04  0.12649518137E+04  0.48640237176E+03 0.  0.
        5    1    3    3  502    0  0.48043009462E+02  0.23726254968E+03 -0.52436966099E+03  0.57757015124E+03  0.46999998093E+01 0.  1.
       -5    1    3    3    0  502 -0.48043009462E+02 -0.23726254968E+03 -0.64332714200E+03  0.68738166245E+03  0.46999998093E+01 0. -1.
</event>
<event>
 5   0  0.2000612E-01  0.5119532E+03  0.7818609E-02  0.1010705E+00
       -1   -1    0    0    0  501  0.00000000000E+00  0.00000000000E+00  0.10005581931E+03  0.10005581944E+03  0.50400001928E-02 0.  1.
        1   -1    0    0  501    0  0.00000000000E+00  0.00000000000E+00 -0.65487462661E+03  0.65487462663E+03  0.50400001928E-02 0. -1.
    10030    2    1    2    0    0  0.00000000000E+00  0.00000000000E+00 -0.55481880730E+03  0.75493044607E+03  0.51195319070E+03 0.  0.
        2    1    3    3  502    0  0.91224847423E+02  0.23522230695E+03 -0.21359938634E+03  0.33056951512E+03  0.25500000920E-02 0.  1.
       -2    1    3    3    0  502 -0.91224847423E+02 -0.23522230695E+03 -0.34121942096E+03  0.42436093095E+03  0.25500000920E-02 0. -1.
</event>
<event>
 5   0  0.1984297E-01  0.5065146E+03  0.7818609E-02  0.1012092E+00
       -1   -1    0    0    0  501  0.00000000000E+00  0.00000000000E+00  0.15341974458E+03  0.15341974466E+03  0.50400001928E-02 0. -1.
        1   -1    0    0  501    0  0.00000000000E+00  0.00000000000E+00 -0.41806397949E+03  0.41806397952E+03  0.50400001928E-02 0.  1.
    10030    2    1    2    0    0  0.00000000000E+00  0.00000000000E+00 -0.26464423491E+03  0.57148372418E+03  0.50651463546E+03 0.  0.
        3    1    3    3  502    0 -0.13582480293E+03 -0.12415637419E+03 -0.32864081503E+03  0.37665365769E+03  0.10100000352E+00 0.  1.
       -3    1    3    3    0  502  0.13582480293E+03  0.12415637419E+03  0.63996580119E+02  0.19483006650E+03  0.10100000352E+00 0. -1.
</event>
<event>
 5   0  0.1292375E-01  0.4879783E+03  0.7818609E-02  0.1016965E+00
        3   -1    0    0  501    0  0.00000000000E+00  0.00000000000E+00  0.55672874675E+03  0.55672875591E+03  0.10100000352E+00 0. -1.
       -3   -1    0    0    0  501  0.00000000000E+00  0.00000000000E+00 -0.10692940776E+03  0.10692945546E+03  0.10100000352E+00 0.  1.
    10030    2    1    2    0    0  0.00000000000E+00  0.00000000000E+00  0.44979933899E+03  0.66365821137E+03  0.48797825378E+03 0.  0.
        4    1    3    3  502    0 -0.13332131180E+03  0.20216889035E+03  0.26529577764E+03  0.35920787149E+03  0.12699999809E+01 0.  1.
       -4    1    3    3    0  502  0.13332131180E+03 -0.20216889035E+03  0.18450356134E+03  0.30445033988E+03  0.12699999809E+01 0. -1.
</event>
<event>
 5   0  0.3117389E-01  0.5041211E+03  0.7818609E-02  0.1012709E+00
       -2   -1    0    0    0  501  0.00000000000E+00  0.00000000000E+00  0.16823018267E+03  0.16823018269E+03  0.25500000920E-02 0. -1.
        2   -1    0    0  501    0  0.00000000000E+00  0.00000000000E+00 -0.37766420785E+03  0.37766420786E+03  0.25500000920E-02 0.  1.
    10030    2    1    2    0    0  0.00000000000E+00  0.00000000000E+00 -0.20943402518E+03  0.54589439055E+03  0.50412109134E+03 0.  0.
        4    1    3    3  502    0  0.10808147354E+03 -0.11834550183E+03 -0.31537683241E+03  0.35376746889E+03  0.12699999809E+01 0.  1.
       -4    1    3    3    0  502 -0.10808147354E+03  0.11834550183E+03  0.10594280723E+03  0.19212692166E+03  0.12699999809E+01 0. -1.
</event>
<event>
 5   0  0.2013450E-01  0.4256933E+03  0.7818609E-02  0.1035229E+00
       -1   -1    0    0    0  501  0.00000000000E+00  0.00000000000E+00  0.92687420893E+02  0.92687421030E+02  0.50400001928E-02 0. -1.
        1   -1    0    0  501    0  0.00000000000E+00  0.00000000000E+00 -0.48877941046E+03  0.48877941049E+03  0.50400001928E-02 0.  1.
    10030    2    1    2    0    0  0.00000000000E+00  0.00000000000E+00 -0.39609198957E+03  0.58146683152E+03  0.42569333088E+03 0.  0.
        4    1    3    3  502    0 -0.17520827426E+02  0.20467147306E+03 -0.27415531406E+03  0.34257866309E+03  0.12699999809E+01 0. -1.
       -4    1    3    3    0  502  0.17520827426E+02 -0.20467147306E+03 -0.12193667551E+03  0.23888816843E+03  0.12699999809E+01 0.  1.
</event>
<event>
 5   0  0.1292375E-01  0.3917988E+03  0.7818609E-02  0.1046657E+00
        3   -1    0    0  501    0  0.00000000000E+00  0.00000000000E+00  0.20067483799E+03  0.20067486341E+03  0.10100000352E+00 0. -1.
       -3   -1    0    0    0  501  0.00000000000E+00  0.00000000000E+00 -0.19123750953E+03  0.19123753620E+03  0.10100000352E+00 0.  1.
    10030    2    1    2    0    0  0.00000000000E+00  0.00000000000E+00  0.94373284590E+01  0.39191239961E+03  0.39179875676E+03 0.  0.
        4    1    3    3  502    0  0.17694262430E+03  0.59716308485E+02  0.63898513491E+02  0.19738126233E+03  0.12699999809E+01 0. -1.
       -4    1    3    3    0  502 -0.17694262430E+03 -0.59716308485E+02 -0.54461185032E+02  0.19453113727E+03  0.12699999809E+01 0.  1.
</event>
<event>
 5   0  0.1967161E-01  0.5049044E+03  0.7818609E-02  0.1012507E+00
        1   -1    0    0  501    0  0.00000000000E+00  0.00000000000E+00  0.14453964718E+04  0.14453964718E+04  0.50400001928E-02 0.  1.
       -1   -1    0    0    0  501  0.00000000000E+00  0.00000000000E+00 -0.44093174007E+02  0.44093174295E+02  0.50400001928E-02 0. -1.
    10030    2    1    2    0    0  0.00000000000E+00  0.00000000000E+00  0.14013032978E+04  0.14894896461E+04  0.50490442010E+03 0.  0.
        1    1    3    3  502    0 -0.10577834571E+03 -0.20897420133E+03  0.42277009627E+03  0.48331545554E+03  0.50400001928E-02 0. -1.
       -1    1    3    3    0  502  0.10577834571E+03  0.20897420133E+03  0.97853320149E+03  0.10061741905E+04  0.50400001928E-02 0.  1.
</event>
<event>
 5   0  0.3111146E-01  0.5104651E+03  0.7818609E-02  0.1011083E+00
        2   -1    0    0  501    0  0.00000000000E+00  0.00000000000E+00  0.11120716067E+04  0.11120716067E+04  0.25500000920E-02 0.  1.
       -2   -1    0    0    0  501  0.00000000000E+00  0.00000000000E+00 -0.58578655692E+02  0.58578655747E+02  0.25500000920E-02 0. -1.
    10030    2    1    2    0    0  0.00000000000E+00  0.00000000000E+00  0.10534929510E+04  0.11706502625E+04  0.51046512041E+03 0.  0.
        1    1    3    3  502    0 -0.45505043799E+01 -0.18624319369E+03  0.92683667911E+03  0.94537477439E+03  0.50400001928E-02 0.  1.
       -1    1    3    3    0  502  0.45505043799E+01  0.18624319369E+03  0.12665627190E+03  0.22527548806E+03  0.50400001928E-02 0. -1.
</event>
<event>
 5   0  0.1984680E-01  0.4914095E+03  0.7818609E-02  0.1016046E+00
       -1   -1    0    0    0  501  0.00000000000E+00  0.00000000000E+00  0.90412056274E+02  0.90412056415E+02  0.50400001928E-02 0. -1.
        1   -1    0    0  501    0  0.00000000000E+00  0.00000000000E+00 -0.66772987283E+03  0.66772987285E+03  0.50400001928E-02 0.  1.
    10030    2    1    2    0    0  0.00000000000E+00  0.00000000000E+00 -0.57731781656E+03  0.75814192927E+03  0.49140952738E+03 0.  0.
        5    1    3    3  502    0  0.10982799109E+03 -0.12540614655E+03 -0.10272419888E+02  0.16708232051E+03  0.46999998093E+01 0. -1.
       -5    1    3    3    0  502 -0.10982799109E+03  0.12540614655E+03 -0.56704539667E+03  0.59105960876E+03  0.46999998093E+01 0.  1.
</event>
<event>
 5   0  0.3117389E-01  0.4959971E+03  0.7818609E-02  0.1014829E+00
       -2   -1    0    0    0  501  0.00000000000E+00  0.00000000000E+00  0.81288988157E+02  0.81288988197E+02  0.25500000920E-02 0. -1.
        2   -1    0    0  501    0  0.00000000000E+00  0.00000000000E+00 -0.75660024936E+03  0.75660024936E+03  0.25500000920E-02 0.  1.
    10030    2    1    2    0    0  0.00000000000E+00  0.00000000000E+00 -0.67531126120E+03  0.83788923756E+03  0.49599705131E+03 0.  0.
        4    1    3    3  502    0  0.12681384426E+00 -0.17168803241E+03 -0.63996466940E+03  0.66259579499E+03  0.12699999809E+01 0.  1.
       -4    1    3    3    0  502 -0.12681384426E+00  0.17168803241E+03 -0.35346591795E+02  0.17529344257E+03  0.12699999809E+01 0. -1.
</event>
<event>
 5   0  0.3111146E-01  0.5203176E+03  0.7818609E-02  0.1008608E+00
       -2   -1    0    0    0  501  0.00000000000E+00  0.00000000000E+00  0.17301033601E+03  0.17301033603E+03  0.25500000920E-02 0. -1.
        2   -1    0    0  501    0  0.00000000000E+00  0.00000000000E+00 -0.39120555160E+03  0.39120555161E+03  0.25500000920E-02 0.  1.
    10030    2    1    2    0    0  0.00000000000E+00  0.00000000000E+00 -0.21819521559E+03  0.56421588764E+03  0.52031761047E+03 0.  0.
        1    1    3    3  502    0 -0.30562438577E+02 -0.78183543969E+01 -0.38912384609E+03  0.39040050838E+03  0.50400001928E-02 0.  1.
       -1    1    3    3    0  502  0.30562438577E+02  0.78183543969E+01  0.17092863050E+03  0.17381537926E+03  0.50400001928E-02 0. -1.
</event>
<event>
 5   0  0.3178149E-01  0.5022053E+03  0.7818609E-02  0.1013205E+00
       -2   -1    0    0    0  501  0.00000000000E+00  0.00000000000E+00  0.13231925050E+03  0.13231925052E+03  0.25500000920E-02 0.  1.
        2   -1    0    0  501    0  0.00000000000E+00  0.00000000000E+00 -0.47651829860E+03  0.47651829861E+03  0.25500000920E-02 0. -1.
    10030    2    1    2    0    0  0.00000000000E+00  0.00000000000E+00 -0.34419904810E+03  0.60883754913E+03  0.50220531311E+03 0.  0.
        3    1    3    3  502    0  0.18468957072E+03 -0.17009569300E+03 -0.16831371651E+03  0.30227851342E+03  0.10100000352E+00 0. -1.
       -3    1    3    3    0  502 -0.18468957072E+03  0.17009569300E+03 -0.17588533159E+03  0.30655903571E+03  0.10100000352E+00 0.  1.
</event>
<event>
 5   0  0.3329246E-01  0.4922553E+03  0.7818609E-02  0.1015820E+00
       -2   -1    0    0    0  501  0.00000000000E+00  0.00000000000E+00  0.93842283867E+03  0.93842283868E+03  0.25500000920E-02 0. -1.
        2   -1    0    0  501    0  0.00000000000E+00  0.00000000000E+00 -0.64553852205E+02  0.64553852255E+02  0.25500000920E-02 0.  1.
    10030    2    1    2    0    0  0.00000000000E+00  0.00000000000E+00  0.87386898647E+03  0.10029766909E+04  0.49225525598E+03 0.  0.
        2    1    3    3  502    0  0.23963114544E+03  0.47884721174E+01  0.55097690472E+03  0.60085070099E+03  0.25500000920E-02 0.  1.
       -2    1    3    3    0  502 -0.23963114544E+03 -0.47884721174E+01  0.32289208175E+03  0.40212598995E+03  0.25500000920E-02 0. -1.
</event>
<event>
 5   0  0.3111146E-01  0.5110244E+03  0.7818609E-02  0.1010941E+00
       -2   -1    0    0    0  501  0.00000000000E+00  0.00000000000E+00  0.88824548803E+02  0.88824548840E+02  0.25500000920E-02 0. -1.
        2   -1    0    0  501    0  0.00000000000E+00  0.00000000000E+00 -0.73500483286E+03  0.73500483286E+03  0.25500000920E-02 0.  1.
    10030    2    1    2    0    0  0.00000000000E+00  0.00000000000E+00 -0.64618028405E+03  0.82382938170E+03  0.51102435427E+03 0.  0.
        1    1    3    3  502    0 -0.24442045474E+02 -0.25285047376E+03 -0.27877322714E+03  0.37715419640E+03  0.50400001928E-02 0.  1.
       -1    1    3    3    0  502  0.24442045474E+02  0.25285047376E+03 -0.36740705692E+03  0.44667518530E+03  0.50400001928E-02 0. -1.
</event>
<event>
 5   0  0.3187123E-01  0.4946944E+03  0.7818609E-02  0.1015173E+00
        2   -1    0    0  501    0  0.00000000000E+00  0.00000000000E+00  0.66014666253E+03  0.66014666254E+03  0.25500000920E-02 0.  1.
       -2   -1    0    0    0  501  0.00000000000E+00  0.00000000000E+00 -0.92677353083E+02  0.92677353118E+02  0.25500000920E-02 0. -1.
    10030    2    1    2    0    0  0.00000000000E+00  0.00000000000E+00  0.56746930945E+03  0.75282401566E+03  0.49469443233E+03 0.  0.
        5    1    3    3  502    0 -0.39801565337E+02  0.24406064149E+03  0.27922181250E+03  0.37301028391E+03  0.46999998093E+01 0. -1.
       -5    1    3    3    0  502  0.39801565337E+02 -0.24406064149E+03  0.28824749695E+03  0.37981373175E+03  0.46999998093E+01 0.  1.
</event>
<event>
 5   0  0.1292375E-01  0.4672561E+03  0.7818609E-02  0.1022698E+00
       -3   -1    0    0    0  501  0.00000000000E+00  0.00000000000E+00  0.44027636540E+03  0.44027637699E+03  0.10100000352E+00 0.  1.
        3   -1    0    0  501    0  0.00000000000E+00  0.00000000000E+00 -0.12397227435E+03  0.12397231549E+03  0.10100000352E+00 0. -1.
    10030    2    1    2    0    0  0.00000000000E+00  0.00000000000E+00  0.31630409105E+03  0.56424869248E+03  0.46725614918E+03 0.  0.
        3    1    3    3  502    0 -0.14189645960E+03 -0.10563837415E+03  0.34243348329E+03  0.38542803741E+03  0.10100000352E+00 0.  1.
       -3    1    3    3    0  502  0.14189645960E+03  0.10563837415E+03 -0.26129392243E+02  0.17882065507E+03  0.10100000352E+00 0. -1.
</event>
<event>
 5   0  0.3329246E-01  0.5015794E+03  0.7818609E-02  0.1013367E+00
       -2   -1    0    0    0  501  0.00000000000E+00  0.00000000000E+00  0.69338567377E+02  0.69338567424E+02  0.25500000920E-02 0.  1.
        2   -1    0    0  501    0  0.00000000000E+00  0.00000000000E+00 -0.90707781774E+03  0.90707781774E+03  0.25500000920E-02 0. -1.
    10030    2    1    2    0    0  0.00000000000E+00  0.00000000000E+00 -0.83773925036E+03  0.97641638516E+03  0.50157941108E+03 0.  0.
        2    1    3    3  502    0 -0.87690021543E+02 -0.21531183313E+03 -0.23577008223E+03  0.33111366182E+03  0.25500000920E-02 0. -1.
       -2    1    3    3    0  502  0.87690021543E+02  0.21531183313E+03 -0.60196916813E+03  0.64530272334E+03  0.25500000920E-02 0.  1.
</event>
<event>
 5   0  0.1984297E-01  0.4825237E+03  0.7818609E-02  0.1018444E+00
        1   -1    0    0  501    0  0.00000000000E+00  0.00000000000E+00  0.65102394067E+03  0.65102394069E+03  0.50400001928E-02 0. -1.
       -1   -1    0    0    0  501  0.00000000000E+00  0.00000000000E+00 -0.89408824886E+02  0.89408825028E+02  0.50400001928E-02 0.  1.
    10030    2    1    2    0    0  0.00000000000E+00  0.00000000000E+00  0.56161511579E+03  0.74043276572E+03  0.48252372198E+03 0.  0.
        3    1    3    3  502    0  0.23851512165E+03 -0.12219548576E+02  0.22835334903E+03  0.33043008767E+03  0.10100000352E+00 0.  1.
       -3    1    3    3    0  502 -0.23851512165E+03  0.12219548576E+02  0.33326176676E+03  0.41000267805E+03  0.10100000352E+00 0. -1.
</event>
<event>
 5   0  0.1967161E-01  0.5106390E+03  0.7818609E-02  0.1011039E+00
       -1   -1    0    0    0  501  0.00000000000E+00  0.00000000000E+00  0.12576797164E+03  0.12576797175E+03  0.50400001928E-02 0. -1.
        1   -1    0    0  501    0  0.00000000000E+00  0.00000000000E+00 -0.51831987063E+03  0.51831987065E+03  0.50400001928E-02 0.  1.
    10030    2    1    2    0    0  0.00000000000E+00  0.00000000000E+00 -0.39255189898E+03  0.64408784240E+03  0.51063896769E+03 0.  0.
        1    1    3    3  502    0  0.82733063202E+02 -0.20518296002E+03 -0.35703201618E+03  0.42001984171E+03  0.50400001928E-02 0.  1.
       -1    1    3    3    0  502 -0.82733063202E+02  0.20518296002E+03 -0.35519882799E+02  0.22406800068E+03  0.50400001928E-02 0. -1.
</event>
<event>
 5   0  0.3117389E-01  0.5055086E+03  0.7818609E-02  0.1012351E+00
       -2   -1    0    0    0  501  0.00000000000E+00  0.00000000000E+00  0.14180808601E+03  0.14180808604E+03  0.25500000920E-02 0.  1.
        2   -1    0    0  501    0  0.00000000000E+00  0.00000000000E+00 -0.45050133908E+03  0.45050133909E+03  0.25500000920E-02 0. -1.
    10030    2    1    2    0    0  0.00000000000E+00  0.00000000000E+00 -0.30869325307E+03  0.59230942513E+03  0.50550858608E+03 0.  0.
        4    1    3    3  502    0 -0.18775694946E+03  0.53600239222E+02  0.33702638818E+02  0.19814928331E+03  0.12699999809E+01 0.  1.
       -4    1    3    3    0  502  0.18775694946E+03 -0.53600239222E+02 -0.34239589189E+03  0.39416014182E+03  0.12699999809E+01 0. -1.
</event>
<event>
 5   0  0.3187123E-01  0.4861968E+03  0.7818609E-02  0.1017446E+00
       -2   -1    0    0    0  501  0.00000000000E+00  0.00000000000E+00  0.60303934799E+02  0.60303934853E+02  0.25500000920E-02 0.  1.
        2   -1    0    0  501    0  0.00000000000E+00  0.00000000000E+00 -0.97998301917E+03  0.97998301917E+03  0.25500000920E-02 0. -1.
    10030    2    1    2    0    0  0.00000000000E+00  0.00000000000E+00 -0.91967908437E+03  0.10402869540E+04  0.48619680016E+03 0.  0.
        5    1    3    3  502    0  0.75947451174E+02 -0.10802031482E+03 -0.89644358311E+03  0.90612890443E+03  0.46999998093E+01 0. -1.
       -5    1    3    3    0  502 -0.75947451174E+02  0.10802031482E+03 -0.23235501260E+02  0.13415804959E+03  0.46999998093E+01 0.  1.
</event>
<event>
 5   0  0.3187123E-01  0.4978914E+03  0.7818609E-02  0.1014331E+00
       -2   -1    0    0    0  501  0.00000000000E+00  0.00000000000E+00  0.25848960455E+03  0.25848960456E+03  0.25500000920E-02 0.  1.
        2   -1    0    0  501    0  0.00000000000E+00  0.00000000000E+00 -0.23975421461E+03  0.23975421462E+03  0.25500000920E-02 0. -1.
    10030    2    1    2    0    0  0.00000000000E+00  0.00000000000E+00  0.18735389939E+02  0.49824381919E+03  0.49789144251E+03 0.  0.
        5    1    3    3  502    0  0.12589534893E+03 -0.19727033865E+03 -0.75466454279E+02  0.24593190340E+03  0.46999998093E+01 0. -1.
       -5    1    3    3    0  502 -0.12589534893E+03  0.19727033865E+03  0.94201844218E+02  0.25231191578E+03  0.46999998093E+01 0.  1.
</event>
<event>
 5   0  0.2000612E-01  0.4997509E+03  0.7818609E-02  0.1013844E+00
        1   -1    0    0  501    0  0.00000000000E+00  0.00000000000E+00  0.24666129750E+03  0.24666129755E+03  0.50400001928E-02 0. -1.
       -1   -1    0    0    0  501  0.00000000000E+00  0.00000000000E+00 -0.25313143562E+03  0.25313143567E+03  0.50400001928E-02 0.  1.
    10030    2    1    2    0    0  0.00000000000E+00  0.00000000000E+00 -0.64701381161E+01  0.49979273322E+03  0.49975085142E+03 0.  0.
        2    1    3    3  502    0 -0.14338183081E+03 -0.96374550728E+02 -0.18378087437E+03  0.25223364809E+03  0.25500000920E-02 0.  1.
       -2    1    3    3    0  502  0.14338183081E+03  0.96374550728E+02  0.17731073626E+03  0.24755908514E+03  0.25500000920E-02 0. -1.
</event>
<event>
 5   0  0.1984680E-01  0.5046083E+03  0.7818609E-02  0.1012583E+00
        1   -1    0    0  501    0  0.00000000000E+00  0.00000000000E+00  0.39028767105E+03  0.39028767108E+03  0.50400001928E-02 0.  1.
       -1   -1    0    0    0  501  0.00000000000E+00  0.00000000000E+00 -0.16310373970E+03  0.16310373978E+03  0.50400001928E-02 0. -1.
    10030    2    1    2    0    0  0.00000000000E+00  0.00000000000E+00  0.22718393135E+03  0.55339141086E+03  0.50460827872E+03 0.  0.
        5    1    3    3  502    0 -0.15962276199E+02  0.15834029918E+03  0.32824032194E+03  0.36481535543E+03  0.46999998093E+01 0.  1.
       -5    1    3    3    0  502  0.15962276199E+02 -0.15834029918E+03 -0.10105639059E+03  0.18857605544E+03  0.46999998093E+01 0. -1.
</event>
<event>
 5   0  0.3111146E-01  0.5100667E+03  0.7818609E-02  0.1011184E+00
       -2   -1    0    0    0  501  0.00000000000E+00  0.00000000000E+00  0.70198113004E+02  0.70198113051E+02  0.25500000920E-02 0.  1.
        2   -1    0    0  501    0  0.00000000000E+00  0.00000000000E+00 -0.92654912313E+03  0.92654912313E+03  0.25500000920E-02 0. -1.
    10030    2    1    2    0    0  0.00000000000E+00  0.00000000000E+00 -0.85635101012E+03  0.99674723618E+03  0.51006666260E+03 0.  0.
        1    1    3    3  502    0 -0.18309241825E+03 -0.16841172485E+03 -0.53796778976E+03  0.59270117726E+03  0.50400001928E-02 0. -1.
       -1    1    3    3    0  502  0.18309241825E+03  0.16841172485E+03 -0.31838322037E+03  0.40404605892E+03  0.50400001928E-02 0.  1.
</event>
<event>
 5   0  0.3117389E-01  0.4986504E+03  0.7818609E-02  0.1014132E+00
        2   -1    0    0  501    0  0.00000000000E+00  0.00000000000E+00  0.12504857675E+03  0.12504857678E+03  0.25500000920E-02 0.  1.
       -2   -1    0    0    0  501  0.00000000000E+00  0.00000000000E+00 -0.49711117075E+03  0.49711117076E+03  0.25500000920E-02 0. -1.
    10030    2    1    2    0    0  0.00000000000E+00  0.00000000000E+00 -0.37206259401E+03  0.62215974754E+03  0.49865035606E+03 0.  0.
        4    1    3    3  502    0  0.13071967503E+03 -0.18969072603E+03 -0.30499569621E+03  0.38222270025E+03  0.12699999809E+01 0. -1.
       -4    1    3    3    0  502 -0.13071967503E+03  0.18969072603E+03 -0.67066897795E+02  0.23993704729E+03  0.12699999809E+01 0.  1.
</event>
<event>
 5   0  0.3117389E-01  0.5973194E+03  0.7818609E-02  0.9910983E-01
       -2   -1    0    0    0  501  0.00000000000E+00  0.00000000000E+00  0.56886495679E+03  0.56886495680E+03  0.25500000920E-02 0. -1.
        2   -1    0    0  501    0  0.00000000000E+00  0.00000000000E+00 -0.15679926471E+03  0.15679926473E+03  0.25500000920E-02 0.  1.
    10030    2    1    2    0    0  0.00000000000E+00  0.00000000000E+00  0.41206569208E+03  0.72566422153E+03  0.59731936837E+03 0.  0.
        4    1    3    3  502    0 -0.19217522011E+03 -0.15121630496E+03  0.41433333105E+03  0.48111475578E+03  0.12699999809E+01 0. -1.
       -4    1    3    3    0  502  0.19217522011E+03  0.15121630496E+03 -0.22676389713E+01  0.24454946575E+03  0.12699999809E+01 0.  1.
</event>
<event>
 5   0  0.3329246E-01  0.4863730E+03  0.7818609E-02  0.1017398E+00
        2   -1    0    0  501    0  0.00000000000E+00  0.00000000000E+00  0.99414198286E+03  0.99414198287E+03  0.25500000920E-02 0. -1.
       -2   -1    0    0    0  501  0.00000000000E+00  0.00000000000E+00 -0.59488151638E+02  0.59488151692E+02  0.25500000920E-02 0.  1.
    10030    2    1    2    0    0  0.00000000000E+00  0.00000000000E+00  0.93465383122E+03  0.10536301346E+04  0.48637298057E+03 0.  0.
        2    1    3    3  502    0 -0.24284281401E+03  0.84658639470E+01  0.44617180726E+03  0.50804880156E+03  0.25500000920E-02 0. -1.
       -2    1    3    3    0  502  0.24284281401E+03 -0.84658639470E+01  0.48848202396E+03  0.54558133299E+03  0.25500000920E-02 0.  1.
</event>
<event>
 5   0  0.1292375E-01  0.5052411E+03  0.7818609E-02  0.1012420E+00
        4   -1    0    0  501    0  0.00000000000E+00  0.00000000000E+00  0.31273880884E+03  0.31274138750E+03  0.12699999809E+01 0. -1.
       -4   -1    0    0    0  501  0.00000000000E+00  0.00000000000E+00 -0.20405348890E+03  0.20405744101E+03  0.12699999809E+01 0.  1.
    10030    2    1    2    0    0  0.00000000000E+00  0.00000000000E+00  0.10868531995E+03  0.51679882851E+03  0.50524106165E+03 0.  0.
        4    1    3    3  502    0  0.48026994915E+02  0.45338923424E+02  0.30375095806E+03  0.31085119855E+03  0.12699999809E+01 0. -1.
       -4    1    3    3    0  502 -0.48026994915E+02 -0.45338923424E+02 -0.19506563811E+03  0.20594762997E+03  0.12699999809E+01 0.  1.
</event>
<event>
 5   0  0.1967161E-01  0.4978675E+03  0.7818609E-02  0.1014337E+00
        1   -1    0    0  501    0  0.00000000000E+00  0.00000000000E+00  0.48496639870E+03  0.48496639873E+03  0.50400001928E-02 0.  1.
       -1   -1    0    0    0  501  0.00000000000E+00  0.00000000000E+00 -0.12777797222E+03  0.12777797232E+03  0.50400001928E-02 0. -1.
    10030    2    1    2    0    0  0.00000000000E+00  0.00000000000E+00  0.35718842649E+03  0.61274437105E+03  0.49786754487E+03 0.  0.
        1    1    3    3  502    0 -0.31619346133E+02 -0.23327300365E+03  0.27821515902E+03  0.36444444297E+03  0.50400001928E-02 0.  1.
       -1    1    3    3    0  502  0.31619346133E+02  0.23327300365E+03  0.78973267467E+02  0.24829992807E+03  0.50400001928E-02 0. -1.
</event>
<event>
 5   0  0.3187123E-01  0.5248103E+03  0.7818609E-02  0.1007499E+00
        2   -1    0    0  501    0  0.00000000000E+00  0.00000000000E+00  0.10333105895E+04  0.10333105895E+04  0.25500000920E-02 0.  1.
       -2   -1    0    0    0  501  0.00000000000E+00  0.00000000000E+00 -0.66636755765E+02  0.66636755813E+02  0.25500000920E-02 0. -1.
    10030    2    1    2    0    0  0.00000000000E+00  0.00000000000E+00  0.96667383377E+03  0.10999473453E+04  0.52481031016E+03 0.  0.
        5    1    3    3  502    0  0.14878951057E+03 -0.18206990488E+03  0.23939591762E+03  0.33558942786E+03  0.46999998093E+01 0. -1.
       -5    1    3    3    0  502 -0.14878951057E+03  0.18206990488E+03  0.72727791615E+03  0.76435791749E+03  0.46999998093E+01 0.  1.
</event>
<event>
 5   0  0.3111146E-01  0.5067322E+03  0.7818609E-02  0.1012037E+00
       -2   -1    0    0    0  501  0.00000000000E+00  0.00000000000E+00  0.16457666982E+03  0.16457666984E+03  0.25500000920E-02 0.  1.
        2   -1    0    0  501    0  0.00000000000E+00  0.00000000000E+00 -0.39005759884E+03  0.39005759885E+03  0.25500000920E-02 0. -1.
    10030    2    1    2    0    0  0.00000000000E+00  0.00000000000E+00 -0.22548092903E+03  0.55463426869E+03  0.50673220013E+03 0.  0.
        1    1    3    3  502    0 -0.13546970856E+03  0.20641587306E+03 -0.50488413761E+02  0.25200919535E+03  0.50400001928E-02 0. -1.
       -1    1    3    3    0  502  0.13546970856E+03 -0.20641587306E+03 -0.17499251527E+03  0.30262507334E+03  0.50400001928E-02 0.  1.
</event>
<event>
 5   0  0.2013450E-01  0.4985498E+03  0.7818609E-02  0.1014158E+00
        1   -1    0    0  501    0  0.00000000000E+00  0.00000000000E+00  0.67832354829E+03  0.67832354831E+03  0.50400001928E-02 0. -1.
       -1   -1    0    0    0  501  0.00000000000E+00  0.00000000000E+00 -0.91605205673E+02  0.91605205812E+02  0.50400001928E-02 0.  1.
    10030    2    1    2    0    0  0.00000000000E+00  0.00000000000E+00  0.58671834261E+03  0.76992875412E+03  0.49854976969E+03 0.  0.
        4    1    3    3  502    0 -0.10138555851E+03  0.18702406512E+03  0.92718242293E+02  0.23206748536E+03  0.12699999809E+01 0.  1.
       -4    1    3    3    0  502  0.10138555851E+03 -0.18702406512E+03  0.49400010032E+03  0.53786126875E+03  0.12699999809E+01 0. -1.
</event>
<event>
 5   0  0.1984297E-01  0.4802587E+03  0.7818609E-02  0.1019064E+00
       -1   -1    0    0    0  501  0.00000000000E+00  0.00000000000E+00  0.31050234311E+03  0.31050234315E+03  0.50400001928E-02 0.  1.
        1   -1    0    0  501    0  0.00000000000E+00  0.00000000000E+00 -0.18570584697E+03  0.18570584704E+03  0.50400001928E-02 0. -1.
    10030    2    1    2    0    0  0.00000000000E+00  0.00000000000E+00  0.12479649613E+03  0.49620819019E+03  0.48025868297E+03 0.  0.
        3    1    3    3  502    0  0.23277516241E+03 -0.86279835130E+01  0.21223874261E+01  0.23294469959E+03  0.10100000352E+00 0. -1.
       -3    1    3    3    0  502 -0.23277516241E+03  0.86279835130E+01  0.12267410871E+03  0.26326349060E+03  0.10100000352E+00 0.  1.
</event>
<event>
 5   0  0.3187123E-01  0.4826300E+03  0.7818609E-02  0.1018415E+00
        2   -1    0    0  501    0  0.00000000000E+00  0.00000000000E+00  0.95631335899E+03  0.95631335900E+03  0.25500000920E-02 0.  1.
       -2   -1    0    0    0  501  0.00000000000E+00  0.00000000000E+00 -0.60893151580E+02  0.60893151634E+02  0.25500000920E-02 0. -1.
    10030    2    1    2    0    0  0.00000000000E+00  0.00000000000E+00  0.89542020741E+03  0.10172065106E+04  0.48263002126E+03 0.  0.
        5    1    3    3  502    0 -0.17357435036E+02  0.15663901130E+03  0.83274272254E+03  0.84753736929E+03  0.46999998093E+01 0.  1.
       -5    1    3    3    0  502  0.17357435036E+02 -0.15663901130E+03  0.62677484875E+02  0.16966914134E+03  0.46999998093E+01 0. -1.
</event>
<event>
 5   0  0.3187123E-01  0.4998563E+03  0.7818609E-02  0.1013816E+00
       -2   -1    0    0    0  501  0.00000000000E+00  0.00000000000E+00  0.15160620118E+03  0.15160620120E+03  0.25500000920E-02 0.  1.
        2   -1    0    0  501    0  0.00000000000E+00  0.00000000000E+00 -0.41201534654E+03  0.41201534655E+03  0.25500000920E-02 0. -1.
    10030    2    1    2    0    0  0.00000000000E+00  0.00000000000E+00 -0.26040914536E+03  0.56362154774E+03  0.49985630544E+03 0.  0.
        5    1    3    3  502    0 -0.87355368772E+02  0.22801584923E+03 -0.19008044331E+03  0.30947512482E+03  0.46999998093E+01 0. -1.
       -5    1    3    3    0  502  0.87355368772E+02 -0.22801584923E+03 -0.70328702050E+02  0.25414642292E+03  0.46999998093E+01 0.  1.
</event>
<event>
 5   0  0.3329246E-01  0.5349696E+03  0.7818609E-02  0.1005034E+00
        2   -1    0    0  501    0  0.00000000000E+00  0.00000000000E+00  0.45198918954E+03  0.45198918955E+03  0.25500000920E-02 0. -1.
       -2   -1    0    0    0  501  0.00000000000E+00  0.00000000000E+00 -0.15829609535E+03  0.15829609537E+03  0.25500000920E-02 0.  1.
    10030    2    1    2    0    0  0.00000000000E+00  0.00000000000E+00  0.29369309419E+03  0.61028528492E+03  0.53496962102E+03 0.  0.
        2    1    3    3  502    0  0.60954253362E+02 -0.21983135498E+03  0.30617658666E+03  0.38181847502E+03  0.25500000920E-02 0. -1.
       -2    1    3    3    0  502 -0.60954253362E+02  0.21983135498E+03 -0.12483492477E+02  0.22846680990E+03  0.25500000920E-02 0.  1.
</event>
<event>
 5   0  0.3117389E-01  0.5115532E+03  0.7818609E-02  0.1010807E+00
       -2   -1    0    0    0  501  0.00000000000E+00  0.00000000000E+00  0.84509480097E+02  0.84509480136E+02  0.25500000920E-02 0. -1.
        2   -1    0    0  501    0  0.00000000000E+00  0.00000000000E+00 -0.77413401739E+03  0.77413401739E+03  0.25500000920E-02 0.  1.
    10030    2    1    2    0    0  0.00000000000E+00  0.00000000000E+00 -0.68962453729E+03  0.85864349753E+03  0.51155317750E+03 0.  0.
        4    1    3    3  502    0 -0.11333794143E+03 -0.11524898538E+03 -0.67752962245E+03  0.69654563368E+03  0.12699999809E+01 0.  1.
       -4    1    3    3    0  502  0.11333794143E+03  0.11524898538E+03 -0.12094914838E+02  0.16209786385E+03  0.12699999809E+01 0. -1.
</event>
<event>
 5   0  0.1967161E-01  0.5041612E+03  0.7818609E-02  0.1012698E+00
       -1   -1    0    0    0  501  0.00000000000E+00  0.00000000000E+00  0.88699328247E+02  0.88699328390E+02  0.50400001928E-02 0.  1.
        1   -1    0    0  501    0  0.00000000000E+00  0.00000000000E+00 -0.71640488833E+03  0.71640488835E+03  0.50400001928E-02 0. -1.
    10030    2    1    2    0    0  0.00000000000E+00  0.00000000000E+00 -0.62770556009E+03  0.80510421674E+03  0.50416121395E+03 0.  0.
        1    1    3    3  502    0 -0.12787614811E+03  0.11796088644E+03 -0.60516476854E+03  0.62967569200E+03  0.50400001928E-02 0. -1.
       -1    1    3    3    0  502  0.12787614811E+03 -0.11796088644E+03 -0.22540791548E+02  0.17542852475E+03  0.50400001928E-02 0.  1.
</event>
<event>
 5   0  0.1967161E-01  0.4610047E+03  0.7818609E-02  0.1024490E+00
       -1   -1    0    0    0  501  0.00000000000E+00  0.00000000000E+00  0.18860669804E+03  0.18860669811E+03  0.50400001928E-02 0. -1.
        1   -1    0    0  501    0  0.00000000000E+00  0.00000000000E+00 -0.28170437575E+03  0.28170437580E+03  0.50400001928E-02 0.  1.
    10030    2    1    2    0    0  0.00000000000E+00  0.00000000000E+00 -0.93097677714E+02  0.47031107391E+03  0.46100469482E+03 0.  0.
        1    1    3    3  502    0 -0.76288876479E+02  0.72104495421E+02  0.16280659632E+03  0.19371380634E+03  0.50400001928E-02 0. -1.
       -1    1    3    3    0  502  0.76288876479E+02 -0.72104495421E+02 -0.25590427403E+03  0.27659726757E+03  0.50400001928E-02 0.  1.
</event>
<event>
 5   0  0.1984297E-01  0.5115926E+03  0.7818609E-02  0.1010797E+00
       -1   -1    0    0    0  501  0.00000000000E+00  0.00000000000E+00  0.92000780374E+02  0.92000780512E+02  0.50400001928E-02 0. -1.
        1   -1    0    0  501    0  0.00000000000E+00  0.00000000000E+00 -0.71120860438E+03  0.71120860440E+03  0.50400001928E-02 0.  1.
    10030    2    1    2    0    0  0.00000000000E+00  0.00000000000E+00 -0.61920782401E+03  0.80320938491E+03  0.51159259836E+03 0.  0.
        3    1    3    3  502    0 -0.24900324970E+02  0.19009695144E+03 -0.43742583972E+02  0.19664765695E+03  0.10100000352E+00 0. -1.
       -3    1    3    3    0  502  0.24900324970E+02 -0.19009695144E+03 -0.57546524003E+03  0.60656172796E+03  0.10100000352E+00 0.  1.
</event>
<event>
 5   0  0.3111146E-01  0.4352219E+03  0.7818609E-02  0.1032223E+00
        2   -1    0    0  501    0  0.00000000000E+00  0.00000000000E+00  0.86464198518E+03  0.86464198518E+03  0.25500000920E-02 0. -1.
       -2   -1    0    0    0  501  0.00000000000E+00  0.00000000000E+00 -0.54767784686E+02  0.54767784746E+02  0.25500000920E-02 0.  1.
    10030    2    1    2    0    0  0.00000000000E+00  0.00000000000E+00  0.80987420049E+03  0.91940976993E+03  0.43522190250E+03 0.  0.
        1    1    3    3  502    0  0.93114045693E+02 -0.99816763617E+01 -0.10022434378E+02  0.94182315668E+02  0.50400001928E-02 0.  1.
       -1    1    3    3    0  502 -0.93114045693E+02  0.99816763617E+01  0.81989663487E+03  0.82522745426E+03  0.50400001928E-02 0. -1.
</event>
<event>
 5   0  0.1292375E-01  0.5029349E+03  0.7818609E-02  0.1013016E+00
       -3   -1    0    0    0  501  0.00000000000E+00  0.00000000000E+00  0.16532242430E+03  0.16532245515E+03  0.10100000352E+00 0.  1.
        3   -1    0    0  501    0  0.00000000000E+00  0.00000000000E+00 -0.38250020223E+03  0.38250021557E+03  0.10100000352E+00 0. -1.
    10030    2    1    2    0    0  0.00000000000E+00  0.00000000000E+00 -0.21717777794E+03  0.54782267072E+03  0.50293487781E+03 0.  0.
        2    1    3    3  502    0 -0.23509987206E+03  0.46611558784E+02 -0.25696293757E+02  0.24104955253E+03  0.25500000920E-02 0.  1.
       -2    1    3    3    0  502  0.23509987206E+03 -0.46611558784E+02 -0.19148148418E+03  0.30677311819E+03  0.25500000920E-02 0. -1.
</event>
<event>
 5   0  0.3117389E-01  0.4948739E+03  0.7818609E-02  0.1015126E+00
       -2   -1    0    0    0  501  0.00000000000E+00  0.00000000000E+00  0.56981899370E+02  0.56981899427E+02  0.25500000920E-02 0. -1.
        2   -1    0    0  501    0  0.00000000000E+00  0.00000000000E+00 -0.10744649504E+04  0.10744649504E+04  0.25500000920E-02 0.  1.
    10030    2    1    2    0    0  0.00000000000E+00  0.00000000000E+00 -0.10174830511E+04  0.11314468499E+04  0.49487393836E+03 0.  0.
        4    1    3    3  502    0  0.99192658800E+02  0.21957250321E+03 -0.63751250912E+03  0.68152408609E+03  0.12699999809E+01 0. -1.
       -4    1    3    3    0  502 -0.99192658800E+02 -0.21957250321E+03 -0.37997054195E+03  0.44992276379E+03  0.12699999809E+01 0.  1.
</event>
<event>
 5   0  0.2013450E-01  0.5142095E+03  0.7818609E-02  0.1010135E+00
       -1   -1    0    0    0  501  0.00000000000E+00  0.00000000000E+00  0.68764730190E+03  0.68764730191E+03  0.50400001928E-02 0.  1.
        1   -1    0    0  501    0  0.00000000000E+00  0.00000000000E+00 -0.96128995868E+02  0.96128996000E+02  0.50400001928E-02 0. -1.
    10030    2    1    2    0    0  0.00000000000E+00  0.00000000000E+00  0.59151830603E+03  0.78377629791E+03  0.51420946978E+03 0.  0.
        4    1    3    3  502    0 -0.21631552832E+03 -0.87317480410E+02  0.13099725721E+03  0.26754185556E+03  0.12699999809E+01 0. -1.
       -4    1    3    3    0  502  0.21631552832E+03  0.87317480410E+02  0.46052104881E+03  0.51623444236E+03  0.12699999809E+01 0.  1.
</event>
<event>
 5   0  0.1984680E-01  0.4889280E+03  0.7818609E-02  0.1016710E+00
        1   -1    0    0  501    0  0.00000000000E+00  0.00000000000E+00  0.16024052694E+04  0.16024052694E+04  0.50400001928E-02 0.  1.
       -1   -1    0    0    0  501  0.00000000000E+00  0.00000000000E+00 -0.37295583800E+02  0.37295584140E+02  0.50400001928E-02 0. -1.
    10030    2    1    2    0    0  0.00000000000E+00  0.00000000000E+00  0.15651096856E+04  0.16397008535E+04  0.48892797134E+03 0.  0.
        5    1    3    3  502    0  0.21732508263E+03 -0.84948728005E+02  0.10265688042E+04  0.10527640181E+04  0.46999998093E+01 0.  1.
       -5    1    3    3    0  502 -0.21732508263E+03  0.84948728005E+02  0.53854088136E+03  0.58693683546E+03  0.46999998093E+01 0. -1.
</event>
<event>
 5   0  0.3111146E-01  0.4695172E+03  0.7818609E-02  0.1022057E+00
        2   -1    0    0  501    0  0.00000000000E+00  0.00000000000E+00  0.34370021575E+03  0.34370021576E+03  0.25500000920E-02 0. -1.
       -2   -1    0    0    0  501  0.00000000000E+00  0.00000000000E+00 -0.16034788720E+03  0.16034788722E+03  0.25500000920E-02 0.  1.
    10030    2    1    2    0    0  0.00000000000E+00  0.00000000000E+00  0.18335232855E+03  0.50404810298E+03  0.46951721346E+03 0.  0.
        1    1    3    3  502    0 -0.20650661974E+03  0.10810519957E+03  0.61695875244E+02  0.24111843401E+03  0.50400001928E-02 0.  1.
       -1    1    3    3    0  502  0.20650661974E+03 -0.10810519957E+03  0.12165645331E+03  0.26292966897E+03  0.50400001928E-02 0. -1.
</event>
<event>
 5   0  0.1984297E-01  0.5021196E+03  0.7818609E-02  0.1013227E+00
       -1   -1    0    0    0  501  0.00000000000E+00  0.00000000000E+00  0.65684002815E+02  0.65684003009E+02  0.50400001928E-02 0.  1.
        1   -1    0    0  501    0  0.00000000000E+00  0.00000000000E+00 -0.95960977950E+03  0.95960977951E+03  0.50400001928E-02 0. -1.
    10030    2    1    2    0    0  0.00000000000E+00  0.00000000000E+00 -0.89392577668E+03  0.10252937825E+04  0.50211955375E+03 0.  0.
        3    1    3    3  502    0  0.24204609013E+03  0.43059870975E+02 -0.55089177324E+03  0.60325966073E+03  0.10100000352E+00 0. -1.
       -3    1    3    3    0  502 -0.24204609013E+03 -0.43059870975E+02 -0.34303400344E+03  0.42203412179E+03  0.10100000352E+00 0.  1.
</event>
<event>
 5   0  0.3329246E-01  0.3298904E+03  0.7818609E-02  0.1071185E+00
        2   -1    0    0  501    0  0.00000000000E+00  0.00000000000E+00  0.16573219056E+03  0.16573219058E+03  0.25500000920E-02 0.  1.
       -2   -1    0    0    0  501  0.00000000000E+00  0.00000000000E+00 -0.16416192171E+03  0.16416192173E+03  0.25500000920E-02 0. -1.
    10030    2    1    2    0    0  0.00000000000E+00  0.00000000000E+00  0.15702688507E+01  0.32989411232E+03  0.32989037512E+03 0.  0.
        2    1    3    3  502    0  0.80847250536E+02 -0.14232191274E+03 -0.19589347946E+02  0.16485007530E+03  0.25500000920E-02 0. -1.
       -2    1    3    3    0  502 -0.80847250536E+02  0.14232191274E+03  0.21159616797E+02  0.16504403702E+03  0.25500000920E-02 0.  1.
</event>
<event>
 5   0  0.3329246E-01  0.5034336E+03  0.7818609E-02  0.1012887E+00
       -2   -1    0    0    0  501  0.00000000000E+00  0.00000000000E+00  0.19674292234E+03  0.19674292235E+03  0.25500000920E-02 0. -1.
        2   -1    0    0  501    0  0.00000000000E+00  0.00000000000E+00 -0.32205152132E+03  0.32205152133E+03  0.25500000920E-02 0.  1.
    10030    2    1    2    0    0  0.00000000000E+00  0.00000000000E+00 -0.12530859898E+03  0.51879444368E+03  0.50343363993E+03 0.  0.
        2    1    3    3  502    0  0.22560811404E+03 -0.37721638802E+02  0.45620178851E+02  0.23324481533E+03  0.25500000920E-02 0. -1.
       -2    1    3    3    0  502 -0.22560811404E+03  0.37721638802E+02 -0.17092877784E+03  0.28554962835E+03  0.25500000920E-02 0.  1.
</event>
<event>
 5   0  0.3117389E-01  0.5007680E+03  0.7818609E-02  0.1013579E+00
       -2   -1    0    0    0  501  0.00000000000E+00  0.00000000000E+00  0.40781184648E+02  0.40781184728E+02  0.25500000920E-02 0.  1.
        2   -1    0    0  501    0  0.00000000000E+00  0.00000000000E+00 -0.15372811986E+04  0.15372811986E+04  0.25500000920E-02 0. -1.
    10030    2    1    2    0    0  0.00000000000E+00  0.00000000000E+00 -0.14965000140E+04  0.15780623834E+04  0.50076800410E+03 0.  0.
        4    1    3    3  502    0  0.79138762523E+00  0.21524098461E+03 -0.34516602401E+03  0.40678065931E+03  0.12699999809E+01 0.  1.
       -4    1    3    3    0  502 -0.79138762523E+00 -0.21524098461E+03 -0.11513339900E+04  0.11712817241E+04  0.12699999809E+01 0. -1.
</event>
<event>
 5   0  0.3178149E-01  0.5004035E+03  0.7818609E-02  0.1013674E+00
       -2   -1    0    0    0  501  0.00000000000E+00  0.00000000000E+00  0.36372035852E+02  0.36372035942E+02  0.25500000920E-02 0.  1.
        2   -1    0    0  501    0  0.00000000000E+00  0.00000000000E+00 -0.17211277406E+04  0.17211277406E+04  0.25500000920E-02 0. -1.
    10030    2    1    2    0    0  0.00000000000E+00  0.00000000000E+00 -0.16847557048E+04  0.17574997766E+04  0.50040351705E+03 0.  0.
        3    1    3    3  502    0 -0.77000730863E+02 -0.15053823222E+03 -0.19467101339E+03  0.25785206140E+03  0.10100000352E+00 0.  1.
       -3    1    3    3    0  502  0.77000730863E+02  0.15053823222E+03 -0.14900846914E+04  0.14996477152E+04  0.10100000352E+00 0. -1.
</event>
<event>
 5   0  0.3111146E-01  0.4790058E+03  0.7818609E-02  0.1019409E+00
       -2   -1    0    0    0  501  0.00000000000E+00  0.00000000000E+00  0.16052538794E+03  0.16052538796E+03  0.25500000920E-02 0.  1.
        2   -1    0    0  501    0  0.00000000000E+00  0.00000000000E+00 -0.35733680860E+03  0.35733680861E+03  0.25500000920E-02 0. -1.
    10030    2    1    2    0    0  0.00000000000E+00  0.00000000000E+00 -0.19681142066E+03  0.51786219657E+03  0.47900576127E+03 0.  0.
        1    1    3    3  502    0  0.63317793443E+02  0.14675293559E+03 -0.29124551785E+03  0.33221908248E+03  0.50400001928E-02 0. -1.
       -1    1    3    3    0  502 -0.63317793443E+02 -0.14675293559E+03  0.94434097188E+02  0.18564311409E+03  0.50400001928E-02 0.  1.
</event>
<event>
 5   0  0.3187123E-01  0.4971994E+03  0.7818609E-02  0.1014513E+00
        2   -1    0    0  501    0  0.00000000000E+00  0.00000000000E+00  0.21871363686E+04  0.21871363686E+04  0.25500000920E-02 0. -1.
       -2   -1    0    0    0  501  0.00000000000E+00  0.00000000000E+00 -0.28256954735E+02  0.28256954850E+02  0.25500000920E-02 0.  1.
    10030    2    1    2    0    0  0.00000000000E+00  0.00000000000E+00  0.21588794139E+04  0.22153933235E+04  0.49719941069E+03 0.  0.
        5    1    3    3  502    0  0.20338839027E+03 -0.40071653362E+02  0.46838271522E+03  0.51222752036E+03  0.46999998093E+01 0.  1.
       -5    1    3    3    0  502 -0.20338839027E+03  0.40071653362E+02  0.16904966987E+04  0.17031658031E+04  0.46999998093E+01 0. -1.
</event>
<event>
 5   0  0.2000612E-01  0.4050782E+03  0.7818609E-02  0.1042035E+00
       -1   -1    0    0    0  501  0.00000000000E+00  0.00000000000E+00  0.22607019638E+02  0.22607020200E+02  0.50400001928E-02 0. -1.
        1   -1    0    0  501    0  0.00000000000E+00  0.00000000000E+00 -0.18145728860E+04  0.18145728860E+04  0.50400001928E-02 0.  1.
    10030    2    1    2    0    0  0.00000000000E+00  0.00000000000E+00 -0.17919658663E+04  0.18371799062E+04  0.40507819191E+03 0.  0.
        2    1    3    3  502    0 -0.88991056394E+02  0.16793655277E+03 -0.12134586319E+04  0.12282523947E+04  0.25500000920E-02 0.  1.
       -2    1    3    3    0  502  0.88991056394E+02 -0.16793655277E+03 -0.57850723449E+03  0.60892751148E+03  0.25500000920E-02 0. -1.
</event>
<event>
 5   0  0.1984297E-01  0.4999352E+03  0.7818609E-02  0.1013796E+00
       -1   -1    0    0    0  501  0.00000000000E+00  0.00000000000E+00  0.10423044997E+03  0.10423045009E+03  0.50400001928E-02 0.  1.
        1   -1    0    0  501    0  0.00000000000E+00  0.00000000000E+00 -0.59947744736E+03  0.59947744738E+03  0.50400001928E-02 0. -1.
    10030    2    1    2    0    0  0.00000000000E+00  0.00000000000E+00 -0.49524699740E+03  0.70370789747E+03  0.49993521234E+03 0.  0.
        3    1    3    3  502    0  0.63240060570E+02 -0.18636058574E+03 -0.30678774958E+02  0.19917522590E+03  0.10100000352E+00 0.  1.
       -3    1    3    3    0  502 -0.63240060570E+02  0.18636058574E+03 -0.46456822244E+03  0.50453267157E+03  0.10100000352E+00 0. -1.
</event>
<event>
 5   0  0.3117389E-01  0.5004375E+03  0.7818609E-02  0.1013665E+00
       -2   -1    0    0    0  501  0.00000000000E+00  0.00000000000E+00  0.14757677332E+03  0.14757677335E+03  0.25500000920E-02 0. -1.
        2   -1    0    0  501    0  0.00000000000E+00  0.00000000000E+00 -0.42424977645E+03  0.42424977646E+03  0.25500000920E-02 0.  1.
    10030    2    1    2    0    0  0.00000000000E+00  0.00000000000E+00 -0.27667300313E+03  0.57182654981E+03  0.50043746103E+03 0.  0.
        4    1    3    3  502    0  0.69747268882E+02 -0.23919148389E+03 -0.16465607074E+03  0.29864775575E+03  0.12699999809E+01 0.  1.
       -4    1    3    3    0  502 -0.69747268882E+02  0.23919148389E+03 -0.11201693238E+03  0.27317879406E+03  0.12699999809E+01 0. -1.
</event>
<event>
 5   0  0.3329246E-01  0.4608195E+03  0.7818609E-02  0.1024544E+00
       -2   -1    0    0    0  501  0.00000000000E+00  0.00000000000E+00  0.30488928807E+03  0.30488928808E+03  0.25500000920E-02 0.  1.
        2   -1    0    0  501    0  0.00000000000E+00  0.00000000000E+00 -0.17412439068E+03  0.17412439069E+03  0.25500000920E-02 0. -1.
    10030    2    1    2    0    0  0.00000000000E+00  0.00000000000E+00  0.13076489739E+03  0.47901367878E+03  0.46081953741E+03 0.  0.
        2    1    3    3  502    0  0.56865608210E+01  0.93962230433E+02 -0.15322394162E+03  0.17982995861E+03  0.25500000920E-02 0. -1.
       -2    1    3    3    0  502 -0.56865608210E+01 -0.93962230433E+02  0.28398883901E+03  0.29918372017E+03  0.25500000920E-02 0.  1.
</event>
<event>
 5   0  0.1984680E-01  0.4944380E+03  0.7818609E-02  0.1015241E+00
        1   -1    0    0  501    0  0.00000000000E+00  0.00000000000E+00  0.32150350587E+03  0.32150350591E+03  0.50400001928E-02 0. -1.
       -1   -1    0    0    0  501  0.00000000000E+00  0.00000000000E+00 -0.19009815554E+03  0.19009815561E+03  0.50400001928E-02 0.  1.
    10030    2    1    2    0    0  0.00000000000E+00  0.00000000000E+00  0.13140535033E+03  0.51160166152E+03  0.49443795766E+03 0.  0.
        5    1    3    3  502    0  0.10207455463E+03 -0.13260073072E+03  0.25393230252E+03  0.30414778110E+03  0.46999998093E+01 0. -1.
       -5    1    3    3    0  502 -0.10207455463E+03  0.13260073072E+03 -0.12252695218E+03  0.20745388042E+03  0.46999998093E+01 0.  1.
</event>
<event>
 5   0  0.2000612E-01  0.5041442E+03  0.7818609E-02  0.1012703E+00
        1   -1    0    0  501    0  0.00000000000E+00  0.00000000000E+00  0.21933744580E+04  0.21933744580E+04  0.50400001928E-02 0. -1.
       -1   -1    0    0    0  501  0.00000000000E+00  0.00000000000E+00 -0.28969221872E+02  0.28969222311E+02  0.50400001928E-02 0.  1.
    10030    2    1    2    0    0  0.00000000000E+00  0.00000000000E+00  0.21644052361E+04  0.22223436803E+04  0.50414423260E+03 0.  0.
        2    1    3    3  502    0  0.18310675587E+03  0.15214099786E+03  0.71695377165E+03  0.75544535075E+03  0.25500000920E-02 0. -1.
       -2    1    3    3    0  502 -0.18310675587E+03 -0.15214099786E+03  0.14474514645E+04  0.14668983296E+04  0.25500000920E-02 0.  1.
</event>
<event>
 5   0  0.3187123E-01  0.5090889E+03  0.7818609E-02  0.1011433E+00
        2   -1    0    0  501    0  0.00000000000E+00  0.00000000000E+00  0.15300647674E+03  0.15300647676E+03  0.25500000920E-02 0. -1.
       -2   -1    0    0    0  501  0.00000000000E+00  0.00000000000E+00 -0.42346496504E+03  0.42346496505E+03  0.25500000920E-02 0.  1.
    10030    2    1    2    0    0  0.00000000000E+00  0.00000000000E+00 -0.27045848830E+03  0.57647144181E+03  0.50908892085E+03 0.  0.
        5    1    3    3  502    0 -0.87229159267E+02 -0.11770400152E+03  0.10042017914E+03  0.17767796874E+03  0.46999998093E+01 0. -1.
       -5    1    3    3    0  502  0.87229159267E+02  0.11770400152E+03 -0.37087866744E+03  0.39879347307E+03  0.46999998093E+01 0.  1.
</event>
<event>
 5   0  0.1292375E-01  0.4857650E+03  0.7818609E-02  0.1017563E+00
       -4   -1    0    0    0  501  0.00000000000E+00  0.00000000000E+00  0.26019903533E+03  0.26020213467E+03  0.12699999809E+01 0. -1.
        4   -1    0    0  501    0  0.00000000000E+00  0.00000000000E+00 -0.22671221229E+03  0.22671576941E+03  0.12699999809E+01 0.  1.
    10030    2    1    2    0    0  0.00000000000E+00  0.00000000000E+00  0.33486823039E+02  0.48691790408E+03  0.48576504402E+03 0.  0.
        5    1    3    3  502    0 -0.22661529363E+03  0.10748226351E+01 -0.70722965583E+02  0.23744362365E+03  0.46999998093E+01 0.  1.
       -5    1    3    3    0  502  0.22661529363E+03 -0.10748226351E+01  0.10420978862E+03  0.24947428043E+03  0.46999998093E+01 0. -1.
</event>
<event>
 5   0  0.1984297E-01  0.3355432E+03  0.7818609E-02  0.1068710E+00
       -1   -1    0    0    0  501  0.00000000000E+00  0.00000000000E+00  0.30904885867E+03  0.30904885872E+03  0.50400001928E-02 0. -1.
        1   -1    0    0  501    0  0.00000000000E+00  0.00000000000E+00 -0.91077189509E+02  0.91077189649E+02  0.50400001928E-02 0.  1.
    10030    2    1    2    0    0  0.00000000000E+00  0.00000000000E+00  0.21797166916E+03  0.40012604836E+03  0.33554315076E+03 0.  0.
        3    1    3    3  502    0  0.13320469373E+03  0.73382625668E+02  0.24506981844E+02  0.15404253485E+03  0.10100000352E+00 0.  1.
       -3    1    3    3    0  502 -0.13320469373E+03 -0.73382625668E+02  0.19346468732E+03  0.24608351351E+03  0.10100000352E+00 0. -1.
</event>
<event>
 5   0  0.1967161E-01  0.4913466E+03  0.7818609E-02  0.1016063E+00
       -1   -1    0    0    0  501  0.00000000000E+00  0.00000000000E+00  0.48816979301E+03  0.48816979304E+03  0.50400001928E-02 0.  1.
        1   -1    0    0  501    0  0.00000000000E+00  0.00000000000E+00 -0.12363601468E+03  0.12363601479E+03  0.50400001928E-02 0. -1.
    10030    2    1    2    0    0  0.00000000000E+00  0.00000000000E+00  0.36453377833E+03  0.61180580782E+03  0.49134658943E+03 0.  0.
        1    1    3    3  502    0  0.74530718184E+02 -0.78408213313E+02  0.45691656227E+03  0.46954810272E+03  0.50400001928E-02 0.  1.
       -1    1    3    3    0  502 -0.74530718184E+02  0.78408213313E+02 -0.92382783938E+02  0.14225770510E+03  0.50400001928E-02 0. -1.
</event>
<event>
 5   0  0.3111146E-01  0.5098836E+03  0.7818609E-02  0.1011231E+00
       -2   -1    0    0    0  501  0.00000000000E+00  0.00000000000E+00  0.19820426471E+03  0.19820426472E+03  0.25500000920E-02 0. -1.
        2   -1    0    0  501    0  0.00000000000E+00  0.00000000000E+00 -0.32792084577E+03  0.32792084578E+03  0.25500000920E-02 0.  1.
    10030    2    1    2    0    0  0.00000000000E+00  0.00000000000E+00 -0.12971658106E+03  0.52612511050E+03  0.50988355582E+03 0.  0.
        1    1    3    3  502    0  0.53203301703E+02 -0.52380916738E+02 -0.31638716652E+03  0.32507720762E+03  0.50400001928E-02 0.  1.
       -1    1    3    3    0  502 -0.53203301703E+02  0.52380916738E+02  0.18667058546E+03  0.20104790288E+03  0.50400001928E-02 0. -1.
</event>
<event>
 5   0  0.1292375E-01  0.4984137E+03  0.7818609E-02  0.1014194E+00
       -3   -1    0    0    0  501  0.00000000000E+00  0.00000000000E+00  0.11171434207E+03  0.11171438773E+03  0.10100000352E+00 0.  1.
        3   -1    0    0  501    0  0.00000000000E+00  0.00000000000E+00 -0.55591828333E+03  0.55591829251E+03  0.10100000352E+00 0. -1.
    10030    2    1    2    0    0  0.00000000000E+00  0.00000000000E+00 -0.44420394126E+03  0.66763268023E+03  0.49841373805E+03 0.  0.
        2    1    3    3  502    0 -0.15732495135E+03  0.11895655776E+03 -0.18063183750E+02  0.19806080270E+03  0.25500000920E-02 0.  1.
       -2    1    3    3    0  502  0.15732495135E+03 -0.11895655776E+03 -0.42614075751E+03  0.46957187753E+03  0.25500000920E-02 0. -1.
</event>
<event>
 5   0  0.3178149E-01  0.4600227E+03  0.7818609E-02  0.1024775E+00
        2   -1    0    0  501    0  0.00000000000E+00  0.00000000000E+00  0.47377185755E+03  0.47377185756E+03  0.25500000920E-02 0.  1.
       -2   -1    0    0    0  501  0.00000000000E+00  0.00000000000E+00 -0.11166814139E+03  0.11166814142E+03  0.25500000920E-02 0. -1.
    10030    2    1    2    0    0  0.00000000000E+00  0.00000000000E+00  0.36210371616E+03  0.58543999898E+03  0.46002270721E+03 0.  0.
        3    1    3    3  502    0  0.37702013181E+02  0.70545312065E+02 -0.93397924140E+02  0.12296855406E+03  0.10100000352E+00 0. -1.
       -3    1    3    3    0  502 -0.37702013181E+02 -0.70545312065E+02  0.45550164030E+03  0.46247144493E+03  0.10100000352E+00 0.  1.
</event>
<event>
 5   0  0.3187123E-01  0.4966842E+03  0.7818609E-02  0.1014648E+00
       -2   -1    0    0    0  501  0.00000000000E+00  0.00000000000E+00  0.37126934895E+02  0.37126934983E+02  0.25500000920E-02 0. -1.
        2   -1    0    0  501    0  0.00000000000E+00  0.00000000000E+00 -0.16611607977E+04  0.16611607977E+04  0.25500000920E-02 0.  1.
    10030    2    1    2    0    0  0.00000000000E+00  0.00000000000E+00 -0.16240338628E+04  0.16982877327E+04  0.49668424120E+03 0.  0.
        5    1    3    3  502    0  0.12419636621E+03 -0.13395869745E+03 -0.13870414006E+04  0.13990266642E+04  0.46999998093E+01 0.  1.
       -5    1    3    3    0  502 -0.12419636621E+03  0.13395869745E+03 -0.23699246218E+03  0.29926106852E+03  0.46999998093E+01 0. -1.
</event>
<event>
 5   0  0.3117389E-01  0.4965093E+03  0.7818609E-02  0.1014694E+00
       -2   -1    0    0    0  501  0.00000000000E+00  0.00000000000E+00  0.99198283637E+02  0.99198283670E+02  0.25500000920E-02 0. -1.
        2   -1    0    0  501    0  0.00000000000E+00  0.00000000000E+00 -0.62128455848E+03  0.62128455848E+03  0.25500000920E-02 0.  1.
    10030    2    1    2    0    0  0.00000000000E+00  0.00000000000E+00 -0.52208627484E+03  0.72048284215E+03  0.49650926221E+03 0.  0.
        4    1    3    3  502    0  0.51619416996E+01 -0.54486111886E+02  0.90330120246E+02  0.10562445528E+03  0.12699999809E+01 0. -1.
       -4    1    3    3    0  502 -0.51619416996E+01  0.54486111886E+02 -0.61241639509E+03  0.61485838687E+03  0.12699999809E+01 0.  1.
</event>
<event>
 5   0  0.3111146E-01  0.5167000E+03  0.7818609E-02  0.1009510E+00
        2   -1    0    0  501    0  0.00000000000E+00  0.00000000000E+00  0.10199458111E+03  0.10199458114E+03  0.25500000920E-02 0.  1.
       -2   -1    0    0    0  501  0.00000000000E+00  0.00000000000E+00 -0.65439478952E+03  0.65439478952E+03  0.25500000920E-02 0. -1.
    10030    2    1    2    0    0  0.00000000000E+00  0.00000000000E+00 -0.55240020841E+03  0.75638937066E+03  0.51669999980E+03 0.  0.
        1    1    3    3  502    0  0.77449750311E+02  0.12411367882E+03 -0.58791499375E+03  0.60584379917E+03  0.50400001928E-02 0. -1.
       -1    1    3    3    0  502 -0.77449750311E+02 -0.12411367882E+03  0.35514785336E+02  0.15054557149E+03  0.50400001928E-02 0.  1.
</event>
<event>
 5   0  0.2000612E-01  0.2739885E+03  0.7818609E-02  0.1099018E+00
        1   -1    0    0  501    0  0.00000000000E+00  0.00000000000E+00  0.28209671901E+03  0.28209671906E+03  0.50400001928E-02 0. -1.
       -1   -1    0    0    0  501  0.00000000000E+00  0.00000000000E+00 -0.66528340917E+02  0.66528341108E+02  0.50400001928E-02 0.  1.
    10030    2    1    2    0    0  0.00000000000E+00  0.00000000000E+00  0.21556837810E+03  0.34862506017E+03  0.27398851607E+03 0.  0.
        2    1    3    3  502    0 -0.17463856828E+01  0.64085735272E+02 -0.46263307104E+02  0.79058996446E+02  0.25500000920E-02 0.  1.
       -2    1    3    3    0  502  0.17463856828E+01 -0.64085735272E+02  0.26183168520E+03  0.26956606372E+03  0.25500000920E-02 0. -1.
</event>
<event>
 5   0  0.1984297E-01  0.5225566E+03  0.7818609E-02  0.1008053E+00
        1   -1    0    0  501    0  0.00000000000E+00  0.00000000000E+00  0.33442831284E+03  0.33442831288E+03  0.50400001928E-02 0.  1.
       -1   -1    0    0    0  501  0.00000000000E+00  0.00000000000E+00 -0.20412851023E+03  0.20412851029E+03  0.50400001928E-02 0. -1.
    10030    2    1    2    0    0  0.00000000000E+00  0.00000000000E+00  0.13029980261E+03  0.53855682317E+03  0.52255661246E+03 0.  0.
        3    1    3    3  502    0 -0.16492961298E+03 -0.12817078902E+03 -0.96617296830E+02  0.23014004572E+03  0.10100000352E+00 0. -1.
       -3    1    3    3    0  502  0.16492961298E+03  0.12817078902E+03  0.22691709944E+03  0.30841677746E+03  0.10100000352E+00 0.  1.
</event>
<event>
 5   0  0.1292375E-01  0.4996800E+03  0.7818609E-02  0.1013862E+00
       -3   -1    0    0    0  501  0.00000000000E+00  0.00000000000E+00  0.26674561206E+03  0.26674563118E+03  0.10100000352E+00 0.  1.
        3   -1    0    0  501    0  0.00000000000E+00  0.00000000000E+00 -0.23400577229E+03  0.23400579408E+03  0.10100000352E+00 0. -1.
    10030    2    1    2    0    0  0.00000000000E+00  0.00000000000E+00  0.32739839771E+02  0.50075142526E+03  0.49967999039E+03 0.  0.
        4    1    3    3  502    0 -0.18403674002E+03  0.14777093481E+03  0.98476298178E+02  0.25574394432E+03  0.12699999809E+01 0. -1.
       -4    1    3    3    0  502  0.18403674002E+03 -0.14777093481E+03 -0.65736458406E+02  0.24500748094E+03  0.12699999809E+01 0.  1.
</event>
<event>
 5   0  0.3178149E-01  0.5245097E+03  0.7818609E-02  0.1007572E+00
       -2   -1    0    0    0  501  0.00000000000E+00  0.00000000000E+00  0.35439371192E+03  0.35439371193E+03  0.25500000920E-02 0.  1.
        2   -1    0    0  501    0  0.00000000000E+00  0.00000000000E+00 -0.19407114728E+03  0.19407114730E+03  0.25500000920E-02 0. -1.
    10030    2    1    2    0    0  0.00000000000E+00  0.00000000000E+00  0.16032256464E+03  0.54846485923E+03  0.52450965394E+03 0.  0.
        3    1    3    3  502    0 -0.12908257654E+03 -0.56515323965E+02  0.31144458167E+03  0.34183918889E+03  0.10100000352E+00 0.  1.
       -3    1    3    3    0  502  0.12908257654E+03  0.56515323965E+02 -0.15112201703E+03  0.20662567033E+03  0.10100000352E+00 0. -1.
</event>
<event>
 5   0  0.3178149E-01  0.5402917E+03  0.7818609E-02  0.1003766E+00
       -2   -1    0    0    0  501  0.00000000000E+00  0.00000000000E+00  0.30979415613E+02  0.30979415718E+02  0.25500000920E-02 0.  1.
        2   -1    0    0  501    0  0.00000000000E+00  0.00000000000E+00 -0.23557184139E+04  0.23557184139E+04  0.25500000920E-02 0. -1.
    10030    2    1    2    0    0  0.00000000000E+00  0.00000000000E+00 -0.23247389982E+04  0.23866978296E+04  0.54029169876E+03 0.  0.
        3    1    3    3  502    0  0.18602067317E+03 -0.19541599005E+03 -0.12228849462E+04  0.12522933769E+04  0.10100000352E+00 0.  1.
       -3    1    3    3    0  502 -0.18602067317E+03  0.19541599005E+03 -0.11018540521E+04  0.11344044527E+04  0.10100000352E+00 0. -1.
</event>
<event>
 5   0  0.2000612E-01  0.4990881E+03  0.7818609E-02  0.1014017E+00
       -1   -1    0    0    0  501  0.00000000000E+00  0.00000000000E+00  0.91996429527E+02  0.91996429665E+02  0.50400001928E-02 0. -1.
        1   -1    0    0  501    0  0.00000000000E+00  0.00000000000E+00 -0.67689829323E+03  0.67689829325E+03  0.50400001928E-02 0.  1.
    10030    2    1    2    0    0  0.00000000000E+00  0.00000000000E+00 -0.58490186370E+03  0.76889472292E+03  0.49908807315E+03 0.  0.
        2    1    3    3  502    0  0.19025117381E+03  0.14568905786E+03 -0.39975691131E+03  0.46607552914E+03  0.25500000920E-02 0.  1.
       -2    1    3    3    0  502 -0.19025117381E+03 -0.14568905786E+03 -0.18514495239E+03  0.30281919378E+03  0.25500000920E-02 0. -1.
</event>
<event>
 5   0  0.1967161E-01  0.4855740E+03  0.7818609E-02  0.1017614E+00
        1   -1    0    0  501    0  0.00000000000E+00  0.00000000000E+00  0.84676842845E+03  0.84676842846E+03  0.50400001928E-02 0. -1.
       -1   -1    0    0    0  501  0.00000000000E+00  0.00000000000E+00 -0.69612331386E+02  0.69612331569E+02  0.50400001928E-02 0.  1.
    10030    2    1    2    0    0  0.00000000000E+00  0.00000000000E+00  0.77715609706E+03  0.91638076003E+03  0.48557398834E+03 0.  0.
        1    1    3    3  502    0  0.23830385234E+03  0.45483160600E+02  0.40628976382E+03  0.47321117500E+03  0.50400001928E-02 0.  1.
       -1    1    3    3    0  502 -0.23830385234E+03 -0.45483160600E+02  0.37086633324E+03  0.44316958503E+03  0.50400001928E-02 0. -1.
</event>
<event>
 5   0  0.3187123E-01  0.5027691E+03  0.7818609E-02  0.1013059E+00
       -2   -1    0    0    0  501  0.00000000000E+00  0.00000000000E+00  0.47034414686E+02  0.47034414755E+02  0.25500000920E-02 0. -1.
        2   -1    0    0  501    0  0.00000000000E+00  0.00000000000E+00 -0.13435736588E+04  0.13435736588E+04  0.25500000920E-02 0.  1.
    10030    2    1    2    0    0  0.00000000000E+00  0.00000000000E+00 -0.12965392441E+04  0.13906080736E+04  0.50276913462E+03 0.  0.
        5    1    3    3  502    0  0.60895789719E+02 -0.20666366791E+03 -0.10062791955E+04  0.10290957575E+04  0.46999998093E+01 0.  1.
       -5    1    3    3    0  502 -0.60895789719E+02  0.20666366791E+03 -0.29026004866E+03  0.36151231609E+03  0.46999998093E+01 0. -1.
</event>
<event>
 5   0  0.1292375E-01  0.4985104E+03  0.7818609E-02  0.1014168E+00
       -3   -1    0    0    0  501  0.00000000000E+00  0.00000000000E+00  0.69954248650E+03  0.69954249379E+03  0.10100000352E+00 0. -1.
        3   -1    0    0  501    0  0.00000000000E+00  0.00000000000E+00 -0.88812515369E+02  0.88812572799E+02  0.10100000352E+00 0.  1.
    10030    2    1    2    0    0  0.00000000000E+00  0.00000000000E+00  0.61072997113E+03  0.78835506659E+03  0.49851039445E+03 0.  0.
        5    1    3    3  502    0  0.49025043077E+02  0.23900785210E+03  0.22507213091E+03  0.33197554477E+03  0.46999998093E+01 0.  1.
       -5    1    3    3    0  502 -0.49025043077E+02 -0.23900785210E+03  0.38565784021E+03  0.45637952181E+03  0.46999998093E+01 0. -1.
</event>
<event>
 5   0  0.2013450E-01  0.4992955E+03  0.7818609E-02  0.1013963E+00
        1   -1    0    0  501    0  0.00000000000E+00  0.00000000000E+00  0.13639024149E+03  0.13639024158E+03  0.50400001928E-02 0. -1.
       -1   -1    0    0    0  501  0.00000000000E+00  0.00000000000E+00 -0.45695357586E+03  0.45695357589E+03  0.50400001928E-02 0.  1.
    10030    2    1    2    0    0  0.00000000000E+00  0.00000000000E+00 -0.32056333437E+03  0.59334381747E+03  0.49929553812E+03 0.  0.
        4    1    3    3  502    0  0.20107170975E+03  0.12532541821E+03 -0.25374845174E+03  0.34716880990E+03  0.12699999809E+01 0.  1.
       -4    1    3    3    0  502 -0.20107170975E+03 -0.12532541821E+03 -0.66814882631E+02  0.24617500757E+03  0.12699999809E+01 0. -1.
</event>
<event>
 5   0  0.2013450E-01  0.6339700E+03  0.7818609E-02  0.9837332E-01
       -1   -1    0    0    0  501  0.00000000000E+00  0.00000000000E+00  0.12630298722E+03  0.12630298732E+03  0.50400001928E-02 0. -1.
        1   -1    0    0  501    0  0.00000000000E+00  0.00000000000E+00 -0.79554314532E+03  0.79554314533E+03  0.50400001928E-02 0.  1.
    10030    2    1    2    0    0  0.00000000000E+00  0.00000000000E+00 -0.66924015810E+03  0.92184613265E+03  0.63396995438E+03 0.  0.
        4    1    3    3  502    0  0.18054114015E+03 -0.21569630968E+03 -0.12211532721E+03  0.30664925784E+03  0.12699999809E+01 0. -1.
       -4    1    3    3    0  502 -0.18054114015E+03  0.21569630968E+03 -0.54712483089E+03  0.61519687481E+03  0.12699999809E+01 0.  1.
</event>
<event>
 5   0  0.3117389E-01  0.4978345E+03  0.7818609E-02  0.1014346E+00
       -2   -1    0    0    0  501  0.00000000000E+00  0.00000000000E+00  0.10152283996E+04  0.10152283996E+04  0.25500000920E-02 0. -1.
        2   -1    0    0  501    0  0.00000000000E+00  0.00000000000E+00 -0.61030397163E+02  0.61030397217E+02  0.25500000920E-02 0.  1.
    10030    2    1    2    0    0  0.00000000000E+00  0.00000000000E+00  0.95419800241E+03  0.10762587968E+04  0.49783448040E+03 0.  0.
        4    1    3    3  502    0  0.79237501675E+02 -0.78485228778E+02 -0.39846495782E+01  0.11160646549E+03  0.12699999809E+01 0.  1.
       -4    1    3    3    0  502 -0.79237501675E+02  0.78485228778E+02  0.95818265199E+03  0.96465233130E+03  0.12699999809E+01 0. -1.
</event>
<event>
 5   0  0.1967161E-01  0.4931119E+03  0.7818609E-02  0.1015593E+00
       -1   -1    0    0    0  501  0.00000000000E+00  0.00000000000E+00  0.54232833321E+03  0.54232833324E+03  0.50400001928E-02 0.  1.
        1   -1    0    0  501    0  0.00000000000E+00  0.00000000000E+00 -0.11209047495E+03  0.11209047506E+03  0.50400001928E-02 0. -1.
    10030    2    1    2    0    0  0.00000000000E+00  0.00000000000E+00  0.43023785827E+03  0.65441880829E+03  0.49311191627E+03 0.  0.
        1    1    3    3  502    0 -0.76727529592E+02 -0.22386179685E+03  0.30695548321E+03  0.38758597315E+03  0.50400001928E-02 0.  1.
       -1    1    3    3    0  502  0.76727529592E+02  0.22386179685E+03  0.12328237506E+03  0.26683283514E+03  0.50400001928E-02 0. -1.
</event>
<event>
 5   0  0.1967161E-01  0.5270379E+03  0.7818609E-02  0.1006953E+00
        1   -1    0    0  501    0  0.00000000000E+00  0.00000000000E+00  0.84100288011E+03  0.84100288012E+03  0.50400001928E-02 0. -1.
       -1   -1    0    0    0  501  0.00000000000E+00  0.00000000000E+00 -0.82570738782E+02  0.82570738936E+02  0.50400001928E-02 0.  1.
    10030    2    1    2    0    0  0.00000000000E+00  0.00000000000E+00  0.75843214133E+03  0.92357361906E+03  0.52703787039E+03 0.  0.
        1    1    3    3  502    0  0.15237747352E+03 -0.94409427291E+02  0.71770420939E+03  0.73975088145E+03  0.50400001928E-02 0. -1.
       -1    1    3    3    0  502 -0.15237747352E+03  0.94409427291E+02  0.40727931935E+02  0.18382273761E+03  0.50400001928E-02 0.  1.
</event>
<event>
 5   0  0.1967161E-01  0.4743782E+03  0.7818609E-02  0.1020692E+00
        1   -1    0    0  501    0  0.00000000000E+00  0.00000000000E+00  0.12243545026E+04  0.12243545026E+04  0.50400001928E-02 0.  1.
       -1   -1    0    0    0  501  0.00000000000E+00  0.00000000000E+00 -0.45949655896E+02  0.45949656172E+02  0.50400001928E-02 0. -1.
    10030    2    1    2    0    0  0.00000000000E+00  0.00000000000E+00  0.11784048467E+04  0.12703041588E+04  0.47437819625E+03 0.  0.
        1    1    3    3  502    0  0.15907475272E+03  0.25515506222E+01  0.10602827315E+04  0.10721523950E+04  0.50400001928E-02 0.  1.
       -1    1    3    3    0  502 -0.15907475272E+03 -0.25515506222E+01  0.11812211521E+03  0.19815176378E+03  0.50400001928E-02 0. -1.
</event>
<event>
 5   0  0.1984680E-01  0.4900996E+03  0.7818609E-02  0.1016396E+00
        1   -1    0    0  501    0  0.00000000000E+00  0.00000000000E+00  0.12911513687E+03  0.12911513697E+03  0.50400001928E-02 0.  1.
       -1   -1    0    0    0  501  0.00000000000E+00  0.00000000000E+00 -0.46508417906E+03  0.46508417909E+03  0.50400001928E-02 0. -1.
    10030    2    1    2    0    0  0.00000000000E+00  0.00000000000E+00 -0.33596904218E+03  0.59419931606E+03  0.49009961222E+03 0.  0.
        5    1    3    3  502    0  0.29145379774E+02  0.23288121679E+03 -0.82734215705E+02  0.24889788015E+03  0.46999998093E+01 0.  1.
       -5    1    3    3    0  502 -0.29145379774E+02 -0.23288121679E+03 -0.25323482648E+03  0.34530143591E+03  0.46999998093E+01 0. -1.
</event>
<event>
 5   0  0.1984297E-01  0.4570151E+03  0.7818609E-02  0.1025650E+00
        1   -1    0    0  501    0  0.00000000000E+00  0.00000000000E+00  0.80935277050E+03  0.80935277052E+03  0.50400001928E-02 0.  1.
       -1   -1    0    0    0  501  0.00000000000E+00  0.00000000000E+00 -0.64515376163E+02  0.64515376360E+02  0.50400001928E-02 0. -1.
    10030    2    1    2    0    0  0.00000000000E+00  0.00000000000E+00  0.74483739434E+03  0.87386814688E+03  0.45701509179E+03 0.  0.
        3    1    3    3  502    0  0.79696764438E+01  0.44439162829E+02  0.80073948857E+03  0.80201128028E+03  0.10100000352E+00 0.  1.
       -3    1    3    3    0  502 -0.79696764438E+01 -0.44439162829E+02 -0.55902094237E+02  0.71856866594E+02  0.10100000352E+00 0. -1.
</event>
<event>
 5   0  0.2000612E-01  0.4524327E+03  0.7818609E-02  0.1026999E+00
        1   -1    0    0  501    0  0.00000000000E+00  0.00000000000E+00  0.63977638831E+03  0.63977638833E+03  0.50400001928E-02 0. -1.
       -1   -1    0    0    0  501  0.00000000000E+00  0.00000000000E+00 -0.79987075029E+02  0.79987075188E+02  0.50400001928E-02 0.  1.
    10030    2    1    2    0    0  0.00000000000E+00  0.00000000000E+00  0.55978931328E+03  0.71976346352E+03  0.45243272224E+03 0.  0.
        2    1    3    3  502    0  0.35543039605E+02 -0.22339152667E+03  0.27575832961E+03  0.35666474203E+03  0.25500000920E-02 0.  1.
       -2    1    3    3    0  502 -0.35543039605E+02  0.22339152667E+03  0.28403098367E+03  0.36309872148E+03  0.25500000920E-02 0. -1.
</event>
<event>
 5   0  0.2000612E-01  0.4898882E+03  0.7818609E-02  0.1016452E+00
       -1   -1    0    0    0  501  0.00000000000E+00  0.00000000000E+00  0.59028869122E+02  0.59028869337E+02  0.50400001928E-02 0. -1.
        1   -1    0    0  501    0  0.00000000000E+00  0.00000000000E+00 -0.10164111523E+04  0.10164111523E+04  0.50400001928E-02 0.  1.
    10030    2    1    2    0    0  0.00000000000E+00  0.00000000000E+00 -0.95738228316E+03  0.10754400216E+04  0.48988815460E+03 0.  0.
        2    1    3    3  502    0  0.62396508250E+02 -0.14852767622E+03 -0.88374083745E+03  0.89830488289E+03  0.25500000920E-02 0.  1.
       -2    1    3    3    0  502 -0.62396508250E+02  0.14852767622E+03 -0.73641445712E+02  0.17713513874E+03  0.25500000920E-02 0. -1.
</event>
<event>
 5   0  0.1292375E-01  0.4632065E+03  0.7818609E-02  0.1023855E+00
       -4   -1    0    0    0  501  0.00000000000E+00  0.00000000000E+00  0.34784189631E+03  0.34784421474E+03  0.12699999809E+01 0.  1.
        4   -1    0    0  501    0  0.00000000000E+00  0.00000000000E+00 -0.15420274868E+03  0.15420797839E+03  0.12699999809E+01 0. -1.
    10030    2    1    2    0    0  0.00000000000E+00  0.00000000000E+00  0.19363914763E+03  0.50205219313E+03  0.46320652535E+03 0.  0.
        5    1    3    3  502    0 -0.16967155999E+03  0.48755297864E+02  0.25922711960E+03  0.31366591602E+03  0.46999998093E+01 0.  1.
       -5    1    3    3    0  502  0.16967155999E+03 -0.48755297864E+02 -0.65587971967E+02  0.18838627711E+03  0.46999998093E+01 0. -1.
</event>
<event>
 5   0  0.3187123E-01  0.5028629E+03  0.7818609E-02  0.1013034E+00
        2   -1    0    0  501    0  0.00000000000E+00  0.00000000000E+00  0.63728817713E+03  0.63728817713E+03  0.25500000920E-02 0. -1.
       -2   -1    0    0    0  501  0.00000000000E+00  0.00000000000E+00 -0.99198114828E+02  0.99198114861E+02  0.25500000920E-02 0.  1.
    10030    2    1    2    0    0  0.00000000000E+00  0.00000000000E+00  0.53809006230E+03  0.73648629199E+03  0.50286294669E+03 0.  0.
        5    1    3    3  502    0  0.35375315661E+02 -0.44728002484E+02  0.62762560983E+03  0.63022853258E+03  0.46999998093E+01 0. -1.
       -5    1    3    3    0  502 -0.35375315661E+02  0.44728002484E+02 -0.89535547535E+02  0.10625775941E+03  0.46999998093E+01 0.  1.
</event>
<event>
 5   0  0.1967161E-01  0.5138179E+03  0.7818609E-02  0.1010234E+00
        1   -1    0    0  501    0  0.00000000000E+00  0.00000000000E+00  0.56344575202E+03  0.56344575204E+03  0.50400001928E-02 0.  1.
       -1   -1    0    0    0  501  0.00000000000E+00  0.00000000000E+00 -0.11714030942E+03  0.11714030953E+03  0.50400001928E-02 0. -1.
    10030    2    1    2    0    0  0.00000000000E+00  0.00000000000E+00  0.44630544260E+03  0.68058606157E+03  0.51381790463E+03 0.  0.
        1    1    3    3  502    0 -0.97017390151E+02  0.22785870550E+03  0.13263289760E+03  0.28093317571E+03  0.50400001928E-02 0. -1.
       -1    1    3    3    0  502  0.97017390151E+02 -0.22785870550E+03  0.31367254500E+03  0.39965288586E+03  0.50400001928E-02 0.  1.
</event>
<event>
 5   0  0.1984680E-01  0.5036704E+03  0.7818609E-02  0.1012825E+00
        1   -1    0    0  501    0  0.00000000000E+00  0.00000000000E+00  0.13618296440E+04  0.13618296440E+04  0.50400001928E-02 0. -1.
       -1   -1    0    0    0  501  0.00000000000E+00  0.00000000000E+00 -0.46570418907E+02  0.46570419180E+02  0.50400001928E-02 0.  1.
    10030    2    1    2    0    0  0.00000000000E+00  0.00000000000E+00  0.13152592251E+04  0.14084000632E+04  0.50367043669E+03 0.  0.
        5    1    3    3  502    0 -0.20205539086E+03  0.40286223056E+02  0.10623608090E+04  0.10821653936E+04  0.46999998093E+01 0. -1.
       -5    1    3    3    0  502  0.20205539086E+03 -0.40286223056E+02  0.25289841611E+03  0.32623466954E+03  0.46999998093E+01 0.  1.
</event>
<event>
 5   0  0.3178149E-01  0.4949541E+03  0.7818609E-02  0.1015104E+00
       -2   -1    0    0    0  501  0.00000000000E+00  0.00000000000E+00  0.24687825161E+03  0.24687825162E+03  0.25500000920E-02 0. -1.
        2   -1    0    0  501    0  0.00000000000E+00  0.00000000000E+00 -0.24807730186E+03  0.24807730187E+03  0.25500000920E-02 0.  1.
    10030    2    1    2    0    0  0.00000000000E+00  0.00000000000E+00 -0.11990502535E+01  0.49495555349E+03  0.49495410112E+03 0.  0.
        3    1    3    3  502    0 -0.12376006848E+03 -0.20541161938E+03 -0.61709379824E+02  0.24762581789E+03  0.10100000352E+00 0.  1.
       -3    1    3    3    0  502  0.12376006848E+03  0.20541161938E+03  0.60510329571E+02  0.24732973560E+03  0.10100000352E+00 0. -1.
</event>
<event>
 5   0  0.2013450E-01  0.4698976E+03  0.7818609E-02  0.1021949E+00
       -1   -1    0    0    0  501  0.00000000000E+00  0.00000000000E+00  0.44208610889E+02  0.44208611177E+02  0.50400001928E-02 0. -1.
        1   -1    0    0  501    0  0.00000000000E+00  0.00000000000E+00 -0.12486466717E+04  0.12486466718E+04  0.50400001928E-02 0.  1.
    10030    2    1    2    0    0  0.00000000000E+00  0.00000000000E+00 -0.12044380609E+04  0.12928552829E+04  0.46989758476E+03 0.  0.
        4    1    3    3  502    0  0.14100724824E+03  0.70006518502E+01 -0.85525984413E+02  0.16507077298E+03  0.12699999809E+01 0. -1.
       -4    1    3    3    0  502 -0.14100724824E+03 -0.70006518502E+01 -0.11189120764E+04  0.11277845100E+04  0.12699999809E+01 0.  1.
</event>
<event>
 5   0  0.3117389E-01  0.4595108E+03  0.7818609E-02  0.1024923E+00
        2   -1    0    0  501    0  0.00000000000E+00  0.00000000000E+00  0.54206050859E+03  0.54206050860E+03  0.25500000920E-02 0. -1.
       -2   -1    0    0    0  501  0.00000000000E+00  0.00000000000E+00 -0.97383133943E+02  0.97383133977E+02  0.25500000920E-02 0.  1.
    10030    2    1    2    0    0  0.00000000000E+00  0.00000000000E+00  0.44467737465E+03  0.63944364258E+03  0.45951083176E+03 0.  0.
        4    1    3    3  502    0 -0.10488310384E+03  0.52191897107E+02 -0.52691813864E+02  0.12846205565E+03  0.12699999809E+01 0.  1.
       -4    1    3    3    0  502  0.10488310384E+03 -0.52191897107E+02  0.49736918851E+03  0.51098158692E+03  0.12699999809E+01 0. -1.
</event>
<event>
 5   0  0.3111146E-01  0.5058753E+03  0.7818609E-02  0.1012257E+00
       -2   -1    0    0    0  501  0.00000000000E+00  0.00000000000E+00  0.30205085028E+02  0.30205085135E+02  0.25500000920E-02 0. -1.
        2   -1    0    0  501    0  0.00000000000E+00  0.00000000000E+00 -0.21181020527E+04  0.21181020527E+04  0.25500000920E-02 0.  1.
    10030    2    1    2    0    0  0.00000000000E+00  0.00000000000E+00 -0.20878969677E+04  0.21483071378E+04  0.50587529181E+03 0.  0.
        1    1    3    3  502    0 -0.13559259830E+02  0.22622920433E+03 -0.56699240103E+03  0.61060944087E+03  0.50400001928E-02 0. -1.
       -1    1    3    3    0  502  0.13559259830E+02 -0.22622920433E+03 -0.15209045666E+04  0.15376976970E+04  0.50400001928E-02 0.  1.
</event>
<event>
 5   0  0.1984297E-01  0.4926522E+03  0.7818609E-02  0.1015715E+00
       -1   -1    0    0    0  501  0.00000000000E+00  0.00000000000E+00  0.34378148608E+03  0.34378148612E+03  0.50400001928E-02 0.  1.
        1   -1    0    0  501    0  0.00000000000E+00  0.00000000000E+00 -0.17649746038E+03  0.17649746046E+03  0.50400001928E-02 0. -1.
    10030    2    1    2    0    0  0.00000000000E+00  0.00000000000E+00  0.16728402570E+03  0.52027894657E+03  0.49265224753E+03 0.  0.
        3    1    3    3  502    0 -0.76368535387E+02 -0.17413039305E+03  0.24902186570E+03  0.31331365559E+03  0.10100000352E+00 0.  1.
       -3    1    3    3    0  502  0.76368535387E+02  0.17413039305E+03 -0.81737840002E+02  0.20696529098E+03  0.10100000352E+00 0. -1.
</event>
<event>
 5   0  0.3178149E-01  0.4991675E+03  0.7818609E-02  0.1013996E+00
        2   -1    0    0  501    0  0.00000000000E+00  0.00000000000E+00  0.30666758025E+03  0.30666758026E+03  0.25500000920E-02 0. -1.
       -2   -1    0    0    0  501  0.00000000000E+00  0.00000000000E+00 -0.20312567977E+03  0.20312567978E+03  0.25500000920E-02 0.  1.
    10030    2    1    2    0    0  0.00000000000E+00  0.00000000000E+00  0.10354190048E+03  0.50979326004E+03  0.49916754986E+03 0.  0.
        3    1    3    3  502    0 -0.91789761419E+02  0.36935958198E+02  0.28578257236E+03  0.30242571679E+03  0.10100000352E+00 0. -1.
       -3    1    3    3    0  502  0.91789761419E+02 -0.36935958198E+02 -0.18224067188E+03  0.20736754326E+03  0.10100000352E+00 0.  1.
</event>
<event>
 5   0  0.2013450E-01  0.5018429E+03  0.7818609E-02  0.1013299E+00
        1   -1    0    0  501    0  0.00000000000E+00  0.00000000000E+00  0.77364420135E+03  0.77364420137E+03  0.50400001928E-02 0.  1.
       -1   -1    0    0    0  501  0.00000000000E+00  0.00000000000E+00 -0.81383112728E+02  0.81383112884E+02  0.50400001928E-02 0. -1.
    10030    2    1    2    0    0  0.00000000000E+00  0.00000000000E+00  0.69226108862E+03  0.85502731425E+03  0.50184289703E+03 0.  0.
        4    1    3    3  502    0 -0.10109250345E+03  0.52510524379E+02  0.72704107552E+03  0.73591262241E+03  0.12699999809E+01 0.  1.
       -4    1    3    3    0  502  0.10109250345E+03 -0.52510524379E+02 -0.34779986901E+02  0.11911469184E+03  0.12699999809E+01 0. -1.
</event>
<event>
 5   0  0.3329246E-01  0.5031177E+03  0.7818609E-02  0.1012968E+00
        2   -1    0    0  501    0  0.00000000000E+00  0.00000000000E+00  0.40537266825E+03  0.40537266826E+03  0.25500000920E-02 0.  1.
       -2   -1    0    0    0  501  0.00000000000E+00  0.00000000000E+00 -0.15610787540E+03  0.15610787542E+03  0.25500000920E-02 0. -1.
    10030    2    1    2    0    0  0.00000000000E+00  0.00000000000E+00  0.24926479285E+03  0.56148054368E+03  0.50311774365E+03 0.  0.
        2    1    3    3  502    0 -0.20848398916E+03  0.70711729162E+01  0.28153410309E+03  0.35039552855E+03  0.25500000920E-02 0.  1.
       -2    1    3    3    0  502  0.20848398916E+03 -0.70711729162E+01 -0.32269310234E+02  0.21108501513E+03  0.25500000920E-02 0. -1.
</event>
<event>
 5   0  0.2013450E-01  0.4901200E+03  0.7818609E-02  0.1016390E+00
        1   -1    0    0  501    0  0.00000000000E+00  0.00000000000E+00  0.50669352189E+03  0.50669352191E+03  0.50400001928E-02 0.  1.
       -1   -1    0    0    0  501  0.00000000000E+00  0.00000000000E+00 -0.11852212421E+03  0.11852212432E+03  0.50400001928E-02 0. -1.
    10030    2    1    2    0    0  0.00000000000E+00  0.00000000000E+00  0.38817139767E+03  0.62521564624E+03  0.49011995504E+03 0.  0.
        4    1    3    3  502    0 -0.15180822709E+03 -0.10378254081E+03 -0.12537050144E+02  0.18432401937E+03  0.12699999809E+01 0.  1.
       -4    1    3    3    0  502  0.15180822709E+03  0.10378254081E+03  0.40070844782E+03  0.44089162687E+03  0.12699999809E+01 0. -1.
</event>
<event>
 5   0  0.2013450E-01  0.5341149E+03  0.7818609E-02  0.1005239E+00
        1   -1    0    0  501    0  0.00000000000E+00  0.00000000000E+00  0.41587675165E+03  0.41587675168E+03  0.50400001928E-02 0. -1.
       -1   -1    0    0    0  501  0.00000000000E+00  0.00000000000E+00 -0.17149237707E+03  0.17149237715E+03  0.50400001928E-02 0.  1.
    10030    2    1    2    0    0  0.00000000000E+00  0.00000000000E+00  0.24438437457E+03  0.58736912882E+03  0.53411494171E+03 0.  0.
        4    1    3    3  502    0 -0.14167927080E+03  0.22626213953E+03  0.13000770368E+03  0.29693633573E+03  0.12699999809E+01 0.  1.
       -4    1    3    3    0  502  0.14167927080E+03 -0.22626213953E+03  0.11437667089E+03  0.29043279309E+03  0.12699999809E+01 0. -1.
</event>
<event>
 5   0  0.1292375E-01  0.3941036E+03  0.7818609E-02  0.1045841E+00
       -4   -1    0    0    0  501  0.00000000000E+00  0.00000000000E+00  0.13403561177E+04  0.13403567194E+04  0.12699999809E+01 0.  1.
        4   -1    0    0  501    0  0.00000000000E+00  0.00000000000E+00 -0.28954943602E+02  0.28982782112E+02  0.12699999809E+01 0. -1.
    10030    2    1    2    0    0  0.00000000000E+00  0.00000000000E+00  0.13114011741E+04  0.13693395015E+04  0.39410357888E+03 0.  0.
        5    1    3    3  502    0 -0.19045034640E+03 -0.15147050481E+02  0.82257210168E+03  0.84448073989E+03  0.46999998093E+01 0.  1.
       -5    1    3    3    0  502  0.19045034640E+03  0.15147050481E+02  0.48882907241E+03  0.52485876159E+03  0.46999998093E+01 0. -1.
</event>
<event>
 5   0  0.3329246E-01  0.4912858E+03  0.7818609E-02  0.1016079E+00
        2   -1    0    0  501    0  0.00000000000E+00  0.00000000000E+00  0.11220453959E+03  0.11220453962E+03  0.25500000920E-02 0.  1.
       -2   -1    0    0    0  501  0.00000000000E+00  0.00000000000E+00 -0.53777180905E+03  0.53777180905E+03  0.25500000920E-02 0. -1.
    10030    2    1    2    0    0  0.00000000000E+00  0.00000000000E+00 -0.42556726946E+03  0.64997634867E+03  0.49128581599E+03 0.  0.
        2    1    3    3  502    0  0.67934061371E+02  0.92515206084E+02  0.74545330245E+02  0.13686163202E+03  0.25500000920E-02 0.  1.
       -2    1    3    3    0  502 -0.67934061371E+02 -0.92515206084E+02 -0.50011259970E+03  0.51311471665E+03  0.25500000920E-02 0. -1.
</event>
<event>
 5   0  0.3111146E-01  0.4847155E+03  0.7818609E-02  0.1017847E+00
       -2   -1    0    0    0  501  0.00000000000E+00  0.00000000000E+00  0.19310291543E+03  0.19310291544E+03  0.25500000920E-02 0.  1.
        2   -1    0    0  501    0  0.00000000000E+00  0.00000000000E+00 -0.30417605414E+03  0.30417605415E+03  0.25500000920E-02 0. -1.
    10030    2    1    2    0    0  0.00000000000E+00  0.00000000000E+00 -0.11107313871E+03  0.49727896959E+03  0.48471551600E+03 0.  0.
        1    1    3    3  502    0  0.19986770590E+03 -0.12347589733E+03  0.55369613176E+01  0.23499798946E+03  0.50400001928E-02 0.  1.
       -1    1    3    3    0  502 -0.19986770590E+03  0.12347589733E+03 -0.11661010003E+03  0.26228098013E+03  0.50400001928E-02 0. -1.
</event>
<event>
 5   0  0.1292375E-01  0.5480661E+03  0.7818609E-02  0.1001943E+00
       -4   -1    0    0    0  501  0.00000000000E+00  0.00000000000E+00  0.21695390900E+03  0.21695762612E+03  0.12699999809E+01 0.  1.
        4   -1    0    0  501    0  0.00000000000E+00  0.00000000000E+00 -0.34612153430E+03  0.34612386425E+03  0.12699999809E+01 0. -1.
    10030    2    1    2    0    0  0.00000000000E+00  0.00000000000E+00 -0.12916762529E+03  0.56308149037E+03  0.54806613595E+03 0.  0.
        2    1    3    3  502    0 -0.18620207505E+03  0.54982179525E+02  0.13410495969E+03  0.23596269417E+03  0.25500000920E-02 0.  1.
       -2    1    3    3    0  502  0.18620207505E+03 -0.54982179525E+02 -0.26327258499E+03  0.32711879620E+03  0.25500000920E-02 0. -1.
</event>
<event>
 5   0  0.3111146E-01  0.2705848E+03  0.7818609E-02  0.1100945E+00
       -2   -1    0    0    0  501  0.00000000000E+00  0.00000000000E+00  0.15435728942E+03  0.15435728944E+03  0.25500000920E-02 0. -1.
        2   -1    0    0  501    0  0.00000000000E+00  0.00000000000E+00 -0.11858221618E+03  0.11858221621E+03  0.25500000920E-02 0.  1.
    10030    2    1    2    0    0  0.00000000000E+00  0.00000000000E+00  0.35775073241E+02  0.27293950565E+03  0.27058477023E+03 0.  0.
        1    1    3    3  502    0 -0.56072210903E+02 -0.63315470900E+02  0.12440520921E+03  0.15043137238E+03  0.50400001928E-02 0. -1.
       -1    1    3    3    0  502  0.56072210903E+02  0.63315470900E+02 -0.88630135972E+02  0.12250813328E+03  0.50400001928E-02 0.  1.
</event>
<event>
 5   0  0.1967161E-01  0.3722870E+03  0.7818609E-02  0.1053822E+00
       -1   -1    0    0    0  501  0.00000000000E+00  0.00000000000E+00  0.34574879961E+02  0.34574880329E+02  0.50400001928E-02 0.  1.
        1   -1    0    0  501    0  0.00000000000E+00  0.00000000000E+00 -0.10021551273E+04  0.10021551273E+04  0.50400001928E-02 0. -1.
    10030    2    1    2    0    0  0.00000000000E+00  0.00000000000E+00 -0.96758024731E+03  0.10367300076E+04  0.37228695075E+03 0.  0.
        1    1    3    3  502    0 -0.10052080694E+03 -0.14559827495E+03 -0.32270422850E+03  0.36802351747E+03  0.50400001928E-02 0.  1.
       -1    1    3    3    0  502  0.10052080694E+03  0.14559827495E+03 -0.64487601881E+03  0.66870649014E+03  0.50400001928E-02 0. -1.
</event>
<event>
 5   0  0.3187123E-01  0.5173495E+03  0.7818609E-02  0.1009347E+00
        2   -1    0    0  501    0  0.00000000000E+00  0.00000000000E+00  0.70307528624E+02  0.70307528670E+02  0.25500000920E-02 0. -1.
       -2   -1    0    0    0  501  0.00000000000E+00  0.00000000000E+00 -0.95171342464E+03  0.95171342464E+03  0.25500000920E-02 0.  1.
    10030    2    1    2    0    0  0.00000000000E+00  0.00000000000E+00 -0.88140589601E+03  0.10220209533E+04  0.51734947133E+03 0.  0.
        5    1    3    3  502    0 -0.19165288872E+03  0.90307631858E+02 -0.73374428381E+03  0.76373363298E+03  0.46999998093E+01 0.  1.
       -5    1    3    3    0  502  0.19165288872E+03 -0.90307631858E+02 -0.14766161220E+03  0.25828732033E+03  0.46999998093E+01 0. -1.
</event>
<event>
 5   0  0.1984680E-01  0.4986340E+03  0.7818609E-02  0.1014136E+00
        1   -1    0    0  501    0  0.00000000000E+00  0.00000000000E+00  0.12587914785E+03  0.12587914795E+03  0.50400001928E-02 0. -1.
       -1   -1    0    0    0  501  0.00000000000E+00  0.00000000000E+00 -0.49379872341E+03  0.49379872344E+03  0.50400001928E-02 0.  1.
    10030    2    1    2    0    0  0.00000000000E+00  0.00000000000E+00 -0.36791957556E+03  0.61967787139E+03  0.49863398421E+03 0.  0.
        5    1    3    3  502    0 -0.64062438795E+02  0.24076334390E+03 -0.17387214571E+03  0.30384962873E+03  0.46999998093E+01 0.  1.
       -5    1    3    3    0  502  0.64062438795E+02 -0.24076334390E+03 -0.19404742985E+03  0.31582824266E+03  0.46999998093E+01 0. -1.
</event>
<event>
 5   0  0.3117389E-01  0.4887535E+03  0.7818609E-02  0.1016757E+00
       -2   -1    0    0    0  501  0.00000000000E+00  0.00000000000E+00  0.14235483943E+03  0.14235483945E+03  0.25500000920E-02 0. -1.
        2   -1    0    0  501    0  0.00000000000E+00  0.00000000000E+00 -0.41951501812E+03  0.41951501813E+03  0.25500000920E-02 0.  1.
    10030    2    1    2    0    0  0.00000000000E+00  0.00000000000E+00 -0.27716017869E+03  0.56186985758E+03  0.48875348818E+03 0.  0.
        4    1    3    3  502    0  0.12098195005E+03 -0.11349843668E+03  0.67707360665E+02  0.17917708267E+03  0.12699999809E+01 0. -1.
       -4    1    3    3    0  502 -0.12098195005E+03  0.11349843668E+03 -0.34486753936E+03  0.38269277491E+03  0.12699999809E+01 0.  1.
</event>
<event>
 5   0  0.3117389E-01  0.5030089E+03  0.7818609E-02  0.1012997E+00
        2   -1    0    0  501    0  0.00000000000E+00  0.00000000000E+00  0.69513735487E+03  0.69513735488E+03  0.25500000920E-02 0.  1.
       -2   -1    0    0    0  501  0.00000000000E+00  0.00000000000E+00 -0.90995653984E+02  0.90995654020E+02  0.25500000920E-02 0. -1.
    10030    2    1    2    0    0  0.00000000000E+00  0.00000000000E+00  0.60414170089E+03  0.78613300890E+03  0.50300885969E+03 0.  0.
        4    1    3    3  502    0  0.15680697995E+02  0.13079712233E+03 -0.32757677469E+02  0.13575142663E+03  0.12699999809E+01 0. -1.
       -4    1    3    3    0  502 -0.15680697995E+02 -0.13079712233E+03  0.63689937836E+03  0.65038158227E+03  0.12699999809E+01 0.  1.
</event>
<event>
 5   0  0.1292375E-01  0.4268687E+03  0.7818609E-02  0.1034854E+00
       -4   -1    0    0    0  501  0.00000000000E+00  0.00000000000E+00  0.46959622878E+03  0.46959794610E+03  0.12699999809E+01 0. -1.
        4   -1    0    0  501    0  0.00000000000E+00  0.00000000000E+00 -0.97001174329E+02  0.97009487789E+02  0.12699999809E+01 0.  1.
    10030    2    1    2    0    0  0.00000000000E+00  0.00000000000E+00  0.37259505445E+03  0.56660743389E+03  0.42686872636E+03 0.  0.
        3    1    3    3  502    0  0.10644468159E+03 -0.16672929175E+03  0.79900977432E+02  0.21333847136E+03  0.10100000352E+00 0.  1.
       -3    1    3    3    0  502 -0.10644468159E+03  0.16672929175E+03  0.29269407702E+03  0.35326896253E+03  0.10100000352E+00 0. -1.
</event>
<event>
 5   0  0.1292375E-01  0.5165228E+03  0.7818609E-02  0.1009554E+00
       -3   -1    0    0    0  501  0.00000000000E+00  0.00000000000E+00  0.28677864723E+03  0.28677866502E+03  0.10100000352E+00 0.  1.
        3   -1    0    0  501    0  0.00000000000E+00  0.00000000000E+00 -0.23257983265E+03  0.23257985458E+03  0.10100000352E+00 0. -1.
    10030    2    1    2    0    0  0.00000000000E+00  0.00000000000E+00  0.54198814589E+02  0.51935851960E+03  0.51652275881E+03 0.  0.
        1    1    3    3  502    0 -0.10099503717E+03 -0.23682664818E+03  0.66881750481E+01  0.25754920021E+03  0.50400001928E-02 0. -1.
       -1    1    3    3    0  502  0.10099503717E+03  0.23682664818E+03  0.47510639541E+02  0.26180931938E+03  0.50400001928E-02 0.  1.
</event>
<event>
 5   0  0.1967161E-01  0.4865072E+03  0.7818609E-02  0.1017362E+00
       -1   -1    0    0    0  501  0.00000000000E+00  0.00000000000E+00  0.67643134554E+03  0.67643134555E+03  0.50400001928E-02 0.  1.
        1   -1    0    0  501    0  0.00000000000E+00  0.00000000000E+00 -0.87477174283E+02  0.87477174428E+02  0.50400001928E-02 0. -1.
    10030    2    1    2    0    0  0.00000000000E+00  0.00000000000E+00  0.58895417125E+03  0.76390851998E+03  0.48650715418E+03 0.  0.
        1    1    3    3  502    0  0.17957575163E+03  0.96116014277E+02  0.50329793473E+03  0.54294985947E+03  0.50400001928E-02 0.  1.
       -1    1    3    3    0  502 -0.17957575163E+03 -0.96116014277E+02  0.85656236526E+02  0.22095866051E+03  0.50400001928E-02 0. -1.
</event>
<event>
 5   0  0.1984680E-01  0.3300438E+03  0.7818609E-02  0.1071117E+00
       -1   -1    0    0    0  501  0.00000000000E+00  0.00000000000E+00  0.48455624637E+03  0.48455624640E+03  0.50400001928E-02 0. -1.
        1   -1    0    0  501    0  0.00000000000E+00  0.00000000000E+00 -0.56200345924E+02  0.56200346150E+02  0.50400001928E-02 0.  1.
    10030    2    1    2    0    0  0.00000000000E+00  0.00000000000E+00  0.42835590044E+03  0.54075659255E+03  0.33004380760E+03 0.  0.
        5    1    3    3  502    0  0.13389005745E+03 -0.37259642476E+02  0.68593552049E+02  0.15505480909E+03  0.46999998093E+01 0. -1.
       -5    1    3    3    0  502 -0.13389005745E+03  0.37259642476E+02  0.35976234840E+03  0.38570178346E+03  0.46999998093E+01 0.  1.
</event>
<event>
 5   0  0.3117389E-01  0.2743643E+03  0.7818609E-02  0.1098807E+00
        2   -1    0    0  501    0  0.00000000000E+00  0.00000000000E+00  0.85151515356E+02  0.85151515394E+02  0.25500000920E-02 0.  1.
       -2   -1    0    0    0  501  0.00000000000E+00  0.00000000000E+00 -0.22100541457E+03  0.22100541458E+03  0.25500000920E-02 0. -1.
    10030    2    1    2    0    0  0.00000000000E+00  0.00000000000E+00 -0.13585389921E+03  0.30615692997E+03  0.27436432684E+03 0.  0.
        4    1    3    3  502    0 -0.11116751370E+03  0.54840216629E+02 -0.23681589109E+01  0.12398744508E+03  0.12699999809E+01 0.  1.
       -4    1    3    3    0  502  0.11116751370E+03 -0.54840216629E+02 -0.13348574030E+03  0.18216948489E+03  0.12699999809E+01 0. -1.
</event>
<event>
 5   0  0.3187123E-01  0.5027805E+03  0.7818609E-02  0.1013056E+00
       -2   -1    0    0    0  501  0.00000000000E+00  0.00000000000E+00  0.30058091874E+03  0.30058091875E+03  0.25500000920E-02 0.  1.
        2   -1    0    0  501    0  0.00000000000E+00  0.00000000000E+00 -0.21024974357E+03  0.21024974359E+03  0.25500000920E-02 0. -1.
    10030    2    1    2    0    0  0.00000000000E+00  0.00000000000E+00  0.90331175166E+02  0.51083066233E+03  0.50278051312E+03 0.  0.
        5    1    3    3  502    0 -0.20714475057E+03  0.10750669049E+03 -0.49647018102E+02  0.23864943451E+03  0.46999998093E+01 0. -1.
       -5    1    3    3    0  502  0.20714475057E+03 -0.10750669049E+03  0.13997819327E+03  0.27218122782E+03  0.46999998093E+01 0.  1.
</event>
<event>
 5   0  0.3111146E-01  0.4742391E+03  0.7818609E-02  0.1020731E+00
       -2   -1    0    0    0  501  0.00000000000E+00  0.00000000000E+00  0.21088390479E+03  0.21088390481E+03  0.25500000920E-02 0. -1.
        2   -1    0    0  501    0  0.00000000000E+00  0.00000000000E+00 -0.26661907532E+03  0.26661907534E+03  0.25500000920E-02 0.  1.
    10030    2    1    2    0    0  0.00000000000E+00  0.00000000000E+00 -0.55735170534E+02  0.47750298014E+03  0.47423906082E+03 0.  0.
        1    1    3    3  502    0  0.12463449812E+03  0.16302310177E+03 -0.14749344721E+03  0.25271447689E+03  0.50400001928E-02 0.  1.
       -1    1    3    3    0  502 -0.12463449812E+03 -0.16302310177E+03  0.91758276678E+02  0.22478850326E+03  0.50400001928E-02 0. -1.
</event>
<event>
 5   0  0.3111146E-01  0.4952123E+03  0.7818609E-02  0.1015036E+00
        2   -1    0    0  501    0  0.00000000000E+00  0.00000000000E+00  0.84066761655E+03  0.84066761655E+03  0.25500000920E-02 0. -1.
       -2   -1    0    0    0  501  0.00000000000E+00  0.00000000000E+00 -0.72928702353E+02  0.72928702397E+02  0.25500000920E-02 0.  1.
    10030    2    1    2    0    0  0.00000000000E+00  0.00000000000E+00  0.76773891420E+03  0.91359631895E+03  0.49521227128E+03 0.  0.
        1    1    3    3  502    0  0.14356117713E+03  0.49537516536E+02  0.74465605500E+03  0.75998448497E+03  0.50400001928E-02 0. -1.
       -1    1    3    3    0  502 -0.14356117713E+03 -0.49537516536E+02  0.23082859197E+02  0.15361183398E+03  0.50400001928E-02 0.  1.
</event>
<event>
 5   0  0.1984680E-01  0.5047545E+03  0.7818609E-02  0.1012545E+00
        1   -1    0    0  501    0  0.00000000000E+00  0.00000000000E+00  0.37469474798E+03  0.37469474801E+03  0.50400001928E-02 0.  1.
       -1   -1    0    0    0  501  0.00000000000E+00  0.00000000000E+00 -0.16998974735E+03  0.16998974742E+03  0.50400001928E-02 0. -1.
    10030    2    1    2    0    0  0.00000000000E+00  0.00000000000E+00  0.20470500063E+03  0.54468449543E+03  0.50475445742E+03 0.  0.
        5    1    3    3  502    0  0.32497783884E+02 -0.11387248759E+03 -0.13809521510E+03  0.18197644853E+03  0.46999998093E+01 0. -1.
       -5    1    3    3    0  502 -0.32497783884E+02  0.11387248759E+03  0.34280021573E+03  0.36270804690E+03  0.46999998093E+01 0.  1.
</event>
<event>
 5   0  0.1984680E-01  0.5038394E+03  0.7818609E-02  0.1012782E+00
        1   -1    0    0  501    0  0.00000000000E+00  0.00000000000E+00  0.53038995110E+02  0.53038995349E+02  0.50400001928E-02 0.  1.
       -1   -1    0    0    0  501  0.00000000000E+00  0.00000000000E+00 -0.11965446385E+04  0.11965446385E+04  0.50400001928E-02 0. -1.
    10030    2    1    2    0    0  0.00000000000E+00  0.00000000000E+00 -0.11435056434E+04  0.12495836339E+04  0.50383936086E+03 0.  0.
        5    1    3    3  502    0  0.22037148297E+03  0.37494095023E+02 -0.28388714778E+03  0.36136325261E+03  0.46999998093E+01 0.  1.
       -5    1    3    3    0  502 -0.22037148297E+03 -0.37494095023E+02 -0.85961849562E+03  0.88822038126E+03  0.46999998093E+01 0. -1.
</event>
<event>
 5   0  0.3117389E-01  0.4899629E+03  0.7818609E-02  0.1016432E+00
        2   -1    0    0  501    0  0.00000000000E+00  0.00000000000E+00  0.51096760953E+03  0.51096760954E+03  0.25500000920E-02 0. -1.
       -2   -1    0    0    0  501  0.00000000000E+00  0.00000000000E+00 -0.11745542487E+03  0.11745542490E+03  0.25500000920E-02 0.  1.
    10030    2    1    2    0    0  0.00000000000E+00  0.00000000000E+00  0.39351218466E+03  0.62842303444E+03  0.48996292792E+03 0.  0.
        4    1    3    3  502    0 -0.19098575369E+03 -0.67693895246E+02  0.37334583291E+03  0.42479023696E+03  0.12699999809E+01 0. -1.
       -4    1    3    3    0  502  0.19098575369E+03  0.67693895246E+02  0.20166351750E+02  0.20363279748E+03  0.12699999809E+01 0.  1.
</event>
<event>
 5   0  0.2013450E-01  0.5022090E+03  0.7818609E-02  0.1013204E+00
        1   -1    0    0  501    0  0.00000000000E+00  0.00000000000E+00  0.51786284839E+03  0.51786284841E+03  0.50400001928E-02 0.  1.
       -1   -1    0    0    0  501  0.00000000000E+00  0.00000000000E+00 -0.12175709981E+03  0.12175709992E+03  0.50400001928E-02 0. -1.
    10030    2    1    2    0    0  0.00000000000E+00  0.00000000000E+00  0.39610574857E+03  0.63961994833E+03  0.50220903442E+03 0.  0.
        4    1    3    3  502    0 -0.22798478769E+03 -0.38977816964E+02  0.32255160252E+03  0.39690991777E+03  0.12699999809E+01 0.  1.
       -4    1    3    3    0  502  0.22798478769E+03  0.38977816964E+02  0.73554146050E+02  0.24271003056E+03  0.12699999809E+01 0. -1.
</event>
<event>
 5   0  0.3117389E-01  0.4877962E+03  0.7818609E-02  0.1017014E+00
        2   -1    0    0  501    0  0.00000000000E+00  0.00000000000E+00  0.19322928993E+04  0.19322928993E+04  0.25500000920E-02 0. -1.
       -2   -1    0    0    0  501  0.00000000000E+00  0.00000000000E+00 -0.30785328417E+02  0.30785328522E+02  0.25500000920E-02 0.  1.
    10030    2    1    2    0    0  0.00000000000E+00  0.00000000000E+00  0.19015075709E+04  0.19630782279E+04  0.48779615254E+03 0.  0.
        4    1    3    3  502    0  0.18026912141E+03  0.15306866001E+03  0.71071403909E+03  0.74902805626E+03  0.12699999809E+01 0.  1.
       -4    1    3    3    0  502 -0.18026912141E+03 -0.15306866001E+03  0.11907935318E+04  0.12140501716E+04  0.12699999809E+01 0. -1.
</event>
<event>
 5   0  0.1984297E-01  0.5007253E+03  0.7818609E-02  0.1013590E+00
       -1   -1    0    0    0  501  0.00000000000E+00  0.00000000000E+00  0.14834082027E+03  0.14834082035E+03  0.50400001928E-02 0. -1.
        1   -1    0    0  501    0  0.00000000000E+00  0.00000000000E+00 -0.42255036216E+03  0.42255036219E+03  0.50400001928E-02 0.  1.
    10030    2    1    2    0    0  0.00000000000E+00  0.00000000000E+00 -0.27420954189E+03  0.57089118254E+03  0.50072534331E+03 0.  0.
        3    1    3    3  502    0  0.12435439387E+03 -0.21041562095E+03 -0.19895301480E+03  0.31515244107E+03  0.10100000352E+00 0.  1.
       -3    1    3    3    0  502 -0.12435439387E+03  0.21041562095E+03 -0.75256527090E+02  0.25573874146E+03  0.10100000352E+00 0. -1.
</event>
<event>
 5   0  0.2013450E-01  0.5385958E+03  0.7818609E-02  0.1004169E+00
       -1   -1    0    0    0  501  0.00000000000E+00  0.00000000000E+00  0.12187139631E+03  0.12187139642E+03  0.50400001928E-02 0. -1.
        1   -1    0    0  501    0  0.00000000000E+00  0.00000000000E+00 -0.59506460128E+03  0.59506460131E+03  0.50400001928E-02 0.  1.
    10030    2    1    2    0    0  0.00000000000E+00  0.00000000000E+00 -0.47319320497E+03  0.71693599772E+03  0.53859578127E+03 0.  0.
        4    1    3    3  502    0  0.19351438175E+02  0.11324915553E+03  0.87606834148E+02  0.14448674568E+03  0.12699999809E+01 0. -1.
       -4    1    3    3    0  502 -0.19351438175E+02 -0.11324915553E+03 -0.56080003912E+03  0.57244925204E+03  0.12699999809E+01 0.  1.
</event>
<event>
 5   0  0.2000612E-01  0.5029693E+03  0.7818609E-02  0.1013007E+00
       -1   -1    0    0    0  501  0.00000000000E+00  0.00000000000E+00  0.79595634081E+02  0.79595634241E+02  0.50400001928E-02 0.  1.
        1   -1    0    0  501    0  0.00000000000E+00  0.00000000000E+00 -0.79457274403E+03  0.79457274404E+03  0.50400001928E-02 0. -1.
    10030    2    1    2    0    0  0.00000000000E+00  0.00000000000E+00 -0.71497710995E+03  0.87416837828E+03  0.50296926929E+03 0.  0.
        2    1    3    3  502    0 -0.96955902102E+02 -0.81628140418E+02 -0.73500584731E+03  0.74585333401E+03  0.25500000920E-02 0. -1.
       -2    1    3    3    0  502  0.96955902102E+02  0.81628140418E+02  0.20028737367E+02  0.12831504428E+03  0.25500000920E-02 0.  1.
</event>
<event>
 5   0  0.3111146E-01  0.5105960E+03  0.7818609E-02  0.1011050E+00
        2   -1    0    0  501    0  0.00000000000E+00  0.00000000000E+00  0.60572951748E+03  0.60572951749E+03  0.25500000920E-02 0. -1.
       -2   -1    0    0    0  501  0.00000000000E+00  0.00000000000E+00 -0.10760095586E+03  0.10760095589E+03  0.25500000920E-02 0.  1.
    10030    2    1    2    0    0  0.00000000000E+00  0.00000000000E+00  0.49812856162E+03  0.71333047338E+03  0.51059602462E+03 0.  0.
        1    1    3    3  502    0 -0.18215684826E+03 -0.68074816858E+02  0.17971968683E+02  0.19529027048E+03  0.50400001928E-02 0.  1.
       -1    1    3    3    0  502  0.18215684826E+03  0.68074816858E+02  0.48015659293E+03  0.51804020290E+03  0.50400001928E-02 0. -1.
</event>
<event>
 5   0  0.1967161E-01  0.5129517E+03  0.7818609E-02  0.1010453E+00
       -1   -1    0    0    0  501  0.00000000000E+00  0.00000000000E+00  0.70067366341E+02  0.70067366523E+02  0.50400001928E-02 0.  1.
        1   -1    0    0  501    0  0.00000000000E+00  0.00000000000E+00 -0.93880896086E+03  0.93880896087E+03  0.50400001928E-02 0. -1.
    10030    2    1    2    0    0  0.00000000000E+00  0.00000000000E+00 -0.86874159451E+03  0.10088763274E+04  0.51295173840E+03 0.  0.
        1    1    3    3  502    0 -0.15009604378E+02 -0.22938976128E+03 -0.21068247599E+03  0.31182055179E+03  0.50400001928E-02 0.  1.
       -1    1    3    3    0  502  0.15009604378E+02  0.22938976128E+03 -0.65805911852E+03  0.69705577560E+03  0.50400001928E-02 0. -1.
</event>
<event>
 5   0  0.3111146E-01  0.4922477E+03  0.7818609E-02  0.1015822E+00
       -2   -1    0    0    0  501  0.00000000000E+00  0.00000000000E+00  0.83483565271E+02  0.83483565310E+02  0.25500000920E-02 0.  1.
        2   -1    0    0  501    0  0.00000000000E+00  0.00000000000E+00 -0.72561525513E+03  0.72561525514E+03  0.25500000920E-02 0. -1.
    10030    2    1    2    0    0  0.00000000000E+00  0.00000000000E+00 -0.64213168986E+03  0.80909882045E+03  0.49224769591E+03 0.  0.
        1    1    3    3  502    0 -0.21468643503E+03  0.18645785303E+02 -0.51651216455E+03  0.55966306547E+03  0.50400001928E-02 0.  1.
       -1    1    3    3    0  502  0.21468643503E+03 -0.18645785303E+02 -0.12561952531E+03  0.24943575497E+03  0.50400001928E-02 0. -1.
</event>
<event>
 5   0  0.3329246E-01  0.4966691E+03  0.7818609E-02  0.1014652E+00
        2   -1    0    0  501    0  0.00000000000E+00  0.00000000000E+00  0.11968736994E+04  0.11968736994E+04  0.25500000920E-02 0.  1.
       -2   -1    0    0    0  501  0.00000000000E+00  0.00000000000E+00 -0.51525951858E+02  0.51525951921E+02  0.25500000920E-02 0. -1.
    10030    2    1    2    0    0  0.00000000000E+00  0.00000000000E+00  0.11453477475E+04  0.12483996513E+04  0.49666913193E+03 0.  0.
        2    1    3    3  502    0  0.19847493131E+03  0.95990180177E+02  0.85996263127E+03  0.88777369878E+03  0.25500000920E-02 0.  1.
       -2    1    3    3    0  502 -0.19847493131E+03 -0.95990180177E+02  0.28538511622E+03  0.36062595250E+03  0.25500000920E-02 0. -1.
</event>
<event>
 5   0  0.3117389E-01  0.3072514E+03  0.7818609E-02  0.1081671E+00
        2   -1    0    0  501    0  0.00000000000E+00  0.00000000000E+00  0.16532859463E+04  0.16532859463E+04  0.25500000920E-02 0. -1.
       -2   -1    0    0    0  501  0.00000000000E+00  0.00000000000E+00 -0.14275115895E+02  0.14275116123E+02  0.25500000920E-02 0.  1.
    10030    2    1    2    0    0  0.00000000000E+00  0.00000000000E+00  0.16390108304E+04  0.16675610624E+04  0.30725135432E+03 0.  0.
        4    1    3    3  502    0  0.13621315140E+02  0.34533685984E+02  0.10463703397E+02  0.38590383291E+02  0.12699999809E+01 0.  1.
       -4    1    3    3    0  502 -0.13621315140E+02 -0.34533685984E+02  0.16285471270E+04  0.16289706792E+04  0.12699999809E+01 0. -1.
</event>
<event>
 5   0  0.2000612E-01  0.5059450E+03  0.7818609E-02  0.1012239E+00
        1   -1    0    0  501    0  0.00000000000E+00  0.00000000000E+00  0.80640189584E+03  0.80640189585E+03  0.50400001928E-02 0.  1.
       -1   -1    0    0    0  501  0.00000000000E+00  0.00000000000E+00 -0.79358786591E+02  0.79358786751E+02  0.50400001928E-02 0. -1.
    10030    2    1    2    0    0  0.00000000000E+00  0.00000000000E+00  0.72704310924E+03  0.88576068260E+03  0.50594496158E+03 0.  0.
        2    1    3    3  502    0  0.21284591086E+03 -0.49730334218E+01  0.12432773221E+03  0.24654715134E+03  0.25500000920E-02 0. -1.
       -2    1    3    3    0  502 -0.21284591086E+03  0.49730334218E+01  0.60271537703E+03  0.63921353126E+03  0.25500000920E-02 0.  1.
</event>
<event>
 5   0  0.1967161E-01  0.5230600E+03  0.7818609E-02  0.1007929E+00
       -1   -1    0    0    0  501  0.00000000000E+00  0.00000000000E+00  0.13007167295E+03  0.13007167305E+03  0.50400001928E-02 0.  1.
        1   -1    0    0  501    0  0.00000000000E+00  0.00000000000E+00 -0.52584814892E+03  0.52584814894E+03  0.50400001928E-02 0. -1.
    10030    2    1    2    0    0  0.00000000000E+00  0.00000000000E+00 -0.39577647597E+03  0.65591982199E+03  0.52306002902E+03 0.  0.
        1    1    3    3  502    0 -0.16388965778E+03  0.74073731558E+02  0.40211627378E+02  0.18429246494E+03  0.50400001928E-02 0.  1.
       -1    1    3    3    0  502  0.16388965778E+03 -0.74073731558E+02 -0.43598810335E+03  0.47162735705E+03  0.50400001928E-02 0. -1.
</event>
<event>
 5   0  0.3117389E-01  0.4961711E+03  0.7818609E-02  0.1014783E+00
       -2   -1    0    0    0  501  0.00000000000E+00  0.00000000000E+00  0.39979129485E+03  0.39979129486E+03  0.25500000920E-02 0.  1.
        2   -1    0    0  501    0  0.00000000000E+00  0.00000000000E+00 -0.15394643487E+03  0.15394643489E+03  0.25500000920E-02 0. -1.
    10030    2    1    2    0    0  0.00000000000E+00  0.00000000000E+00  0.24584485998E+03  0.55373772975E+03  0.49617111783E+03 0.  0.
        4    1    3    3  502    0 -0.70152150284E+02  0.22851202070E+03  0.19699940564E+03  0.30975707662E+03  0.12699999809E+01 0.  1.
       -4    1    3    3    0  502  0.70152150284E+02 -0.22851202070E+03  0.48845454333E+02  0.24398065313E+03  0.12699999809E+01 0. -1.
</event>
<event>
 5   0  0.3187123E-01  0.5057648E+03  0.7818609E-02  0.1012285E+00
       -2   -1    0    0    0  501  0.00000000000E+00  0.00000000000E+00  0.31613689526E+02  0.31613689629E+02  0.25500000920E-02 0. -1.
        2   -1    0    0  501    0  0.00000000000E+00  0.00000000000E+00 -0.20228420054E+04  0.20228420054E+04  0.25500000920E-02 0.  1.
    10030    2    1    2    0    0  0.00000000000E+00  0.00000000000E+00 -0.19912283159E+04  0.20544556951E+04  0.50576476440E+03 0.  0.
        5    1    3    3  502    0 -0.10855684596E+03  0.11658314830E+02 -0.69256467637E+02  0.12937949381E+03  0.46999998093E+01 0. -1.
       -5    1    3    3    0  502  0.10855684596E+03 -0.11658314830E+02 -0.19219718483E+04  0.19250762012E+04  0.46999998093E+01 0.  1.
</event>
<event>
 5   0  0.1292375E-01  0.5020060E+03  0.7818609E-02  0.1013257E+00
        4   -1    0    0  501    0  0.00000000000E+00  0.00000000000E+00  0.20687703563E+03  0.20688093380E+03  0.12699999809E+01 0. -1.
       -4   -1    0    0    0  501  0.00000000000E+00  0.00000000000E+00 -0.30453274641E+03  0.30453539456E+03  0.12699999809E+01 0.  1.
    10030    2    1    2    0    0  0.00000000000E+00  0.00000000000E+00 -0.97655710789E+02  0.51141632836E+03  0.50200599903E+03 0.  0.
        1    1    3    3  502    0 -0.73762608574E+02 -0.16830431294E+03  0.12536046288E+03  0.22244664496E+03  0.50400001928E-02 0. -1.
       -1    1    3    3    0  502  0.73762608574E+02  0.16830431294E+03 -0.22301617367E+03  0.28896968339E+03  0.50400001928E-02 0.  1.
</event>
<event>
 5   0  0.1292375E-01  0.3537199E+03  0.7818609E-02  0.1061099E+00
        3   -1    0    0  501    0  0.00000000000E+00  0.00000000000E+00  0.79774632143E+02  0.79774696079E+02  0.10100000352E+00 0. -1.
       -3   -1    0    0    0  501  0.00000000000E+00  0.00000000000E+00 -0.39209730617E+03  0.39209731918E+03  0.10100000352E+00 0.  1.
    10030    2    1    2    0    0  0.00000000000E+00  0.00000000000E+00 -0.31232267403E+03  0.47187201526E+03  0.35371986949E+03 0.  0.
        2    1    3    3  502    0  0.15722359520E+03  0.21410780099E+02 -0.51955465873E+02  0.16696422021E+03  0.25500000920E-02 0. -1.
       -2    1    3    3    0  502 -0.15722359520E+03 -0.21410780099E+02 -0.26036720815E+03  0.30490779504E+03  0.25500000920E-02 0.  1.
</event>
<event>
 5   0  0.1984297E-01  0.5106902E+03  0.7818609E-02  0.1011026E+00
        1   -1    0    0  501    0  0.00000000000E+00  0.00000000000E+00  0.86216228760E+03  0.86216228761E+03  0.50400001928E-02 0. -1.
       -1   -1    0    0    0  501  0.00000000000E+00  0.00000000000E+00 -0.75625115567E+02  0.75625115735E+02  0.50400001928E-02 0.  1.
    10030    2    1    2    0    0  0.00000000000E+00  0.00000000000E+00  0.78653717203E+03  0.93778740335E+03  0.51069021030E+03 0.  0.
        3    1    3    3  502    0 -0.45257558763E+02 -0.12434214521E+03 -0.77543017496E+01  0.13254944397E+03  0.10100000352E+00 0.  1.
       -3    1    3    3    0  502  0.45257558763E+02  0.12434214521E+03  0.79429147378E+03  0.80523795938E+03  0.10100000352E+00 0. -1.
</event>
<event>
 5   0  0.3329246E-01  0.4734748E+03  0.7818609E-02  0.1020944E+00
       -2   -1    0    0    0  501  0.00000000000E+00  0.00000000000E+00  0.63233422146E+02  0.63233422198E+02  0.25500000920E-02 0. -1.
        2   -1    0    0  501    0  0.00000000000E+00  0.00000000000E+00 -0.88631269992E+03  0.88631269993E+03  0.25500000920E-02 0.  1.
    10030    2    1    2    0    0  0.00000000000E+00  0.00000000000E+00 -0.82307927778E+03  0.94954612213E+03  0.47347475174E+03 0.  0.
        2    1    3    3  502    0  0.15528059236E+03 -0.73227661569E+02 -0.73844114054E+03  0.75813565464E+03  0.25500000920E-02 0.  1.
       -2    1    3    3    0  502 -0.15528059236E+03  0.73227661569E+02 -0.84638137238E+02  0.19141046749E+03  0.25500000920E-02 0. -1.
</event>
<event>
 5   0  0.3117389E-01  0.5072293E+03  0.7818609E-02  0.1011909E+00
       -2   -1    0    0    0  501  0.00000000000E+00  0.00000000000E+00  0.25159335475E+03  0.25159335476E+03  0.25500000920E-02 0. -1.
        2   -1    0    0  501    0  0.00000000000E+00  0.00000000000E+00 -0.25565219609E+03  0.25565219611E+03  0.25500000920E-02 0.  1.
    10030    2    1    2    0    0  0.00000000000E+00  0.00000000000E+00 -0.40588413456E+01  0.50724555087E+03  0.50722931173E+03 0.  0.
        4    1    3    3  502    0 -0.17051190713E+03  0.53013437863E+01  0.18563682834E+03  0.25212112100E+03  0.12699999809E+01 0. -1.
       -4    1    3    3    0  502  0.17051190713E+03 -0.53013437863E+01 -0.18969566968E+03  0.25512442987E+03  0.12699999809E+01 0.  1.
</event>
<event>
 5   0  0.1967161E-01  0.4968297E+03  0.7818609E-02  0.1014610E+00
        1   -1    0    0  501    0  0.00000000000E+00  0.00000000000E+00  0.57504371372E+02  0.57504371593E+02  0.50400001928E-02 0. -1.
       -1   -1    0    0    0  501  0.00000000000E+00  0.00000000000E+00 -0.10731345763E+04  0.10731345763E+04  0.50400001928E-02 0.  1.
    10030    2    1    2    0    0  0.00000000000E+00  0.00000000000E+00 -0.10156302049E+04  0.11306389479E+04  0.49682966633E+03 0.  0.
        1    1    3    3  502    0  0.24399415874E+03  0.18423311011E+02 -0.41026814708E+03  0.47769500774E+03  0.50400001928E-02 0. -1.
       -1    1    3    3    0  502 -0.24399415874E+03 -0.18423311011E+02 -0.60536205782E+03  0.65294394013E+03  0.50400001928E-02 0.  1.
</event>
<event>
 5   0  0.1967161E-01  0.5069582E+03  0.7818609E-02  0.1011979E+00
        1   -1    0    0  501    0  0.00000000000E+00  0.00000000000E+00  0.54137409047E+03  0.54137409049E+03  0.50400001928E-02 0.  1.
       -1   -1    0    0    0  501  0.00000000000E+00  0.00000000000E+00 -0.11868255992E+03  0.11868256002E+03  0.50400001928E-02 0. -1.
    10030    2    1    2    0    0  0.00000000000E+00  0.00000000000E+00  0.42269153055E+03  0.66005665052E+03  0.50695823486E+03 0.  0.
        1    1    3    3  502    0  0.85885370591E+02 -0.23321063224E+03  0.27629122552E+03  0.37161853721E+03  0.50400001928E-02 0.  1.
       -1    1    3    3    0  502 -0.85885370591E+02  0.23321063224E+03  0.14640030503E+03  0.28843811331E+03  0.50400001928E-02 0. -1.
</event>
<event>
 5   0  0.3178149E-01  0.4546286E+03  0.7818609E-02  0.1026351E+00
        2   -1    0    0  501    0  0.00000000000E+00  0.00000000000E+00  0.41507660322E+03  0.41507660323E+03  0.25500000920E-02 0.  1.
       -2   -1    0    0    0  501  0.00000000000E+00  0.00000000000E+00 -0.12448735695E+03  0.12448735698E+03  0.25500000920E-02 0. -1.
    10030    2    1    2    0    0  0.00000000000E+00  0.00000000000E+00  0.29058924627E+03  0.53956396020E+03  0.45462859248E+03 0.  0.
        3    1    3    3  502    0  0.31582237659E+01  0.16133529081E+03 -0.44718504970E+02  0.16744791825E+03  0.10100000352E+00 0. -1.
       -3    1    3    3    0  502 -0.31582237659E+01 -0.16133529081E+03  0.33530775124E+03  0.37211604195E+03  0.10100000352E+00 0.  1.
</event>
<event>
 5   0  0.2013450E-01  0.4927340E+03  0.7818609E-02  0.1015693E+00
        1   -1    0    0  501    0  0.00000000000E+00  0.00000000000E+00  0.83316986454E+03  0.83316986456E+03  0.50400001928E-02 0.  1.
       -1   -1    0    0    0  501  0.00000000000E+00  0.00000000000E+00 -0.72850320520E+02  0.72850320694E+02  0.50400001928E-02 0. -1.
    10030    2    1    2    0    0  0.00000000000E+00  0.00000000000E+00  0.76031954402E+03  0.90602018525E+03  0.49273397190E+03 0.  0.
        4    1    3    3  502    0  0.11826994110E+03 -0.13223274039E+03  0.69448473005E+03  0.71678722769E+03  0.12699999809E+01 0.  1.
       -4    1    3    3    0  502 -0.11826994110E+03  0.13223274039E+03  0.65834813968E+02  0.18923295756E+03  0.12699999809E+01 0. -1.
</event>
<event>
 5   0  0.1967161E-01  0.4499737E+03  0.7818609E-02  0.1027730E+00
        1   -1    0    0  501    0  0.00000000000E+00  0.00000000000E+00  0.15958817884E+04  0.15958817884E+04  0.50400001928E-02 0. -1.
       -1   -1    0    0    0  501  0.00000000000E+00  0.00000000000E+00 -0.31718567882E+02  0.31718568282E+02  0.50400001928E-02 0.  1.
    10030    2    1    2    0    0  0.00000000000E+00  0.00000000000E+00  0.15641632205E+04  0.16276003567E+04  0.44997371109E+03 0.  0.
        1    1    3    3  502    0 -0.16790439258E+02  0.64844686220E+02  0.51847904828E+01  0.67183586233E+02  0.50400001928E-02 0.  1.
       -1    1    3    3    0  502  0.16790439258E+02 -0.64844686220E+02  0.15589784300E+04  0.15604167704E+04  0.50400001928E-02 0. -1.
</event>
<event>
 5   0  0.1292375E-01  0.4750142E+03  0.7818609E-02  0.1020514E+00
        3   -1    0    0  501    0  0.00000000000E+00  0.00000000000E+00  0.19316905265E+03  0.19316907905E+03  0.10100000352E+00 0.  1.
       -3   -1    0    0    0  501  0.00000000000E+00  0.00000000000E+00 -0.29202200924E+03  0.29202202671E+03  0.10100000352E+00 0. -1.
    10030    2    1    2    0    0  0.00000000000E+00  0.00000000000E+00 -0.98852956596E+02  0.48519110576E+03  0.47501421251E+03 0.  0.
        4    1    3    3  502    0  0.79300115889E+01  0.35332584489E+02 -0.28918230078E+03  0.29144346380E+03  0.12699999809E+01 0. -1.
       -4    1    3    3    0  502 -0.79300115889E+01 -0.35332584489E+02  0.19032934418E+03  0.19374764196E+03  0.12699999809E+01 0.  1.
</event>
<event>
 5   0  0.1967161E-01  0.4599029E+03  0.7818609E-02  0.1024809E+00
       -1   -1    0    0    0  501  0.00000000000E+00  0.00000000000E+00  0.44491026147E+03  0.44491026150E+03  0.50400001928E-02 0.  1.
        1   -1    0    0  501    0  0.00000000000E+00  0.00000000000E+00 -0.11885017599E+03  0.11885017609E+03  0.50400001928E-02 0. -1.
    10030    2    1    2    0    0  0.00000000000E+00  0.00000000000E+00  0.32606008548E+03  0.56376043759E+03  0.45990287197E+03 0.  0.
        1    1    3    3  502    0 -0.15910747517E+03  0.94379302166E+02  0.33045737276E+03  0.37871455816E+03  0.50400001928E-02 0.  1.
       -1    1    3    3    0  502  0.15910747517E+03 -0.94379302166E+02 -0.43972872717E+01  0.18504587943E+03  0.50400001928E-02 0. -1.
</event>
<event>
 5   0  0.1984297E-01  0.4923841E+03  0.7818609E-02  0.1015786E+00
       -1   -1    0    0    0  501  0.00000000000E+00  0.00000000000E+00  0.79279273144E+03  0.79279273146E+03  0.50400001928E-02 0. -1.
        1   -1    0    0  501    0  0.00000000000E+00  0.00000000000E+00 -0.76451922879E+02  0.76451923045E+02  0.50400001928E-02 0.  1.
    10030    2    1    2    0    0  0.00000000000E+00  0.00000000000E+00  0.71634080856E+03  0.86924465450E+03  0.49238411365E+03 0.  0.
        3    1    3    3  502    0 -0.23239175994E+03  0.48096729228E+02  0.24252401174E+03  0.33931862891E+03  0.10100000352E+00 0.  1.
       -3    1    3    3    0  502  0.23239175994E+03 -0.48096729228E+02  0.47381679682E+03  0.52992602559E+03  0.10100000352E+00 0. -1.
</event>
<event>
 5   0  0.3187123E-01  0.5402755E+03  0.7818609E-02  0.1003770E+00
       -2   -1    0    0    0  501  0.00000000000E+00  0.00000000000E+00  0.62837782970E+03  0.62837782970E+03  0.25500000920E-02 0. -1.
        2   -1    0    0  501    0  0.00000000000E+00  0.00000000000E+00 -0.11613142553E+03  0.11613142556E+03  0.25500000920E-02 0.  1.
    10030    2    1    2    0    0  0.00000000000E+00  0.00000000000E+00  0.51224640416E+03  0.74450925527E+03  0.54027553396E+03 0.  0.
        5    1    3    3  502    0 -0.61809729743E+02 -0.16448269613E+03  0.53879263742E+03  0.56674032515E+03  0.46999998093E+01 0. -1.
       -5    1    3    3    0  502  0.61809729743E+02  0.16448269613E+03 -0.26546233253E+02  0.17776893012E+03  0.46999998093E+01 0.  1.
</event>
<event>
 5   0  0.2013450E-01  0.5045518E+03  0.7818609E-02  0.1012598E+00
       -1   -1    0    0    0  501  0.00000000000E+00  0.00000000000E+00  0.49258159195E+02  0.49258159453E+02  0.50400001928E-02 0. -1.
        1   -1    0    0  501    0  0.00000000000E+00  0.00000000000E+00 -0.12920324144E+04  0.12920324144E+04  0.50400001928E-02 0.  1.
    10030    2    1    2    0    0  0.00000000000E+00  0.00000000000E+00 -0.12427742552E+04  0.13412905738E+04  0.50455183493E+03 0.  0.
        4    1    3    3  502    0  0.21441831454E+03 -0.11641633230E+03 -0.45088670827E+03  0.51266793603E+03  0.12699999809E+01 0. -1.
       -4    1    3    3    0  502 -0.21441831454E+03  0.11641633230E+03 -0.79188754691E+03  0.82862263781E+03  0.12699999809E+01 0.  1.
</event>
<event>
 5   0  0.1967161E-01  0.4997277E+03  0.7818609E-02  0.1013850E+00
       -1   -1    0    0    0  501  0.00000000000E+00  0.00000000000E+00  0.67499724193E+02  0.67499724381E+02  0.50400001928E-02 0. -1.
        1   -1    0    0  501    0  0.00000000000E+00  0.00000000000E+00 -0.92492142006E+03  0.92492142008E+03  0.50400001928E-02 0.  1.
    10030    2    1    2    0    0  0.00000000000E+00  0.00000000000E+00 -0.85742169587E+03  0.99242114446E+03  0.49972768927E+03 0.  0.
        1    1    3    3  502    0 -0.99206928499E+02 -0.87464745927E+02 -0.84970724302E+03  0.85993865788E+03  0.50400001928E-02 0. -1.
       -1    1    3    3    0  502  0.99206928499E+02  0.87464745927E+02 -0.77144528469E+01  0.13248248658E+03  0.50400001928E-02 0.  1.
</event>
<event>
 5   0  0.1967161E-01  0.4992799E+03  0.7818609E-02  0.1013967E+00
       -1   -1    0    0    0  501  0.00000000000E+00  0.00000000000E+00  0.75582171716E+03  0.75582171718E+03  0.50400001928E-02 0. -1.
        1   -1    0    0  501    0  0.00000000000E+00  0.00000000000E+00 -0.82453449009E+02  0.82453449163E+02  0.50400001928E-02 0.  1.
    10030    2    1    2    0    0  0.00000000000E+00  0.00000000000E+00  0.67336826816E+03  0.83827516634E+03  0.49927991142E+03 0.  0.
        1    1    3    3  502    0 -0.47253583211E+02 -0.67292514121E+02  0.73243276456E+03  0.73703387860E+03  0.50400001928E-02 0. -1.
       -1    1    3    3    0  502  0.47253583211E+02  0.67292514121E+02 -0.59064496402E+02  0.10124128774E+03  0.50400001928E-02 0.  1.
</event>
<event>
 5   0  0.3187123E-01  0.4260349E+03  0.7818609E-02  0.1035120E+00
        2   -1    0    0  501    0  0.00000000000E+00  0.00000000000E+00  0.58238690293E+03  0.58238690294E+03  0.25500000920E-02 0. -1.
       -2   -1    0    0    0  501  0.00000000000E+00  0.00000000000E+00 -0.77914594737E+02  0.77914594779E+02  0.25500000920E-02 0.  1.
    10030    2    1    2    0    0  0.00000000000E+00  0.00000000000E+00  0.50447230819E+03  0.66030149771E+03  0.42603492597E+03 0.  0.
        5    1    3    3  502    0  0.13542291919E+03  0.13281631635E+03  0.40230076406E+03  0.44480055721E+03  0.46999998093E+01 0. -1.
       -5    1    3    3    0  502 -0.13542291919E+03 -0.13281631635E+03  0.10217154413E+03  0.21550094050E+03  0.46999998093E+01 0.  1.
</event>
<event>
 5   0  0.1292375E-01  0.5002116E+03  0.7818609E-02  0.1013724E+00
       -3   -1    0    0    0  501  0.00000000000E+00  0.00000000000E+00  0.82343142014E+02  0.82343203956E+02  0.10100000352E+00 0. -1.
        3   -1    0    0  501    0  0.00000000000E+00  0.00000000000E+00 -0.75966121284E+03  0.75966121956E+03  0.10100000352E+00 0.  1.
    10030    2    1    2    0    0  0.00000000000E+00  0.00000000000E+00 -0.67731807083E+03  0.84200442351E+03  0.50021163535E+03 0.  0.
        3    1    3    3  502    0  0.13438045744E+03  0.10382354449E+03 -0.29575964161E+02  0.17237222395E+03  0.10100000352E+00 0. -1.
       -3    1    3    3    0  502 -0.13438045744E+03 -0.10382354449E+03 -0.64774210667E+03  0.66963219956E+03  0.10100000352E+00 0.  1.
</event>
<event>
 5   0  0.3117389E-01  0.5249283E+03  0.7818609E-02  0.1007470E+00
        2   -1    0    0  501    0  0.00000000000E+00  0.00000000000E+00  0.11686836853E+04  0.11686836853E+04  0.25500000920E-02 0.  1.
       -2   -1    0    0    0  501  0.00000000000E+00  0.00000000000E+00 -0.58944449927E+02  0.58944449982E+02  0.25500000920E-02 0. -1.
    10030    2    1    2    0    0  0.00000000000E+00  0.00000000000E+00  0.11097392354E+04  0.12276281353E+04  0.52492825035E+03 0.  0.
        4    1    3    3  502    0 -0.17906747196E+03 -0.81771435262E+02  0.14889784903E+03  0.24682769189E+03  0.12699999809E+01 0. -1.
       -4    1    3    3    0  502  0.17906747196E+03  0.81771435262E+02  0.96084138637E+03  0.98080044341E+03  0.12699999809E+01 0.  1.
</event>
<event>
 5   0  0.1984680E-01  0.5072040E+03  0.7818609E-02  0.1011915E+00
       -1   -1    0    0    0  501  0.00000000000E+00  0.00000000000E+00  0.47710553150E+03  0.47710553153E+03  0.50400001928E-02 0.  1.
        1   -1    0    0  501    0  0.00000000000E+00  0.00000000000E+00 -0.13480031058E+03  0.13480031068E+03  0.50400001928E-02 0. -1.
    10030    2    1    2    0    0  0.00000000000E+00  0.00000000000E+00  0.34230522092E+03  0.61190584221E+03  0.50720399787E+03 0.  0.
        5    1    3    3  502    0 -0.37613726025E+02  0.20677264164E+03  0.17430073833E-01  0.21021847687E+03  0.46999998093E+01 0. -1.
       -5    1    3    3    0  502  0.37613726025E+02 -0.20677264164E+03  0.34228779084E+03  0.40168736534E+03  0.46999998093E+01 0.  1.
</event>
<event>
 5   0  0.3117389E-01  0.4873547E+03  0.7818609E-02  0.1017133E+00
        2   -1    0    0  501    0  0.00000000000E+00  0.00000000000E+00  0.11200817447E+03  0.11200817450E+03  0.25500000920E-02 0. -1.
       -2   -1    0    0    0  501  0.00000000000E+00  0.00000000000E+00 -0.53012781796E+03  0.53012781797E+03  0.25500000920E-02 0.  1.
    10030    2    1    2    0    0  0.00000000000E+00  0.00000000000E+00 -0.41811964349E+03  0.64213599247E+03  0.48735469276E+03 0.  0.
        4    1    3    3  502    0 -0.83681881067E+02 -0.15047627132E+03  0.18129856914E+02  0.17313598719E+03  0.12699999809E+01 0. -1.
       -4    1    3    3    0  502  0.83681881067E+02  0.15047627132E+03 -0.43624950040E+03  0.46900000528E+03  0.12699999809E+01 0.  1.
</event>
<event>
 5   0  0.1984297E-01  0.4548702E+03  0.7818609E-02  0.1026280E+00
        1   -1    0    0  501    0  0.00000000000E+00  0.00000000000E+00  0.21840074773E+03  0.21840074779E+03  0.50400001928E-02 0. -1.
       -1   -1    0    0    0  501  0.00000000000E+00  0.00000000000E+00 -0.23684315836E+03  0.23684315841E+03  0.50400001928E-02 0.  1.
    10030    2    1    2    0    0  0.00000000000E+00  0.00000000000E+00 -0.18442410628E+02  0.45524390620E+03  0.45487019205E+03 0.  0.
        3    1    3    3  502    0  0.59595006141E+02 -0.21272373052E+03 -0.63337456378E+02  0.22981425949E+03  0.10100000352E+00 0.  1.
       -3    1    3    3    0  502 -0.59595006141E+02  0.21272373052E+03  0.44895045750E+02  0.22542964671E+03  0.10100000352E+00 0. -1.
</event>
<event>
 5   0  0.3329246E-01  0.4899237E+03  0.7818609E-02  0.1016443E+00
       -2   -1    0    0    0  501  0.00000000000E+00  0.00000000000E+00  0.59456883737E+02  0.59456883792E+02  0.25500000920E-02 0. -1.
        2   -1    0    0  501    0  0.00000000000E+00  0.00000000000E+00 -0.10092405201E+04  0.10092405201E+04  0.25500000920E-02 0.  1.
    10030    2    1    2    0    0  0.00000000000E+00  0.00000000000E+00 -0.94978363631E+03  0.10686974038E+04  0.48992365240E+03 0.  0.
        2    1    3    3  502    0 -0.24241751092E+02  0.24349468017E+03 -0.45011883495E+03  0.51233220409E+03  0.25500000920E-02 0.  1.
       -2    1    3    3    0  502  0.24241751092E+02 -0.24349468017E+03 -0.49966480136E+03  0.55636519975E+03  0.25500000920E-02 0. -1.
</event>
<event>
 5   0  0.3111146E-01  0.4916260E+03  0.7818609E-02  0.1015988E+00
        2   -1    0    0  501    0  0.00000000000E+00  0.00000000000E+00  0.12625950513E+04  0.12625950513E+04  0.25500000920E-02 0.  1.
       -2   -1    0    0    0  501  0.00000000000E+00  0.00000000000E+00 -0.47857016577E+02  0.47857016645E+02  0.25500000920E-02 0. -1.
    10030    2    1    2    0    0  0.00000000000E+00  0.00000000000E+00  0.12147380348E+04  0.13104520680E+04  0.49162600561E+03 0.  0.
        1    1    3    3  502    0 -0.19400321413E+03  0.13697010330E+03  0.43823853583E+03  0.49844866396E+03  0.50400001928E-02 0.  1.
       -1    1    3    3    0  502  0.19400321413E+03 -0.13697010330E+03  0.77649949894E+03  0.81200340404E+03  0.50400001928E-02 0. -1.
</event>
<event>
 5   0  0.1292375E-01  0.5059343E+03  0.7818609E-02  0.1012241E+00
       -3   -1    0    0    0  501  0.00000000000E+00  0.00000000000E+00  0.31171688970E+03  0.31171690607E+03  0.10100000352E+00 0. -1.
        3   -1    0    0  501    0  0.00000000000E+00  0.00000000000E+00 -0.20528999515E+03  0.20529001999E+03  0.10100000352E+00 0.  1.
    10030    2    1    2    0    0  0.00000000000E+00  0.00000000000E+00  0.10642689456E+03  0.51700692606E+03  0.50593426224E+03 0.  0.
        3    1    3    3  502    0  0.30948521646E+02 -0.11025777562E+03  0.28371099473E+03  0.30595183740E+03  0.10100000352E+00 0. -1.
       -3    1    3    3    0  502 -0.30948521646E+02  0.11025777562E+03 -0.17728410017E+03  0.21105508866E+03  0.10100000352E+00 0.  1.
</event>
<event>
 5   0  0.2013450E-01  0.4764963E+03  0.7818609E-02  0.1020103E+00
       -1   -1    0    0    0  501  0.00000000000E+00  0.00000000000E+00  0.36523911961E+03  0.36523911965E+03  0.50400001928E-02 0. -1.
        1   -1    0    0  501    0  0.00000000000E+00  0.00000000000E+00 -0.15541104135E+03  0.15541104143E+03  0.50400001928E-02 0.  1.
    10030    2    1    2    0    0  0.00000000000E+00  0.00000000000E+00  0.20982807826E+03  0.52065016108E+03  0.47649634606E+03 0.  0.
        4    1    3    3  502    0 -0.11135865589E+03  0.18033970446E+03 -0.13967647316E+02  0.21241437644E+03  0.12699999809E+01 0.  1.
       -4    1    3    3    0  502  0.11135865589E+03 -0.18033970446E+03  0.22379572558E+03  0.30823578464E+03  0.12699999809E+01 0. -1.
</event>
<event>
 5   0  0.3111146E-01  0.5038421E+03  0.7818609E-02  0.1012781E+00
        2   -1    0    0  501    0  0.00000000000E+00  0.00000000000E+00  0.14538001034E+04  0.14538001034E+04  0.25500000920E-02 0.  1.
       -2   -1    0    0    0  501  0.00000000000E+00  0.00000000000E+00 -0.43654021116E+02  0.43654021190E+02  0.25500000920E-02 0. -1.
    10030    2    1    2    0    0  0.00000000000E+00  0.00000000000E+00  0.14101460822E+04  0.14974541246E+04  0.50384211999E+03 0.  0.
        1    1    3    3  502    0  0.11627201823E+03 -0.58037261259E+02  0.63651588478E+02  0.14470325034E+03  0.50400001928E-02 0. -1.
       -1    1    3    3    0  502 -0.11627201823E+03  0.58037261259E+02  0.13464944938E+04  0.13527508742E+04  0.50400001928E-02 0.  1.
</event>
<event>
 5   0  0.1292375E-01  0.5008284E+03  0.7818609E-02  0.1013563E+00
        4   -1    0    0  501    0  0.00000000000E+00  0.00000000000E+00  0.12945403736E+03  0.12946026683E+03  0.12699999809E+01 0. -1.
       -4   -1    0    0    0  501  0.00000000000E+00  0.00000000000E+00 -0.48437928085E+03  0.48438094576E+03  0.12699999809E+01 0.  1.
    10030    2    1    2    0    0  0.00000000000E+00  0.00000000000E+00 -0.35492524349E+03  0.61384121259E+03  0.50082841953E+03 0.  0.
        4    1    3    3  502    0  0.17234860868E+03 -0.18088744776E+03 -0.15690409500E+03  0.29503359063E+03  0.12699999809E+01 0.  1.
       -4    1    3    3    0  502 -0.17234860868E+03  0.18088744776E+03 -0.19802114850E+03  0.31880762196E+03  0.12699999809E+01 0. -1.
</event>
<event>
 5   0  0.3117389E-01  0.4698686E+03  0.7818609E-02  0.1021957E+00
        2   -1    0    0  501    0  0.00000000000E+00  0.00000000000E+00  0.11272607593E+04  0.11272607593E+04  0.25500000920E-02 0.  1.
       -2   -1    0    0    0  501  0.00000000000E+00  0.00000000000E+00 -0.48963043339E+02  0.48963043405E+02  0.25500000920E-02 0. -1.
    10030    2    1    2    0    0  0.00000000000E+00  0.00000000000E+00  0.10782977160E+04  0.11762238027E+04  0.46986856653E+03 0.  0.
        4    1    3    3  502    0 -0.21245733061E+03 -0.63417859583E+02  0.34471831923E+03  0.40986860670E+03  0.12699999809E+01 0.  1.
       -4    1    3    3    0  502  0.21245733061E+03  0.63417859583E+02  0.73357939676E+03  0.76635519604E+03  0.12699999809E+01 0. -1.
</event>
<event>
 5   0  0.3178149E-01  0.4983714E+03  0.7818609E-02  0.1014205E+00
        2   -1    0    0  501    0  0.00000000000E+00  0.00000000000E+00  0.14059533901E+03  0.14059533904E+03  0.25500000920E-02 0. -1.
       -2   -1    0    0    0  501  0.00000000000E+00  0.00000000000E+00 -0.44164702469E+03  0.44164702469E+03  0.25500000920E-02 0.  1.
    10030    2    1    2    0    0  0.00000000000E+00  0.00000000000E+00 -0.30105168567E+03  0.58224236373E+03  0.49837140034E+03 0.  0.
        3    1    3    3  502    0  0.42628197614E+02 -0.24202482316E+03 -0.10235140863E+03  0.26621231997E+03  0.10100000352E+00 0. -1.
       -3    1    3    3    0  502 -0.42628197614E+02  0.24202482316E+03 -0.19870027705E+03  0.31603004376E+03  0.10100000352E+00 0.  1.
</event>
<event>
 5   0  0.2000612E-01  0.4988046E+03  0.7818609E-02  0.1014091E+00
        1   -1    0    0  501    0  0.00000000000E+00  0.00000000000E+00  0.32870472823E+03  0.32870472827E+03  0.50400001928E-02 0.  1.
       -1   -1    0    0    0  501  0.00000000000E+00  0.00000000000E+00 -0.18923215374E+03  0.18923215381E+03  0.50400001928E-02 0. -1.
    10030    2    1    2    0    0  0.00000000000E+00  0.00000000000E+00  0.13947257448E+03  0.51793688208E+03  0.49880458577E+03 0.  0.
        2    1    3    3  502    0  0.39262544010E+02  0.23084947366E+03 -0.19396043233E+02  0.23496645155E+03  0.25500000920E-02 0. -1.
       -2    1    3    3    0  502 -0.39262544010E+02 -0.23084947366E+03  0.15886861772E+03  0.28297043053E+03  0.25500000920E-02 0.  1.
</event>
<event>
 5   0  0.2013450E-01  0.4978318E+03  0.7818609E-02  0.1014346E+00
       -1   -1    0    0    0  501  0.00000000000E+00  0.00000000000E+00  0.90408608792E+02  0.90408608933E+02  0.50400001928E-02 0. -1.
        1   -1    0    0  501    0  0.00000000000E+00  0.00000000000E+00 -0.68532337476E+03  0.68532337478E+03  0.50400001928E-02 0.  1.
    10030    2    1    2    0    0  0.00000000000E+00  0.00000000000E+00 -0.59491476597E+03  0.77573198371E+03  0.49783183083E+03 0.  0.
        4    1    3    3  502    0  0.89808042020E+02  0.13492524933E+02  0.63666791210E+02  0.11091711249E+03  0.12699999809E+01 0. -1.
       -4    1    3    3    0  502 -0.89808042020E+02 -0.13492524933E+02 -0.65858155718E+03  0.66481487122E+03  0.12699999809E+01 0.  1.
</event>
<event>
 5   0  0.1984297E-01  0.4901225E+03  0.7818609E-02  0.1016390E+00
       -1   -1    0    0    0  501  0.00000000000E+00  0.00000000000E+00  0.15981856367E+03  0.15981856375E+03  0.50400001928E-02 0.  1.
        1   -1    0    0  501    0  0.00000000000E+00  0.00000000000E+00 -0.37577000709E+03  0.37577000713E+03  0.50400001928E-02 0. -1.
    10030    2    1    2    0    0  0.00000000000E+00  0.00000000000E+00 -0.21595144342E+03  0.53558857088E+03  0.49012252686E+03 0.  0.
        3    1    3    3  502    0  0.33004387522E+02  0.16766388449E+03 -0.29992487880E+03  0.34518894953E+03  0.10100000352E+00 0. -1.
       -3    1    3    3    0  502 -0.33004387522E+02 -0.16766388449E+03  0.83973435375E+02  0.19039962134E+03  0.10100000352E+00 0.  1.
</event>
<event>
 5   0  0.1984297E-01  0.6706219E+03  0.7818609E-02  0.9768835E-01
        1   -1    0    0  501    0  0.00000000000E+00  0.00000000000E+00  0.43117476049E+03  0.43117476052E+03  0.50400001928E-02 0. -1.
       -1   -1    0    0    0  501  0.00000000000E+00  0.00000000000E+00 -0.26076072069E+03  0.26076072074E+03  0.50400001928E-02 0.  1.
    10030    2    1    2    0    0  0.00000000000E+00  0.00000000000E+00  0.17041403981E+03  0.69193548126E+03  0.67062192424E+03 0.  0.
        3    1    3    3  502    0 -0.19200664345E+03  0.12042636149E+02  0.36856565907E+03  0.41575501375E+03  0.10100000352E+00 0. -1.
       -3    1    3    3    0  502  0.19200664345E+03 -0.12042636149E+02 -0.19815161927E+03  0.27618046751E+03  0.10100000352E+00 0.  1.
</event>
<event>
 5   0  0.3111146E-01  0.4993653E+03  0.7818609E-02  0.1013945E+00
        2   -1    0    0  501    0  0.00000000000E+00  0.00000000000E+00  0.57529538908E+03  0.57529538909E+03  0.25500000920E-02 0. -1.
       -2   -1    0    0    0  501  0.00000000000E+00  0.00000000000E+00 -0.10836419922E+03  0.10836419925E+03  0.25500000920E-02 0.  1.
    10030    2    1    2    0    0  0.00000000000E+00  0.00000000000E+00  0.46693118986E+03  0.68365958834E+03  0.49936529381E+03 0.  0.
        1    1    3    3  502    0  0.20416497498E+03 -0.74421896153E+02  0.40180656138E+03  0.45680462829E+03  0.50400001928E-02 0. -1.
       -1    1    3    3    0  502 -0.20416497498E+03  0.74421896153E+02  0.65124628480E+02  0.22685496004E+03  0.50400001928E-02 0.  1.
</event>
<event>
 5   0  0.3187123E-01  0.5010969E+03  0.7818609E-02  0.1013493E+00
       -2   -1    0    0    0  501  0.00000000000E+00  0.00000000000E+00  0.82140984418E+02  0.82140984458E+02  0.25500000920E-02 0.  1.
        2   -1    0    0  501    0  0.00000000000E+00  0.00000000000E+00 -0.76422890762E+03  0.76422890762E+03  0.25500000920E-02 0. -1.
    10030    2    1    2    0    0  0.00000000000E+00  0.00000000000E+00 -0.68208792320E+03  0.84636989208E+03  0.50109685615E+03 0.  0.
        5    1    3    3  502    0  0.10036795504E+03  0.22246660188E+03 -0.24568738657E+03  0.34633725943E+03  0.46999998093E+01 0. -1.
       -5    1    3    3    0  502 -0.10036795504E+03 -0.22246660188E+03 -0.43640053663E+03  0.50003263265E+03  0.46999998093E+01 0.  1.
</event>
<event>
 5   0  0.3329246E-01  0.4987339E+03  0.7818609E-02  0.1014110E+00
       -2   -1    0    0    0  501  0.00000000000E+00  0.00000000000E+00  0.49604461238E+03  0.49604461238E+03  0.25500000920E-02 0. -1.
        2   -1    0    0  501    0  0.00000000000E+00  0.00000000000E+00 -0.12535943291E+03  0.12535943293E+03  0.25500000920E-02 0.  1.
    10030    2    1    2    0    0  0.00000000000E+00  0.00000000000E+00  0.37068517947E+03  0.62140404531E+03  0.49873388220E+03 0.  0.
        2    1    3    3  502    0  0.72162362901E+01  0.14965702063E+03 -0.63021887353E+02  0.16254555110E+03  0.25500000920E-02 0.  1.
       -2    1    3    3    0  502 -0.72162362901E+01 -0.14965702063E+03  0.43370706682E+03  0.45885849421E+03  0.25500000920E-02 0. -1.
</event>
<event>
 5   0  0.1967161E-01  0.5059011E+03  0.7818609E-02  0.1012250E+00
       -1   -1    0    0    0  501  0.00000000000E+00  0.00000000000E+00  0.22128915185E+03  0.22128915190E+03  0.50400001928E-02 0. -1.
        1   -1    0    0  501    0  0.00000000000E+00  0.00000000000E+00 -0.28914192446E+03  0.28914192451E+03  0.50400001928E-02 0.  1.
    10030    2    1    2    0    0  0.00000000000E+00  0.00000000000E+00 -0.67852772618E+02  0.51043107641E+03  0.50590106248E+03 0.  0.
        1    1    3    3  502    0  0.17312210338E+03  0.16763492934E+03 -0.11149942001E+03  0.26552749933E+03  0.50400001928E-02 0.  1.
       -1    1    3    3    0  502 -0.17312210338E+03 -0.16763492934E+03  0.43646647391E+02  0.24490357708E+03  0.50400001928E-02 0. -1.
</event>
<event>
 5   0  0.3329246E-01  0.5077493E+03  0.7818609E-02  0.1011776E+00
        2   -1    0    0  501    0  0.00000000000E+00  0.00000000000E+00  0.23805839988E+04  0.23805839988E+04  0.25500000920E-02 0. -1.
       -2   -1    0    0    0  501  0.00000000000E+00  0.00000000000E+00 -0.27074172647E+02  0.27074172767E+02  0.25500000920E-02 0.  1.
    10030    2    1    2    0    0  0.00000000000E+00  0.00000000000E+00  0.23535098262E+04  0.24076581716E+04  0.50774931741E+03 0.  0.
        2    1    3    3  502    0 -0.23728580773E+03  0.67875908026E+02  0.14589093670E+04  0.14796378728E+04  0.25500000920E-02 0. -1.
       -2    1    3    3    0  502  0.23728580773E+03 -0.67875908026E+02  0.89460045915E+03  0.92802029879E+03  0.25500000920E-02 0.  1.
</event>
<event>
 5   0  0.1967161E-01  0.5003243E+03  0.7818609E-02  0.1013694E+00
       -1   -1    0    0    0  501  0.00000000000E+00  0.00000000000E+00  0.63293604270E+02  0.63293604470E+02  0.50400001928E-02 0.  1.
        1   -1    0    0  501    0  0.00000000000E+00  0.00000000000E+00 -0.98874277458E+03  0.98874277459E+03  0.50400001928E-02 0. -1.
    10030    2    1    2    0    0  0.00000000000E+00  0.00000000000E+00 -0.92544917031E+03  0.10520363791E+04  0.50032427089E+03 0.  0.
        1    1    3    3  502    0  0.15502529752E+02  0.15700175461E+02 -0.98669280876E+03  0.98693947273E+03  0.50400001928E-02 0. -1.
       -1    1    3    3    0  502 -0.15502529752E+02 -0.15700175461E+02  0.61243638452E+02  0.65096906336E+02  0.50400001928E-02 0.  1.
</event>
<event>
 5   0  0.1984680E-01  0.4927970E+03  0.7818609E-02  0.1015676E+00
        1   -1    0    0  501    0  0.00000000000E+00  0.00000000000E+00  0.47285439522E+03  0.47285439524E+03  0.50400001928E-02 0. -1.
       -1   -1    0    0    0  501  0.00000000000E+00  0.00000000000E+00 -0.12839516719E+03  0.12839516729E+03  0.50400001928E-02 0.  1.
    10030    2    1    2    0    0  0.00000000000E+00  0.00000000000E+00  0.34445922803E+03  0.60124956253E+03  0.49279699337E+03 0.  0.
        5    1    3    3  502    0  0.12819503647E+03  0.18720285594E+03  0.28932669476E+03  0.36771035197E+03  0.46999998093E+01 0. -1.
       -5    1    3    3    0  502 -0.12819503647E+03 -0.18720285594E+03  0.55132533269E+02  0.23353921056E+03  0.46999998093E+01 0.  1.
</event>
<event>
 5   0  0.3117389E-01  0.5064049E+03  0.7818609E-02  0.1012121E+00
        2   -1    0    0  501    0  0.00000000000E+00  0.00000000000E+00  0.32788329087E+03  0.32788329088E+03  0.25500000920E-02 0. -1.
       -2   -1    0    0    0  501  0.00000000000E+00  0.00000000000E+00 -0.19553140298E+03  0.19553140299E+03  0.25500000920E-02 0.  1.
    10030    2    1    2    0    0  0.00000000000E+00  0.00000000000E+00  0.13235188789E+03  0.52341469388E+03  0.50640489683E+03 0.  0.
        4    1    3    3  502    0 -0.16595173182E+03 -0.12669040282E+03 -0.81881646191E+02  0.22426915156E+03  0.12699999809E+01 0.  1.
       -4    1    3    3    0  502  0.16595173182E+03  0.12669040282E+03  0.21423353409E+03  0.29914554231E+03  0.12699999809E+01 0. -1.
</event>
<event>
 5   0  0.1967161E-01  0.4956512E+03  0.7818609E-02  0.1014920E+00
        1   -1    0    0  501    0  0.00000000000E+00  0.00000000000E+00  0.96369701075E+03  0.96369701076E+03  0.50400001928E-02 0.  1.
       -1   -1    0    0    0  501  0.00000000000E+00  0.00000000000E+00 -0.63731164123E+02  0.63731164322E+02  0.50400001928E-02 0. -1.
    10030    2    1    2    0    0  0.00000000000E+00  0.00000000000E+00  0.89996584663E+03  0.10274281751E+04  0.49565121796E+03 0.  0.
        1    1    3    3  502    0 -0.44452584123E+02 -0.18655534416E+03  0.12460855333E+03  0.22870553176E+03  0.50400001928E-02 0. -1.
       -1    1    3    3    0  502  0.44452584123E+02  0.18655534416E+03  0.77535729330E+03  0.79872264333E+03  0.50400001928E-02 0.  1.
</event>
<event>
 5   0  0.1984680E-01  0.4978107E+03  0.7818609E-02  0.1014352E+00
        1   -1    0    0  501    0  0.00000000000E+00  0.00000000000E+00  0.11711744965E+03  0.11711744976E+03  0.50400001928E-02 0. -1.
       -1   -1    0    0    0  501  0.00000000000E+00  0.00000000000E+00 -0.52898929257E+03  0.52898929260E+03  0.50400001928E-02 0.  1.
    10030    2    1    2    0    0  0.00000000000E+00  0.00000000000E+00 -0.41187184293E+03  0.64610674235E+03  0.49781071455E+03 0.  0.
        5    1    3    3  502    0 -0.78677988082E+02  0.12072748919E+03  0.57400942702E+02  0.15518476303E+03  0.46999998093E+01 0. -1.
       -5    1    3    3    0  502  0.78677988082E+02 -0.12072748919E+03 -0.46927278563E+03  0.49092197932E+03  0.46999998093E+01 0.  1.
</event>
<event>
 5   0  0.1967161E-01  0.5492961E+03  0.7818609E-02  0.1001657E+00
        1   -1    0    0  501    0  0.00000000000E+00  0.00000000000E+00  0.18235373401E+03  0.18235373408E+03  0.50400001928E-02 0. -1.
       -1   -1    0    0    0  501  0.00000000000E+00  0.00000000000E+00 -0.41365512606E+03  0.41365512609E+03  0.50400001928E-02 0.  1.
    10030    2    1    2    0    0  0.00000000000E+00  0.00000000000E+00 -0.23130139204E+03  0.59600886017E+03  0.54929611999E+03 0.  0.
        1    1    3    3  502    0  0.15556341851E+03  0.74533653888E+02  0.11624447765E+03  0.20800966648E+03  0.50400001928E-02 0. -1.
       -1    1    3    3    0  502 -0.15556341851E+03 -0.74533653888E+02 -0.34754586969E+03  0.38799919369E+03  0.50400001928E-02 0.  1.
</event>
<event>
 5   0  0.2000612E-01  0.5008517E+03  0.7818609E-02  0.1013557E+00
       -1   -1    0    0    0  501  0.00000000000E+00  0.00000000000E+00  0.49136424904E+02  0.49136425162E+02  0.50400001928E-02 0. -1.
        1   -1    0    0  501    0  0.00000000000E+00  0.00000000000E+00 -0.12763056164E+04  0.12763056164E+04  0.50400001928E-02 0.  1.
    10030    2    1    2    0    0  0.00000000000E+00  0.00000000000E+00 -0.12271691915E+04  0.13254420416E+04  0.50085165569E+03 0.  0.
        2    1    3    3  502    0  0.41213273285E+02  0.18759781055E+03 -0.18833550410E+03  0.26900136529E+03  0.25500000920E-02 0. -1.
       -2    1    3    3    0  502 -0.41213273285E+02 -0.18759781055E+03 -0.10388336874E+04  0.10564406763E+04  0.25500000920E-02 0.  1.
</event>
<event>
 5   0  0.2000612E-01  0.5000700E+03  0.7818609E-02  0.1013761E+00
       -1   -1    0    0    0  501  0.00000000000E+00  0.00000000000E+00  0.62435363916E+02  0.62435364120E+02  0.50400001928E-02 0.  1.
        1   -1    0    0  501    0  0.00000000000E+00  0.00000000000E+00 -0.10013157442E+04  0.10013157442E+04  0.50400001928E-02 0. -1.
    10030    2    1    2    0    0  0.00000000000E+00  0.00000000000E+00 -0.93888038030E+03  0.10637511083E+04  0.50007004709E+03 0.  0.
        2    1    3    3  502    0 -0.49278309249E+02 -0.23490675077E+03 -0.32041469927E+03  0.40034374334E+03  0.25500000920E-02 0.  1.
       -2    1    3    3    0  502  0.49278309249E+02  0.23490675077E+03 -0.61846568103E+03  0.66340736500E+03  0.25500000920E-02 0. -1.
</event>
<event>
 5   0  0.1292375E-01  0.5061032E+03  0.7818609E-02  0.1012198E+00
       -3   -1    0    0    0  501  0.00000000000E+00  0.00000000000E+00  0.15262480561E+03  0.15262483903E+03  0.10100000352E+00 0.  1.
        3   -1    0    0  501    0  0.00000000000E+00  0.00000000000E+00 -0.41955886110E+03  0.41955887325E+03  0.10100000352E+00 0. -1.
    10030    2    1    2    0    0  0.00000000000E+00  0.00000000000E+00 -0.26693405549E+03  0.57218371228E+03  0.50610316204E+03 0.  0.
        3    1    3    3  502    0 -0.20486210513E+03 -0.90056341354E+02 -0.26702941316E+03  0.34840112576E+03  0.10100000352E+00 0. -1.
       -3    1    3    3    0  502  0.20486210513E+03  0.90056341354E+02  0.95357669217E-01  0.22378258653E+03  0.10100000352E+00 0.  1.
</event>
<event>
 5   0  0.1292375E-01  0.5006812E+03  0.7818609E-02  0.1013601E+00
       -3   -1    0    0    0  501  0.00000000000E+00  0.00000000000E+00  0.48584512446E+03  0.48584513496E+03  0.10100000352E+00 0. -1.
        3   -1    0    0  501    0  0.00000000000E+00  0.00000000000E+00 -0.12899255884E+03  0.12899259839E+03  0.10100000352E+00 0.  1.
    10030    2    1    2    0    0  0.00000000000E+00  0.00000000000E+00  0.35685256561E+03  0.61483773334E+03  0.50068122069E+03 0.  0.
        5    1    3    3  502    0  0.22402698358E+03 -0.70757315808E+02  0.28444524186E+03  0.36895239900E+03  0.46999998093E+01 0. -1.
       -5    1    3    3    0  502 -0.22402698358E+03  0.70757315808E+02  0.72407323752E+02  0.24588533434E+03  0.46999998093E+01 0.  1.
</event>
<event>
 5   0  0.1984680E-01  0.5037288E+03  0.7818609E-02  0.1012810E+00
        1   -1    0    0  501    0  0.00000000000E+00  0.00000000000E+00  0.33833015421E+03  0.33833015425E+03  0.50400001928E-02 0. -1.
       -1   -1    0    0    0  501  0.00000000000E+00  0.00000000000E+00 -0.18749636671E+03  0.18749636678E+03  0.50400001928E-02 0.  1.
    10030    2    1    2    0    0  0.00000000000E+00  0.00000000000E+00  0.15083378750E+03  0.52582652102E+03  0.50372879485E+03 0.  0.
        5    1    3    3  502    0  0.19614799116E+03  0.10915599938E+02  0.23987303541E+03  0.31008764547E+03  0.46999998093E+01 0. -1.
       -5    1    3    3    0  502 -0.19614799116E+03 -0.10915599938E+02 -0.89039247910E+02  0.21573887555E+03  0.46999998093E+01 0.  1.
</event>
<event>
 5   0  0.3111146E-01  0.5352800E+03  0.7818609E-02  0.1004960E+00
       -2   -1    0    0    0  501  0.00000000000E+00  0.00000000000E+00  0.75417743576E+02  0.75417743619E+02  0.25500000920E-02 0.  1.
        2   -1    0    0  501    0  0.00000000000E+00  0.00000000000E+00 -0.94979204999E+03  0.94979204999E+03  0.25500000920E-02 0. -1.
    10030    2    1    2    0    0  0.00000000000E+00  0.00000000000E+00 -0.87437430641E+03  0.10252097936E+04  0.53528001383E+03 0.  0.
        1    1    3    3  502    0 -0.33078581421E+02  0.35733658920E+02  0.66862398112E+02  0.82714371395E+02  0.50400001928E-02 0.  1.
       -1    1    3    3    0  502  0.33078581421E+02 -0.35733658920E+02 -0.94123670452E+03  0.94249542222E+03  0.50400001928E-02 0. -1.
</event>
<event>
 5   0  0.2000612E-01  0.5066348E+03  0.7818609E-02  0.1012061E+00
       -1   -1    0    0    0  501  0.00000000000E+00  0.00000000000E+00  0.71063121275E+02  0.71063121454E+02  0.50400001928E-02 0.  1.
        1   -1    0    0  501    0  0.00000000000E+00  0.00000000000E+00 -0.90299594190E+03  0.90299594192E+03  0.50400001928E-02 0. -1.
    10030    2    1    2    0    0  0.00000000000E+00  0.00000000000E+00 -0.83193282063E+03  0.97405906337E+03  0.50663482006E+03 0.  0.
        2    1    3    3  502    0 -0.14431420833E+02 -0.24493034371E+03 -0.29481827268E+03  0.38355827861E+03  0.25500000920E-02 0. -1.
       -2    1    3    3    0  502  0.14431420833E+02  0.24493034371E+03 -0.53711454795E+03  0.59050078476E+03  0.25500000920E-02 0.  1.
</event>
<event>
 5   0  0.3178149E-01  0.5074593E+03  0.7818609E-02  0.1011850E+00
        2   -1    0    0  501    0  0.00000000000E+00  0.00000000000E+00  0.39367431734E+03  0.39367431735E+03  0.25500000920E-02 0. -1.
       -2   -1    0    0    0  501  0.00000000000E+00  0.00000000000E+00 -0.16353295666E+03  0.16353295668E+03  0.25500000920E-02 0.  1.
    10030    2    1    2    0    0  0.00000000000E+00  0.00000000000E+00  0.23014136068E+03  0.55720727403E+03  0.50745925978E+03 0.  0.
        3    1    3    3  502    0  0.21910807825E+03 -0.11848706598E+01 -0.25413089448E+02  0.22058011966E+03  0.10100000352E+00 0.  1.
       -3    1    3    3    0  502 -0.21910807825E+03  0.11848706598E+01  0.25555445013E+03  0.33662715436E+03  0.10100000352E+00 0. -1.
</event>
<event>
 5   0  0.2013450E-01  0.4980058E+03  0.7818609E-02  0.1014301E+00
        1   -1    0    0  501    0  0.00000000000E+00  0.00000000000E+00  0.18664314823E+03  0.18664314830E+03  0.50400001928E-02 0.  1.
       -1   -1    0    0    0  501  0.00000000000E+00  0.00000000000E+00 -0.33219785249E+03  0.33219785253E+03  0.50400001928E-02 0. -1.
    10030    2    1    2    0    0  0.00000000000E+00  0.00000000000E+00 -0.14555470426E+03  0.51884100082E+03  0.49800583551E+03 0.  0.
        4    1    3    3  502    0  0.19030473908E+03 -0.12162609892E+02 -0.23959177811E+03  0.30621831400E+03  0.12699999809E+01 0. -1.
       -4    1    3    3    0  502 -0.19030473908E+03  0.12162609892E+02  0.94037073845E+02  0.21262268682E+03  0.12699999809E+01 0.  1.
</event>
<event>
 5   0  0.3111146E-01  0.4345041E+03  0.7818609E-02  0.1032447E+00
        2   -1    0    0  501    0  0.00000000000E+00  0.00000000000E+00  0.30361116017E+03  0.30361116018E+03  0.25500000920E-02 0. -1.
       -2   -1    0    0    0  501  0.00000000000E+00  0.00000000000E+00 -0.15545689333E+03  0.15545689335E+03  0.25500000920E-02 0.  1.
    10030    2    1    2    0    0  0.00000000000E+00  0.00000000000E+00  0.14815426684E+03  0.45906805353E+03  0.43450407477E+03 0.  0.
        1    1    3    3  502    0  0.67139190171E+02  0.15744154325E+03  0.21544326157E+03  0.27515688140E+03  0.50400001928E-02 0. -1.
       -1    1    3    3    0  502 -0.67139190171E+02 -0.15744154325E+03 -0.67288994732E+02  0.18391117213E+03  0.50400001928E-02 0.  1.
</event>
<event>
 5   0  0.1967161E-01  0.5345930E+03  0.7818609E-02  0.1005124E+00
       -1   -1    0    0    0  501  0.00000000000E+00  0.00000000000E+00  0.39843044124E+02  0.39843044443E+02  0.50400001928E-02 0.  1.
        1   -1    0    0  501    0  0.00000000000E+00  0.00000000000E+00 -0.17932220667E+04  0.17932220667E+04  0.50400001928E-02 0. -1.
    10030    2    1    2    0    0  0.00000000000E+00  0.00000000000E+00 -0.17533790226E+04  0.18330651111E+04  0.53459302736E+03 0.  0.
        1    1    3    3  502    0 -0.15722915849E+03  0.89666729621E+02 -0.20226526689E+03  0.27142654420E+03  0.50400001928E-02 0.  1.
       -1    1    3    3    0  502  0.15722915849E+03 -0.89666729621E+02 -0.15511137557E+04  0.15616385669E+04  0.50400001928E-02 0. -1.
</event>
<event>
 5   0  0.3117389E-01  0.4906420E+03  0.7818609E-02  0.1016251E+00
       -2   -1    0    0    0  501  0.00000000000E+00  0.00000000000E+00  0.28401642483E+03  0.28401642484E+03  0.25500000920E-02 0.  1.
        2   -1    0    0  501    0  0.00000000000E+00  0.00000000000E+00 -0.21189756888E+03  0.21189756889E+03  0.25500000920E-02 0. -1.
    10030    2    1    2    0    0  0.00000000000E+00  0.00000000000E+00  0.72118855951E+02  0.49591399373E+03  0.49064198739E+03 0.  0.
        4    1    3    3  502    0  0.10038754010E+03 -0.17430468150E+02 -0.18949598882E+03  0.21515534412E+03  0.12699999809E+01 0. -1.
       -4    1    3    3    0  502 -0.10038754010E+03  0.17430468150E+02  0.26161484477E+03  0.28075864961E+03  0.12699999809E+01 0.  1.
</event>
<event>
 5   0  0.1292375E-01  0.4945358E+03  0.7818609E-02  0.1015215E+00
        3   -1    0    0  501    0  0.00000000000E+00  0.00000000000E+00  0.12071950285E+03  0.12071954510E+03  0.10100000352E+00 0. -1.
       -3   -1    0    0    0  501  0.00000000000E+00  0.00000000000E+00 -0.50647499878E+03  0.50647500885E+03  0.10100000352E+00 0.  1.
    10030    2    1    2    0    0  0.00000000000E+00  0.00000000000E+00 -0.38575549593E+03  0.62719455395E+03  0.49453584892E+03 0.  0.
        2    1    3    3  502    0  0.36701738430E+02 -0.73869270259E+02  0.10275686794E+03  0.13176744897E+03  0.25500000920E-02 0. -1.
       -2    1    3    3    0  502 -0.36701738430E+02  0.73869270259E+02 -0.48851236387E+03  0.49542710498E+03  0.25500000920E-02 0.  1.
</event>
<event>
 5   0  0.3117389E-01  0.5335690E+03  0.7818609E-02  0.1005370E+00
       -2   -1    0    0    0  501  0.00000000000E+00  0.00000000000E+00  0.40890655761E+02  0.40890655840E+02  0.25500000920E-02 0. -1.
        2   -1    0    0  501    0  0.00000000000E+00  0.00000000000E+00 -0.17405927166E+04  0.17405927166E+04  0.25500000920E-02 0.  1.
    10030    2    1    2    0    0  0.00000000000E+00  0.00000000000E+00 -0.16997020609E+04  0.17814833725E+04  0.53356903084E+03 0.  0.
        4    1    3    3  502    0 -0.10180552072E+03 -0.18744944691E+03 -0.13847971746E+04  0.14011304318E+04  0.12699999809E+01 0.  1.
       -4    1    3    3    0  502  0.10180552072E+03  0.18744944691E+03 -0.31490488630E+03  0.38035294072E+03  0.12699999809E+01 0. -1.
</event>
<event>
 5   0  0.3187123E-01  0.4852600E+03  0.7818609E-02  0.1017699E+00
       -2   -1    0    0    0  501  0.00000000000E+00  0.00000000000E+00  0.12426493706E+03  0.12426493708E+03  0.25500000920E-02 0.  1.
        2   -1    0    0  501    0  0.00000000000E+00  0.00000000000E+00 -0.47374043660E+03  0.47374043661E+03  0.25500000920E-02 0. -1.
    10030    2    1    2    0    0  0.00000000000E+00  0.00000000000E+00 -0.34947549954E+03  0.59800537369E+03  0.48526003563E+03 0.  0.
        5    1    3    3  502    0  0.19320267979E+03  0.14575594904E+03 -0.15429563202E+03  0.28705627361E+03  0.46999998093E+01 0.  1.
       -5    1    3    3    0  502 -0.19320267979E+03 -0.14575594904E+03 -0.19517986752E+03  0.31094910008E+03  0.46999998093E+01 0. -1.
</event>
<event>
 5   0  0.3329246E-01  0.4839398E+03  0.7818609E-02  0.1018058E+00
        2   -1    0    0  501    0  0.00000000000E+00  0.00000000000E+00  0.89800315916E+03  0.89800315916E+03  0.25500000920E-02 0. -1.
       -2   -1    0    0    0  501  0.00000000000E+00  0.00000000000E+00 -0.65199584569E+02  0.65199584619E+02  0.25500000920E-02 0.  1.
    10030    2    1    2    0    0  0.00000000000E+00  0.00000000000E+00  0.83280357459E+03  0.96320274378E+03  0.48393980181E+03 0.  0.
        2    1    3    3  502    0  0.18754796551E+03  0.36917963859E+01  0.11218909622E+03  0.21857324183E+03  0.25500000920E-02 0.  1.
       -2    1    3    3    0  502 -0.18754796551E+03 -0.36917963859E+01  0.72061447837E+03  0.74462950195E+03  0.25500000920E-02 0. -1.
</event>
<event>
 5   0  0.3178149E-01  0.4410078E+03  0.7818609E-02  0.1030438E+00
        2   -1    0    0  501    0  0.00000000000E+00  0.00000000000E+00  0.19440780930E+04  0.19440780930E+04  0.25500000920E-02 0. -1.
       -2   -1    0    0    0  501  0.00000000000E+00  0.00000000000E+00 -0.25010300766E+02  0.25010300896E+02  0.25500000920E-02 0.  1.
    10030    2    1    2    0    0  0.00000000000E+00  0.00000000000E+00  0.19190677922E+04  0.19690883939E+04  0.44100783642E+03 0.  0.
        3    1    3    3  502    0 -0.20854075456E+03  0.21109429528E+02  0.65385064964E+03  0.68662619857E+03  0.10100000352E+00 0.  1.
       -3    1    3    3    0  502  0.20854075456E+03 -0.21109429528E+02  0.12652171426E+04  0.12824621953E+04  0.10100000352E+00 0. -1.
</event>
<event>
 5   0  0.3178149E-01  0.4957085E+03  0.7818609E-02  0.1014905E+00
       -2   -1    0    0    0  501  0.00000000000E+00  0.00000000000E+00  0.41591526961E+02  0.41591527040E+02  0.25500000920E-02 0. -1.
        2   -1    0    0  501    0  0.00000000000E+00  0.00000000000E+00 -0.14770252492E+04  0.14770252492E+04  0.25500000920E-02 0.  1.
    10030    2    1    2    0    0  0.00000000000E+00  0.00000000000E+00 -0.14354337222E+04  0.15186167762E+04  0.49570852538E+03 0.  0.
        3    1    3    3  502    0 -0.16058417057E+03 -0.11392661519E+03 -0.25650406129E+03  0.32335876846E+03  0.10100000352E+00 0. -1.
       -3    1    3    3    0  502  0.16058417057E+03  0.11392661519E+03 -0.11789296609E+04  0.11952580077E+04  0.10100000352E+00 0.  1.
</event>
<event>
 5   0  0.3329246E-01  0.4949380E+03  0.7818609E-02  0.1015109E+00
        2   -1    0    0  501    0  0.00000000000E+00  0.00000000000E+00  0.64823421121E+03  0.64823421121E+03  0.25500000920E-02 0.  1.
       -2   -1    0    0    0  501  0.00000000000E+00  0.00000000000E+00 -0.94473420469E+02  0.94473420504E+02  0.25500000920E-02 0. -1.
    10030    2    1    2    0    0  0.00000000000E+00  0.00000000000E+00  0.55376079074E+03  0.74270763172E+03  0.49493798889E+03 0.  0.
        2    1    3    3  502    0 -0.19418518860E+03 -0.10687996123E+03  0.11174749711E+03  0.24823117592E+03  0.25500000920E-02 0. -1.
       -2    1    3    3    0  502  0.19418518860E+03  0.10687996123E+03  0.44201329363E+03  0.49447645579E+03  0.25500000920E-02 0.  1.
</event>
<event>
 5   0  0.1984680E-01  0.5014522E+03  0.7818609E-02  0.1013401E+00
        1   -1    0    0  501    0  0.00000000000E+00  0.00000000000E+00  0.11024183743E+04  0.11024183743E+04  0.50400001928E-02 0. -1.
       -1   -1    0    0    0  501  0.00000000000E+00  0.00000000000E+00 -0.57023341550E+02  0.57023341773E+02  0.50400001928E-02 0.  1.
    10030    2    1    2    0    0  0.00000000000E+00  0.00000000000E+00  0.10453950327E+04  0.11594417161E+04  0.50145220958E+03 0.  0.
        5    1    3    3  502    0  0.24840193952E+03 -0.12463089429E+02  0.45021787540E+03  0.51437056436E+03  0.46999998093E+01 0. -1.
       -5    1    3    3    0  502 -0.24840193952E+03  0.12463089429E+02  0.59517715734E+03  0.64507115171E+03  0.46999998093E+01 0.  1.
</event>
<event>
 5   0  0.1292375E-01  0.5002588E+03  0.7818609E-02  0.1013711E+00
        4   -1    0    0  501    0  0.00000000000E+00  0.00000000000E+00  0.12351242851E+03  0.12351895764E+03  0.12699999809E+01 0.  1.
       -4   -1    0    0    0  501  0.00000000000E+00  0.00000000000E+00 -0.50652525101E+03  0.50652684313E+03  0.12699999809E+01 0. -1.
    10030    2    1    2    0    0  0.00000000000E+00  0.00000000000E+00 -0.38301282250E+03  0.63004580077E+03  0.50025882188E+03 0.  0.
        2    1    3    3  502    0 -0.19568149015E+02 -0.99768136859E+02  0.96319307506E+02  0.14005000033E+03  0.25500000920E-02 0.  1.
       -2    1    3    3    0  502  0.19568149015E+02  0.99768136859E+02 -0.47933213000E+03  0.48999580044E+03  0.25500000920E-02 0. -1.
</event>
<event>
 5   0  0.3178149E-01  0.4875793E+03  0.7818609E-02  0.1017073E+00
       -2   -1    0    0    0  501  0.00000000000E+00  0.00000000000E+00  0.31532564570E+03  0.31532564571E+03  0.25500000920E-02 0. -1.
        2   -1    0    0  501    0  0.00000000000E+00  0.00000000000E+00 -0.18848260190E+03  0.18848260192E+03  0.25500000920E-02 0.  1.
    10030    2    1    2    0    0  0.00000000000E+00  0.00000000000E+00  0.12684304380E+03  0.50380824763E+03  0.48757931931E+03 0.  0.
        3    1    3    3  502    0  0.17370978131E+03 -0.17027607810E+03  0.46621283192E+02  0.24767435302E+03  0.10100000352E+00 0.  1.
       -3    1    3    3    0  502 -0.17370978131E+03  0.17027607810E+03  0.80221760604E+02  0.25613389461E+03  0.10100000352E+00 0. -1.
</event>
<event>
 5   0  0.2013450E-01  0.5185933E+03  0.7818609E-02  0.1009037E+00
        1   -1    0    0  501    0  0.00000000000E+00  0.00000000000E+00  0.11197262306E+04  0.11197262306E+04  0.50400001928E-02 0. -1.
       -1   -1    0    0    0  501  0.00000000000E+00  0.00000000000E+00 -0.60045697242E+02  0.60045697454E+02  0.50400001928E-02 0.  1.
    10030    2    1    2    0    0  0.00000000000E+00  0.00000000000E+00  0.10596805333E+04  0.11797719280E+04  0.51859326015E+03 0.  0.
        4    1    3    3  502    0 -0.43643031702E+02  0.93069254929E+02 -0.11704665377E+02  0.10346599693E+03  0.12699999809E+01 0.  1.
       -4    1    3    3    0  502  0.43643031702E+02 -0.93069254929E+02  0.10713851987E+04  0.10763059311E+04  0.12699999809E+01 0. -1.
</event>
<event>
 5   0  0.3111146E-01  0.5220775E+03  0.7818609E-02  0.1008172E+00
       -2   -1    0    0    0  501  0.00000000000E+00  0.00000000000E+00  0.19730428490E+03  0.19730428492E+03  0.25500000920E-02 0.  1.
        2   -1    0    0  501    0  0.00000000000E+00  0.00000000000E+00 -0.34536110409E+03  0.34536110410E+03  0.25500000920E-02 0. -1.
    10030    2    1    2    0    0  0.00000000000E+00  0.00000000000E+00 -0.14805681919E+03  0.54266538902E+03  0.52207748729E+03 0.  0.
        1    1    3    3  502    0  0.45415567434E+02  0.22681536257E+03 -0.19976753063E+03  0.30563842818E+03  0.50400001928E-02 0. -1.
       -1    1    3    3    0  502 -0.45415567434E+02 -0.22681536257E+03  0.51710711437E+02  0.23702696084E+03  0.50400001928E-02 0.  1.
</event>
<event>
 5   0  0.3329246E-01  0.4964524E+03  0.7818609E-02  0.1014709E+00
        2   -1    0    0  501    0  0.00000000000E+00  0.00000000000E+00  0.26228431325E+03  0.26228431327E+03  0.25500000920E-02 0. -1.
       -2   -1    0    0    0  501  0.00000000000E+00  0.00000000000E+00 -0.23492161555E+03  0.23492161556E+03  0.25500000920E-02 0.  1.
    10030    2    1    2    0    0  0.00000000000E+00  0.00000000000E+00  0.27362697707E+02  0.49720592883E+03  0.49645243320E+03 0.  0.
        2    1    3    3  502    0  0.50246189205E+01 -0.77284324912E+02  0.24987427641E+03  0.26160135261E+03  0.25500000920E-02 0. -1.
       -2    1    3    3    0  502 -0.50246189205E+01  0.77284324912E+02 -0.22251157870E+03  0.23560457622E+03  0.25500000920E-02 0.  1.
</event>
<event>
 5   0  0.2000612E-01  0.4279621E+03  0.7818609E-02  0.1034506E+00
        1   -1    0    0  501    0  0.00000000000E+00  0.00000000000E+00  0.12871267197E+03  0.12871267207E+03  0.50400001928E-02 0.  1.
       -1   -1    0    0    0  501  0.00000000000E+00  0.00000000000E+00 -0.35573729659E+03  0.35573729662E+03  0.50400001928E-02 0. -1.
    10030    2    1    2    0    0  0.00000000000E+00  0.00000000000E+00 -0.22702462461E+03  0.48444996870E+03  0.42796213850E+03 0.  0.
        2    1    3    3  502    0  0.19344316840E+03  0.66169517285E+01 -0.21678983792E+03  0.29062325661E+03  0.25500000920E-02 0. -1.
       -2    1    3    3    0  502 -0.19344316840E+03 -0.66169517285E+01 -0.10234786688E+02  0.19382671208E+03  0.25500000920E-02 0.  1.
</event>
<event>
 5   0  0.3187123E-01  0.5206881E+03  0.7818609E-02  0.1008516E+00
        2   -1    0    0  501    0  0.00000000000E+00  0.00000000000E+00  0.18080481536E+04  0.18080481536E+04  0.25500000920E-02 0.  1.
       -2   -1    0    0    0  501  0.00000000000E+00  0.00000000000E+00 -0.37487395639E+02  0.37487395726E+02  0.25500000920E-02 0. -1.
    10030    2    1    2    0    0  0.00000000000E+00  0.00000000000E+00  0.17705607580E+04  0.18455355493E+04  0.52068806997E+03 0.  0.
        5    1    3    3  502    0 -0.17701036140E+03  0.16668121048E+03  0.55579003886E+03  0.60666296349E+03  0.46999998093E+01 0. -1.
       -5    1    3    3    0  502  0.17701036140E+03 -0.16668121048E+03  0.12147707191E+04  0.12388725858E+04  0.46999998093E+01 0.  1.
</event>
<event>
 5   0  0.1984297E-01  0.5051591E+03  0.7818609E-02  0.1012441E+00
        1   -1    0    0  501    0  0.00000000000E+00  0.00000000000E+00  0.33451704704E+03  0.33451704708E+03  0.50400001928E-02 0. -1.
       -1   -1    0    0    0  501  0.00000000000E+00  0.00000000000E+00 -0.19071202314E+03  0.19071202320E+03  0.50400001928E-02 0.  1.
    10030    2    1    2    0    0  0.00000000000E+00  0.00000000000E+00  0.14380502391E+03  0.52522907029E+03  0.50515907531E+03 0.  0.
        3    1    3    3  502    0  0.46655655018E+02  0.24688470459E+03  0.45037908696E+02  0.25525914464E+03  0.10100000352E+00 0. -1.
       -3    1    3    3    0  502 -0.46655655018E+02 -0.24688470459E+03  0.98767115210E+02  0.26996992564E+03  0.10100000352E+00 0.  1.
</event>
<event>
 5   0  0.1984297E-01  0.4975627E+03  0.7818609E-02  0.1014417E+00
        1   -1    0    0  501    0  0.00000000000E+00  0.00000000000E+00  0.55255475538E+03  0.55255475541E+03  0.50400001928E-02 0. -1.
       -1   -1    0    0    0  501  0.00000000000E+00  0.00000000000E+00 -0.11201090739E+03  0.11201090750E+03  0.50400001928E-02 0.  1.
    10030    2    1    2    0    0  0.00000000000E+00  0.00000000000E+00  0.44054384799E+03  0.66456566291E+03  0.49756269787E+03 0.  0.
        3    1    3    3  502    0 -0.22741049064E+03  0.31782138095E+02  0.34814884859E+03  0.41705307400E+03  0.10100000352E+00 0. -1.
       -3    1    3    3    0  502  0.22741049064E+03 -0.31782138095E+02  0.92394999405E+02  0.24751258891E+03  0.10100000352E+00 0.  1.
</event>
<event>
 5   0  0.2000612E-01  0.5015661E+03  0.7818609E-02  0.1013371E+00
       -1   -1    0    0    0  501  0.00000000000E+00  0.00000000000E+00  0.41920690396E+02  0.41920690699E+02  0.50400001928E-02 0.  1.
        1   -1    0    0  501    0  0.00000000000E+00  0.00000000000E+00 -0.15002649382E+04  0.15002649382E+04  0.50400001928E-02 0. -1.
    10030    2    1    2    0    0  0.00000000000E+00  0.00000000000E+00 -0.14583442478E+04  0.15421856289E+04  0.50156611618E+03 0.  0.
        2    1    3    3  502    0  0.24738623459E+02  0.19507284798E+03 -0.12077535420E+04  0.12236560112E+04  0.25500000920E-02 0. -1.
       -2    1    3    3    0  502 -0.24738623459E+02 -0.19507284798E+03 -0.25059070573E+03  0.31852961764E+03  0.25500000920E-02 0.  1.
</event>
<event>
 5   0  0.3117389E-01  0.4929284E+03  0.7818609E-02  0.1015641E+00
       -2   -1    0    0    0  501  0.00000000000E+00  0.00000000000E+00  0.14948930656E+03  0.14948930658E+03  0.25500000920E-02 0.  1.
        2   -1    0    0  501    0  0.00000000000E+00  0.00000000000E+00 -0.40634741369E+03  0.40634741370E+03  0.25500000920E-02 0. -1.
    10030    2    1    2    0    0  0.00000000000E+00  0.00000000000E+00 -0.25685810713E+03  0.55583672028E+03  0.49292836438E+03 0.  0.
        4    1    3    3  502    0  0.23323161539E+03 -0.15859204712E+01 -0.21823956425E+03  0.31942075991E+03  0.12699999809E+01 0. -1.
       -4    1    3    3    0  502 -0.23323161539E+03  0.15859204712E+01 -0.38618542882E+02  0.23641596036E+03  0.12699999809E+01 0.  1.
</event>
<event>
 5   0  0.3329246E-01  0.4846179E+03  0.7818609E-02  0.1017874E+00
       -2   -1    0    0    0  501  0.00000000000E+00  0.00000000000E+00  0.81024454302E+02  0.81024454342E+02  0.25500000920E-02 0. -1.
        2   -1    0    0  501    0  0.00000000000E+00  0.00000000000E+00 -0.72464078816E+03  0.72464078816E+03  0.25500000920E-02 0.  1.
    10030    2    1    2    0    0  0.00000000000E+00  0.00000000000E+00 -0.64361633386E+03  0.80566524251E+03  0.48461788842E+03 0.  0.
        2    1    3    3  502    0  0.31735749536E+02 -0.15719494515E+03 -0.19821857206E+02  0.16158686398E+03  0.25500000920E-02 0. -1.
       -2    1    3    3    0  502 -0.31735749536E+02  0.15719494515E+03 -0.62379447665E+03  0.64407837853E+03  0.25500000920E-02 0.  1.
</event>
<event>
 5   0  0.3117389E-01  0.5087748E+03  0.7818609E-02  0.1011514E+00
       -2   -1    0    0    0  501  0.00000000000E+00  0.00000000000E+00  0.40126950300E+02  0.40126950381E+02  0.25500000920E-02 0. -1.
        2   -1    0    0  501    0  0.00000000000E+00  0.00000000000E+00 -0.16127055754E+04  0.16127055754E+04  0.25500000920E-02 0.  1.
    10030    2    1    2    0    0  0.00000000000E+00  0.00000000000E+00 -0.15725786251E+04  0.16528325258E+04  0.50877482855E+03 0.  0.
        4    1    3    3  502    0 -0.15131659625E+03 -0.44365669307E+02 -0.13780819278E+03  0.20942238612E+03  0.12699999809E+01 0. -1.
       -4    1    3    3    0  502  0.15131659625E+03  0.44365669307E+02 -0.14347704324E+04  0.14434101397E+04  0.12699999809E+01 0.  1.
</event>
<event>
 5   0  0.3111146E-01  0.5140239E+03  0.7818609E-02  0.1010182E+00
        2   -1    0    0  501    0  0.00000000000E+00  0.00000000000E+00  0.37784662387E+03  0.37784662388E+03  0.25500000920E-02 0.  1.
       -2   -1    0    0    0  501  0.00000000000E+00  0.00000000000E+00 -0.17481999388E+03  0.17481999390E+03  0.25500000920E-02 0. -1.
    10030    2    1    2    0    0  0.00000000000E+00  0.00000000000E+00  0.20302662999E+03  0.55266661778E+03  0.51402390793E+03 0.  0.
        1    1    3    3  502    0  0.11433449343E+03  0.13755211675E+02 -0.14552845905E+03  0.18558048026E+03  0.50400001928E-02 0. -1.
       -1    1    3    3    0  502 -0.11433449343E+03 -0.13755211675E+02  0.34855508904E+03  0.36708613752E+03  0.50400001928E-02 0.  1.
</event>
<event>
 5   0  0.3178149E-01  0.5006061E+03  0.7818609E-02  0.1013621E+00
       -2   -1    0    0    0  501  0.00000000000E+00  0.00000000000E+00  0.10668681803E+03  0.10668681806E+03  0.25500000920E-02 0. -1.
        2   -1    0    0  501    0  0.00000000000E+00  0.00000000000E+00 -0.58724806792E+03  0.58724806793E+03  0.25500000920E-02 0.  1.
    10030    2    1    2    0    0  0.00000000000E+00  0.00000000000E+00 -0.48056124989E+03  0.69393488599E+03  0.50060614369E+03 0.  0.
        3    1    3    3  502    0  0.33869152810E+01 -0.22933519868E+03 -0.37921464640E+03  0.44318152353E+03  0.10100000352E+00 0.  1.
       -3    1    3    3    0  502 -0.33869152810E+01  0.22933519868E+03 -0.10134660349E+03  0.25075336247E+03  0.10100000352E+00 0. -1.
</event>
<event>
 5   0  0.1967161E-01  0.4979490E+03  0.7818609E-02  0.1014316E+00
        1   -1    0    0  501    0  0.00000000000E+00  0.00000000000E+00  0.48468987150E+03  0.48468987153E+03  0.50400001928E-02 0. -1.
       -1   -1    0    0    0  501  0.00000000000E+00  0.00000000000E+00 -0.12789273422E+03  0.12789273432E+03  0.50400001928E-02 0.  1.
    10030    2    1    2    0    0  0.00000000000E+00  0.00000000000E+00  0.35679713728E+03  0.61258260584E+03  0.49794904539E+03 0.  0.
        1    1    3    3  502    0 -0.91664172241E+02  0.21196563965E+03  0.29285822301E+03  0.37295802937E+03  0.50400001928E-02 0. -1.
       -1    1    3    3    0  502  0.91664172241E+02 -0.21196563965E+03  0.63938914273E+02  0.23962457647E+03  0.50400001928E-02 0.  1.
</event>
<event>
 5   0  0.3329246E-01  0.5113359E+03  0.7818609E-02  0.1010862E+00
       -2   -1    0    0    0  501  0.00000000000E+00  0.00000000000E+00  0.31726675909E+02  0.31726676011E+02  0.25500000920E-02 0.  1.
        2   -1    0    0  501    0  0.00000000000E+00  0.00000000000E+00 -0.20602886156E+04  0.20602886156E+04  0.25500000920E-02 0. -1.
    10030    2    1    2    0    0  0.00000000000E+00  0.00000000000E+00 -0.20285619397E+04  0.20920152916E+04  0.51133593378E+03 0.  0.
        2    1    3    3  502    0  0.88008050066E+02 -0.19960640302E+03 -0.46877475550E+03  0.51704729417E+03  0.25500000920E-02 0.  1.
       -2    1    3    3    0  502 -0.88008050066E+02  0.19960640302E+03 -0.15597871842E+04  0.15749679974E+04  0.25500000920E-02 0. -1.
</event>
<event>
 5   0  0.2000612E-01  0.5087938E+03  0.7818609E-02  0.1011509E+00
        1   -1    0    0  501    0  0.00000000000E+00  0.00000000000E+00  0.28325978193E+03  0.28325978198E+03  0.50400001928E-02 0.  1.
       -1   -1    0    0    0  501  0.00000000000E+00  0.00000000000E+00 -0.22847499775E+03  0.22847499780E+03  0.50400001928E-02 0. -1.
    10030    2    1    2    0    0  0.00000000000E+00  0.00000000000E+00  0.54784784185E+02  0.51173477978E+03  0.50879378166E+03 0.  0.
        2    1    3    3  502    0 -0.71620827627E+02  0.15371764820E+03  0.21811741058E+03  0.27628583591E+03  0.25500000920E-02 0.  1.
       -2    1    3    3    0  502  0.71620827627E+02 -0.15371764820E+03 -0.16333262640E+03  0.23544894387E+03  0.25500000920E-02 0. -1.
</event>
<event>
 5   0  0.3117389E-01  0.4968940E+03  0.7818609E-02  0.1014593E+00
       -2   -1    0    0    0  501  0.00000000000E+00  0.00000000000E+00  0.25960192539E+03  0.25960192540E+03  0.25500000920E-02 0.  1.
        2   -1    0    0  501    0  0.00000000000E+00  0.00000000000E+00 -0.23777142452E+03  0.23777142453E+03  0.25500000920E-02 0. -1.
    10030    2    1    2    0    0  0.00000000000E+00  0.00000000000E+00  0.21830500870E+02  0.49737334993E+03  0.49689403141E+03 0.  0.
        4    1    3    3  502    0 -0.91326729637E+00  0.20789003650E+03 -0.12524981089E+03  0.24271017564E+03  0.12699999809E+01 0. -1.
       -4    1    3    3    0  502  0.91326729637E+00 -0.20789003650E+03  0.14708031176E+03  0.25466317429E+03  0.12699999809E+01 0.  1.
</event>
<event>
 5   0  0.3117389E-01  0.5044169E+03  0.7818609E-02  0.1012632E+00
        2   -1    0    0  501    0  0.00000000000E+00  0.00000000000E+00  0.35137638384E+03  0.35137638385E+03  0.25500000920E-02 0. -1.
       -2   -1    0    0    0  501  0.00000000000E+00  0.00000000000E+00 -0.18102841033E+03  0.18102841035E+03  0.25500000920E-02 0.  1.
    10030    2    1    2    0    0  0.00000000000E+00  0.00000000000E+00  0.17034797351E+03  0.53240479420E+03  0.50441692360E+03 0.  0.
        4    1    3    3  502    0  0.23182969966E+03  0.84061748737E+02  0.14098620504E+03  0.28406004674E+03  0.12699999809E+01 0. -1.
       -4    1    3    3    0  502 -0.23182969966E+03 -0.84061748737E+02  0.29361768464E+02  0.24834474746E+03  0.12699999809E+01 0.  1.
</event>
<event>
 5   0  0.2013450E-01  0.4804850E+03  0.7818609E-02  0.1019002E+00
        1   -1    0    0  501    0  0.00000000000E+00  0.00000000000E+00  0.35813300847E+03  0.35813300850E+03  0.50400001928E-02 0. -1.
       -1   -1    0    0    0  501  0.00000000000E+00  0.00000000000E+00 -0.16115927944E+03  0.16115927951E+03  0.50400001928E-02 0.  1.
    10030    2    1    2    0    0  0.00000000000E+00  0.00000000000E+00  0.19697372903E+03  0.51929228802E+03  0.48048499505E+03 0.  0.
        4    1    3    3  502    0 -0.12378315292E+03 -0.90576263015E+01 -0.12382175537E+03  0.17532184560E+03  0.12699999809E+01 0.  1.
       -4    1    3    3    0  502  0.12378315292E+03  0.90576263015E+01  0.32079548441E+03  0.34397044242E+03  0.12699999809E+01 0. -1.
</event>
<event>
 5   0  0.1984297E-01  0.5170011E+03  0.7818609E-02  0.1009434E+00
       -1   -1    0    0    0  501  0.00000000000E+00  0.00000000000E+00  0.18520802421E+03  0.18520802428E+03  0.50400001928E-02 0.  1.
        1   -1    0    0  501    0  0.00000000000E+00  0.00000000000E+00 -0.36079717192E+03  0.36079717196E+03  0.50400001928E-02 0. -1.
    10030    2    1    2    0    0  0.00000000000E+00  0.00000000000E+00 -0.17558914771E+03  0.54600519623E+03  0.51700108851E+03 0.  0.
        3    1    3    3  502    0 -0.69436420608E+02 -0.18881968813E+03 -0.25922229095E+03  0.32813182939E+03  0.10100000352E+00 0. -1.
       -3    1    3    3    0  502  0.69436420608E+02  0.18881968813E+03  0.83633143239E+02  0.21787336685E+03  0.10100000352E+00 0.  1.
</event>
<event>
 5   0  0.3178149E-01  0.5463037E+03  0.7818609E-02  0.1002353E+00
        2   -1    0    0  501    0  0.00000000000E+00  0.00000000000E+00  0.14354349401E+03  0.14354349403E+03  0.25500000920E-02 0. -1.
       -2   -1    0    0    0  501  0.00000000000E+00  0.00000000000E+00 -0.51978627900E+03  0.51978627901E+03  0.25500000920E-02 0.  1.
    10030    2    1    2    0    0  0.00000000000E+00  0.00000000000E+00 -0.37624278499E+03  0.66332977304E+03  0.54630372005E+03 0.  0.
        3    1    3    3  502    0 -0.12503248806E+03  0.20516621336E+03 -0.30340659052E+02  0.24217114603E+03  0.10100000352E+00 0. -1.
       -3    1    3    3    0  502  0.12503248806E+03 -0.20516621336E+03 -0.34590212594E+03  0.42115862701E+03  0.10100000352E+00 0.  1.
</event>
<event>
 5   0  0.1984680E-01  0.4871976E+03  0.7818609E-02  0.1017176E+00
        1   -1    0    0  501    0  0.00000000000E+00  0.00000000000E+00  0.15414848010E+03  0.15414848019E+03  0.50400001928E-02 0. -1.
       -1   -1    0    0    0  501  0.00000000000E+00  0.00000000000E+00 -0.38495595279E+03  0.38495595282E+03  0.50400001928E-02 0.  1.
    10030    2    1    2    0    0  0.00000000000E+00  0.00000000000E+00 -0.23080747269E+03  0.53910443301E+03  0.48719759876E+03 0.  0.
        5    1    3    3  502    0 -0.92885388495E+02 -0.12918824109E+03  0.88635426287E+02  0.18219666798E+03  0.46999998093E+01 0. -1.
       -5    1    3    3    0  502  0.92885388495E+02  0.12918824109E+03 -0.31944289897E+03  0.35690776503E+03  0.46999998093E+01 0.  1.
</event>
<event>
 5   0  0.2013450E-01  0.4471941E+03  0.7818609E-02  0.1028562E+00
       -1   -1    0    0    0  501  0.00000000000E+00  0.00000000000E+00  0.22851422428E+03  0.22851422434E+03  0.50400001928E-02 0.  1.
        1   -1    0    0  501    0  0.00000000000E+00  0.00000000000E+00 -0.21878568869E+03  0.21878568875E+03  0.50400001928E-02 0. -1.
    10030    2    1    2    0    0  0.00000000000E+00  0.00000000000E+00  0.97285355907E+01  0.44729991308E+03  0.44719410533E+03 0.  0.
        4    1    3    3  502    0  0.65000016533E+02  0.19104998751E+03  0.10116232504E+03  0.22574438815E+03  0.12699999809E+01 0.  1.
       -4    1    3    3    0  502 -0.65000016533E+02 -0.19104998751E+03 -0.91433789447E+02  0.22155552493E+03  0.12699999809E+01 0. -1.
</event>
<event>
 5   0  0.3117389E-01  0.5142578E+03  0.7818609E-02  0.1010123E+00
       -2   -1    0    0    0  501  0.00000000000E+00  0.00000000000E+00  0.13823277905E+03  0.13823277908E+03  0.25500000920E-02 0.  1.
        2   -1    0    0  501    0  0.00000000000E+00  0.00000000000E+00 -0.47828946210E+03  0.47828946211E+03  0.25500000920E-02 0. -1.
    10030    2    1    2    0    0  0.00000000000E+00  0.00000000000E+00 -0.34005668305E+03  0.61652224119E+03  0.51425784019E+03 0.  0.
        4    1    3    3  502    0 -0.68503170886E+02  0.12333409615E+03  0.87683474196E+02  0.16611438300E+03  0.12699999809E+01 0.  1.
       -4    1    3    3    0  502  0.68503170886E+02 -0.12333409615E+03 -0.42774015725E+03  0.45040785818E+03  0.12699999809E+01 0. -1.
</event>
<event>
 5   0  0.3111146E-01  0.5017144E+03  0.7818609E-02  0.1013332E+00
       -2   -1    0    0    0  501  0.00000000000E+00  0.00000000000E+00  0.25202206626E+03  0.25202206627E+03  0.25500000920E-02 0. -1.
        2   -1    0    0  501    0  0.00000000000E+00  0.00000000000E+00 -0.24969769631E+03  0.24969769632E+03  0.25500000920E-02 0.  1.
    10030    2    1    2    0    0  0.00000000000E+00  0.00000000000E+00  0.23243699506E+01  0.50171976260E+03  0.50171437839E+03 0.  0.
        1    1    3    3  502    0 -0.17005507668E+03  0.17727245098E+03  0.52006396549E+02  0.25109543263E+03  0.50400001928E-02 0. -1.
       -1    1    3    3    0  502  0.17005507668E+03 -0.17727245098E+03 -0.49682026598E+02  0.25062432997E+03  0.50400001928E-02 0.  1.
</event>
<event>
 5   0  0.2000612E-01  0.5111480E+03  0.7818609E-02  0.1010909E+00
        1   -1    0    0  501    0  0.00000000000E+00  0.00000000000E+00  0.18099757281E+03  0.18099757288E+03  0.50400001928E-02 0.  1.
       -1   -1    0    0    0  501  0.00000000000E+00  0.00000000000E+00 -0.36087821268E+03  0.36087821271E+03  0.50400001928E-02 0. -1.
    10030    2    1    2    0    0  0.00000000000E+00  0.00000000000E+00 -0.17988063987E+03  0.54187578560E+03  0.51114804354E+03 0.  0.
        2    1    3    3  502    0  0.18533330461E+03  0.87869872604E+02  0.71700413319E+02  0.21727976801E+03  0.25500000920E-02 0.  1.
       -2    1    3    3    0  502 -0.18533330461E+03 -0.87869872604E+02 -0.25158105318E+03  0.32459601759E+03  0.25500000920E-02 0. -1.
</event>
<event>
 5   0  0.3329246E-01  0.5200447E+03  0.7818609E-02  0.1008675E+00
       -2   -1    0    0    0  501  0.00000000000E+00  0.00000000000E+00  0.47889413452E+02  0.47889413520E+02  0.25500000920E-02 0. -1.
        2   -1    0    0  501    0  0.00000000000E+00  0.00000000000E+00 -0.14118281109E+04  0.14118281109E+04  0.25500000920E-02 0.  1.
    10030    2    1    2    0    0  0.00000000000E+00  0.00000000000E+00 -0.13639386974E+04  0.14597175244E+04  0.52004469106E+03 0.  0.
        2    1    3    3  502    0 -0.10273345495E+03 -0.43906835330E+01 -0.13523338088E+04  0.13562375055E+04  0.25500000920E-02 0.  1.
       -2    1    3    3    0  502  0.10273345495E+03  0.43906835330E+01 -0.11604888632E+02  0.10348001892E+03  0.25500000920E-02 0. -1.
</event>
<event>
 5   0  0.1292375E-01  0.3736716E+03  0.7818609E-02  0.1053298E+00
       -3   -1    0    0    0  501  0.00000000000E+00  0.00000000000E+00  0.60841258379E+03  0.60841259217E+03  0.10100000352E+00 0. -1.
        3   -1    0    0  501    0  0.00000000000E+00  0.00000000000E+00 -0.57374854384E+02  0.57374943282E+02  0.10100000352E+00 0.  1.
    10030    2    1    2    0    0  0.00000000000E+00  0.00000000000E+00  0.55103772941E+03  0.66578753546E+03  0.37367159798E+03 0.  0.
        4    1    3    3  502    0 -0.90962576245E+02 -0.43879517423E+02 -0.45406359358E+01  0.10110307909E+03  0.12699999809E+01 0.  1.
       -4    1    3    3    0  502  0.90962576245E+02  0.43879517423E+02  0.55557836534E+03  0.56468445637E+03  0.12699999809E+01 0. -1.
</event>
<event>
 5   0  0.3111146E-01  0.7264480E+03  0.7818609E-02  0.9673042E-01
        2   -1    0    0  501    0  0.00000000000E+00  0.00000000000E+00  0.48847402425E+03  0.48847402426E+03  0.25500000920E-02 0.  1.
       -2   -1    0    0    0  501  0.00000000000E+00  0.00000000000E+00 -0.27008940704E+03  0.27008940705E+03  0.25500000920E-02 0. -1.
    10030    2    1    2    0    0  0.00000000000E+00  0.00000000000E+00  0.21838461721E+03  0.75856343131E+03  0.72644795979E+03 0.  0.
        1    1    3    3  502    0 -0.35753390342E+03 -0.57632083951E+02  0.13835006104E+03  0.38767600984E+03  0.50400001928E-02 0. -1.
       -1    1    3    3    0  502  0.35753390342E+03  0.57632083951E+02  0.80034556172E+02  0.37088742147E+03  0.50400001928E-02 0.  1.
</event>
<event>
 5   0  0.3178149E-01  0.4944604E+03  0.7818609E-02  0.1015235E+00
       -2   -1    0    0    0  501  0.00000000000E+00  0.00000000000E+00  0.13369320846E+03  0.13369320848E+03  0.25500000920E-02 0. -1.
        2   -1    0    0  501    0  0.00000000000E+00  0.00000000000E+00 -0.45718674673E+03  0.45718674674E+03  0.25500000920E-02 0.  1.
    10030    2    1    2    0    0  0.00000000000E+00  0.00000000000E+00 -0.32349353827E+03  0.59087995523E+03  0.49446036462E+03 0.  0.
        3    1    3    3  502    0 -0.15605672987E+02  0.23528991767E+03 -0.72979364391E+02  0.24684181213E+03  0.10100000352E+00 0. -1.
       -3    1    3    3    0  502  0.15605672987E+02 -0.23528991767E+03 -0.25051417388E+03  0.34403814310E+03  0.10100000352E+00 0.  1.
</event>
<event>
 5   0  0.3329246E-01  0.5006473E+03  0.7818609E-02  0.1013610E+00
        2   -1    0    0  501    0  0.00000000000E+00  0.00000000000E+00  0.83187615662E+02  0.83187615701E+02  0.25500000920E-02 0.  1.
       -2   -1    0    0    0  501  0.00000000000E+00  0.00000000000E+00 -0.75326039919E+03  0.75326039919E+03  0.25500000920E-02 0. -1.
    10030    2    1    2    0    0  0.00000000000E+00  0.00000000000E+00 -0.67007278353E+03  0.83644801489E+03  0.50064732736E+03 0.  0.
        2    1    3    3  502    0 -0.14864217422E+02  0.13848466586E+03  0.12472013206E+02  0.13983740114E+03  0.25500000920E-02 0.  1.
       -2    1    3    3    0  502  0.14864217422E+02 -0.13848466586E+03 -0.68254479673E+03  0.69661061375E+03  0.25500000920E-02 0. -1.
</event>
<event>
 5   0  0.1984680E-01  0.4921406E+03  0.7818609E-02  0.1015851E+00
        1   -1    0    0  501    0  0.00000000000E+00  0.00000000000E+00  0.54530716412E+03  0.54530716415E+03  0.50400001928E-02 0. -1.
       -1   -1    0    0    0  501  0.00000000000E+00  0.00000000000E+00 -0.11103943842E+03  0.11103943853E+03  0.50400001928E-02 0.  1.
    10030    2    1    2    0    0  0.00000000000E+00  0.00000000000E+00  0.43426772571E+03  0.65634660268E+03  0.49214063565E+03 0.  0.
        5    1    3    3  502    0 -0.13282809388E+03  0.73979321829E+02  0.47509307295E+03  0.49885043905E+03  0.46999998093E+01 0. -1.
       -5    1    3    3    0  502  0.13282809388E+03 -0.73979321829E+02 -0.40825347241E+02  0.15749616363E+03  0.46999998093E+01 0.  1.
</event>
<event>
 5   0  0.3117389E-01  0.4970988E+03  0.7818609E-02  0.1014539E+00
        2   -1    0    0  501    0  0.00000000000E+00  0.00000000000E+00  0.79003995801E+03  0.79003995801E+03  0.25500000920E-02 0.  1.
       -2   -1    0    0    0  501  0.00000000000E+00  0.00000000000E+00 -0.78194544263E+02  0.78194544305E+02  0.25500000920E-02 0. -1.
    10030    2    1    2    0    0  0.00000000000E+00  0.00000000000E+00  0.71184541374E+03  0.86823450231E+03  0.49709884122E+03 0.  0.
        4    1    3    3  502    0 -0.97808659368E+02 -0.16350623935E+03  0.63469273495E+03  0.66267435808E+03  0.12699999809E+01 0.  1.
       -4    1    3    3    0  502  0.97808659368E+02  0.16350623935E+03  0.77152678792E+02  0.20556014424E+03  0.12699999809E+01 0. -1.
</event>
<event>
 5   0  0.1984297E-01  0.4984145E+03  0.7818609E-02  0.1014194E+00
       -1   -1    0    0    0  501  0.00000000000E+00  0.00000000000E+00  0.44614121514E+03  0.44614121517E+03  0.50400001928E-02 0.  1.
        1   -1    0    0  501    0  0.00000000000E+00  0.00000000000E+00 -0.13920312574E+03  0.13920312583E+03  0.50400001928E-02 0. -1.
    10030    2    1    2    0    0  0.00000000000E+00  0.00000000000E+00  0.30693808940E+03  0.58534434100E+03  0.49841449299E+03 0.  0.
        3    1    3    3  502    0  0.19151437007E+03  0.66049129836E+02 -0.16978670815E+02  0.20329418821E+03  0.10100000352E+00 0. -1.
       -3    1    3    3    0  502 -0.19151437007E+03 -0.66049129836E+02  0.32391676022E+03  0.38205015279E+03  0.10100000352E+00 0.  1.
</event>
<event>
 5   0  0.1967161E-01  0.5022227E+03  0.7818609E-02  0.1013200E+00
       -1   -1    0    0    0  501  0.00000000000E+00  0.00000000000E+00  0.17246986063E+03  0.17246986071E+03  0.50400001928E-02 0. -1.
        1   -1    0    0  501    0  0.00000000000E+00  0.00000000000E+00 -0.36561118232E+03  0.36561118236E+03  0.50400001928E-02 0.  1.
    10030    2    1    2    0    0  0.00000000000E+00  0.00000000000E+00 -0.19314132169E+03  0.53808104307E+03  0.50222269838E+03 0.  0.
        1    1    3    3  502    0  0.19032269960E+03 -0.13174111019E+03  0.77379677868E+01  0.23159949540E+03  0.50400001928E-02 0. -1.
       -1    1    3    3    0  502 -0.19032269960E+03  0.13174111019E+03 -0.20087928948E+03  0.30648154767E+03  0.50400001928E-02 0.  1.
</event>
<event>
 5   0  0.3178149E-01  0.5012552E+03  0.7818609E-02  0.1013452E+00
       -2   -1    0    0    0  501  0.00000000000E+00  0.00000000000E+00  0.34408947470E+03  0.34408947471E+03  0.25500000920E-02 0.  1.
        2   -1    0    0  501    0  0.00000000000E+00  0.00000000000E+00 -0.18255191437E+03  0.18255191439E+03  0.25500000920E-02 0. -1.
    10030    2    1    2    0    0  0.00000000000E+00  0.00000000000E+00  0.16153756032E+03  0.52664138910E+03  0.50125519380E+03 0.  0.
        3    1    3    3  502    0  0.20054733248E+03  0.72966487379E+02 -0.57305519311E+02  0.22096894259E+03  0.10100000352E+00 0. -1.
       -3    1    3    3    0  502 -0.20054733248E+03 -0.72966487379E+02  0.21884307963E+03  0.30567244650E+03  0.10100000352E+00 0.  1.
</event>
<event>
 5   0  0.1984680E-01  0.4948765E+03  0.7818609E-02  0.1015125E+00
       -1   -1    0    0    0  501  0.00000000000E+00  0.00000000000E+00  0.19876546850E+03  0.19876546856E+03  0.50400001928E-02 0.  1.
        1   -1    0    0  501    0  0.00000000000E+00  0.00000000000E+00 -0.30802977149E+03  0.30802977153E+03  0.50400001928E-02 0. -1.
    10030    2    1    2    0    0  0.00000000000E+00  0.00000000000E+00 -0.10926430299E+03  0.50679524009E+03  0.49487647698E+03 0.  0.
        5    1    3    3  502    0 -0.13440345943E+03 -0.20680324797E+03 -0.34887800737E+02  0.24914076727E+03  0.46999998093E+01 0.  1.
       -5    1    3    3    0  502  0.13440345943E+03  0.20680324797E+03 -0.74376502251E+02  0.25765447282E+03  0.46999998093E+01 0. -1.
</event>
<event>
 5   0  0.1984297E-01  0.5018637E+03  0.7818609E-02  0.1013294E+00
       -1   -1    0    0    0  501  0.00000000000E+00  0.00000000000E+00  0.92174864810E+02  0.92174864947E+02  0.50400001928E-02 0.  1.
        1   -1    0    0  501    0  0.00000000000E+00  0.00000000000E+00 -0.68312325055E+03  0.68312325057E+03  0.50400001928E-02 0. -1.
    10030    2    1    2    0    0  0.00000000000E+00  0.00000000000E+00 -0.59094838574E+03  0.77529811551E+03  0.50186369994E+03 0.  0.
        3    1    3    3  502    0 -0.24549165597E+02 -0.15116085124E+03  0.11612708490E+02  0.15358101992E+03  0.10100000352E+00 0.  1.
       -3    1    3    3    0  502  0.24549165597E+02  0.15116085124E+03 -0.60256109423E+03  0.62171709560E+03  0.10100000352E+00 0. -1.
</event>
<event>
 5   0  0.2013450E-01  0.4929961E+03  0.7818609E-02  0.1015623E+00
        1   -1    0    0  501    0  0.00000000000E+00  0.00000000000E+00  0.94849105224E+03  0.94849105225E+03  0.50400001928E-02 0. -1.
       -1   -1    0    0    0  501  0.00000000000E+00  0.00000000000E+00 -0.64061009318E+02  0.64061009516E+02  0.50400001928E-02 0.  1.
    10030    2    1    2    0    0  0.00000000000E+00  0.00000000000E+00  0.88443004292E+03  0.10125520618E+04  0.49299612267E+03 0.  0.
        4    1    3    3  502    0 -0.22957883393E+03  0.43604733759E+02  0.60330827274E+03  0.64698554748E+03  0.12699999809E+01 0. -1.
       -4    1    3    3    0  502  0.22957883393E+03 -0.43604733759E+02  0.28112177018E+03  0.36556651428E+03  0.12699999809E+01 0.  1.
</event>
<event>
 5   0  0.1984680E-01  0.5145033E+03  0.7818609E-02  0.1010061E+00
       -1   -1    0    0    0  501  0.00000000000E+00  0.00000000000E+00  0.10554635944E+03  0.10554635956E+03  0.50400001928E-02 0.  1.
        1   -1    0    0  501    0  0.00000000000E+00  0.00000000000E+00 -0.62700801104E+03  0.62700801106E+03  0.50400001928E-02 0. -1.
    10030    2    1    2    0    0  0.00000000000E+00  0.00000000000E+00 -0.52146165160E+03  0.73255437062E+03  0.51450330594E+03 0.  0.
        5    1    3    3  502    0 -0.43379391568E-01 -0.15941526848E+03  0.26663833373E+02  0.16169811290E+03  0.46999998093E+01 0.  1.
       -5    1    3    3    0  502  0.43379391568E-01  0.15941526848E+03 -0.54812548497E+03  0.57085625772E+03  0.46999998093E+01 0. -1.
</event>
<event>
 5   0  0.2013450E-01  0.5438610E+03  0.7818609E-02  0.1002925E+00
       -1   -1    0    0    0  501  0.00000000000E+00  0.00000000000E+00  0.10566280507E+03  0.10566280519E+03  0.50400001928E-02 0.  1.
        1   -1    0    0  501    0  0.00000000000E+00  0.00000000000E+00 -0.69983173658E+03  0.69983173660E+03  0.50400001928E-02 0. -1.
    10030    2    1    2    0    0  0.00000000000E+00  0.00000000000E+00 -0.59416893151E+03  0.80549454179E+03  0.54386095435E+03 0.  0.
        4    1    3    3  502    0 -0.24782943252E+03  0.10181249523E+03 -0.36590803926E+03  0.45351462810E+03  0.12699999809E+01 0.  1.
       -4    1    3    3    0  502  0.24782943252E+03 -0.10181249523E+03 -0.22826089226E+03  0.35197991369E+03  0.12699999809E+01 0. -1.
</event>
<event>
 5   0  0.3178149E-01  0.4862297E+03  0.7818609E-02  0.1017437E+00
        2   -1    0    0  501    0  0.00000000000E+00  0.00000000000E+00  0.44796510162E+03  0.44796510162E+03  0.25500000920E-02 0. -1.
       -2   -1    0    0    0  501  0.00000000000E+00  0.00000000000E+00 -0.13194068673E+03  0.13194068676E+03  0.25500000920E-02 0.  1.
    10030    2    1    2    0    0  0.00000000000E+00  0.00000000000E+00  0.31602441489E+03  0.57990578838E+03  0.48622967062E+03 0.  0.
        3    1    3    3  502    0 -0.13351331125E+03 -0.63017453082E+02 -0.72352455576E+02  0.16441378198E+03  0.10100000352E+00 0.  1.
       -3    1    3    3    0  502  0.13351331125E+03  0.63017453082E+02  0.38837687046E+03  0.41549200640E+03  0.10100000352E+00 0. -1.
</event>
<event>
 5   0  0.2013450E-01  0.4898713E+03  0.7818609E-02  0.1016457E+00
       -1   -1    0    0    0  501  0.00000000000E+00  0.00000000000E+00  0.37830929458E+03  0.37830929461E+03  0.50400001928E-02 0. -1.
        1   -1    0    0  501    0  0.00000000000E+00  0.00000000000E+00 -0.15858314923E+03  0.15858314931E+03  0.50400001928E-02 0.  1.
    10030    2    1    2    0    0  0.00000000000E+00  0.00000000000E+00  0.21972614534E+03  0.53689244392E+03  0.48987132738E+03 0.  0.
        4    1    3    3  502    0 -0.18974863447E+03 -0.12352646936E+03  0.74687414849E+01  0.22654078643E+03  0.12699999809E+01 0.  1.
       -4    1    3    3    0  502  0.18974863447E+03  0.12352646936E+03  0.21225740386E+03  0.31035165749E+03  0.12699999809E+01 0. -1.
</event>
<event>
 5   0  0.3178149E-01  0.4916776E+03  0.7818609E-02  0.1015974E+00
       -2   -1    0    0    0  501  0.00000000000E+00  0.00000000000E+00  0.26972479400E+02  0.26972479521E+02  0.25500000920E-02 0.  1.
        2   -1    0    0  501    0  0.00000000000E+00  0.00000000000E+00 -0.22406805433E+04  0.22406805433E+04  0.25500000920E-02 0. -1.
    10030    2    1    2    0    0  0.00000000000E+00  0.00000000000E+00 -0.22137080639E+04  0.22676530228E+04  0.49167757702E+03 0.  0.
        3    1    3    3  502    0 -0.18670502367E+03 -0.15971974992E+03 -0.10689520599E+04  0.10968261854E+04  0.10100000352E+00 0.  1.
       -3    1    3    3    0  502  0.18670502367E+03  0.15971974992E+03 -0.11447560040E+04  0.11708268375E+04  0.10100000352E+00 0. -1.
</event>
<event>
 5   0  0.3117389E-01  0.4324263E+03  0.7818609E-02  0.1033096E+00
        2   -1    0    0  501    0  0.00000000000E+00  0.00000000000E+00  0.46004810888E+03  0.46004810888E+03  0.25500000920E-02 0.  1.
       -2   -1    0    0    0  501  0.00000000000E+00  0.00000000000E+00 -0.10161574918E+03  0.10161574921E+03  0.25500000920E-02 0. -1.
    10030    2    1    2    0    0  0.00000000000E+00  0.00000000000E+00  0.35843235970E+03  0.56166385809E+03  0.43242633246E+03 0.  0.
        4    1    3    3  502    0  0.43510651555E+02  0.14272352012E+03  0.38245173190E+03  0.41052907343E+03  0.12699999809E+01 0.  1.
       -4    1    3    3    0  502 -0.43510651555E+02 -0.14272352012E+03 -0.24019372197E+02  0.15113478467E+03  0.12699999809E+01 0. -1.
</event>
<event>
 5   0  0.2013450E-01  0.4903206E+03  0.7818609E-02  0.1016337E+00
       -1   -1    0    0    0  501  0.00000000000E+00  0.00000000000E+00  0.52058781130E+02  0.52058781374E+02  0.50400001928E-02 0. -1.
        1   -1    0    0  501    0  0.00000000000E+00  0.00000000000E+00 -0.11545328767E+04  0.11545328767E+04  0.50400001928E-02 0.  1.
    10030    2    1    2    0    0  0.00000000000E+00  0.00000000000E+00 -0.11024740956E+04  0.12065916581E+04  0.49032060732E+03 0.  0.
        4    1    3    3  502    0 -0.90317158658E+02 -0.17776831116E+03 -0.90222305801E+03  0.92399503294E+03  0.12699999809E+01 0.  1.
       -4    1    3    3    0  502  0.90317158658E+02  0.17776831116E+03 -0.20025103759E+03  0.28259662517E+03  0.12699999809E+01 0. -1.
</event>
<event>
 5   0  0.1967161E-01  0.5024966E+03  0.7818609E-02  0.1013129E+00
        1   -1    0    0  501    0  0.00000000000E+00  0.00000000000E+00  0.69311261784E+03  0.69311261785E+03  0.50400001928E-02 0. -1.
       -1   -1    0    0    0  501  0.00000000000E+00  0.00000000000E+00 -0.91075705481E+02  0.91075705620E+02  0.50400001928E-02 0.  1.
    10030    2    1    2    0    0  0.00000000000E+00  0.00000000000E+00  0.60203691235E+03  0.78418832347E+03  0.50249664958E+03 0.  0.
        1    1    3    3  502    0 -0.10387414297E+03  0.18425775760E+03  0.89417041109E+02  0.22964356312E+03  0.50400001928E-02 0.  1.
       -1    1    3    3    0  502  0.10387414297E+03 -0.18425775760E+03  0.51261987125E+03  0.55454476035E+03  0.50400001928E-02 0. -1.
</event>
<event>
 5   0  0.3329246E-01  0.5080776E+03  0.7818609E-02  0.1011692E+00
        2   -1    0    0  501    0  0.00000000000E+00  0.00000000000E+00  0.23997628186E+04  0.23997628186E+04  0.25500000920E-02 0.  1.
       -2   -1    0    0    0  501  0.00000000000E+00  0.00000000000E+00 -0.26892537218E+02  0.26892537339E+02  0.25500000920E-02 0. -1.
    10030    2    1    2    0    0  0.00000000000E+00  0.00000000000E+00  0.23728702814E+04  0.24266553559E+04  0.50807759667E+03 0.  0.
        2    1    3    3  502    0  0.24099293873E+03 -0.38093588820E+02  0.15243961109E+04  0.15437979858E+04  0.25500000920E-02 0. -1.
       -2    1    3    3    0  502 -0.24099293873E+03  0.38093588820E+02  0.84847417048E+03  0.88285737013E+03  0.25500000920E-02 0.  1.
</event>
<event>
 5   0  0.3178149E-01  0.3037218E+03  0.7818609E-02  0.1083395E+00
        2   -1    0    0  501    0  0.00000000000E+00  0.00000000000E+00  0.18637425709E+03  0.18637425711E+03  0.25500000920E-02 0.  1.
       -2   -1    0    0    0  501  0.00000000000E+00  0.00000000000E+00 -0.12373880533E+03  0.12373880535E+03  0.25500000920E-02 0. -1.
    10030    2    1    2    0    0  0.00000000000E+00  0.00000000000E+00  0.62635451763E+02  0.31011306246E+03  0.30372176690E+03 0.  0.
        3    1    3    3  502    0  0.33209942864E+02 -0.82900946405E+02  0.15672848580E+03  0.18038651746E+03  0.10100000352E+00 0.  1.
       -3    1    3    3    0  502 -0.33209942864E+02  0.82900946405E+02 -0.94093034040E+02  0.12972654499E+03  0.10100000352E+00 0. -1.
</event>
<event>
 5   0  0.2013450E-01  0.3816273E+03  0.7818609E-02  0.1050334E+00
        1   -1    0    0  501    0  0.00000000000E+00  0.00000000000E+00  0.36870146596E+03  0.36870146600E+03  0.50400001928E-02 0. -1.
       -1   -1    0    0    0  501  0.00000000000E+00  0.00000000000E+00 -0.98751559880E+02  0.98751560009E+02  0.50400001928E-02 0.  1.
    10030    2    1    2    0    0  0.00000000000E+00  0.00000000000E+00  0.26994990608E+03  0.46745302601E+03  0.38162727854E+03 0.  0.
        4    1    3    3  502    0 -0.28862812437E+02  0.13947374163E+03  0.29050393527E+03  0.32354309737E+03  0.12699999809E+01 0. -1.
       -4    1    3    3    0  502  0.28862812437E+02 -0.13947374163E+03 -0.20554029188E+02  0.14390992864E+03  0.12699999809E+01 0.  1.
</event>
<event>
 5   0  0.2000612E-01  0.5063567E+03  0.7818609E-02  0.1012133E+00
        1   -1    0    0  501    0  0.00000000000E+00  0.00000000000E+00  0.18376342891E+03  0.18376342898E+03  0.50400001928E-02 0. -1.
       -1   -1    0    0    0  501  0.00000000000E+00  0.00000000000E+00 -0.34881407072E+03  0.34881407076E+03  0.50400001928E-02 0.  1.
    10030    2    1    2    0    0  0.00000000000E+00  0.00000000000E+00 -0.16505064181E+03  0.53257749974E+03  0.50635667159E+03 0.  0.
        2    1    3    3  502    0  0.81765741591E+02 -0.20138442661E+03  0.54036282188E+02  0.22396705913E+03  0.25500000920E-02 0. -1.
       -2    1    3    3    0  502 -0.81765741591E+02  0.20138442661E+03 -0.21908692400E+03  0.30861044061E+03  0.25500000920E-02 0.  1.
</event>
<event>
 5   0  0.1967161E-01  0.4963457E+03  0.7818609E-02  0.1014737E+00
        1   -1    0    0  501    0  0.00000000000E+00  0.00000000000E+00  0.19435400124E+04  0.19435400124E+04  0.50400001928E-02 0.  1.
       -1   -1    0    0    0  501  0.00000000000E+00  0.00000000000E+00 -0.31689473237E+02  0.31689473638E+02  0.50400001928E-02 0. -1.
    10030    2    1    2    0    0  0.00000000000E+00  0.00000000000E+00  0.19118505391E+04  0.19752294860E+04  0.49634568441E+03 0.  0.
        1    1    3    3  502    0  0.10433311824E+03  0.17961847839E+03  0.41550433487E+03  0.46453422873E+03  0.50400001928E-02 0. -1.
       -1    1    3    3    0  502 -0.10433311824E+03 -0.17961847839E+03  0.14963462042E+04  0.15106952573E+04  0.50400001928E-02 0.  1.
</event>
<event>
 5   0  0.3329246E-01  0.4898956E+03  0.7818609E-02  0.1016450E+00
        2   -1    0    0  501    0  0.00000000000E+00  0.00000000000E+00  0.42957136415E+03  0.42957136416E+03  0.25500000920E-02 0. -1.
       -2   -1    0    0    0  501  0.00000000000E+00  0.00000000000E+00 -0.13967279225E+03  0.13967279227E+03  0.25500000920E-02 0.  1.
    10030    2    1    2    0    0  0.00000000000E+00  0.00000000000E+00  0.28989857190E+03  0.56924415643E+03  0.48989562934E+03 0.  0.
        2    1    3    3  502    0  0.64003558744E+02 -0.13601246549E+03  0.36967441299E+03  0.39906768589E+03  0.25500000920E-02 0. -1.
       -2    1    3    3    0  502 -0.64003558744E+02  0.13601246549E+03 -0.79775841085E+02  0.17017647054E+03  0.25500000920E-02 0.  1.
</event>
<event>
 5   0  0.1292375E-01  0.5075810E+03  0.7818609E-02  0.1011819E+00
        3   -1    0    0  501    0  0.00000000000E+00  0.00000000000E+00  0.22826887358E+03  0.22826889593E+03  0.10100000352E+00 0.  1.
       -3   -1    0    0    0  501  0.00000000000E+00  0.00000000000E+00 -0.28216553345E+03  0.28216555152E+03  0.10100000352E+00 0. -1.
    10030    2    1    2    0    0  0.00000000000E+00  0.00000000000E+00 -0.53896659865E+02  0.51043444745E+03  0.50758100358E+03 0.  0.
        1    1    3    3  502    0  0.37750099184E+01  0.18316388223E+03  0.14967032757E+03  0.23656809893E+03  0.50400001928E-02 0.  1.
       -1    1    3    3    0  502 -0.37750099184E+01 -0.18316388223E+03 -0.20356698743E+03  0.27386634852E+03  0.50400001928E-02 0. -1.
</event>
<event>
 5   0  0.1984297E-01  0.4908785E+03  0.7818609E-02  0.1016188E+00
       -1   -1    0    0    0  501  0.00000000000E+00  0.00000000000E+00  0.17026907500E+03  0.17026907508E+03  0.50400001928E-02 0.  1.
        1   -1    0    0  501    0  0.00000000000E+00  0.00000000000E+00 -0.35379550716E+03  0.35379550720E+03  0.50400001928E-02 0. -1.
    10030    2    1    2    0    0  0.00000000000E+00  0.00000000000E+00 -0.18352643216E+03  0.52406458228E+03  0.49087853395E+03 0.  0.
        3    1    3    3  502    0 -0.19061948374E+03 -0.29449141321E+02 -0.25380512487E+03  0.31877906317E+03  0.10100000352E+00 0. -1.
       -3    1    3    3    0  502  0.19061948374E+03  0.29449141321E+02  0.70278692707E+02  0.20528551911E+03  0.10100000352E+00 0.  1.
</event>
<event>
 5   0  0.1967161E-01  0.5074807E+03  0.7818609E-02  0.1011845E+00
        1   -1    0    0  501    0  0.00000000000E+00  0.00000000000E+00  0.38025991965E+03  0.38025991968E+03  0.50400001928E-02 0.  1.
       -1   -1    0    0    0  501  0.00000000000E+00  0.00000000000E+00 -0.16931618469E+03  0.16931618477E+03  0.50400001928E-02 0. -1.
    10030    2    1    2    0    0  0.00000000000E+00  0.00000000000E+00  0.21094373495E+03  0.54957610445E+03  0.50748067477E+03 0.  0.
        1    1    3    3  502    0 -0.14859880026E+03 -0.12233306319E+03  0.28452633651E+03  0.34351450913E+03  0.50400001928E-02 0.  1.
       -1    1    3    3    0  502  0.14859880026E+03  0.12233306319E+03 -0.73582601556E+02  0.20606159532E+03  0.50400001928E-02 0. -1.
</event>
<event>
 5   0  0.3178149E-01  0.4508308E+03  0.7818609E-02  0.1027475E+00
        2   -1    0    0  501    0  0.00000000000E+00  0.00000000000E+00  0.27938662531E+03  0.27938662532E+03  0.25500000920E-02 0.  1.
       -2   -1    0    0    0  501  0.00000000000E+00  0.00000000000E+00 -0.18187021042E+03  0.18187021043E+03  0.25500000920E-02 0. -1.
    10030    2    1    2    0    0  0.00000000000E+00  0.00000000000E+00  0.97516414892E+02  0.46125683575E+03  0.45083080790E+03 0.  0.
        3    1    3    3  502    0  0.94437515478E+02  0.31485022007E+02 -0.15816219925E+03  0.18688242938E+03  0.10100000352E+00 0. -1.
       -3    1    3    3    0  502 -0.94437515478E+02 -0.31485022007E+02  0.25567861414E+03  0.27437440637E+03  0.10100000352E+00 0.  1.
</event>
<event>
 5   0  0.3178149E-01  0.4982347E+03  0.7818609E-02  0.1014241E+00
       -2   -1    0    0    0  501  0.00000000000E+00  0.00000000000E+00  0.13362691005E+03  0.13362691008E+03  0.25500000920E-02 0.  1.
        2   -1    0    0  501    0  0.00000000000E+00  0.00000000000E+00 -0.46442339198E+03  0.46442339198E+03  0.25500000920E-02 0. -1.
    10030    2    1    2    0    0  0.00000000000E+00  0.00000000000E+00 -0.33079648192E+03  0.59805030206E+03  0.49823473518E+03 0.  0.
        3    1    3    3  502    0 -0.10305122025E+02 -0.24542037566E+03 -0.21521006323E+03  0.32657730761E+03  0.10100000352E+00 0.  1.
       -3    1    3    3    0  502  0.10305122025E+02  0.24542037566E+03 -0.11558641869E+03  0.27147299445E+03  0.10100000352E+00 0. -1.
</event>
<event>
 5   0  0.1967161E-01  0.5024409E+03  0.7818609E-02  0.1013144E+00
       -1   -1    0    0    0  501  0.00000000000E+00  0.00000000000E+00  0.20023588404E+03  0.20023588410E+03  0.50400001928E-02 0.  1.
        1   -1    0    0  501    0  0.00000000000E+00  0.00000000000E+00 -0.31518685209E+03  0.31518685213E+03  0.50400001928E-02 0. -1.
    10030    2    1    2    0    0  0.00000000000E+00  0.00000000000E+00 -0.11495096805E+03  0.51542273623E+03  0.50244091390E+03 0.  0.
        1    1    3    3  502    0 -0.12625796627E+03 -0.13101894057E+03 -0.23516961472E+03  0.29734119215E+03  0.50400001928E-02 0. -1.
       -1    1    3    3    0  502  0.12625796627E+03  0.13101894057E+03  0.12021864667E+03  0.21808154408E+03  0.50400001928E-02 0.  1.
</event>
<event>
 5   0  0.1292375E-01  0.4961482E+03  0.7818609E-02  0.1014789E+00
       -3   -1    0    0    0  501  0.00000000000E+00  0.00000000000E+00  0.65855390745E+02  0.65855468195E+02  0.10100000352E+00 0. -1.
        3   -1    0    0  501    0  0.00000000000E+00  0.00000000000E+00 -0.93448246275E+03  0.93448246821E+03  0.10100000352E+00 0.  1.
    10030    2    1    2    0    0  0.00000000000E+00  0.00000000000E+00 -0.86862707200E+03  0.10003379364E+04  0.49614816012E+03 0.  0.
        3    1    3    3  502    0  0.54724994518E+01 -0.23534989888E+03 -0.59205802687E+03  0.63714381464E+03  0.10100000352E+00 0.  1.
       -3    1    3    3    0  502 -0.54724994518E+01  0.23534989888E+03 -0.27656904514E+03  0.36319412176E+03  0.10100000352E+00 0. -1.
</event>
<event>
 5   0  0.3111146E-01  0.4900474E+03  0.7818609E-02  0.1016410E+00
        2   -1    0    0  501    0  0.00000000000E+00  0.00000000000E+00  0.14448204917E+04  0.14448204917E+04  0.25500000920E-02 0. -1.
       -2   -1    0    0    0  501  0.00000000000E+00  0.00000000000E+00 -0.41552997292E+02  0.41552997370E+02  0.25500000920E-02 0.  1.
    10030    2    1    2    0    0  0.00000000000E+00  0.00000000000E+00  0.14032674944E+04  0.14863734891E+04  0.49004743460E+03 0.  0.
        1    1    3    3  502    0  0.16633704050E+03  0.26801955284E+02  0.12412419140E+04  0.12526243830E+04  0.50400001928E-02 0. -1.
       -1    1    3    3    0  502 -0.16633704050E+03 -0.26801955284E+02  0.16202558043E+03  0.23374910607E+03  0.50400001928E-02 0.  1.
</event>
<event>
 5   0  0.2000612E-01  0.5011561E+03  0.7818609E-02  0.1013478E+00
       -1   -1    0    0    0  501  0.00000000000E+00  0.00000000000E+00  0.84144700084E+02  0.84144700235E+02  0.50400001928E-02 0. -1.
        1   -1    0    0  501    0  0.00000000000E+00  0.00000000000E+00 -0.74620702262E+03  0.74620702264E+03  0.50400001928E-02 0.  1.
    10030    2    1    2    0    0  0.00000000000E+00  0.00000000000E+00 -0.66206232254E+03  0.83035172287E+03  0.50115612812E+03 0.  0.
        2    1    3    3  502    0  0.95708453915E+02  0.12310440792E+03 -0.60367501997E+01  0.15604885697E+03  0.25500000920E-02 0. -1.
       -2    1    3    3    0  502 -0.95708453915E+02 -0.12310440792E+03 -0.65602557234E+03  0.67430286591E+03  0.25500000920E-02 0.  1.
</event>
<event>
 5   0  0.1967161E-01  0.4946425E+03  0.7818609E-02  0.1015187E+00
        1   -1    0    0  501    0  0.00000000000E+00  0.00000000000E+00  0.12502438538E+04  0.12502438538E+04  0.50400001928E-02 0.  1.
       -1   -1    0    0    0  501  0.00000000000E+00  0.00000000000E+00 -0.48924699294E+02  0.48924699553E+02  0.50400001928E-02 0. -1.
    10030    2    1    2    0    0  0.00000000000E+00  0.00000000000E+00  0.12013191545E+04  0.12991685534E+04  0.49464251644E+03 0.  0.
        1    1    3    3  502    0  0.14812146713E+03 -0.16802296253E+03  0.32524064654E+03  0.39490905681E+03  0.50400001928E-02 0. -1.
       -1    1    3    3    0  502 -0.14812146713E+03  0.16802296253E+03  0.87607850797E+03  0.90425949656E+03  0.50400001928E-02 0.  1.
</event>
<event>
 5   0  0.1292375E-01  0.4979615E+03  0.7818609E-02  0.1014312E+00
       -4   -1    0    0    0  501  0.00000000000E+00  0.00000000000E+00  0.43335506538E+03  0.43335692632E+03  0.12699999809E+01 0. -1.
        4   -1    0    0  501    0  0.00000000000E+00  0.00000000000E+00 -0.14304497541E+03  0.14305061303E+03  0.12699999809E+01 0.  1.
    10030    2    1    2    0    0  0.00000000000E+00  0.00000000000E+00  0.29031008997E+03  0.57640753936E+03  0.49796154780E+03 0.  0.
        2    1    3    3  502    0 -0.10776438139E+03 -0.22303603072E+03  0.17428245391E+03  0.30287391211E+03  0.25500000920E-02 0. -1.
       -2    1    3    3    0  502  0.10776438139E+03  0.22303603072E+03  0.11602763607E+03  0.27353362724E+03  0.25500000920E-02 0.  1.
</event>
<event>
 5   0  0.3111146E-01  0.4956747E+03  0.7818609E-02  0.1014914E+00
       -2   -1    0    0    0  501  0.00000000000E+00  0.00000000000E+00  0.14530887461E+03  0.14530887463E+03  0.25500000920E-02 0.  1.
        2   -1    0    0  501    0  0.00000000000E+00  0.00000000000E+00 -0.42270883440E+03  0.42270883441E+03  0.25500000920E-02 0. -1.
    10030    2    1    2    0    0  0.00000000000E+00  0.00000000000E+00 -0.27739995979E+03  0.56801770904E+03  0.49567467163E+03 0.  0.
        1    1    3    3  502    0  0.18045066840E+03 -0.16951464887E+03 -0.12585282292E+03  0.27773475290E+03  0.50400001928E-02 0. -1.
       -1    1    3    3    0  502 -0.18045066840E+03  0.16951464887E+03 -0.15154713687E+03  0.29028295614E+03  0.50400001928E-02 0.  1.
</event>
<event>
 5   0  0.2000612E-01  0.4829175E+03  0.7818609E-02  0.1018336E+00
       -1   -1    0    0    0  501  0.00000000000E+00  0.00000000000E+00  0.32093625645E+03  0.32093625649E+03  0.50400001928E-02 0.  1.
        1   -1    0    0  501    0  0.00000000000E+00  0.00000000000E+00 -0.18166329025E+03  0.18166329032E+03  0.50400001928E-02 0. -1.
    10030    2    1    2    0    0  0.00000000000E+00  0.00000000000E+00  0.13927296620E+03  0.50259954680E+03  0.48291753471E+03 0.  0.
        2    1    3    3  502    0 -0.19737227592E+03 -0.13900909005E+03  0.74627115014E+02  0.25268270364E+03  0.25500000920E-02 0.  1.
       -2    1    3    3    0  502  0.19737227592E+03  0.13900909005E+03  0.64645851187E+02  0.24991684317E+03  0.25500000920E-02 0. -1.
</event>
<event>
 5   0  0.2000612E-01  0.3294548E+03  0.7818609E-02  0.1071378E+00
        1   -1    0    0  501    0  0.00000000000E+00  0.00000000000E+00  0.41660703419E+03  0.41660703422E+03  0.50400001928E-02 0.  1.
       -1   -1    0    0    0  501  0.00000000000E+00  0.00000000000E+00 -0.65133610001E+02  0.65133610196E+02  0.50400001928E-02 0. -1.
    10030    2    1    2    0    0  0.00000000000E+00  0.00000000000E+00  0.35147342419E+03  0.48174064442E+03  0.32945482326E+03 0.  0.
        2    1    3    3  502    0  0.14508744918E+02  0.21219076682E+02 -0.62182883866E+02  0.67286432115E+02  0.25500000920E-02 0. -1.
       -2    1    3    3    0  502 -0.14508744918E+02 -0.21219076682E+02  0.41365630805E+03  0.41445421230E+03  0.25500000920E-02 0.  1.
</event>
<event>
 5   0  0.3329246E-01  0.5016890E+03  0.7818609E-02  0.1013339E+00
        2   -1    0    0  501    0  0.00000000000E+00  0.00000000000E+00  0.23758714947E+03  0.23758714948E+03  0.25500000920E-02 0.  1.
       -2   -1    0    0    0  501  0.00000000000E+00  0.00000000000E+00 -0.26484164510E+03  0.26484164511E+03  0.25500000920E-02 0. -1.
    10030    2    1    2    0    0  0.00000000000E+00  0.00000000000E+00 -0.27254495631E+02  0.50242879460E+03  0.50168903328E+03 0.  0.
        2    1    3    3  502    0 -0.10194604294E+03 -0.17700450310E+03 -0.15944201580E+03  0.25912419069E+03  0.25500000920E-02 0. -1.
       -2    1    3    3    0  502  0.10194604294E+03  0.17700450310E+03  0.13218752017E+03  0.24330460391E+03  0.25500000920E-02 0.  1.
</event>
<event>
 5   0  0.1292375E-01  0.4946435E+03  0.7818609E-02  0.1015187E+00
        3   -1    0    0  501    0  0.00000000000E+00  0.00000000000E+00  0.28751248770E+03  0.28751250544E+03  0.10100000352E+00 0.  1.
       -3   -1    0    0    0  501  0.00000000000E+00  0.00000000000E+00 -0.21274911062E+03  0.21274913460E+03  0.10100000352E+00 0. -1.
    10030    2    1    2    0    0  0.00000000000E+00  0.00000000000E+00  0.74763377073E+02  0.50026164003E+03  0.49464345335E+03 0.  0.
        2    1    3    3  502    0 -0.18592193191E+03 -0.80130813270E+02 -0.10628856475E+03  0.22865950888E+03  0.25500000920E-02 0. -1.
       -2    1    3    3    0  502  0.18592193191E+03  0.80130813270E+02  0.18105194182E+03  0.27160213115E+03  0.25500000920E-02 0.  1.
</event>
<event>
 5   0  0.1984297E-01  0.5043471E+03  0.7818609E-02  0.1012650E+00
        1   -1    0    0  501    0  0.00000000000E+00  0.00000000000E+00  0.17527572229E+03  0.17527572236E+03  0.50400001928E-02 0.  1.
       -1   -1    0    0    0  501  0.00000000000E+00  0.00000000000E+00 -0.36280836665E+03  0.36280836668E+03  0.50400001928E-02 0. -1.
    10030    2    1    2    0    0  0.00000000000E+00  0.00000000000E+00 -0.18753264436E+03  0.53808408904E+03  0.50434709693E+03 0.  0.
        3    1    3    3  502    0  0.19714079638E+03 -0.12759215915E+03 -0.19182317050E+03  0.30321674033E+03  0.10100000352E+00 0. -1.
       -3    1    3    3    0  502 -0.19714079638E+03  0.12759215915E+03  0.42905261449E+01  0.23486734871E+03  0.10100000352E+00 0.  1.
</event>
<event>
 5   0  0.3187123E-01  0.5041434E+03  0.7818609E-02  0.1012703E+00
       -2   -1    0    0    0  501  0.00000000000E+00  0.00000000000E+00  0.60084018009E+02  0.60084018063E+02  0.25500000920E-02 0. -1.
        2   -1    0    0  501    0  0.00000000000E+00  0.00000000000E+00 -0.10575216447E+04  0.10575216447E+04  0.25500000920E-02 0.  1.
    10030    2    1    2    0    0  0.00000000000E+00  0.00000000000E+00 -0.99743762669E+03  0.11176056628E+04  0.50414343029E+03 0.  0.
        5    1    3    3  502    0 -0.71255457354E+02  0.20055526833E+03 -0.19950030709E+03  0.29175712225E+03  0.46999998093E+01 0. -1.
       -5    1    3    3    0  502  0.71255457354E+02 -0.20055526833E+03 -0.79793731960E+03  0.82584854052E+03  0.46999998093E+01 0.  1.
</event>
<event>
 5   0  0.1984297E-01  0.5004674E+03  0.7818609E-02  0.1013657E+00
        1   -1    0    0  501    0  0.00000000000E+00  0.00000000000E+00  0.16852016884E+04  0.16852016884E+04  0.50400001928E-02 0. -1.
       -1   -1    0    0    0  501  0.00000000000E+00  0.00000000000E+00 -0.37156923769E+02  0.37156924111E+02  0.50400001928E-02 0.  1.
    10030    2    1    2    0    0  0.00000000000E+00  0.00000000000E+00  0.16480447647E+04  0.17223586125E+04  0.50046742541E+03 0.  0.
        3    1    3    3  502    0  0.46001015915E+02  0.23261028401E+03  0.10991974321E+04  0.11244814994E+04  0.10100000352E+00 0. -1.
       -3    1    3    3    0  502 -0.46001015915E+02 -0.23261028401E+03  0.54884733256E+03  0.59787711309E+03  0.10100000352E+00 0.  1.
</event>
<event>
 5   0  0.3329246E-01  0.4926037E+03  0.7818609E-02  0.1015728E+00
       -2   -1    0    0    0  501  0.00000000000E+00  0.00000000000E+00  0.87859255172E+02  0.87859255209E+02  0.25500000920E-02 0. -1.
        2   -1    0    0  501    0  0.00000000000E+00  0.00000000000E+00 -0.69047482538E+03  0.69047482539E+03  0.25500000920E-02 0.  1.
    10030    2    1    2    0    0  0.00000000000E+00  0.00000000000E+00 -0.60261557021E+03  0.77833408060E+03  0.49260371046E+03 0.  0.
        2    1    3    3  502    0 -0.39631761966E+02 -0.23585777487E+03 -0.20829935175E+03  0.31715640695E+03  0.25500000920E-02 0.  1.
       -2    1    3    3    0  502  0.39631761966E+02  0.23585777487E+03 -0.39431621846E+03  0.46117767364E+03  0.25500000920E-02 0. -1.
</event>
<event>
 5   0  0.3117389E-01  0.5283573E+03  0.7818609E-02  0.1006631E+00
       -2   -1    0    0    0  501  0.00000000000E+00  0.00000000000E+00  0.14795140067E+03  0.14795140069E+03  0.25500000920E-02 0.  1.
        2   -1    0    0  501    0  0.00000000000E+00  0.00000000000E+00 -0.47171142158E+03  0.47171142159E+03  0.25500000920E-02 0. -1.
    10030    2    1    2    0    0  0.00000000000E+00  0.00000000000E+00 -0.32376002091E+03  0.61966282228E+03  0.52835732433E+03 0.  0.
        4    1    3    3  502    0 -0.23700836786E+02 -0.28290685566E+02 -0.46866943146E+03  0.47012204951E+03  0.12699999809E+01 0. -1.
       -4    1    3    3    0  502  0.23700836786E+02  0.28290685566E+02  0.14490941055E+03  0.14954077277E+03  0.12699999809E+01 0.  1.
</event>
<event>
 5   0  0.1967161E-01  0.5109111E+03  0.7818609E-02  0.1010970E+00
       -1   -1    0    0    0  501  0.00000000000E+00  0.00000000000E+00  0.34395439422E+03  0.34395439425E+03  0.50400001928E-02 0. -1.
        1   -1    0    0  501    0  0.00000000000E+00  0.00000000000E+00 -0.18972732005E+03  0.18972732012E+03  0.50400001928E-02 0.  1.
    10030    2    1    2    0    0  0.00000000000E+00  0.00000000000E+00  0.15422707416E+03  0.53368171437E+03  0.51091112911E+03 0.  0.
        1    1    3    3  502    0  0.10211181327E+03  0.84630887035E+02  0.30517502619E+03  0.33274766127E+03  0.50400001928E-02 0. -1.
       -1    1    3    3    0  502 -0.10211181327E+03 -0.84630887035E+02 -0.15094795202E+03  0.20093405310E+03  0.50400001928E-02 0.  1.
</event>
<event>
 5   0  0.3178149E-01  0.5006588E+03  0.7818609E-02  0.1013607E+00
       -2   -1    0    0    0  501  0.00000000000E+00  0.00000000000E+00  0.11555007703E+03  0.11555007705E+03  0.25500000920E-02 0. -1.
        2   -1    0    0  501    0  0.00000000000E+00  0.00000000000E+00 -0.54231737154E+03  0.54231737155E+03  0.25500000920E-02 0.  1.
    10030    2    1    2    0    0  0.00000000000E+00  0.00000000000E+00 -0.42676729452E+03  0.65786744860E+03  0.50065882221E+03 0.  0.
        3    1    3    3  502    0  0.19489073077E+03  0.15278971107E+03 -0.16532431943E+03  0.29775700419E+03  0.10100000352E+00 0. -1.
       -3    1    3    3    0  502 -0.19489073077E+03 -0.15278971107E+03 -0.26144297509E+03  0.36011044441E+03  0.10100000352E+00 0.  1.
</event>
<event>
 5   0  0.3329246E-01  0.5109772E+03  0.7818609E-02  0.1010953E+00
        2   -1    0    0  501    0  0.00000000000E+00  0.00000000000E+00  0.11021049698E+04  0.11021049698E+04  0.25500000920E-02 0. -1.
       -2   -1    0    0    0  501  0.00000000000E+00  0.00000000000E+00 -0.59227041584E+02  0.59227041639E+02  0.25500000920E-02 0.  1.
    10030    2    1    2    0    0  0.00000000000E+00  0.00000000000E+00  0.10428779282E+04  0.11613320114E+04  0.51097716939E+03 0.  0.
        2    1    3    3  502    0 -0.17504167701E+03 -0.12791095768E+03  0.82867145214E+03  0.85656125139E+03  0.25500000920E-02 0. -1.
       -2    1    3    3    0  502  0.17504167701E+03  0.12791095768E+03  0.21420647607E+03  0.30477076005E+03  0.25500000920E-02 0.  1.
</event>
<event>
 5   0  0.1984297E-01  0.5019956E+03  0.7818609E-02  0.1013259E+00
       -1   -1    0    0    0  501  0.00000000000E+00  0.00000000000E+00  0.13681335482E+03  0.13681335491E+03  0.50400001928E-02 0. -1.
        1   -1    0    0  501    0  0.00000000000E+00  0.00000000000E+00 -0.46048060623E+03  0.46048060625E+03  0.50400001928E-02 0.  1.
    10030    2    1    2    0    0  0.00000000000E+00  0.00000000000E+00 -0.32366725141E+03  0.59729396116E+03  0.50199560397E+03 0.  0.
        3    1    3    3  502    0  0.21196288900E+03 -0.95649949371E+02 -0.27422591894E+03  0.35955117014E+03  0.10100000352E+00 0.  1.
       -3    1    3    3    0  502 -0.21196288900E+03  0.95649949371E+02 -0.49441332468E+02  0.23774279103E+03  0.10100000352E+00 0. -1.
</event>
<event>
 5   0  0.1984297E-01  0.4975168E+03  0.7818609E-02  0.1014429E+00
       -1   -1    0    0    0  501  0.00000000000E+00  0.00000000000E+00  0.96693081573E+02  0.96693081704E+02  0.50400001928E-02 0.  1.
        1   -1    0    0  501    0  0.00000000000E+00  0.00000000000E+00 -0.63997074448E+03  0.63997074450E+03  0.50400001928E-02 0. -1.
    10030    2    1    2    0    0  0.00000000000E+00  0.00000000000E+00 -0.54327766291E+03  0.73666382621E+03  0.49751680758E+03 0.  0.
        3    1    3    3  502    0  0.13542775895E+02  0.13718983921E+03 -0.57823738994E+03  0.59444339351E+03  0.10100000352E+00 0. -1.
       -3    1    3    3    0  502 -0.13542775895E+02 -0.13718983921E+03  0.34959727026E+02  0.14222043270E+03  0.10100000352E+00 0.  1.
</event>
<event>
 5   0  0.2013450E-01  0.4317290E+03  0.7818609E-02  0.1033315E+00
        1   -1    0    0  501    0  0.00000000000E+00  0.00000000000E+00  0.92168198974E+02  0.92168199112E+02  0.50400001928E-02 0. -1.
       -1   -1    0    0    0  501  0.00000000000E+00  0.00000000000E+00 -0.50557017079E+03  0.50557017082E+03  0.50400001928E-02 0.  1.
    10030    2    1    2    0    0  0.00000000000E+00  0.00000000000E+00 -0.41340197182E+03  0.59773836993E+03  0.43172904533E+03 0.  0.
        4    1    3    3  502    0  0.20880462040E+03  0.37474752503E+02 -0.26194588976E+03  0.33707712565E+03  0.12699999809E+01 0.  1.
       -4    1    3    3    0  502 -0.20880462040E+03 -0.37474752503E+02 -0.15145608206E+03  0.26066124428E+03  0.12699999809E+01 0. -1.
</event>
<event>
 5   0  0.3178149E-01  0.5043704E+03  0.7818609E-02  0.1012644E+00
        2   -1    0    0  501    0  0.00000000000E+00  0.00000000000E+00  0.75445348479E+03  0.75445348480E+03  0.25500000920E-02 0.  1.
       -2   -1    0    0    0  501  0.00000000000E+00  0.00000000000E+00 -0.84295950131E+02  0.84295950169E+02  0.25500000920E-02 0. -1.
    10030    2    1    2    0    0  0.00000000000E+00  0.00000000000E+00  0.67015753466E+03  0.83874943497E+03  0.50437039306E+03 0.  0.
        3    1    3    3  502    0 -0.22651295629E+03  0.81000489163E+02  0.46093954114E+03  0.51993698599E+03  0.10100000352E+00 0.  1.
       -3    1    3    3    0  502  0.22651295629E+03 -0.81000489163E+02  0.20921799353E+03  0.31881244898E+03  0.10100000352E+00 0. -1.
</event>
<event>
 5   0  0.3329246E-01  0.5051685E+03  0.7818609E-02  0.1012439E+00
       -2   -1    0    0    0  501  0.00000000000E+00  0.00000000000E+00  0.53473797481E+03  0.53473797482E+03  0.25500000920E-02 0.  1.
        2   -1    0    0  501    0  0.00000000000E+00  0.00000000000E+00 -0.11930852373E+03  0.11930852375E+03  0.25500000920E-02 0. -1.
    10030    2    1    2    0    0  0.00000000000E+00  0.00000000000E+00  0.41542945109E+03  0.65404649857E+03  0.50516848027E+03 0.  0.
        2    1    3    3  502    0 -0.13298336422E+03  0.12750233936E+03  0.43143132190E+03  0.46912088764E+03  0.25500000920E-02 0.  1.
       -2    1    3    3    0  502  0.13298336422E+03 -0.12750233936E+03 -0.16001870813E+02  0.18492561093E+03  0.25500000920E-02 0. -1.
</event>
<event>
 5   0  0.3117389E-01  0.4993695E+03  0.7818609E-02  0.1013944E+00
       -2   -1    0    0    0  501  0.00000000000E+00  0.00000000000E+00  0.84851989551E+02  0.84851989589E+02  0.25500000920E-02 0. -1.
        2   -1    0    0  501    0  0.00000000000E+00  0.00000000000E+00 -0.73472031411E+03  0.73472031412E+03  0.25500000920E-02 0.  1.
    10030    2    1    2    0    0  0.00000000000E+00  0.00000000000E+00 -0.64986832456E+03  0.81957230371E+03  0.49936952423E+03 0.  0.
        4    1    3    3  502    0 -0.59013753964E+02  0.99927536076E+02  0.37891959904E+02  0.12208828424E+03  0.12699999809E+01 0. -1.
       -4    1    3    3    0  502  0.59013753964E+02 -0.99927536076E+02 -0.68776028447E+03  0.69748401947E+03  0.12699999809E+01 0.  1.
</event>
<event>
 5   0  0.2000612E-01  0.4983724E+03  0.7818609E-02  0.1014205E+00
        1   -1    0    0  501    0  0.00000000000E+00  0.00000000000E+00  0.10613289010E+03  0.10613289022E+03  0.50400001928E-02 0. -1.
       -1   -1    0    0    0  501  0.00000000000E+00  0.00000000000E+00 -0.58505684337E+03  0.58505684339E+03  0.50400001928E-02 0.  1.
    10030    2    1    2    0    0  0.00000000000E+00  0.00000000000E+00 -0.47892395327E+03  0.69118973361E+03  0.49837244591E+03 0.  0.
        2    1    3    3  502    0  0.10544156156E+03  0.12592981420E+03  0.20437409419E+02  0.16551111358E+03  0.25500000920E-02 0. -1.
       -2    1    3    3    0  502 -0.10544156156E+03 -0.12592981420E+03 -0.49936136269E+03  0.52567862003E+03  0.25500000920E-02 0.  1.
</event>
<event>
 5   0  0.1984680E-01  0.4311553E+03  0.7818609E-02  0.1033496E+00
       -1   -1    0    0    0  501  0.00000000000E+00  0.00000000000E+00  0.35703010964E+02  0.35703011319E+02  0.50400001928E-02 0. -1.
        1   -1    0    0  501    0  0.00000000000E+00  0.00000000000E+00 -0.13016748838E+04  0.13016748838E+04  0.50400001928E-02 0.  1.
    10030    2    1    2    0    0  0.00000000000E+00  0.00000000000E+00 -0.12659718728E+04  0.13373778951E+04  0.43115525228E+03 0.  0.
        5    1    3    3  502    0 -0.19409111637E+03  0.84027130711E+02 -0.50435449039E+03  0.54692546304E+03  0.46999998093E+01 0. -1.
       -5    1    3    3    0  502  0.19409111637E+03 -0.84027130711E+02 -0.76161738246E+03  0.79045243210E+03  0.46999998093E+01 0.  1.
</event>
<event>
 5   0  0.3111146E-01  0.5064663E+03  0.7818609E-02  0.1012105E+00
        2   -1    0    0  501    0  0.00000000000E+00  0.00000000000E+00  0.63628903622E+03  0.63628903623E+03  0.25500000920E-02 0.  1.
       -2   -1    0    0    0  501  0.00000000000E+00  0.00000000000E+00 -0.10078285789E+03  0.10078285793E+03  0.25500000920E-02 0. -1.
    10030    2    1    2    0    0  0.00000000000E+00  0.00000000000E+00  0.53550617833E+03  0.73707189415E+03  0.50646629712E+03 0.  0.
        1    1    3    3  502    0 -0.54875270400E+02  0.71756422353E+02  0.61204303244E+03  0.61867354318E+03  0.50400001928E-02 0.  1.
       -1    1    3    3    0  502  0.54875270400E+02 -0.71756422353E+02 -0.76536854110E+02  0.11839835097E+03  0.50400001928E-02 0. -1.
</event>
<event>
 5   0  0.3329246E-01  0.5087513E+03  0.7818609E-02  0.1011520E+00
       -2   -1    0    0    0  501  0.00000000000E+00  0.00000000000E+00  0.54940521928E+02  0.54940521987E+02  0.25500000920E-02 0.  1.
        2   -1    0    0  501    0  0.00000000000E+00  0.00000000000E+00 -0.11777640379E+04  0.11777640379E+04  0.25500000920E-02 0. -1.
    10030    2    1    2    0    0  0.00000000000E+00  0.00000000000E+00 -0.11228235160E+04  0.12327045599E+04  0.50875129872E+03 0.  0.
        2    1    3    3  502    0 -0.12956204855E+03 -0.21317239677E+03 -0.44079170119E+03  0.50648407578E+03  0.25500000920E-02 0.  1.
       -2    1    3    3    0  502  0.12956204855E+03  0.21317239677E+03 -0.68203181477E+03  0.72622048410E+03  0.25500000920E-02 0. -1.
</event>
<event>
 5   0  0.1967161E-01  0.5058582E+03  0.7818609E-02  0.1012261E+00
       -1   -1    0    0    0  501  0.00000000000E+00  0.00000000000E+00  0.57760155312E+02  0.57760155532E+02  0.50400001928E-02 0. -1.
        1   -1    0    0  501    0  0.00000000000E+00  0.00000000000E+00 -0.11075649918E+04  0.11075649918E+04  0.50400001928E-02 0.  1.
    10030    2    1    2    0    0  0.00000000000E+00  0.00000000000E+00 -0.10498048365E+04  0.11653251474E+04  0.50585818598E+03 0.  0.
        1    1    3    3  502    0 -0.23668266656E+03 -0.73746007468E+02 -0.64045266423E+03  0.68675816225E+03  0.50400001928E-02 0. -1.
       -1    1    3    3    0  502  0.23668266656E+03  0.73746007468E+02 -0.40935217227E+03  0.47856698511E+03  0.50400001928E-02 0.  1.
</event>
<event>
 5   0  0.1984297E-01  0.4992446E+03  0.7818609E-02  0.1013976E+00
       -1   -1    0    0    0  501  0.00000000000E+00  0.00000000000E+00  0.20245286419E+03  0.20245286425E+03  0.50400001928E-02 0.  1.
        1   -1    0    0  501    0  0.00000000000E+00  0.00000000000E+00 -0.30778172076E+03  0.30778172080E+03  0.50400001928E-02 0. -1.
    10030    2    1    2    0    0  0.00000000000E+00  0.00000000000E+00 -0.10532885658E+03  0.51023458505E+03  0.49924459312E+03 0.  0.
        3    1    3    3  502    0 -0.10419591299E+03  0.60830355027E+02 -0.27600217468E+03  0.30122139865E+03  0.10100000352E+00 0.  1.
       -3    1    3    3    0  502  0.10419591299E+03 -0.60830355027E+02  0.17067331811E+03  0.20901318640E+03  0.10100000352E+00 0. -1.
</event>
<event>
 5   0  0.2013450E-01  0.5070967E+03  0.7818609E-02  0.1011943E+00
       -1   -1    0    0    0  501  0.00000000000E+00  0.00000000000E+00  0.14042074201E+03  0.14042074210E+03  0.50400001928E-02 0.  1.
        1   -1    0    0  501    0  0.00000000000E+00  0.00000000000E+00 -0.45781529125E+03  0.45781529127E+03  0.50400001928E-02 0. -1.
    10030    2    1    2    0    0  0.00000000000E+00  0.00000000000E+00 -0.31739454924E+03  0.59823603337E+03  0.50709668875E+03 0.  0.
        4    1    3    3  502    0  0.86297101028E+02  0.20831041175E+03 -0.29548838674E+03  0.37169263765E+03  0.12699999809E+01 0. -1.
       -4    1    3    3    0  502 -0.86297101028E+02 -0.20831041175E+03 -0.21906162497E+02  0.22654339572E+03  0.12699999809E+01 0.  1.
</event>
<event>
 5   0  0.1292375E-01  0.6221468E+03  0.7818609E-02  0.9860495E-01
       -3   -1    0    0    0  501  0.00000000000E+00  0.00000000000E+00  0.14972544580E+03  0.14972547987E+03  0.10100000352E+00 0.  1.
        3   -1    0    0  501    0  0.00000000000E+00  0.00000000000E+00 -0.64629384568E+03  0.64629385357E+03  0.10100000352E+00 0. -1.
    10030    2    1    2    0    0  0.00000000000E+00  0.00000000000E+00 -0.49656839988E+03  0.79601933344E+03  0.62214677002E+03 0.  0.
        2    1    3    3  502    0 -0.14717090862E+03 -0.19097898314E+03 -0.49977254628E+03  0.55489174293E+03  0.25500000920E-02 0. -1.
       -2    1    3    3    0  502  0.14717090862E+03  0.19097898314E+03  0.32041463980E+01  0.24112759051E+03  0.25500000920E-02 0.  1.
</event>
<event>
 5   0  0.1967161E-01  0.4454482E+03  0.7818609E-02  0.1029088E+00
        1   -1    0    0  501    0  0.00000000000E+00  0.00000000000E+00  0.19802994693E+03  0.19802994699E+03  0.50400001928E-02 0. -1.
       -1   -1    0    0    0  501  0.00000000000E+00  0.00000000000E+00 -0.25049754934E+03  0.25049754939E+03  0.50400001928E-02 0.  1.
    10030    2    1    2    0    0  0.00000000000E+00  0.00000000000E+00 -0.52467602409E+02  0.44852749639E+03  0.44544816277E+03 0.  0.
        1    1    3    3  502    0 -0.11148176398E+03 -0.10843384519E+03  0.13430466472E+03  0.20548436796E+03  0.50400001928E-02 0. -1.
       -1    1    3    3    0  502  0.11148176398E+03  0.10843384519E+03 -0.18677226713E+03  0.24304312843E+03  0.50400001928E-02 0.  1.
</event>
<event>
 5   0  0.3178149E-01  0.4971923E+03  0.7818609E-02  0.1014514E+00
       -2   -1    0    0    0  501  0.00000000000E+00  0.00000000000E+00  0.41235489586E+03  0.41235489587E+03  0.25500000920E-02 0.  1.
        2   -1    0    0  501    0  0.00000000000E+00  0.00000000000E+00 -0.14987102374E+03  0.14987102376E+03  0.25500000920E-02 0. -1.
    10030    2    1    2    0    0  0.00000000000E+00  0.00000000000E+00  0.26248387212E+03  0.56222591963E+03  0.49719231850E+03 0.  0.
        3    1    3    3  502    0  0.10472086572E+03  0.20769850738E+03  0.32047288246E+02  0.23480240325E+03  0.10100000352E+00 0. -1.
       -3    1    3    3    0  502 -0.10472086572E+03 -0.20769850738E+03  0.23043658388E+03  0.32742351638E+03  0.10100000352E+00 0.  1.
</event>
<event>
 5   0  0.2000612E-01  0.5078413E+03  0.7818609E-02  0.1011752E+00
       -1   -1    0    0    0  501  0.00000000000E+00  0.00000000000E+00  0.90924949125E+02  0.90924949264E+02  0.50400001928E-02 0.  1.
        1   -1    0    0  501    0  0.00000000000E+00  0.00000000000E+00 -0.70910897106E+03  0.70910897108E+03  0.50400001928E-02 0. -1.
    10030    2    1    2    0    0  0.00000000000E+00  0.00000000000E+00 -0.61818402193E+03  0.80003392034E+03  0.50784130269E+03 0.  0.
        2    1    3    3  502    0 -0.18510190907E+03  0.14484043122E+03 -0.15770775052E+03  0.28304275620E+03  0.25500000920E-02 0.  1.
       -2    1    3    3    0  502  0.18510190907E+03 -0.14484043122E+03 -0.46047627142E+03  0.51699116414E+03  0.25500000920E-02 0. -1.
</event>
<event>
 5   0  0.1292375E-01  0.5107829E+03  0.7818609E-02  0.1011002E+00
        3   -1    0    0  501    0  0.00000000000E+00  0.00000000000E+00  0.63497472364E+03  0.63497473168E+03  0.10100000352E+00 0. -1.
       -3   -1    0    0    0  501  0.00000000000E+00  0.00000000000E+00 -0.10272025924E+03  0.10272030889E+03  0.10100000352E+00 0.  1.
    10030    2    1    2    0    0  0.00000000000E+00  0.00000000000E+00  0.53225446440E+03  0.73769504057E+03  0.51078288734E+03 0.  0.
        5    1    3    3  502    0  0.15595534552E+02  0.22814852519E+03  0.43021093526E+03  0.48723557861E+03  0.46999998093E+01 0. -1.
       -5    1    3    3    0  502 -0.15595534552E+02 -0.22814852519E+03  0.10204352914E+03  0.25045946196E+03  0.46999998093E+01 0.  1.
</event>
<event>
 5   0  0.3111146E-01  0.4941653E+03  0.7818609E-02  0.1015313E+00
       -2   -1    0    0    0  501  0.00000000000E+00  0.00000000000E+00  0.19068398321E+03  0.19068398323E+03  0.25500000920E-02 0. -1.
        2   -1    0    0  501    0  0.00000000000E+00  0.00000000000E+00 -0.32016237114E+03  0.32016237115E+03  0.25500000920E-02 0.  1.
    10030    2    1    2    0    0  0.00000000000E+00  0.00000000000E+00 -0.12947838793E+03  0.51084635438E+03  0.49416530114E+03 0.  0.
        1    1    3    3  502    0 -0.10970039616E+03  0.83882354042E+02  0.14706580996E+03  0.20173938317E+03  0.50400001928E-02 0. -1.
       -1    1    3    3    0  502  0.10970039616E+03 -0.83882354042E+02 -0.27654419789E+03  0.30910697121E+03  0.50400001928E-02 0.  1.
</event>
<event>
 5   0  0.2000612E-01  0.4652780E+03  0.7818609E-02  0.1023261E+00
       -1   -1    0    0    0  501  0.00000000000E+00  0.00000000000E+00  0.93677205424E+02  0.93677205560E+02  0.50400001928E-02 0. -1.
        1   -1    0    0  501    0  0.00000000000E+00  0.00000000000E+00 -0.57773820584E+03  0.57773820586E+03  0.50400001928E-02 0.  1.
    10030    2    1    2    0    0  0.00000000000E+00  0.00000000000E+00 -0.48406100041E+03  0.67141541142E+03  0.46527798419E+03 0.  0.
        2    1    3    3  502    0 -0.71679578035E+02 -0.85416604088E+01  0.77106780007E+02  0.10562375395E+03  0.25500000920E-02 0. -1.
       -2    1    3    3    0  502  0.71679578035E+02  0.85416604088E+01 -0.56116778042E+03  0.56579165746E+03  0.25500000920E-02 0.  1.
</event>
<event>
 5   0  0.1984297E-01  0.5017224E+03  0.7818609E-02  0.1013330E+00
        1   -1    0    0  501    0  0.00000000000E+00  0.00000000000E+00  0.56113876346E+03  0.56113876348E+03  0.50400001928E-02 0.  1.
       -1   -1    0    0    0  501  0.00000000000E+00  0.00000000000E+00 -0.11214935639E+03  0.11214935651E+03  0.50400001928E-02 0. -1.
    10030    2    1    2    0    0  0.00000000000E+00  0.00000000000E+00  0.44898940707E+03  0.67328811999E+03  0.50172243807E+03 0.  0.
        3    1    3    3  502    0  0.11064134812E+03  0.21291077120E+03  0.32273115930E+03  0.40215409458E+03  0.10100000352E+00 0.  1.
       -3    1    3    3    0  502 -0.11064134812E+03 -0.21291077120E+03  0.12625824776E+03  0.27113402541E+03  0.10100000352E+00 0. -1.
</event>
<event>
 5   0  0.3111146E-01  0.5009131E+03  0.7818609E-02  0.1013541E+00
        2   -1    0    0  501    0  0.00000000000E+00  0.00000000000E+00  0.35047747367E+03  0.35047747368E+03  0.25500000920E-02 0.  1.
       -2   -1    0    0    0  501  0.00000000000E+00  0.00000000000E+00 -0.17898010115E+03  0.17898010116E+03  0.25500000920E-02 0. -1.
    10030    2    1    2    0    0  0.00000000000E+00  0.00000000000E+00  0.17149737252E+03  0.52945757484E+03  0.50091314095E+03 0.  0.
        1    1    3    3  502    0  0.20478242824E+02 -0.24416785662E+03  0.30915792530E+02  0.24696778512E+03  0.50400001928E-02 0. -1.
       -1    1    3    3    0  502 -0.20478242824E+02  0.24416785662E+03  0.14058157999E+03  0.28248978972E+03  0.50400001928E-02 0.  1.
</event>
<event>
 5   0  0.2013450E-01  0.4532463E+03  0.7818609E-02  0.1026758E+00
        1   -1    0    0  501    0  0.00000000000E+00  0.00000000000E+00  0.34853957956E+03  0.34853957959E+03  0.50400001928E-02 0. -1.
       -1   -1    0    0    0  501  0.00000000000E+00  0.00000000000E+00 -0.14735216989E+03  0.14735216997E+03  0.50400001928E-02 0.  1.
    10030    2    1    2    0    0  0.00000000000E+00  0.00000000000E+00  0.20118740967E+03  0.49589174957E+03  0.45324634966E+03 0.  0.
        4    1    3    3  502    0 -0.35320594036E+02 -0.82608304214E+02 -0.12703139314E+03  0.15559647821E+03  0.12699999809E+01 0.  1.
       -4    1    3    3    0  502  0.35320594036E+02  0.82608304214E+02  0.32821880281E+03  0.34029527136E+03  0.12699999809E+01 0. -1.
</event>
<event>
 5   0  0.3329246E-01  0.5151421E+03  0.7818609E-02  0.1009900E+00
        2   -1    0    0  501    0  0.00000000000E+00  0.00000000000E+00  0.66651953472E+03  0.66651953472E+03  0.25500000920E-02 0. -1.
       -2   -1    0    0    0  501  0.00000000000E+00  0.00000000000E+00 -0.99536254551E+02  0.99536254584E+02  0.25500000920E-02 0.  1.
    10030    2    1    2    0    0  0.00000000000E+00  0.00000000000E+00  0.56698328017E+03  0.76605578931E+03  0.51514214771E+03 0.  0.
        2    1    3    3  502    0 -0.10956358451E+03 -0.57263573014E+02 -0.52533567639E+02  0.13432450105E+03  0.25500000920E-02 0.  1.
       -2    1    3    3    0  502  0.10956358451E+03  0.57263573014E+02  0.61951684781E+03  0.63173128826E+03  0.25500000920E-02 0. -1.
</event>
<event>
 5   0  0.1984297E-01  0.4929925E+03  0.7818609E-02  0.1015624E+00
       -1   -1    0    0    0  501  0.00000000000E+00  0.00000000000E+00  0.37930264799E+02  0.37930265134E+02  0.50400001928E-02 0.  1.
        1   -1    0    0  501    0  0.00000000000E+00  0.00000000000E+00 -0.16018975357E+04  0.16018975357E+04  0.50400001928E-02 0. -1.
    10030    2    1    2    0    0  0.00000000000E+00  0.00000000000E+00 -0.15639672709E+04  0.16398278008E+04  0.49299248672E+03 0.  0.
        3    1    3    3  502    0  0.22186070614E+03 -0.10229979346E+03 -0.89093963528E+03  0.92382945644E+03  0.10100000352E+00 0. -1.
       -3    1    3    3    0  502 -0.22186070614E+03  0.10229979346E+03 -0.67302763559E+03  0.71599834437E+03  0.10100000352E+00 0.  1.
</event>
<event>
 5   0  0.3178149E-01  0.5056648E+03  0.7818609E-02  0.1012311E+00
        2   -1    0    0  501    0  0.00000000000E+00  0.00000000000E+00  0.18738141927E+04  0.18738141927E+04  0.25500000920E-02 0. -1.
       -2   -1    0    0    0  501  0.00000000000E+00  0.00000000000E+00 -0.34114500281E+02  0.34114500376E+02  0.25500000920E-02 0.  1.
    10030    2    1    2    0    0  0.00000000000E+00  0.00000000000E+00  0.18396996924E+04  0.19079286930E+04  0.50566484906E+03 0.  0.
        3    1    3    3  502    0 -0.82171001176E+02 -0.18440957032E+03  0.14941222923E+04  0.15077003673E+04  0.10100000352E+00 0. -1.
       -3    1    3    3    0  502  0.82171001176E+02  0.18440957032E+03  0.34557740006E+03  0.40022832570E+03  0.10100000352E+00 0.  1.
</event>
<event>
 5   0  0.2000612E-01  0.5123877E+03  0.7818609E-02  0.1010595E+00
       -1   -1    0    0    0  501  0.00000000000E+00  0.00000000000E+00  0.41475857611E+02  0.41475857917E+02  0.50400001928E-02 0.  1.
        1   -1    0    0  501    0  0.00000000000E+00  0.00000000000E+00 -0.15824938587E+04  0.15824938587E+04  0.50400001928E-02 0. -1.
    10030    2    1    2    0    0  0.00000000000E+00  0.00000000000E+00 -0.15410180011E+04  0.16239697166E+04  0.51238770558E+03 0.  0.
        2    1    3    3  502    0  0.14377982465E+03  0.70031588336E+02 -0.13616461917E+03  0.21004253107E+03  0.25500000920E-02 0.  1.
       -2    1    3    3    0  502 -0.14377982465E+03 -0.70031588336E+02 -0.14048533819E+04  0.14139271855E+04  0.25500000920E-02 0. -1.
</event>
<event>
 5   0  0.3329246E-01  0.4986182E+03  0.7818609E-02  0.1014140E+00
       -2   -1    0    0    0  501  0.00000000000E+00  0.00000000000E+00  0.12077905602E+03  0.12077905604E+03  0.25500000920E-02 0. -1.
        2   -1    0    0  501    0  0.00000000000E+00  0.00000000000E+00 -0.51461755846E+03  0.51461755847E+03  0.25500000920E-02 0.  1.
    10030    2    1    2    0    0  0.00000000000E+00  0.00000000000E+00 -0.39383850244E+03  0.63539661451E+03  0.49861818231E+03 0.  0.
        2    1    3    3  502    0 -0.45078639573E+02 -0.12525499935E+03 -0.46553724317E+03  0.48419605884E+03  0.25500000920E-02 0.  1.
       -2    1    3    3    0  502  0.45078639573E+02  0.12525499935E+03  0.71698740728E+02  0.15120055567E+03  0.25500000920E-02 0. -1.
</event>
<event>
 5   0  0.3111146E-01  0.5231603E+03  0.7818609E-02  0.1007904E+00
        2   -1    0    0  501    0  0.00000000000E+00  0.00000000000E+00  0.11169022485E+04  0.11169022485E+04  0.25500000920E-02 0.  1.
       -2   -1    0    0    0  501  0.00000000000E+00  0.00000000000E+00 -0.61262456038E+02  0.61262456091E+02  0.25500000920E-02 0. -1.
    10030    2    1    2    0    0  0.00000000000E+00  0.00000000000E+00  0.10556397925E+04  0.11781647046E+04  0.52316030022E+03 0.  0.
        1    1    3    3  502    0  0.20319974298E+03 -0.16362288462E+03  0.48499660648E+03  0.55071253140E+03  0.50400001928E-02 0. -1.
       -1    1    3    3    0  502 -0.20319974298E+03  0.16362288462E+03  0.57064318602E+03  0.62745217323E+03  0.50400001928E-02 0.  1.
</event>
<event>
 5   0  0.1967161E-01  0.5058606E+03  0.7818609E-02  0.1012260E+00
       -1   -1    0    0    0  501  0.00000000000E+00  0.00000000000E+00  0.40986493810E+02  0.40986494120E+02  0.50400001928E-02 0. -1.
        1   -1    0    0  501    0  0.00000000000E+00  0.00000000000E+00 -0.15608489343E+04  0.15608489343E+04  0.50400001928E-02 0.  1.
    10030    2    1    2    0    0  0.00000000000E+00  0.00000000000E+00 -0.15198624405E+04  0.16018354284E+04  0.50586055564E+03 0.  0.
        1    1    3    3  502    0 -0.58138839889E+02  0.10910976055E+03 -0.61214729940E+02  0.13795763023E+03  0.50400001928E-02 0. -1.
       -1    1    3    3    0  502  0.58138839889E+02 -0.10910976055E+03 -0.14586477105E+04  0.14638777982E+04  0.50400001928E-02 0.  1.
</event>
<event>
 5   0  0.2000612E-01  0.5093130E+03  0.7818609E-02  0.1011376E+00
        1   -1    0    0  501    0  0.00000000000E+00  0.00000000000E+00  0.43722884844E+03  0.43722884847E+03  0.50400001928E-02 0.  1.
       -1   -1    0    0    0  501  0.00000000000E+00  0.00000000000E+00 -0.14832032412E+03  0.14832032421E+03  0.50400001928E-02 0. -1.
    10030    2    1    2    0    0  0.00000000000E+00  0.00000000000E+00  0.28890852432E+03  0.58554917268E+03  0.50931296685E+03 0.  0.
        2    1    3    3  502    0  0.16082332580E+03 -0.18793346429E+03  0.74836192254E+02  0.25842520156E+03  0.25500000920E-02 0. -1.
       -2    1    3    3    0  502 -0.16082332580E+03  0.18793346429E+03  0.21407233206E+03  0.32712397112E+03  0.25500000920E-02 0.  1.
</event>
<event>
 5   0  0.3329246E-01  0.4732925E+03  0.7818609E-02  0.1020995E+00
       -2   -1    0    0    0  501  0.00000000000E+00  0.00000000000E+00  0.48279654221E+02  0.48279654289E+02  0.25500000920E-02 0. -1.
        2   -1    0    0  501    0  0.00000000000E+00  0.00000000000E+00 -0.11599391016E+04  0.11599391016E+04  0.25500000920E-02 0.  1.
    10030    2    1    2    0    0  0.00000000000E+00  0.00000000000E+00 -0.11116594474E+04  0.12082187559E+04  0.47329254710E+03 0.  0.
        2    1    3    3  502    0  0.54870009609E+02  0.14126024094E+03 -0.10198228112E+04  0.10310207272E+04  0.25500000920E-02 0.  1.
       -2    1    3    3    0  502 -0.54870009609E+02 -0.14126024094E+03 -0.91836636165E+02  0.17719802870E+03  0.25500000920E-02 0. -1.
</event>
<event>
 5   0  0.3117389E-01  0.5148749E+03  0.7818609E-02  0.1009968E+00
        2   -1    0    0  501    0  0.00000000000E+00  0.00000000000E+00  0.32943539505E+03  0.32943539506E+03  0.25500000920E-02 0. -1.
       -2   -1    0    0    0  501  0.00000000000E+00  0.00000000000E+00 -0.20117465638E+03  0.20117465639E+03  0.25500000920E-02 0.  1.
    10030    2    1    2    0    0  0.00000000000E+00  0.00000000000E+00  0.12826073868E+03  0.53061005146E+03  0.51487494561E+03 0.  0.
        4    1    3    3  502    0 -0.72751741878E+02 -0.62280444763E+02  0.31039083423E+03  0.32483188363E+03  0.12699999809E+01 0. -1.
       -4    1    3    3    0  502  0.72751741878E+02  0.62280444763E+02 -0.18213009556E+03  0.20577816783E+03  0.12699999809E+01 0.  1.
</event>
<event>
 5   0  0.3178149E-01  0.4715582E+03  0.7818609E-02  0.1021481E+00
       -2   -1    0    0    0  501  0.00000000000E+00  0.00000000000E+00  0.70333424385E+02  0.70333424431E+02  0.25500000920E-02 0.  1.
        2   -1    0    0  501    0  0.00000000000E+00  0.00000000000E+00 -0.79040342423E+03  0.79040342424E+03  0.25500000920E-02 0. -1.
    10030    2    1    2    0    0  0.00000000000E+00  0.00000000000E+00 -0.72006999985E+03  0.86073684867E+03  0.47155818090E+03 0.  0.
        3    1    3    3  502    0 -0.30355472674E+02  0.18815730018E+03 -0.10667164886E+03  0.21841125247E+03  0.10100000352E+00 0.  1.
       -3    1    3    3    0  502  0.30355472674E+02 -0.18815730018E+03 -0.61339835099E+03  0.64232559620E+03  0.10100000352E+00 0. -1.
</event>
<event>
 5   0  0.3187123E-01  0.5041635E+03  0.7818609E-02  0.1012698E+00
        2   -1    0    0  501    0  0.00000000000E+00  0.00000000000E+00  0.33155756339E+03  0.33155756340E+03  0.25500000920E-02 0. -1.
       -2   -1    0    0    0  501  0.00000000000E+00  0.00000000000E+00 -0.19165660398E+03  0.19165660400E+03  0.25500000920E-02 0.  1.
    10030    2    1    2    0    0  0.00000000000E+00  0.00000000000E+00  0.13990095941E+03  0.52321416740E+03  0.50416345219E+03 0.  0.
        5    1    3    3  502    0 -0.19205782701E+03 -0.17926425611E+02  0.23830093171E+03  0.30662190023E+03  0.46999998093E+01 0. -1.
       -5    1    3    3    0  502  0.19205782701E+03  0.17926425611E+02 -0.98399972301E+02  0.21659226717E+03  0.46999998093E+01 0.  1.
</event>
<event>
 5   0  0.2013450E-01  0.5019256E+03  0.7818609E-02  0.1013278E+00
        1   -1    0    0  501    0  0.00000000000E+00  0.00000000000E+00  0.11931620431E+04  0.11931620431E+04  0.50400001928E-02 0. -1.
       -1   -1    0    0    0  501  0.00000000000E+00  0.00000000000E+00 -0.52786053765E+02  0.52786054006E+02  0.50400001928E-02 0.  1.
    10030    2    1    2    0    0  0.00000000000E+00  0.00000000000E+00  0.11403759894E+04  0.12459480972E+04  0.50192555590E+03 0.  0.
        4    1    3    3  502    0 -0.24819418887E+03 -0.68729880196E+01  0.66082250258E+03  0.70592888180E+03  0.12699999809E+01 0. -1.
       -4    1    3    3    0  502  0.24819418887E+03  0.68729880196E+01  0.47955348679E+03  0.54001921535E+03  0.12699999809E+01 0.  1.
</event>
<event>
 5   0  0.1984297E-01  0.5096783E+03  0.7818609E-02  0.1011283E+00
       -1   -1    0    0    0  501  0.00000000000E+00  0.00000000000E+00  0.39612426956E+03  0.39612426959E+03  0.50400001928E-02 0. -1.
        1   -1    0    0  501    0  0.00000000000E+00  0.00000000000E+00 -0.16394601802E+03  0.16394601810E+03  0.50400001928E-02 0.  1.
    10030    2    1    2    0    0  0.00000000000E+00  0.00000000000E+00  0.23217825154E+03  0.56007028769E+03  0.50967831684E+03 0.  0.
        3    1    3    3  502    0 -0.63962639320E+02 -0.24355798804E+03  0.73088696915E+02  0.26220923055E+03  0.10100000352E+00 0. -1.
       -3    1    3    3    0  502  0.63962639320E+02  0.24355798804E+03  0.15908955462E+03  0.29786105714E+03  0.10100000352E+00 0.  1.
</event>
<event>
 5   0  0.2013450E-01  0.4976797E+03  0.7818609E-02  0.1014386E+00
       -1   -1    0    0    0  501  0.00000000000E+00  0.00000000000E+00  0.63786778078E+02  0.63786778278E+02  0.50400001928E-02 0.  1.
        1   -1    0    0  501    0  0.00000000000E+00  0.00000000000E+00 -0.97075419042E+03  0.97075419044E+03  0.50400001928E-02 0. -1.
    10030    2    1    2    0    0  0.00000000000E+00  0.00000000000E+00 -0.90696741235E+03  0.10345409687E+04  0.49767974531E+03 0.  0.
        4    1    3    3  502    0  0.49673642453E+02  0.24015049563E+03 -0.36578359032E+03  0.44038503512E+03  0.12699999809E+01 0.  1.
       -4    1    3    3    0  502 -0.49673642453E+02 -0.24015049563E+03 -0.54118382203E+03  0.59415593360E+03  0.12699999809E+01 0. -1.
</event>
<event>
 5   0  0.3117389E-01  0.4981776E+03  0.7818609E-02  0.1014256E+00
        2   -1    0    0  501    0  0.00000000000E+00  0.00000000000E+00  0.49727465558E+03  0.49727465558E+03  0.25500000920E-02 0.  1.
       -2   -1    0    0    0  501  0.00000000000E+00  0.00000000000E+00 -0.12477055992E+03  0.12477055995E+03  0.25500000920E-02 0. -1.
    10030    2    1    2    0    0  0.00000000000E+00  0.00000000000E+00  0.37250409566E+03  0.62204521553E+03  0.49817762784E+03 0.  0.
        4    1    3    3  502    0  0.17152878485E+03 -0.25874328074E+02  0.40944829576E+03  0.44468092458E+03  0.12699999809E+01 0.  1.
       -4    1    3    3    0  502 -0.17152878485E+03  0.25874328074E+02 -0.36944200098E+02  0.17736429095E+03  0.12699999809E+01 0. -1.
</event>
<event>
 5   0  0.3117389E-01  0.4836274E+03  0.7818609E-02  0.1018143E+00
        2   -1    0    0  501    0  0.00000000000E+00  0.00000000000E+00  0.84376811693E+03  0.84376811693E+03  0.25500000920E-02 0. -1.
       -2   -1    0    0    0  501  0.00000000000E+00  0.00000000000E+00 -0.69300862536E+02  0.69300862583E+02  0.25500000920E-02 0.  1.
    10030    2    1    2    0    0  0.00000000000E+00  0.00000000000E+00  0.77446725439E+03  0.91306897951E+03  0.48362737022E+03 0.  0.
        4    1    3    3  502    0 -0.16600302410E+03  0.16353325418E+03  0.50918056906E+03  0.55997017246E+03  0.12699999809E+01 0. -1.
       -4    1    3    3    0  502  0.16600302410E+03 -0.16353325418E+03  0.26528668533E+03  0.35309880706E+03  0.12699999809E+01 0.  1.
</event>
<event>
 5   0  0.1984680E-01  0.5008616E+03  0.7818609E-02  0.1013554E+00
       -1   -1    0    0    0  501  0.00000000000E+00  0.00000000000E+00  0.11587414709E+03  0.11587414720E+03  0.50400001928E-02 0. -1.
        1   -1    0    0  501    0  0.00000000000E+00  0.00000000000E+00 -0.54123870636E+03  0.54123870638E+03  0.50400001928E-02 0.  1.
    10030    2    1    2    0    0  0.00000000000E+00  0.00000000000E+00 -0.42536455926E+03  0.65711285358E+03  0.50086155180E+03 0.  0.
        5    1    3    3  502    0 -0.19053136104E+03 -0.15916515407E+03 -0.17001339789E+03  0.30093585906E+03  0.46999998093E+01 0. -1.
       -5    1    3    3    0  502  0.19053136104E+03  0.15916515407E+03 -0.25535116137E+03  0.35617699452E+03  0.46999998093E+01 0.  1.
</event>
<event>
 5   0  0.3329246E-01  0.5089512E+03  0.7818609E-02  0.1011469E+00
        2   -1    0    0  501    0  0.00000000000E+00  0.00000000000E+00  0.40929932030E+03  0.40929932030E+03  0.25500000920E-02 0.  1.
       -2   -1    0    0    0  501  0.00000000000E+00  0.00000000000E+00 -0.15821632097E+03  0.15821632099E+03  0.25500000920E-02 0. -1.
    10030    2    1    2    0    0  0.00000000000E+00  0.00000000000E+00  0.25108299933E+03  0.56751564129E+03  0.50895120647E+03 0.  0.
        2    1    3    3  502    0  0.13576732678E+03  0.76645207750E+02  0.34980781714E+03  0.38297880337E+03  0.25500000920E-02 0.  1.
       -2    1    3    3    0  502 -0.13576732678E+03 -0.76645207750E+02 -0.98724817816E+02  0.18453683792E+03  0.25500000920E-02 0. -1.
</event>
<event>
 5   0  0.2000612E-01  0.5020587E+03  0.7818609E-02  0.1013243E+00
        1   -1    0    0  501    0  0.00000000000E+00  0.00000000000E+00  0.33998950935E+03  0.33998950939E+03  0.50400001928E-02 0.  1.
       -1   -1    0    0    0  501  0.00000000000E+00  0.00000000000E+00 -0.18534610222E+03  0.18534610229E+03  0.50400001928E-02 0. -1.
    10030    2    1    2    0    0  0.00000000000E+00  0.00000000000E+00  0.15464340713E+03  0.52533561168E+03  0.50205868335E+03 0.  0.
        2    1    3    3  502    0 -0.67989001940E+02 -0.24129014995E+03  0.63587236966E+02  0.25862478141E+03  0.25500000920E-02 0.  1.
       -2    1    3    3    0  502  0.67989001940E+02  0.24129014995E+03  0.91056170165E+02  0.26671083027E+03  0.25500000920E-02 0. -1.
</event>
<event>
 5   0  0.1984297E-01  0.4675515E+03  0.7818609E-02  0.1022614E+00
        1   -1    0    0  501    0  0.00000000000E+00  0.00000000000E+00  0.15901907419E+03  0.15901907427E+03  0.50400001928E-02 0. -1.
       -1   -1    0    0    0  501  0.00000000000E+00  0.00000000000E+00 -0.34367639988E+03  0.34367639991E+03  0.50400001928E-02 0.  1.
    10030    2    1    2    0    0  0.00000000000E+00  0.00000000000E+00 -0.18465732569E+03  0.50269547418E+03  0.46755150714E+03 0.  0.
        3    1    3    3  502    0  0.79312661803E+02 -0.96411209715E+02 -0.30483508428E+03  0.32940864969E+03  0.10100000352E+00 0.  1.
       -3    1    3    3    0  502 -0.79312661803E+02  0.96411209715E+02  0.12017775859E+03  0.17328682449E+03  0.10100000352E+00 0. -1.
</event>
<event>
 5   0  0.3187123E-01  0.5074644E+03  0.7818609E-02  0.1011849E+00
       -2   -1    0    0    0  501  0.00000000000E+00  0.00000000000E+00  0.76959139609E+02  0.76959139651E+02  0.25500000920E-02 0. -1.
        2   -1    0    0  501    0  0.00000000000E+00  0.00000000000E+00 -0.83654818097E+03  0.83654818097E+03  0.25500000920E-02 0.  1.
    10030    2    1    2    0    0  0.00000000000E+00  0.00000000000E+00 -0.75958904136E+03  0.91350732062E+03  0.50746439587E+03 0.  0.
        5    1    3    3  502    0 -0.18500885564E+03  0.14441419279E+03 -0.20643617949E+03  0.31260473756E+03  0.46999998093E+01 0. -1.
       -5    1    3    3    0  502  0.18500885564E+03 -0.14441419279E+03 -0.55315286187E+03  0.60090258307E+03  0.46999998093E+01 0.  1.
</event>
<event>
 5   0  0.3111146E-01  0.5560346E+03  0.7818609E-02  0.1000107E+00
        2   -1    0    0  501    0  0.00000000000E+00  0.00000000000E+00  0.20578862311E+03  0.20578862312E+03  0.25500000920E-02 0.  1.
       -2   -1    0    0    0  501  0.00000000000E+00  0.00000000000E+00 -0.37559709316E+03  0.37559709317E+03  0.25500000920E-02 0. -1.
    10030    2    1    2    0    0  0.00000000000E+00  0.00000000000E+00 -0.16980847005E+03  0.58138571630E+03  0.55603456242E+03 0.  0.
        1    1    3    3  502    0  0.56831238720E+01  0.24437557098E+03 -0.22338860977E+03  0.33114073835E+03  0.50400001928E-02 0. -1.
       -1    1    3    3    0  502 -0.56831238720E+01 -0.24437557098E+03  0.53580139719E+02  0.25024497795E+03  0.50400001928E-02 0.  1.
</event>
<event>
 5   0  0.2013450E-01  0.4865192E+03  0.7818609E-02  0.1017359E+00
        1   -1    0    0  501    0  0.00000000000E+00  0.00000000000E+00  0.28782075137E+03  0.28782075141E+03  0.50400001928E-02 0.  1.
       -1   -1    0    0    0  501  0.00000000000E+00  0.00000000000E+00 -0.20559755639E+03  0.20559755646E+03  0.50400001928E-02 0. -1.
    10030    2    1    2    0    0  0.00000000000E+00  0.00000000000E+00  0.82223194971E+02  0.49341830787E+03  0.48651924191E+03 0.  0.
        4    1    3    3  502    0 -0.12942200502E+03  0.22161209355E+02 -0.16656635178E+03  0.21210171387E+03  0.12699999809E+01 0. -1.
       -4    1    3    3    0  502  0.12942200502E+03 -0.22161209355E+02  0.24878954675E+03  0.28131659399E+03  0.12699999809E+01 0.  1.
</event>
<event>
 5   0  0.2000612E-01  0.3643159E+03  0.7818609E-02  0.1056888E+00
        1   -1    0    0  501    0  0.00000000000E+00  0.00000000000E+00  0.32309897400E+03  0.32309897404E+03  0.50400001928E-02 0.  1.
       -1   -1    0    0    0  501  0.00000000000E+00  0.00000000000E+00 -0.10269771042E+03  0.10269771054E+03  0.50400001928E-02 0. -1.
    10030    2    1    2    0    0  0.00000000000E+00  0.00000000000E+00  0.22040126358E+03  0.42579668459E+03  0.36431593379E+03 0.  0.
        2    1    3    3  502    0  0.56740342485E+02 -0.12796638057E+03  0.24643306867E+03  0.28341509903E+03  0.25500000920E-02 0.  1.
       -2    1    3    3    0  502 -0.56740342485E+02  0.12796638057E+03 -0.26031805084E+02  0.14238158555E+03  0.25500000920E-02 0. -1.
</event>
<event>
 5   0  0.1984297E-01  0.2916766E+03  0.7818609E-02  0.1089477E+00
        1   -1    0    0  501    0  0.00000000000E+00  0.00000000000E+00  0.63837612511E+03  0.63837612513E+03  0.50400001928E-02 0.  1.
       -1   -1    0    0    0  501  0.00000000000E+00  0.00000000000E+00 -0.33317048027E+02  0.33317048408E+02  0.50400001928E-02 0. -1.
    10030    2    1    2    0    0  0.00000000000E+00  0.00000000000E+00  0.60505907709E+03  0.67169317354E+03  0.29167658908E+03 0.  0.
        3    1    3    3  502    0  0.16989857134E+02 -0.12883811855E+03  0.45495240881E+03  0.47314862413E+03  0.10100000352E+00 0.  1.
       -3    1    3    3    0  502 -0.16989857134E+02  0.12883811855E+03  0.15010666828E+03  0.19854454941E+03  0.10100000352E+00 0. -1.
</event>
<event>
 5   0  0.3117389E-01  0.5071168E+03  0.7818609E-02  0.1011938E+00
       -2   -1    0    0    0  501  0.00000000000E+00  0.00000000000E+00  0.36592023758E+02  0.36592023847E+02  0.25500000920E-02 0.  1.
        2   -1    0    0  501    0  0.00000000000E+00  0.00000000000E+00 -0.17569908383E+04  0.17569908383E+04  0.25500000920E-02 0. -1.
    10030    2    1    2    0    0  0.00000000000E+00  0.00000000000E+00 -0.17203988145E+04  0.17935828622E+04  0.50711675413E+03 0.  0.
        4    1    3    3  502    0 -0.21241966090E+03  0.11474243572E+03 -0.58618569799E+03  0.63395837743E+03  0.12699999809E+01 0.  1.
       -4    1    3    3    0  502  0.21241966090E+03 -0.11474243572E+03 -0.11342131166E+04  0.11596244847E+04  0.12699999809E+01 0. -1.
</event>
<event>
 5   0  0.1984680E-01  0.4690001E+03  0.7818609E-02  0.1022203E+00
        1   -1    0    0  501    0  0.00000000000E+00  0.00000000000E+00  0.21233414583E+04  0.21233414583E+04  0.50400001928E-02 0.  1.
       -1   -1    0    0    0  501  0.00000000000E+00  0.00000000000E+00 -0.25897991395E+02  0.25897991886E+02  0.50400001928E-02 0. -1.
    10030    2    1    2    0    0  0.00000000000E+00  0.00000000000E+00  0.20974434669E+04  0.21492394502E+04  0.46900012516E+03 0.  0.
        5    1    3    3  502    0 -0.14002898541E+03  0.11689225680E+03  0.37372073935E+03  0.41588603904E+03  0.46999998093E+01 0. -1.
       -5    1    3    3    0  502  0.14002898541E+03 -0.11689225680E+03  0.17237227276E+04  0.17333534112E+04  0.46999998093E+01 0.  1.
</event>
<event>
 5   0  0.3178149E-01  0.5315223E+03  0.7818609E-02  0.1005864E+00
        2   -1    0    0  501    0  0.00000000000E+00  0.00000000000E+00  0.47735408470E+03  0.47735408471E+03  0.25500000920E-02 0. -1.
       -2   -1    0    0    0  501  0.00000000000E+00  0.00000000000E+00 -0.14795934205E+03  0.14795934207E+03  0.25500000920E-02 0.  1.
    10030    2    1    2    0    0  0.00000000000E+00  0.00000000000E+00  0.32939474266E+03  0.62531342678E+03  0.53152232805E+03 0.  0.
        3    1    3    3  502    0 -0.15269448064E+03  0.78743591786E+02 -0.73844663173E+02  0.18700054049E+03  0.10100000352E+00 0.  1.
       -3    1    3    3    0  502  0.15269448064E+03 -0.78743591786E+02  0.40323940583E+03  0.43831288628E+03  0.10100000352E+00 0. -1.
</event>
<event>
 5   0  0.3178149E-01  0.5093282E+03  0.7818609E-02  0.1011372E+00
       -2   -1    0    0    0  501  0.00000000000E+00  0.00000000000E+00  0.35436860471E+02  0.35436860563E+02  0.25500000920E-02 0. -1.
        2   -1    0    0  501    0  0.00000000000E+00  0.00000000000E+00 -0.18301229396E+04  0.18301229396E+04  0.25500000920E-02 0.  1.
    10030    2    1    2    0    0  0.00000000000E+00  0.00000000000E+00 -0.17946860791E+04  0.18655598002E+04  0.50932822950E+03 0.  0.
        3    1    3    3  502    0  0.11046177202E+03  0.12217554636E+03 -0.16087642716E+04  0.16171738185E+04  0.10100000352E+00 0.  1.
       -3    1    3    3    0  502 -0.11046177202E+03 -0.12217554636E+03 -0.18592180749E+03  0.24838598171E+03  0.10100000352E+00 0. -1.
</event>
<event>
 5   0  0.1984680E-01  0.4943337E+03  0.7818609E-02  0.1015269E+00
        1   -1    0    0  501    0  0.00000000000E+00  0.00000000000E+00  0.20629543082E+03  0.20629543088E+03  0.50400001928E-02 0.  1.
       -1   -1    0    0    0  501  0.00000000000E+00  0.00000000000E+00 -0.29613573797E+03  0.29613573801E+03  0.50400001928E-02 0. -1.
    10030    2    1    2    0    0  0.00000000000E+00  0.00000000000E+00 -0.89840307153E+02  0.50243116889E+03  0.49433369164E+03 0.  0.
        5    1    3    3  502    0  0.81612054979E+02 -0.90755259494E+02  0.17347710746E+03  0.21216371381E+03  0.46999998093E+01 0.  1.
       -5    1    3    3    0  502 -0.81612054979E+02  0.90755259494E+02 -0.26331741462E+03  0.29026745509E+03  0.46999998093E+01 0. -1.
</event>
<event>
 5   0  0.1292375E-01  0.5161080E+03  0.7818609E-02  0.1009658E+00
       -3   -1    0    0    0  501  0.00000000000E+00  0.00000000000E+00  0.23266555783E+03  0.23266557976E+03  0.10100000352E+00 0. -1.
        3   -1    0    0  501    0  0.00000000000E+00  0.00000000000E+00 -0.28621279241E+03  0.28621281023E+03  0.10100000352E+00 0.  1.
    10030    2    1    2    0    0  0.00000000000E+00  0.00000000000E+00 -0.53547234575E+02  0.51887838999E+03  0.51610800930E+03 0.  0.
        3    1    3    3  502    0  0.16278695650E+02 -0.16606223485E+02  0.23161001604E+03  0.23277450960E+03  0.10100000352E+00 0. -1.
       -3    1    3    3    0  502 -0.16278695650E+02  0.16606223485E+02 -0.28515725061E+03  0.28610388038E+03  0.10100000352E+00 0.  1.
</event>
<event>
 5   0  0.1292375E-01  0.5016746E+03  0.7818609E-02  0.1013343E+00
       -3   -1    0    0    0  501  0.00000000000E+00  0.00000000000E+00  0.72483965789E+03  0.72483966493E+03  0.10100000352E+00 0. -1.
        3   -1    0    0  501    0  0.00000000000E+00  0.00000000000E+00 -0.86804464844E+02  0.86804523603E+02  0.10100000352E+00 0.  1.
    10030    2    1    2    0    0  0.00000000000E+00  0.00000000000E+00  0.63803519305E+03  0.81164418853E+03  0.50167457700E+03 0.  0.
        1    1    3    3  502    0  0.12423827215E+03 -0.14797922102E+03  0.57780774174E+03  0.60925756833E+03  0.50400001928E-02 0. -1.
       -1    1    3    3    0  502 -0.12423827215E+03  0.14797922102E+03  0.60227451303E+02  0.20238662020E+03  0.50400001928E-02 0.  1.
</event>
<event>
 5   0  0.1984680E-01  0.4873793E+03  0.7818609E-02  0.1017127E+00
        1   -1    0    0  501    0  0.00000000000E+00  0.00000000000E+00  0.16224098879E+03  0.16224098886E+03  0.50400001928E-02 0. -1.
       -1   -1    0    0    0  501  0.00000000000E+00  0.00000000000E+00 -0.36602745435E+03  0.36602745439E+03  0.50400001928E-02 0.  1.
    10030    2    1    2    0    0  0.00000000000E+00  0.00000000000E+00 -0.20378646557E+03  0.52826844325E+03  0.48737934362E+03 0.  0.
        5    1    3    3  502    0 -0.28055299912E+02  0.23670793772E+03 -0.47214812654E+02  0.24304130547E+03  0.46999998093E+01 0.  1.
       -5    1    3    3    0  502  0.28055299912E+02 -0.23670793772E+03 -0.15657165291E+03  0.28522713778E+03  0.46999998093E+01 0. -1.
</event>
<event>
 5   0  0.3178149E-01  0.4680423E+03  0.7818609E-02  0.1022474E+00
        2   -1    0    0  501    0  0.00000000000E+00  0.00000000000E+00  0.25457541269E+04  0.25457541269E+04  0.25500000920E-02 0.  1.
       -2   -1    0    0    0  501  0.00000000000E+00  0.00000000000E+00 -0.21512645602E+02  0.21512645753E+02  0.25500000920E-02 0. -1.
    10030    2    1    2    0    0  0.00000000000E+00  0.00000000000E+00  0.25242414813E+04  0.25672667727E+04  0.46804233363E+03 0.  0.
        3    1    3    3  502    0  0.16325338094E+03  0.15782907472E+03  0.95163149669E+03  0.97834768815E+03  0.10100000352E+00 0. -1.
       -3    1    3    3    0  502 -0.16325338094E+03 -0.15782907472E+03  0.15726099846E+04  0.15889190845E+04  0.10100000352E+00 0.  1.
</event>
<event>
 5   0  0.1984680E-01  0.5037605E+03  0.7818609E-02  0.1012802E+00
       -1   -1    0    0    0  501  0.00000000000E+00  0.00000000000E+00  0.81455259218E+03  0.81455259220E+03  0.50400001928E-02 0. -1.
        1   -1    0    0  501    0  0.00000000000E+00  0.00000000000E+00 -0.77887724418E+02  0.77887724581E+02  0.50400001928E-02 0.  1.
    10030    2    1    2    0    0  0.00000000000E+00  0.00000000000E+00  0.73666486777E+03  0.89244031678E+03  0.50376045063E+03 0.  0.
        5    1    3    3  502    0 -0.89250566363E+02  0.65460917019E+02  0.76907553794E+03  0.77701355735E+03  0.46999998093E+01 0. -1.
       -5    1    3    3    0  502  0.89250566363E+02 -0.65460917019E+02 -0.32410670173E+02  0.11542675943E+03  0.46999998093E+01 0.  1.
</event>
<event>
 5   0  0.3329246E-01  0.4757689E+03  0.7818609E-02  0.1020305E+00
        2   -1    0    0  501    0  0.00000000000E+00  0.00000000000E+00  0.90940362264E+03  0.90940362264E+03  0.25500000920E-02 0.  1.
       -2   -1    0    0    0  501  0.00000000000E+00  0.00000000000E+00 -0.62226512500E+02  0.62226512553E+02  0.25500000920E-02 0. -1.
    10030    2    1    2    0    0  0.00000000000E+00  0.00000000000E+00  0.84717711014E+03  0.97163013520E+03  0.47576891836E+03 0.  0.
        2    1    3    3  502    0  0.20656773401E+03 -0.11796805990E+03  0.42047522496E+03  0.48310051408E+03  0.25500000920E-02 0.  1.
       -2    1    3    3    0  502 -0.20656773401E+03  0.11796805990E+03  0.42670188518E+03  0.48852962112E+03  0.25500000920E-02 0. -1.
</event>
<event>
 5   0  0.3111146E-01  0.5007210E+03  0.7818609E-02  0.1013591E+00
        2   -1    0    0  501    0  0.00000000000E+00  0.00000000000E+00  0.63730709419E+03  0.63730709419E+03  0.25500000920E-02 0.  1.
       -2   -1    0    0    0  501  0.00000000000E+00  0.00000000000E+00 -0.98351922997E+02  0.98351923030E+02  0.25500000920E-02 0. -1.
    10030    2    1    2    0    0  0.00000000000E+00  0.00000000000E+00  0.53895517119E+03  0.73565901722E+03  0.50072099324E+03 0.  0.
        1    1    3    3  502    0 -0.16628156303E+03  0.18450658563E+03  0.31566141928E+03  0.40166449929E+03  0.50400001928E-02 0.  1.
       -1    1    3    3    0  502  0.16628156303E+03 -0.18450658563E+03  0.22329375191E+03  0.33399451793E+03  0.50400001928E-02 0. -1.
</event>
<event>
 5   0  0.1967161E-01  0.5047675E+03  0.7818609E-02  0.1012542E+00
       -1   -1    0    0    0  501  0.00000000000E+00  0.00000000000E+00  0.53030287159E+02  0.53030287399E+02  0.50400001928E-02 0. -1.
        1   -1    0    0  501    0  0.00000000000E+00  0.00000000000E+00 -0.12011544633E+04  0.12011544633E+04  0.50400001928E-02 0.  1.
    10030    2    1    2    0    0  0.00000000000E+00  0.00000000000E+00 -0.11481241761E+04  0.12541847507E+04  0.50476753567E+03 0.  0.
        1    1    3    3  502    0  0.11681213178E+03  0.21573546722E+02 -0.20770149286E+02  0.12058976398E+03  0.50400001928E-02 0. -1.
       -1    1    3    3    0  502 -0.11681213178E+03 -0.21573546722E+02 -0.11273540268E+04  0.11335949867E+04  0.50400001928E-02 0.  1.
</event>
<event>
 5   0  0.3117389E-01  0.5833065E+03  0.7818609E-02  0.9940658E-01
       -2   -1    0    0    0  501  0.00000000000E+00  0.00000000000E+00  0.15451160473E+03  0.15451160475E+03  0.25500000920E-02 0.  1.
        2   -1    0    0  501    0  0.00000000000E+00  0.00000000000E+00 -0.55051922740E+03  0.55051922741E+03  0.25500000920E-02 0. -1.
    10030    2    1    2    0    0  0.00000000000E+00  0.00000000000E+00 -0.39600762267E+03  0.70503083216E+03  0.58330646926E+03 0.  0.
        4    1    3    3  502    0 -0.67192856474E+02 -0.27343818443E+03 -0.10613876246E+03  0.30091588602E+03  0.12699999809E+01 0.  1.
       -4    1    3    3    0  502  0.67192856474E+02  0.27343818443E+03 -0.28986886021E+03  0.40411494613E+03  0.12699999809E+01 0. -1.
</event>
<event>
 5   0  0.3117389E-01  0.5270291E+03  0.7818609E-02  0.1006955E+00
       -2   -1    0    0    0  501  0.00000000000E+00  0.00000000000E+00  0.14906098176E+03  0.14906098179E+03  0.25500000920E-02 0.  1.
        2   -1    0    0  501    0  0.00000000000E+00  0.00000000000E+00 -0.46584906867E+03  0.46584906868E+03  0.25500000920E-02 0. -1.
    10030    2    1    2    0    0  0.00000000000E+00  0.00000000000E+00 -0.31678808691E+03  0.61491005047E+03  0.52702910561E+03 0.  0.
        4    1    3    3  502    0 -0.92350770824E+02 -0.10649817810E+03  0.10136861773E+03  0.17363103516E+03  0.12699999809E+01 0.  1.
       -4    1    3    3    0  502  0.92350770824E+02  0.10649817810E+03 -0.41815670464E+03  0.44127901530E+03  0.12699999809E+01 0. -1.
</event>
<event>
 5   0  0.3187123E-01  0.4943476E+03  0.7818609E-02  0.1015265E+00
        2   -1    0    0  501    0  0.00000000000E+00  0.00000000000E+00  0.97217674648E+03  0.97217674649E+03  0.25500000920E-02 0. -1.
       -2   -1    0    0    0  501  0.00000000000E+00  0.00000000000E+00 -0.62843382522E+02  0.62843382573E+02  0.25500000920E-02 0.  1.
    10030    2    1    2    0    0  0.00000000000E+00  0.00000000000E+00  0.90933336396E+03  0.10350201291E+04  0.49434755056E+03 0.  0.
        5    1    3    3  502    0  0.23008171066E+02  0.29675370987E+02  0.96607543632E+03  0.96681634359E+03  0.46999998093E+01 0. -1.
       -5    1    3    3    0  502 -0.23008171066E+02 -0.29675370987E+02 -0.56742072355E+02  0.68203785470E+02  0.46999998093E+01 0.  1.
</event>
<event>
 5   0  0.1292375E-01  0.4980934E+03  0.7818609E-02  0.1014278E+00
       -3   -1    0    0    0  501  0.00000000000E+00  0.00000000000E+00  0.93793139667E+02  0.93793194047E+02  0.10100000352E+00 0.  1.
        3   -1    0    0  501    0  0.00000000000E+00  0.00000000000E+00 -0.66128747851E+03  0.66128748622E+03  0.10100000352E+00 0. -1.
    10030    2    1    2    0    0  0.00000000000E+00  0.00000000000E+00 -0.56749433884E+03  0.75508068027E+03  0.49809337388E+03 0.  0.
        3    1    3    3  502    0  0.48008686601E+02  0.22337761134E+03 -0.43398498525E+03  0.49045424747E+03  0.10100000352E+00 0. -1.
       -3    1    3    3    0  502 -0.48008686601E+02 -0.22337761134E+03 -0.13350935359E+03  0.26462643280E+03  0.10100000352E+00 0.  1.
</event>
<event>
 5   0  0.2013450E-01  0.5025928E+03  0.7818609E-02  0.1013104E+00
       -1   -1    0    0    0  501  0.00000000000E+00  0.00000000000E+00  0.18835452338E+03  0.18835452345E+03  0.50400001928E-02 0. -1.
        1   -1    0    0  501    0  0.00000000000E+00  0.00000000000E+00 -0.33527142365E+03  0.33527142369E+03  0.50400001928E-02 0.  1.
    10030    2    1    2    0    0  0.00000000000E+00  0.00000000000E+00 -0.14691690027E+03  0.52362594713E+03  0.50259283414E+03 0.  0.
        4    1    3    3  502    0 -0.76558488487E+02  0.17733933171E+03  0.94009973365E+02  0.21482534469E+03  0.12699999809E+01 0. -1.
       -4    1    3    3    0  502  0.76558488487E+02 -0.17733933171E+03 -0.24092687363E+03  0.30880060244E+03  0.12699999809E+01 0.  1.
</event>
<event>
 5   0  0.2000612E-01  0.5880002E+03  0.7818609E-02  0.9930619E-01
       -1   -1    0    0    0  501  0.00000000000E+00  0.00000000000E+00  0.13559460226E+03  0.13559460235E+03  0.50400001928E-02 0.  1.
        1   -1    0    0  501    0  0.00000000000E+00  0.00000000000E+00 -0.63745938858E+03  0.63745938860E+03  0.50400001928E-02 0. -1.
    10030    2    1    2    0    0  0.00000000000E+00  0.00000000000E+00 -0.50186478632E+03  0.77305399095E+03  0.58800017787E+03 0.  0.
        2    1    3    3  502    0 -0.13276205692E+03  0.26013701225E+03 -0.20656144695E+03  0.35772148422E+03  0.25500000920E-02 0.  1.
       -2    1    3    3    0  502  0.13276205692E+03 -0.26013701225E+03 -0.29530333938E+03  0.41533250674E+03  0.25500000920E-02 0. -1.
</event>
<event>
 5   0  0.3178149E-01  0.4927542E+03  0.7818609E-02  0.1015688E+00
       -2   -1    0    0    0  501  0.00000000000E+00  0.00000000000E+00  0.98865820883E+02  0.98865820916E+02  0.25500000920E-02 0.  1.
        2   -1    0    0  501    0  0.00000000000E+00  0.00000000000E+00 -0.61398047245E+03  0.61398047246E+03  0.25500000920E-02 0. -1.
    10030    2    1    2    0    0  0.00000000000E+00  0.00000000000E+00 -0.51511465157E+03  0.71284629337E+03  0.49275423257E+03 0.  0.
        3    1    3    3  502    0  0.13305479593E+03  0.95530704554E+02  0.86903455454E+01  0.16402812728E+03  0.10100000352E+00 0.  1.
       -3    1    3    3    0  502 -0.13305479593E+03 -0.95530704554E+02 -0.52380499711E+03  0.54881816609E+03  0.10100000352E+00 0. -1.
</event>
<event>
 5   0  0.3111146E-01  0.5080210E+03  0.7818609E-02  0.1011706E+00
        2   -1    0    0  501    0  0.00000000000E+00  0.00000000000E+00  0.94171700897E+03  0.94171700897E+03  0.25500000920E-02 0. -1.
       -2   -1    0    0    0  501  0.00000000000E+00  0.00000000000E+00 -0.68514564494E+02  0.68514564541E+02  0.25500000920E-02 0.  1.
    10030    2    1    2    0    0  0.00000000000E+00  0.00000000000E+00  0.87320244448E+03  0.10102315735E+04  0.50802098686E+03 0.  0.
        1    1    3    3  502    0  0.12729098792E+03  0.12531841194E+02  0.19761590439E+00  0.12790653512E+03  0.50400001928E-02 0.  1.
       -1    1    3    3    0  502 -0.12729098792E+03 -0.12531841194E+02  0.87300482857E+03  0.88232503840E+03  0.50400001928E-02 0. -1.
</event>
<event>
 5   0  0.3117389E-01  0.4998979E+03  0.7818609E-02  0.1013806E+00
        2   -1    0    0  501    0  0.00000000000E+00  0.00000000000E+00  0.76224561188E+03  0.76224561188E+03  0.25500000920E-02 0. -1.
       -2   -1    0    0    0  501  0.00000000000E+00  0.00000000000E+00 -0.81961100130E+02  0.81961100170E+02  0.25500000920E-02 0.  1.
    10030    2    1    2    0    0  0.00000000000E+00  0.00000000000E+00  0.68028451175E+03  0.84420671205E+03  0.49989794534E+03 0.  0.
        4    1    3    3  502    0 -0.31455206824E+02 -0.50593176085E+02  0.75007511911E+03  0.75243830094E+03  0.12699999809E+01 0. -1.
       -4    1    3    3    0  502  0.31455206824E+02  0.50593176085E+02 -0.69790607365E+02  0.91768411117E+02  0.12699999809E+01 0.  1.
</event>
<event>
 5   0  0.1984297E-01  0.4825006E+03  0.7818609E-02  0.1018450E+00
       -1   -1    0    0    0  501  0.00000000000E+00  0.00000000000E+00  0.17963049312E+03  0.17963049319E+03  0.50400001928E-02 0.  1.
        1   -1    0    0  501    0  0.00000000000E+00  0.00000000000E+00 -0.32400796238E+03  0.32400796242E+03  0.50400001928E-02 0. -1.
    10030    2    1    2    0    0  0.00000000000E+00  0.00000000000E+00 -0.14437746926E+03  0.50363845561E+03  0.48250061175E+03 0.  0.
        3    1    3    3  502    0  0.23246932733E+03 -0.93291900776E+01 -0.13880205008E+03  0.27091519198E+03  0.10100000352E+00 0. -1.
       -3    1    3    3    0  502 -0.23246932733E+03  0.93291900776E+01 -0.55754191771E+01  0.23272326363E+03  0.10100000352E+00 0.  1.
</event>
<event>
 5   0  0.1967161E-01  0.5018320E+03  0.7818609E-02  0.1013302E+00
       -1   -1    0    0    0  501  0.00000000000E+00  0.00000000000E+00  0.49982138837E+03  0.49982138840E+03  0.50400001928E-02 0. -1.
        1   -1    0    0  501    0  0.00000000000E+00  0.00000000000E+00 -0.12596265856E+03  0.12596265867E+03  0.50400001928E-02 0.  1.
    10030    2    1    2    0    0  0.00000000000E+00  0.00000000000E+00  0.37385872981E+03  0.62578404706E+03  0.50183196760E+03 0.  0.
        1    1    3    3  502    0 -0.75288281302E+02 -0.24033085926E+02 -0.11003692609E+03  0.13547708164E+03  0.50400001928E-02 0.  1.
       -1    1    3    3    0  502  0.75288281302E+02  0.24033085926E+02  0.48389565590E+03  0.49030696543E+03  0.50400001928E-02 0. -1.
</event>
<event>
 5   0  0.2000612E-01  0.5007478E+03  0.7818609E-02  0.1013584E+00
        1   -1    0    0  501    0  0.00000000000E+00  0.00000000000E+00  0.11023580876E+04  0.11023580876E+04  0.50400001928E-02 0.  1.
       -1   -1    0    0    0  501  0.00000000000E+00  0.00000000000E+00 -0.56866359589E+02  0.56866359812E+02  0.50400001928E-02 0. -1.
    10030    2    1    2    0    0  0.00000000000E+00  0.00000000000E+00  0.10454917280E+04  0.11592244474E+04  0.50074780695E+03 0.  0.
        2    1    3    3  502    0 -0.17369577086E+03 -0.51040984796E+02  0.92312269799E+03  0.94070766899E+03  0.25500000920E-02 0.  1.
       -2    1    3    3    0  502  0.17369577086E+03  0.51040984796E+02  0.12236903002E+03  0.21851677843E+03  0.25500000920E-02 0. -1.
</event>
<event>
 5   0  0.3111146E-01  0.4874421E+03  0.7818609E-02  0.1017110E+00
       -2   -1    0    0    0  501  0.00000000000E+00  0.00000000000E+00  0.40052828056E+02  0.40052828137E+02  0.25500000920E-02 0. -1.
        2   -1    0    0  501    0  0.00000000000E+00  0.00000000000E+00 -0.14830397991E+04  0.14830397991E+04  0.25500000920E-02 0.  1.
    10030    2    1    2    0    0  0.00000000000E+00  0.00000000000E+00 -0.14429869710E+04  0.15230926272E+04  0.48744205044E+03 0.  0.
        1    1    3    3  502    0  0.66366428007E+02  0.41166227685E+02 -0.14428834461E+04  0.14449954326E+04  0.50400001928E-02 0.  1.
       -1    1    3    3    0  502 -0.66366428007E+02 -0.41166227685E+02 -0.10352490882E+00  0.78097194643E+02  0.50400001928E-02 0. -1.
</event>
<event>
 5   0  0.3117389E-01  0.4898405E+03  0.7818609E-02  0.1016465E+00
       -2   -1    0    0    0  501  0.00000000000E+00  0.00000000000E+00  0.83373241049E+02  0.83373241088E+02  0.25500000920E-02 0. -1.
        2   -1    0    0  501    0  0.00000000000E+00  0.00000000000E+00 -0.71948653023E+03  0.71948653023E+03  0.25500000920E-02 0.  1.
    10030    2    1    2    0    0  0.00000000000E+00  0.00000000000E+00 -0.63611328918E+03  0.80285977132E+03  0.48984047989E+03 0.  0.
        4    1    3    3  502    0  0.14669691733E+03  0.28540103999E+02 -0.63608532902E+03  0.65340698021E+03  0.12699999809E+01 0.  1.
       -4    1    3    3    0  502 -0.14669691733E+03 -0.28540103999E+02 -0.27960160434E-01  0.14945279111E+03  0.12699999809E+01 0. -1.
</event>
<event>
 5   0  0.1984680E-01  0.3970317E+03  0.7818609E-02  0.1044812E+00
        1   -1    0    0  501    0  0.00000000000E+00  0.00000000000E+00  0.17941812089E+04  0.17941812089E+04  0.50400001928E-02 0.  1.
       -1   -1    0    0    0  501  0.00000000000E+00  0.00000000000E+00 -0.21964640468E+02  0.21964641046E+02  0.50400001928E-02 0. -1.
    10030    2    1    2    0    0  0.00000000000E+00  0.00000000000E+00  0.17722165684E+04  0.18161458499E+04  0.39703171520E+03 0.  0.
        5    1    3    3  502    0 -0.15036624475E+03 -0.55178424104E+02  0.14221382812E+04  0.14311373264E+04  0.46999998093E+01 0.  1.
       -5    1    3    3    0  502  0.15036624475E+03  0.55178424104E+02  0.35007828720E+03  0.38500852356E+03  0.46999998093E+01 0. -1.
</event>
<event>
 5   0  0.3111146E-01  0.4922213E+03  0.7818609E-02  0.1015829E+00
        2   -1    0    0  501    0  0.00000000000E+00  0.00000000000E+00  0.25043977420E+03  0.25043977421E+03  0.25500000920E-02 0. -1.
       -2   -1    0    0    0  501  0.00000000000E+00  0.00000000000E+00 -0.24185639320E+03  0.24185639321E+03  0.25500000920E-02 0.  1.
    10030    2    1    2    0    0  0.00000000000E+00  0.00000000000E+00  0.85833810056E+01  0.49229616742E+03  0.49222133439E+03 0.  0.
        1    1    3    3  502    0 -0.45545126065E+02 -0.17965728349E+03 -0.15765686736E+03  0.24332444569E+03  0.50400001928E-02 0.  1.
       -1    1    3    3    0  502  0.45545126065E+02  0.17965728349E+03  0.16624024836E+03  0.24897172173E+03  0.50400001928E-02 0. -1.
</event>
<event>
 5   0  0.1967161E-01  0.4946018E+03  0.7818609E-02  0.1015198E+00
       -1   -1    0    0    0  501  0.00000000000E+00  0.00000000000E+00  0.12192538992E+03  0.12192539003E+03  0.50400001928E-02 0. -1.
        1   -1    0    0  501    0  0.00000000000E+00  0.00000000000E+00 -0.50159958655E+03  0.50159958657E+03  0.50400001928E-02 0.  1.
    10030    2    1    2    0    0  0.00000000000E+00  0.00000000000E+00 -0.37967419663E+03  0.62352497660E+03  0.49460175986E+03 0.  0.
        1    1    3    3  502    0  0.92473110429E+02 -0.43765403732E+02 -0.47367068918E+03  0.48459324029E+03  0.50400001928E-02 0.  1.
       -1    1    3    3    0  502 -0.92473110429E+02  0.43765403732E+02  0.93996492557E+02  0.13893173631E+03  0.50400001928E-02 0. -1.
</event>
<event>
 5   0  0.1984680E-01  0.4892811E+03  0.7818609E-02  0.1016615E+00
       -1   -1    0    0    0  501  0.00000000000E+00  0.00000000000E+00  0.51300258895E+03  0.51300258897E+03  0.50400001928E-02 0.  1.
        1   -1    0    0  501    0  0.00000000000E+00  0.00000000000E+00 -0.11666412297E+03  0.11666412307E+03  0.50400001928E-02 0. -1.
    10030    2    1    2    0    0  0.00000000000E+00  0.00000000000E+00  0.39633846598E+03  0.62966671205E+03  0.48928109369E+03 0.  0.
        5    1    3    3  502    0 -0.90759956710E+02  0.35862952823E+01  0.49043568961E+03  0.49879804220E+03  0.46999998093E+01 0.  1.
       -5    1    3    3    0  502  0.90759956710E+02 -0.35862952823E+01 -0.94097223628E+02  0.13086866985E+03  0.46999998093E+01 0. -1.
</event>
<event>
 5   0  0.1984680E-01  0.4773522E+03  0.7818609E-02  0.1019865E+00
        1   -1    0    0  501    0  0.00000000000E+00  0.00000000000E+00  0.11294157517E+04  0.11294157517E+04  0.50400001928E-02 0.  1.
       -1   -1    0    0    0  501  0.00000000000E+00  0.00000000000E+00 -0.50438723532E+02  0.50438723784E+02  0.50400001928E-02 0. -1.
    10030    2    1    2    0    0  0.00000000000E+00  0.00000000000E+00  0.10789770282E+04  0.11798544755E+04  0.47735223476E+03 0.  0.
        5    1    3    3  502    0  0.81721771420E+02 -0.15202720150E+03  0.94677710184E+03  0.96239268934E+03  0.46999998093E+01 0.  1.
       -5    1    3    3    0  502 -0.81721771420E+02  0.15202720150E+03  0.13219992632E+03  0.21746178615E+03  0.46999998093E+01 0. -1.
</event>
<event>
 5   0  0.3187123E-01  0.5070600E+03  0.7818609E-02  0.1011952E+00
        2   -1    0    0  501    0  0.00000000000E+00  0.00000000000E+00  0.13303783365E+04  0.13303783365E+04  0.25500000920E-02 0. -1.
       -2   -1    0    0    0  501  0.00000000000E+00  0.00000000000E+00 -0.48315169560E+02  0.48315169627E+02  0.25500000920E-02 0.  1.
    10030    2    1    2    0    0  0.00000000000E+00  0.00000000000E+00  0.12820631670E+04  0.13786935062E+04  0.50705997656E+03 0.  0.
        5    1    3    3  502    0 -0.36804706150E+02 -0.15429736257E+03  0.11786306017E+04  0.11892663486E+04  0.46999998093E+01 0. -1.
       -5    1    3    3    0  502  0.36804706150E+02  0.15429736257E+03  0.10343256527E+03  0.18942715762E+03  0.46999998093E+01 0.  1.
</event>
<event>
 5   0  0.3187123E-01  0.4964387E+03  0.7818609E-02  0.1014713E+00
        2   -1    0    0  501    0  0.00000000000E+00  0.00000000000E+00  0.18432619915E+04  0.18432619916E+04  0.25500000920E-02 0.  1.
       -2   -1    0    0    0  501  0.00000000000E+00  0.00000000000E+00 -0.33425986611E+02  0.33425986708E+02  0.25500000920E-02 0. -1.
    10030    2    1    2    0    0  0.00000000000E+00  0.00000000000E+00  0.18098360049E+04  0.18766879783E+04  0.49643872026E+03 0.  0.
        5    1    3    3  502    0 -0.75533495194E+02 -0.13522364486E+03  0.16379458090E+04  0.16452596470E+04  0.46999998093E+01 0.  1.
       -5    1    3    3    0  502  0.75533495194E+02  0.13522364486E+03  0.17189019595E+03  0.23142833121E+03  0.46999998093E+01 0. -1.
</event>
<event>
 5   0  0.3117389E-01  0.5068763E+03  0.7818609E-02  0.1012000E+00
       -2   -1    0    0    0  501  0.00000000000E+00  0.00000000000E+00  0.76828258048E+02  0.76828258091E+02  0.25500000920E-02 0. -1.
        2   -1    0    0  501    0  0.00000000000E+00  0.00000000000E+00 -0.83603231603E+03  0.83603231603E+03  0.25500000920E-02 0.  1.
    10030    2    1    2    0    0  0.00000000000E+00  0.00000000000E+00 -0.75920405798E+03  0.91286057412E+03  0.50687634205E+03 0.  0.
        4    1    3    3  502    0 -0.53165754028E+02 -0.24753905328E+03 -0.39990679467E+03  0.47331726952E+03  0.12699999809E+01 0. -1.
       -4    1    3    3    0  502  0.53165754028E+02  0.24753905328E+03 -0.35929726331E+03  0.43954330460E+03  0.12699999809E+01 0.  1.
</event>
<event>
 5   0  0.1967161E-01  0.5292660E+03  0.7818609E-02  0.1006410E+00
       -1   -1    0    0    0  501  0.00000000000E+00  0.00000000000E+00  0.83079266257E+02  0.83079266409E+02  0.50400001928E-02 0.  1.
        1   -1    0    0  501    0  0.00000000000E+00  0.00000000000E+00 -0.84293737355E+03  0.84293737356E+03  0.50400001928E-02 0. -1.
    10030    2    1    2    0    0  0.00000000000E+00  0.00000000000E+00 -0.75985810729E+03  0.92601663997E+03  0.52926597689E+03 0.  0.
        1    1    3    3  502    0 -0.41563413244E+02  0.25885495172E+03 -0.44294505296E+03  0.51471712942E+03  0.50400001928E-02 0. -1.
       -1    1    3    3    0  502  0.41563413244E+02 -0.25885495172E+03 -0.31691305433E+03  0.41129951055E+03  0.50400001928E-02 0.  1.
</event>
<event>
 5   0  0.3187123E-01  0.4990483E+03  0.7818609E-02  0.1014028E+00
       -2   -1    0    0    0  501  0.00000000000E+00  0.00000000000E+00  0.27286098793E+03  0.27286098794E+03  0.25500000920E-02 0. -1.
        2   -1    0    0  501    0  0.00000000000E+00  0.00000000000E+00 -0.22818324066E+03  0.22818324068E+03  0.25500000920E-02 0.  1.
    10030    2    1    2    0    0  0.00000000000E+00  0.00000000000E+00  0.44677747265E+02  0.50104422862E+03  0.49904831222E+03 0.  0.
        5    1    3    3  502    0 -0.20857226469E+02  0.24728752791E+03  0.48015933747E+02  0.25281171897E+03  0.46999998093E+01 0.  1.
       -5    1    3    3    0  502  0.20857226469E+02 -0.24728752791E+03 -0.33381864819E+01  0.24823250965E+03  0.46999998093E+01 0. -1.
</event>
<event>
 5   0  0.1984297E-01  0.4931488E+03  0.7818609E-02  0.1015583E+00
       -1   -1    0    0    0  501  0.00000000000E+00  0.00000000000E+00  0.10939510864E+03  0.10939510876E+03  0.50400001928E-02 0.  1.
        1   -1    0    0  501    0  0.00000000000E+00  0.00000000000E+00 -0.55577376218E+03  0.55577376220E+03  0.50400001928E-02 0. -1.
    10030    2    1    2    0    0  0.00000000000E+00  0.00000000000E+00 -0.44637865354E+03  0.66516887096E+03  0.49314878542E+03 0.  0.
        3    1    3    3  502    0  0.68464261303E+02  0.23655249308E+03 -0.23995401703E+03  0.34383481143E+03  0.10100000352E+00 0. -1.
       -3    1    3    3    0  502 -0.68464261303E+02 -0.23655249308E+03 -0.20642463651E+03  0.32133405953E+03  0.10100000352E+00 0.  1.
</event>
<event>
 5   0  0.3178149E-01  0.4913495E+03  0.7818609E-02  0.1016062E+00
       -2   -1    0    0    0  501  0.00000000000E+00  0.00000000000E+00  0.11792022532E+03  0.11792022535E+03  0.25500000920E-02 0. -1.
        2   -1    0    0  501    0  0.00000000000E+00  0.00000000000E+00 -0.51183827744E+03  0.51183827744E+03  0.25500000920E-02 0.  1.
    10030    2    1    2    0    0  0.00000000000E+00  0.00000000000E+00 -0.39391805212E+03  0.62975850279E+03  0.49134950906E+03 0.  0.
        3    1    3    3  502    0  0.17249908828E+03  0.13414018363E+03 -0.34086593580E+03  0.40489396231E+03  0.10100000352E+00 0.  1.
       -3    1    3    3    0  502 -0.17249908828E+03 -0.13414018363E+03 -0.53052116314E+02  0.22486454048E+03  0.10100000352E+00 0. -1.
</event>
<event>
 5   0  0.3187123E-01  0.4874903E+03  0.7818609E-02  0.1017097E+00
       -2   -1    0    0    0  501  0.00000000000E+00  0.00000000000E+00  0.70107364279E+02  0.70107364326E+02  0.25500000920E-02 0. -1.
        2   -1    0    0  501    0  0.00000000000E+00  0.00000000000E+00 -0.84743862090E+03  0.84743862090E+03  0.25500000920E-02 0.  1.
    10030    2    1    2    0    0  0.00000000000E+00  0.00000000000E+00 -0.77733125662E+03  0.91754598523E+03  0.48749025887E+03 0.  0.
        5    1    3    3  502    0  0.14648193747E+03  0.19052782409E+03 -0.31263408365E+03  0.39436020339E+03  0.46999998093E+01 0.  1.
       -5    1    3    3    0  502 -0.14648193747E+03 -0.19052782409E+03 -0.46469717297E+03  0.52318578184E+03  0.46999998093E+01 0. -1.
</event>
<event>
 5   0  0.2013450E-01  0.4622931E+03  0.7818609E-02  0.1024118E+00
        1   -1    0    0  501    0  0.00000000000E+00  0.00000000000E+00  0.17435487062E+03  0.17435487069E+03  0.50400001928E-02 0. -1.
       -1   -1    0    0    0  501  0.00000000000E+00  0.00000000000E+00 -0.30643665589E+03  0.30643665593E+03  0.50400001928E-02 0.  1.
    10030    2    1    2    0    0  0.00000000000E+00  0.00000000000E+00 -0.13208178527E+03  0.48079152663E+03  0.46229308244E+03 0.  0.
        4    1    3    3  502    0 -0.18797774489E+03  0.47356923326E+02  0.64888634920E+02  0.20442714742E+03  0.12699999809E+01 0. -1.
       -4    1    3    3    0  502  0.18797774489E+03 -0.47356923326E+02 -0.19697042019E+03  0.27636437920E+03  0.12699999809E+01 0.  1.
</event>
<event>
 5   0  0.3178149E-01  0.5162075E+03  0.7818609E-02  0.1009633E+00
        2   -1    0    0  501    0  0.00000000000E+00  0.00000000000E+00  0.33529628095E+03  0.33529628096E+03  0.25500000920E-02 0. -1.
       -2   -1    0    0    0  501  0.00000000000E+00  0.00000000000E+00 -0.19868263669E+03  0.19868263671E+03  0.25500000920E-02 0.  1.
    10030    2    1    2    0    0  0.00000000000E+00  0.00000000000E+00  0.13661364426E+03  0.53397891766E+03  0.51620751323E+03 0.  0.
        3    1    3    3  502    0 -0.10943587409E+03  0.22853070761E+03  0.11914176315E+03  0.27999511564E+03  0.10100000352E+00 0. -1.
       -3    1    3    3    0  502  0.10943587409E+03 -0.22853070761E+03  0.17471881110E+02  0.25398380202E+03  0.10100000352E+00 0.  1.
</event>
<event>
 5   0  0.3329246E-01  0.4911781E+03  0.7818609E-02  0.1016108E+00
       -2   -1    0    0    0  501  0.00000000000E+00  0.00000000000E+00  0.83893642403E+02  0.83893642442E+02  0.25500000920E-02 0.  1.
        2   -1    0    0  501    0  0.00000000000E+00  0.00000000000E+00 -0.71893391366E+03  0.71893391366E+03  0.25500000920E-02 0. -1.
    10030    2    1    2    0    0  0.00000000000E+00  0.00000000000E+00 -0.63504027126E+03  0.80282755610E+03  0.49117811304E+03 0.  0.
        2    1    3    3  502    0 -0.15333922260E+03  0.89662749058E+02 -0.59471822355E+03  0.62067873428E+03  0.25500000920E-02 0. -1.
       -2    1    3    3    0  502  0.15333922260E+03 -0.89662749058E+02 -0.40322047707E+02  0.18214882183E+03  0.25500000920E-02 0.  1.
</event>
<event>
 5   0  0.3117389E-01  0.5042627E+03  0.7818609E-02  0.1012672E+00
       -2   -1    0    0    0  501  0.00000000000E+00  0.00000000000E+00  0.16742968743E+03  0.16742968745E+03  0.25500000920E-02 0. -1.
        2   -1    0    0  501    0  0.00000000000E+00  0.00000000000E+00 -0.37968308927E+03  0.37968308928E+03  0.25500000920E-02 0.  1.
    10030    2    1    2    0    0  0.00000000000E+00  0.00000000000E+00 -0.21225340184E+03  0.54711277673E+03  0.50426271315E+03 0.  0.
        4    1    3    3  502    0 -0.52272279636E+02 -0.19856058016E+03 -0.26488171491E+03  0.33514568624E+03  0.12699999809E+01 0.  1.
       -4    1    3    3    0  502  0.52272279636E+02  0.19856058016E+03  0.52628313077E+02  0.21196709049E+03  0.12699999809E+01 0. -1.
</event>
<event>
 5   0  0.3187123E-01  0.4975733E+03  0.7818609E-02  0.1014414E+00
        2   -1    0    0  501    0  0.00000000000E+00  0.00000000000E+00  0.77537037876E+03  0.77537037876E+03  0.25500000920E-02 0. -1.
       -2   -1    0    0    0  501  0.00000000000E+00  0.00000000000E+00 -0.79826097367E+02  0.79826097408E+02  0.25500000920E-02 0.  1.
    10030    2    1    2    0    0  0.00000000000E+00  0.00000000000E+00  0.69554428139E+03  0.85519647617E+03  0.49757327649E+03 0.  0.
        5    1    3    3  502    0 -0.23923029782E+02  0.38865329394E+02 -0.72492336035E+02  0.85790756873E+02  0.46999998093E+01 0.  1.
       -5    1    3    3    0  502  0.23923029782E+02 -0.38865329394E+02  0.76803661742E+03  0.76940571929E+03  0.46999998093E+01 0. -1.
</event>
<event>
 5   0  0.3111146E-01  0.5181155E+03  0.7818609E-02  0.1009156E+00
        2   -1    0    0  501    0  0.00000000000E+00  0.00000000000E+00  0.10265937023E+04  0.10265937023E+04  0.25500000920E-02 0.  1.
       -2   -1    0    0    0  501  0.00000000000E+00  0.00000000000E+00 -0.65372413441E+02  0.65372413491E+02  0.25500000920E-02 0. -1.
    10030    2    1    2    0    0  0.00000000000E+00  0.00000000000E+00  0.96122128887E+03  0.10919661158E+04  0.51811546193E+03 0.  0.
        1    1    3    3  502    0 -0.18555666538E+02 -0.25530900731E+03  0.39673279107E+03  0.47214818597E+03  0.50400001928E-02 0. -1.
       -1    1    3    3    0  502  0.18555666538E+02  0.25530900731E+03  0.56448849780E+03  0.61981792984E+03  0.50400001928E-02 0.  1.
</event>
<event>
 5   0  0.3111146E-01  0.5015655E+03  0.7818609E-02  0.1013371E+00
       -2   -1    0    0    0  501  0.00000000000E+00  0.00000000000E+00  0.24368080253E+02  0.24368080386E+02  0.25500000920E-02 0. -1.
        2   -1    0    0  501    0  0.00000000000E+00  0.00000000000E+00 -0.25809170695E+04  0.25809170695E+04  0.25500000920E-02 0.  1.
    10030    2    1    2    0    0  0.00000000000E+00  0.00000000000E+00 -0.25565489893E+04  0.26052851499E+04  0.50156552693E+03 0.  0.
        1    1    3    3  502    0  0.14100070596E+03 -0.19240991304E+03 -0.16802621749E+04  0.16971104119E+04  0.50400001928E-02 0.  1.
       -1    1    3    3    0  502 -0.14100070596E+03  0.19240991304E+03 -0.87628681438E+03  0.90817473804E+03  0.50400001928E-02 0. -1.
</event>
<event>
 5   0  0.1967161E-01  0.5027602E+03  0.7818609E-02  0.1013061E+00
        1   -1    0    0  501    0  0.00000000000E+00  0.00000000000E+00  0.82077372683E+03  0.82077372684E+03  0.50400001928E-02 0.  1.
       -1   -1    0    0    0  501  0.00000000000E+00  0.00000000000E+00 -0.76990727473E+02  0.76990727638E+02  0.50400001928E-02 0. -1.
    10030    2    1    2    0    0  0.00000000000E+00  0.00000000000E+00  0.74378299935E+03  0.89776445448E+03  0.50276024664E+03 0.  0.
        1    1    3    3  502    0  0.32456831850E+02  0.11709578974E+02  0.81652506594E+03  0.81725378158E+03  0.50400001928E-02 0.  1.
       -1    1    3    3    0  502 -0.32456831850E+02 -0.11709578974E+02 -0.72742066588E+02  0.80510672897E+02  0.50400001928E-02 0. -1.
</event>
<event>
 5   0  0.2000612E-01  0.4972694E+03  0.7818609E-02  0.1014494E+00
        1   -1    0    0  501    0  0.00000000000E+00  0.00000000000E+00  0.33113937091E+03  0.33113937095E+03  0.50400001928E-02 0. -1.
       -1   -1    0    0    0  501  0.00000000000E+00  0.00000000000E+00 -0.18668642551E+03  0.18668642558E+03  0.50400001928E-02 0.  1.
    10030    2    1    2    0    0  0.00000000000E+00  0.00000000000E+00  0.14445294540E+03  0.51782579652E+03  0.49726944619E+03 0.  0.
        2    1    3    3  502    0 -0.98932529039E+01  0.23037533762E+03 -0.24615500318E+02  0.23189781262E+03  0.25500000920E-02 0.  1.
       -2    1    3    3    0  502  0.98932529039E+01 -0.23037533762E+03  0.16906844572E+03  0.28592798390E+03  0.25500000920E-02 0. -1.
</event>
<event>
 5   0  0.3111146E-01  0.4899835E+03  0.7818609E-02  0.1016427E+00
       -2   -1    0    0    0  501  0.00000000000E+00  0.00000000000E+00  0.71255657433E+03  0.71255657433E+03  0.25500000920E-02 0. -1.
        2   -1    0    0  501    0  0.00000000000E+00  0.00000000000E+00 -0.84233241421E+02  0.84233241460E+02  0.25500000920E-02 0.  1.
    10030    2    1    2    0    0  0.00000000000E+00  0.00000000000E+00  0.62832333290E+03  0.79678981579E+03  0.48998346898E+03 0.  0.
        1    1    3    3  502    0 -0.21299805153E+03 -0.35620699115E+02  0.50229009626E+03  0.54674705759E+03  0.50400001928E-02 0. -1.
       -1    1    3    3    0  502  0.21299805153E+03  0.35620699115E+02  0.12603323665E+03  0.25004275820E+03  0.50400001928E-02 0.  1.
</event>
<event>
 5   0  0.1984297E-01  0.5041190E+03  0.7818609E-02  0.1012709E+00
       -1   -1    0    0    0  501  0.00000000000E+00  0.00000000000E+00  0.83842637212E+02  0.83842637363E+02  0.50400001928E-02 0.  1.
        1   -1    0    0  501    0  0.00000000000E+00  0.00000000000E+00 -0.75777652021E+03  0.75777652023E+03  0.50400001928E-02 0. -1.
    10030    2    1    2    0    0  0.00000000000E+00  0.00000000000E+00 -0.67393388300E+03  0.84161915759E+03  0.50411896192E+03 0.  0.
        3    1    3    3  502    0  0.11365135331E+03 -0.77031978433E+02  0.15936393532E+02  0.13821915443E+03  0.10100000352E+00 0.  1.
       -3    1    3    3    0  502 -0.11365135331E+03  0.77031978433E+02 -0.68987027653E+03  0.70340000316E+03  0.10100000352E+00 0. -1.
</event>
<event>
 5   0  0.3187123E-01  0.5017297E+03  0.7818609E-02  0.1013328E+00
        2   -1    0    0  501    0  0.00000000000E+00  0.00000000000E+00  0.68774590344E+03  0.68774590345E+03  0.25500000920E-02 0. -1.
       -2   -1    0    0    0  501  0.00000000000E+00  0.00000000000E+00 -0.91506438878E+02  0.91506438914E+02  0.25500000920E-02 0.  1.
    10030    2    1    2    0    0  0.00000000000E+00  0.00000000000E+00  0.59623946456E+03  0.77925234236E+03  0.50172972203E+03 0.  0.
        5    1    3    3  502    0  0.14752352572E+03 -0.18615985975E+03  0.42326403172E+03  0.48537945421E+03  0.46999998093E+01 0.  1.
       -5    1    3    3    0  502 -0.14752352572E+03  0.18615985975E+03  0.17297543285E+03  0.29387288815E+03  0.46999998093E+01 0. -1.
</event>
<event>
 5   0  0.1984297E-01  0.5135714E+03  0.7818609E-02  0.1010296E+00
       -1   -1    0    0    0  501  0.00000000000E+00  0.00000000000E+00  0.29371919818E+03  0.29371919822E+03  0.50400001928E-02 0. -1.
        1   -1    0    0  501    0  0.00000000000E+00  0.00000000000E+00 -0.22449636926E+03  0.22449636932E+03  0.50400001928E-02 0.  1.
    10030    2    1    2    0    0  0.00000000000E+00  0.00000000000E+00  0.69222828915E+02  0.51821556754E+03  0.51357139173E+03 0.  0.
        3    1    3    3  502    0  0.16760230179E+03  0.61015457212E+02 -0.15178988084E+03  0.23420844500E+03  0.10100000352E+00 0.  1.
       -3    1    3    3    0  502 -0.16760230179E+03 -0.61015457212E+02  0.22101270975E+03  0.28400712254E+03  0.10100000352E+00 0. -1.
</event>
<event>
 5   0  0.3329246E-01  0.5039330E+03  0.7818609E-02  0.1012757E+00
       -2   -1    0    0    0  501  0.00000000000E+00  0.00000000000E+00  0.37580496027E+02  0.37580496114E+02  0.25500000920E-02 0.  1.
        2   -1    0    0  501    0  0.00000000000E+00  0.00000000000E+00 -0.16893632078E+04  0.16893632078E+04  0.25500000920E-02 0. -1.
    10030    2    1    2    0    0  0.00000000000E+00  0.00000000000E+00 -0.16517827118E+04  0.17269437039E+04  0.50393296140E+03 0.  0.
        2    1    3    3  502    0 -0.11050134678E+03  0.11824882312E+03 -0.14876865228E+04  0.14964640062E+04  0.25500000920E-02 0. -1.
       -2    1    3    3    0  502  0.11050134678E+03 -0.11824882312E+03 -0.16409618901E+03  0.23047969773E+03  0.25500000920E-02 0.  1.
</event>
<event>
 5   0  0.2013450E-01  0.4997453E+03  0.7818609E-02  0.1013845E+00
       -1   -1    0    0    0  501  0.00000000000E+00  0.00000000000E+00  0.54972726326E+02  0.54972726557E+02  0.50400001928E-02 0. -1.
        1   -1    0    0  501    0  0.00000000000E+00  0.00000000000E+00 -0.11357692250E+04  0.11357692250E+04  0.50400001928E-02 0.  1.
    10030    2    1    2    0    0  0.00000000000E+00  0.00000000000E+00 -0.10807964986E+04  0.11907419515E+04  0.49974525878E+03 0.  0.
        4    1    3    3  502    0 -0.15487839411E+03  0.50948878684E+02 -0.89245798504E+02  0.18587504042E+03  0.12699999809E+01 0. -1.
       -4    1    3    3    0  502  0.15487839411E+03 -0.50948878684E+02 -0.99155070014E+03  0.10048669111E+04  0.12699999809E+01 0.  1.
</event>
<event>
 5   0  0.1984680E-01  0.4984847E+03  0.7818609E-02  0.1014175E+00
       -1   -1    0    0    0  501  0.00000000000E+00  0.00000000000E+00  0.13391626619E+03  0.13391626628E+03  0.50400001928E-02 0.  1.
        1   -1    0    0  501    0  0.00000000000E+00  0.00000000000E+00 -0.46388505507E+03  0.46388505510E+03  0.50400001928E-02 0. -1.
    10030    2    1    2    0    0  0.00000000000E+00  0.00000000000E+00 -0.32996878888E+03  0.59780132138E+03  0.49848472214E+03 0.  0.
        5    1    3    3  502    0 -0.44289193747E+02  0.11948322493E+03 -0.42180566869E+03  0.44065846850E+03  0.46999998093E+01 0. -1.
       -5    1    3    3    0  502  0.44289193747E+02 -0.11948322493E+03  0.91836879802E+02  0.15714285289E+03  0.46999998093E+01 0.  1.
</event>
<event>
 5   0  0.1967161E-01  0.5024556E+03  0.7818609E-02  0.1013140E+00
        1   -1    0    0  501    0  0.00000000000E+00  0.00000000000E+00  0.58434592848E+03  0.58434592850E+03  0.50400001928E-02 0.  1.
       -1   -1    0    0    0  501  0.00000000000E+00  0.00000000000E+00 -0.10801036167E+03  0.10801036179E+03  0.50400001928E-02 0. -1.
    10030    2    1    2    0    0  0.00000000000E+00  0.00000000000E+00  0.47633556680E+03  0.69235629029E+03  0.50245563038E+03 0.  0.
        1    1    3    3  502    0  0.22971403698E+03 -0.80422740349E+02  0.32398909076E+03  0.40522251531E+03  0.50400001928E-02 0. -1.
       -1    1    3    3    0  502 -0.22971403698E+03  0.80422740349E+02  0.15234647604E+03  0.28713377499E+03  0.50400001928E-02 0.  1.
</event>
<event>
 5   0  0.2000612E-01  0.4820332E+03  0.7818609E-02  0.1018578E+00
       -1   -1    0    0    0  501  0.00000000000E+00  0.00000000000E+00  0.56930209550E+02  0.56930209774E+02  0.50400001928E-02 0. -1.
        1   -1    0    0  501    0  0.00000000000E+00  0.00000000000E+00 -0.10203547100E+04  0.10203547100E+04  0.50400001928E-02 0.  1.
    10030    2    1    2    0    0  0.00000000000E+00  0.00000000000E+00 -0.96342450046E+03  0.10772849198E+04  0.48203322534E+03 0.  0.
        2    1    3    3  502    0  0.19688536276E+03  0.24222753517E+02 -0.17578364435E+03  0.26504806636E+03  0.25500000920E-02 0. -1.
       -2    1    3    3    0  502 -0.19688536276E+03 -0.24222753517E+02 -0.78764085610E+03  0.81223685343E+03  0.25500000920E-02 0.  1.
</event>
<event>
 5   0  0.3178149E-01  0.5036443E+03  0.7818609E-02  0.1012832E+00
       -2   -1    0    0    0  501  0.00000000000E+00  0.00000000000E+00  0.83093258353E+02  0.83093258393E+02  0.25500000920E-02 0.  1.
        2   -1    0    0  501    0  0.00000000000E+00  0.00000000000E+00 -0.76317140684E+03  0.76317140684E+03  0.25500000920E-02 0. -1.
    10030    2    1    2    0    0  0.00000000000E+00  0.00000000000E+00 -0.68007814848E+03  0.84626466523E+03  0.50364431455E+03 0.  0.
        3    1    3    3  502    0  0.37127664728E+02 -0.20113953810E+03 -0.93210160517E+02  0.22477482399E+03  0.10100000352E+00 0.  1.
       -3    1    3    3    0  502 -0.37127664728E+02  0.20113953810E+03 -0.58686798797E+03  0.62148984125E+03  0.10100000352E+00 0. -1.
</event>
<event>
 5   0  0.3111146E-01  0.5028377E+03  0.7818609E-02  0.1013041E+00
       -2   -1    0    0    0  501  0.00000000000E+00  0.00000000000E+00  0.35374697228E+02  0.35374697320E+02  0.25500000920E-02 0.  1.
        2   -1    0    0  501    0  0.00000000000E+00  0.00000000000E+00 -0.17869109101E+04  0.17869109101E+04  0.25500000920E-02 0. -1.
    10030    2    1    2    0    0  0.00000000000E+00  0.00000000000E+00 -0.17515362129E+04  0.18222856075E+04  0.50283767760E+03 0.  0.
        1    1    3    3  502    0 -0.27414704056E+01  0.14921940214E+03 -0.16090132953E+04  0.16159200878E+04  0.50400001928E-02 0. -1.
       -1    1    3    3    0  502  0.27414704056E+01 -0.14921940214E+03 -0.14252291756E+03  0.20636551963E+03  0.50400001928E-02 0.  1.
</event>
<event>
 5   0  0.1292375E-01  0.3200626E+03  0.7818609E-02  0.1075620E+00
        4   -1    0    0  501    0  0.00000000000E+00  0.00000000000E+00  0.13320992636E+03  0.13321598020E+03  0.12699999809E+01 0. -1.
       -4   -1    0    0    0  501  0.00000000000E+00  0.00000000000E+00 -0.19224054426E+03  0.19224473922E+03  0.12699999809E+01 0.  1.
    10030    2    1    2    0    0  0.00000000000E+00  0.00000000000E+00 -0.59030617894E+02  0.32546071942E+03  0.32006259706E+03 0.  0.
        3    1    3    3  502    0 -0.12774771821E+03 -0.67544226169E+02  0.40407097258E+02  0.15004814463E+03  0.10100000352E+00 0. -1.
       -3    1    3    3    0  502  0.12774771821E+03  0.67544226169E+02 -0.99437715152E+02  0.17541257479E+03  0.10100000352E+00 0.  1.
</event>
<event>
 5   0  0.2000612E-01  0.4739292E+03  0.7818609E-02  0.1020817E+00
        1   -1    0    0  501    0  0.00000000000E+00  0.00000000000E+00  0.12634599674E+04  0.12634599674E+04  0.50400001928E-02 0. -1.
       -1   -1    0    0    0  501  0.00000000000E+00  0.00000000000E+00 -0.44443207719E+02  0.44443208005E+02  0.50400001928E-02 0.  1.
    10030    2    1    2    0    0  0.00000000000E+00  0.00000000000E+00  0.12190167597E+04  0.13079031754E+04  0.47392916758E+03 0.  0.
        2    1    3    3  502    0  0.50322742959E+02 -0.22333918182E+03  0.77826691729E+03  0.81124112516E+03  0.25500000920E-02 0. -1.
       -2    1    3    3    0  502 -0.50322742959E+02  0.22333918182E+03  0.44074984241E+03  0.49666205028E+03  0.25500000920E-02 0.  1.
</event>
<event>
 5   0  0.1984297E-01  0.5069511E+03  0.7818609E-02  0.1011980E+00
       -1   -1    0    0    0  501  0.00000000000E+00  0.00000000000E+00  0.33437703318E+03  0.33437703321E+03  0.50400001928E-02 0.  1.
        1   -1    0    0  501    0  0.00000000000E+00  0.00000000000E+00 -0.19214790499E+03  0.19214790506E+03  0.50400001928E-02 0. -1.
    10030    2    1    2    0    0  0.00000000000E+00  0.00000000000E+00  0.14222912818E+03  0.52652493827E+03  0.50695106836E+03 0.  0.
        3    1    3    3  502    0 -0.74713783844E+02  0.69734758335E+02  0.31202921564E+03  0.32834026197E+03  0.10100000352E+00 0.  1.
       -3    1    3    3    0  502  0.74713783844E+02 -0.69734758335E+02 -0.16980008746E+03  0.19818467630E+03  0.10100000352E+00 0. -1.
</event>
<event>
 5   0  0.2013450E-01  0.5016885E+03  0.7818609E-02  0.1013339E+00
       -1   -1    0    0    0  501  0.00000000000E+00  0.00000000000E+00  0.28181721342E+02  0.28181721793E+02  0.50400001928E-02 0. -1.
        1   -1    0    0  501    0  0.00000000000E+00  0.00000000000E+00 -0.22327532508E+04  0.22327532508E+04  0.50400001928E-02 0.  1.
    10030    2    1    2    0    0  0.00000000000E+00  0.00000000000E+00 -0.22045715295E+04  0.22609349726E+04  0.50168847089E+03 0.  0.
        4    1    3    3  502    0 -0.22367197727E+01  0.21264697020E+03 -0.50275748359E+03  0.54588500351E+03  0.12699999809E+01 0. -1.
       -4    1    3    3    0  502  0.22367197727E+01 -0.21264697020E+03 -0.17018140459E+04  0.17150499691E+04  0.12699999809E+01 0.  1.
</event>
<event>
 5   0  0.3329246E-01  0.5032836E+03  0.7818609E-02  0.1012925E+00
       -2   -1    0    0    0  501  0.00000000000E+00  0.00000000000E+00  0.11290236938E+03  0.11290236941E+03  0.25500000920E-02 0.  1.
        2   -1    0    0  501    0  0.00000000000E+00  0.00000000000E+00 -0.56087040979E+03  0.56087040980E+03  0.25500000920E-02 0. -1.
    10030    2    1    2    0    0  0.00000000000E+00  0.00000000000E+00 -0.44796804041E+03  0.67377277921E+03  0.50328361067E+03 0.  0.
        2    1    3    3  502    0  0.12669843455E+03  0.21708761346E+03 -0.24005313311E+03  0.34757018278E+03  0.25500000920E-02 0. -1.
       -2    1    3    3    0  502 -0.12669843455E+03 -0.21708761346E+03 -0.20791490730E+03  0.32620259643E+03  0.25500000920E-02 0.  1.
</event>
<event>
 5   0  0.3111146E-01  0.5016408E+03  0.7818609E-02  0.1013352E+00
        2   -1    0    0  501    0  0.00000000000E+00  0.00000000000E+00  0.12618931829E+04  0.12618931829E+04  0.25500000920E-02 0.  1.
       -2   -1    0    0    0  501  0.00000000000E+00  0.00000000000E+00 -0.49854354627E+02  0.49854354692E+02  0.25500000920E-02 0. -1.
    10030    2    1    2    0    0  0.00000000000E+00  0.00000000000E+00  0.12120388283E+04  0.13117475376E+04  0.50164078896E+03 0.  0.
        1    1    3    3  502    0  0.24582738276E+03 -0.33402348384E+01  0.47609710118E+03  0.53582712610E+03  0.50400001928E-02 0. -1.
       -1    1    3    3    0  502 -0.24582738276E+03  0.33402348384E+01  0.73594172713E+03  0.77592041153E+03  0.50400001928E-02 0.  1.
</event>
<event>
 5   0  0.1292375E-01  0.4874974E+03  0.7818609E-02  0.1017095E+00
        3   -1    0    0  501    0  0.00000000000E+00  0.00000000000E+00  0.48036279844E+03  0.48036280906E+03  0.10100000352E+00 0.  1.
       -3   -1    0    0    0  501  0.00000000000E+00  0.00000000000E+00 -0.12368446455E+03  0.12368450578E+03  0.10100000352E+00 0. -1.
    10030    2    1    2    0    0  0.00000000000E+00  0.00000000000E+00  0.35667833390E+03  0.60404731485E+03  0.48749740994E+03 0.  0.
        4    1    3    3  502    0 -0.22479345319E+03 -0.75879231628E+02  0.10910514872E+03  0.26114229984E+03  0.12699999809E+01 0. -1.
       -4    1    3    3    0  502  0.22479345319E+03  0.75879231628E+02  0.24757318518E+03  0.34290501500E+03  0.12699999809E+01 0.  1.
</event>
<event>
 5   0  0.1967161E-01  0.5096145E+03  0.7818609E-02  0.1011299E+00
        1   -1    0    0  501    0  0.00000000000E+00  0.00000000000E+00  0.81539779316E+03  0.81539779317E+03  0.50400001928E-02 0.  1.
       -1   -1    0    0    0  501  0.00000000000E+00  0.00000000000E+00 -0.79625844262E+02  0.79625844422E+02  0.50400001928E-02 0. -1.
    10030    2    1    2    0    0  0.00000000000E+00  0.00000000000E+00  0.73577194890E+03  0.89502363759E+03  0.50961451223E+03 0.  0.
        1    1    3    3  502    0 -0.90341877797E+02 -0.10950386701E+03  0.73951155251E+03  0.75301400259E+03  0.50400001928E-02 0.  1.
       -1    1    3    3    0  502  0.90341877797E+02  0.10950386701E+03 -0.37396036131E+01  0.14200963501E+03  0.50400001928E-02 0. -1.
</event>
<event>
 5   0  0.3329246E-01  0.5001032E+03  0.7818609E-02  0.1013752E+00
        2   -1    0    0  501    0  0.00000000000E+00  0.00000000000E+00  0.45571187360E+03  0.45571187360E+03  0.25500000920E-02 0.  1.
       -2   -1    0    0    0  501  0.00000000000E+00  0.00000000000E+00 -0.13720465916E+03  0.13720465919E+03  0.25500000920E-02 0. -1.
    10030    2    1    2    0    0  0.00000000000E+00  0.00000000000E+00  0.31850721443E+03  0.59291653279E+03  0.50010315857E+03 0.  0.
        2    1    3    3  502    0  0.59507723948E+02 -0.24284965047E+03  0.15576258685E+03  0.29458293469E+03  0.25500000920E-02 0.  1.
       -2    1    3    3    0  502 -0.59507723948E+02  0.24284965047E+03  0.16274462758E+03  0.29833359810E+03  0.25500000920E-02 0. -1.
</event>
<event>
 5   0  0.1967161E-01  0.5041784E+03  0.7818609E-02  0.1012694E+00
        1   -1    0    0  501    0  0.00000000000E+00  0.00000000000E+00  0.14499370535E+03  0.14499370544E+03  0.50400001928E-02 0. -1.
       -1   -1    0    0    0  501  0.00000000000E+00  0.00000000000E+00 -0.43828768767E+03  0.43828768770E+03  0.50400001928E-02 0.  1.
    10030    2    1    2    0    0  0.00000000000E+00  0.00000000000E+00 -0.29329398232E+03  0.58328139314E+03  0.50417836479E+03 0.  0.
        1    1    3    3  502    0  0.24995271754E+03 -0.32749803617E+02 -0.14689297831E+03  0.29176438738E+03  0.50400001928E-02 0.  1.
       -1    1    3    3    0  502 -0.24995271754E+03  0.32749803617E+02 -0.14640100401E+03  0.29151700576E+03  0.50400001928E-02 0. -1.
</event>
<event>
 5   0  0.3111146E-01  0.4750405E+03  0.7818609E-02  0.1020507E+00
        2   -1    0    0  501    0  0.00000000000E+00  0.00000000000E+00  0.13983019980E+04  0.13983019980E+04  0.25500000920E-02 0.  1.
       -2   -1    0    0    0  501  0.00000000000E+00  0.00000000000E+00 -0.40345978254E+02  0.40345978334E+02  0.25500000920E-02 0. -1.
    10030    2    1    2    0    0  0.00000000000E+00  0.00000000000E+00  0.13579560198E+04  0.14386479763E+04  0.47504047012E+03 0.  0.
        1    1    3    3  502    0  0.10390910762E+03  0.21156237200E+03  0.59015939542E+03  0.63548709815E+03  0.50400001928E-02 0. -1.
       -1    1    3    3    0  502 -0.10390910762E+03 -0.21156237200E+03  0.76779662434E+03  0.80316087819E+03  0.50400001928E-02 0.  1.
</event>
<event>
 5   0  0.1984297E-01  0.4589636E+03  0.7818609E-02  0.1025082E+00
        1   -1    0    0  501    0  0.00000000000E+00  0.00000000000E+00  0.67978220564E+03  0.67978220566E+03  0.50400001928E-02 0.  1.
       -1   -1    0    0    0  501  0.00000000000E+00  0.00000000000E+00 -0.77468781910E+02  0.77468782074E+02  0.50400001928E-02 0. -1.
    10030    2    1    2    0    0  0.00000000000E+00  0.00000000000E+00  0.60231342373E+03  0.75725098774E+03  0.45896361296E+03 0.  0.
        3    1    3    3  502    0 -0.13386789890E+03  0.48775729613E+02  0.43452740697E+01  0.14254324875E+03  0.10100000352E+00 0. -1.
       -3    1    3    3    0  502  0.13386789890E+03 -0.48775729613E+02  0.59796814966E+03  0.61470773899E+03  0.10100000352E+00 0.  1.
</event>
<event>
 5   0  0.3187123E-01  0.4975987E+03  0.7818609E-02  0.1014408E+00
        2   -1    0    0  501    0  0.00000000000E+00  0.00000000000E+00  0.36611145649E+03  0.36611145650E+03  0.25500000920E-02 0.  1.
       -2   -1    0    0    0  501  0.00000000000E+00  0.00000000000E+00 -0.16907722501E+03  0.16907722503E+03  0.25500000920E-02 0. -1.
    10030    2    1    2    0    0  0.00000000000E+00  0.00000000000E+00  0.19703423148E+03  0.53518868153E+03  0.49759867008E+03 0.  0.
        5    1    3    3  502    0  0.18595671054E+03  0.14138986835E+03  0.19046203857E+03  0.30144464036E+03  0.46999998093E+01 0.  1.
       -5    1    3    3    0  502 -0.18595671054E+03 -0.14138986835E+03  0.65721929193E+01  0.23374404117E+03  0.46999998093E+01 0. -1.
</event>
<event>
 5   0  0.3111146E-01  0.4629925E+03  0.7818609E-02  0.1023917E+00
        2   -1    0    0  501    0  0.00000000000E+00  0.00000000000E+00  0.31481094049E+03  0.31481094050E+03  0.25500000920E-02 0.  1.
       -2   -1    0    0    0  501  0.00000000000E+00  0.00000000000E+00 -0.17023079227E+03  0.17023079228E+03  0.25500000920E-02 0. -1.
    10030    2    1    2    0    0  0.00000000000E+00  0.00000000000E+00  0.14458014823E+03  0.48504173279E+03  0.46299250889E+03 0.  0.
        1    1    3    3  502    0  0.94920132794E+02 -0.20793299161E+03  0.11070450988E+03  0.25397135496E+03  0.50400001928E-02 0. -1.
       -1    1    3    3    0  502 -0.94920132794E+02  0.20793299161E+03  0.33875638343E+02  0.23107037782E+03  0.50400001928E-02 0.  1.
</event>
<event>
 5   0  0.2000612E-01  0.5110754E+03  0.7818609E-02  0.1010928E+00
       -1   -1    0    0    0  501  0.00000000000E+00  0.00000000000E+00  0.68962599494E+03  0.68962599496E+03  0.50400001928E-02 0. -1.
        1   -1    0    0  501    0  0.00000000000E+00  0.00000000000E+00 -0.94688314704E+02  0.94688314839E+02  0.50400001928E-02 0.  1.
    10030    2    1    2    0    0  0.00000000000E+00  0.00000000000E+00  0.59493768024E+03  0.78431430980E+03  0.51107542808E+03 0.  0.
        2    1    3    3  502    0  0.11609809959E+03 -0.15663163097E+03  0.55097313117E+03  0.58445156157E+03  0.25500000920E-02 0. -1.
       -2    1    3    3    0  502 -0.11609809959E+03  0.15663163097E+03  0.43964549075E+02  0.19986274823E+03  0.25500000920E-02 0.  1.
</event>
<event>
 5   0  0.3329246E-01  0.5028889E+03  0.7818609E-02  0.1013028E+00
       -2   -1    0    0    0  501  0.00000000000E+00  0.00000000000E+00  0.20110293852E+03  0.20110293853E+03  0.25500000920E-02 0.  1.
        2   -1    0    0  501    0  0.00000000000E+00  0.00000000000E+00 -0.31438775074E+03  0.31438775075E+03  0.25500000920E-02 0. -1.
    10030    2    1    2    0    0  0.00000000000E+00  0.00000000000E+00 -0.11328481222E+03  0.51549068928E+03  0.50288885656E+03 0.  0.
        2    1    3    3  502    0  0.96452276916E+02  0.22915446363E+03 -0.18158432973E+02  0.24928806353E+03  0.25500000920E-02 0.  1.
       -2    1    3    3    0  502 -0.96452276916E+02 -0.22915446363E+03 -0.95126379252E+02  0.26620262575E+03  0.25500000920E-02 0. -1.
</event>
<event>
 5   0  0.3111146E-01  0.4732720E+03  0.7818609E-02  0.1021001E+00
       -2   -1    0    0    0  501  0.00000000000E+00  0.00000000000E+00  0.14742848737E+03  0.14742848739E+03  0.25500000920E-02 0. -1.
        2   -1    0    0  501    0  0.00000000000E+00  0.00000000000E+00 -0.37982216352E+03  0.37982216352E+03  0.25500000920E-02 0.  1.
    10030    2    1    2    0    0  0.00000000000E+00  0.00000000000E+00 -0.23239367615E+03  0.52725065091E+03  0.47327204457E+03 0.  0.
        1    1    3    3  502    0  0.50464795339E+02  0.11368331830E+02 -0.37344606687E+03  0.37701180277E+03  0.50400001928E-02 0.  1.
       -1    1    3    3    0  502 -0.50464795339E+02 -0.11368331830E+02  0.14105239073E+03  0.15023884815E+03  0.50400001928E-02 0. -1.
</event>
<event>
 5   0  0.2000612E-01  0.4954325E+03  0.7818609E-02  0.1014978E+00
        1   -1    0    0  501    0  0.00000000000E+00  0.00000000000E+00  0.68870797255E+03  0.68870797257E+03  0.50400001928E-02 0. -1.
       -1   -1    0    0    0  501  0.00000000000E+00  0.00000000000E+00 -0.89099207807E+02  0.89099207950E+02  0.50400001928E-02 0.  1.
    10030    2    1    2    0    0  0.00000000000E+00  0.00000000000E+00  0.59960876475E+03  0.77780718052E+03  0.49543247705E+03 0.  0.
        2    1    3    3  502    0 -0.11141710327E+03  0.27819883000E+02  0.64439315491E+03  0.65454583865E+03  0.25500000920E-02 0. -1.
       -2    1    3    3    0  502  0.11141710327E+03 -0.27819883000E+02 -0.44784390167E+02  0.12326134187E+03  0.25500000920E-02 0.  1.
</event>
<event>
 5   0  0.2013450E-01  0.5025681E+03  0.7818609E-02  0.1013111E+00
       -1   -1    0    0    0  501  0.00000000000E+00  0.00000000000E+00  0.75200947120E+02  0.75200947289E+02  0.50400001928E-02 0. -1.
        1   -1    0    0  501    0  0.00000000000E+00  0.00000000000E+00 -0.83966602724E+03  0.83966602725E+03  0.50400001928E-02 0.  1.
    10030    2    1    2    0    0  0.00000000000E+00  0.00000000000E+00 -0.76446508012E+03  0.91486697454E+03  0.50256812711E+03 0.  0.
        4    1    3    3  502    0 -0.76476882893E+02  0.79359297670E+02  0.28849731676E+02  0.11393213621E+03  0.12699999809E+01 0. -1.
       -4    1    3    3    0  502  0.76476882893E+02 -0.79359297670E+02 -0.79331481179E+03  0.80093483833E+03  0.12699999809E+01 0.  1.
</event>
<event>
 5   0  0.3187123E-01  0.5019824E+03  0.7818609E-02  0.1013263E+00
        2   -1    0    0  501    0  0.00000000000E+00  0.00000000000E+00  0.10964288418E+04  0.10964288418E+04  0.25500000920E-02 0.  1.
       -2   -1    0    0    0  501  0.00000000000E+00  0.00000000000E+00 -0.57456154504E+02  0.57456154561E+02  0.25500000920E-02 0. -1.
    10030    2    1    2    0    0  0.00000000000E+00  0.00000000000E+00  0.10389726873E+04  0.11538849964E+04  0.50198240995E+03 0.  0.
        5    1    3    3  502    0  0.19016020843E+03 -0.16368277659E+03  0.53015437634E+03  0.58654813014E+03  0.46999998093E+01 0. -1.
       -5    1    3    3    0  502 -0.19016020843E+03  0.16368277659E+03  0.50881831099E+03  0.56733686626E+03  0.46999998093E+01 0.  1.
</event>
<event>
 5   0  0.1984297E-01  0.5088226E+03  0.7818609E-02  0.1011501E+00
        1   -1    0    0  501    0  0.00000000000E+00  0.00000000000E+00  0.29366354740E+03  0.29366354744E+03  0.50400001928E-02 0. -1.
       -1   -1    0    0    0  501  0.00000000000E+00  0.00000000000E+00 -0.22040567570E+03  0.22040567575E+03  0.50400001928E-02 0.  1.
    10030    2    1    2    0    0  0.00000000000E+00  0.00000000000E+00  0.73257871702E+02  0.51406922319E+03  0.50882261199E+03 0.  0.
        3    1    3    3  502    0 -0.84057866381E+02 -0.21051938134E+03  0.15332302687E+03  0.27366420225E+03  0.10100000352E+00 0. -1.
       -3    1    3    3    0  502  0.84057866381E+02  0.21051938134E+03 -0.80065155171E+02  0.24040502095E+03  0.10100000352E+00 0.  1.
</event>
<event>
 5   0  0.1967161E-01  0.4692495E+03  0.7818609E-02  0.1022132E+00
        1   -1    0    0  501    0  0.00000000000E+00  0.00000000000E+00  0.52396778578E+03  0.52396778581E+03  0.50400001928E-02 0. -1.
       -1   -1    0    0    0  501  0.00000000000E+00  0.00000000000E+00 -0.10506138301E+03  0.10506138313E+03  0.50400001928E-02 0.  1.
    10030    2    1    2    0    0  0.00000000000E+00  0.00000000000E+00  0.41890640277E+03  0.62902916894E+03  0.46924952967E+03 0.  0.
        1    1    3    3  502    0  0.84561332484E+02  0.21885623804E+03  0.20901191795E+03  0.31422070866E+03  0.50400001928E-02 0. -1.
       -1    1    3    3    0  502 -0.84561332484E+02 -0.21885623804E+03  0.20989448483E+03  0.31480846028E+03  0.50400001928E-02 0.  1.
</event>
<event>
 5   0  0.3178149E-01  0.5038274E+03  0.7818609E-02  0.1012785E+00
        2   -1    0    0  501    0  0.00000000000E+00  0.00000000000E+00  0.26536760342E+04  0.26536760342E+04  0.25500000920E-02 0.  1.
       -2   -1    0    0    0  501  0.00000000000E+00  0.00000000000E+00 -0.23914193281E+02  0.23914193417E+02  0.25500000920E-02 0. -1.
    10030    2    1    2    0    0  0.00000000000E+00  0.00000000000E+00  0.26297618409E+04  0.26775902276E+04  0.50382743780E+03 0.  0.
        3    1    3    3  502    0 -0.52877075235E+02  0.46808696709E+02  0.29766663093E+02  0.76636176873E+02  0.10100000352E+00 0. -1.
       -3    1    3    3    0  502  0.52877075235E+02 -0.46808696709E+02  0.25999951778E+04  0.26009540507E+04  0.10100000352E+00 0.  1.
</event>
<event>
 5   0  0.3187123E-01  0.5000124E+03  0.7818609E-02  0.1013776E+00
        2   -1    0    0  501    0  0.00000000000E+00  0.00000000000E+00  0.15571084642E+04  0.15571084642E+04  0.25500000920E-02 0.  1.
       -2   -1    0    0    0  501  0.00000000000E+00  0.00000000000E+00 -0.40140495254E+02  0.40140495335E+02  0.25500000920E-02 0. -1.
    10030    2    1    2    0    0  0.00000000000E+00  0.00000000000E+00  0.15169679690E+04  0.15972489595E+04  0.50001241978E+03 0.  0.
        5    1    3    3  502    0 -0.16007918303E+03  0.18646147030E+03  0.61252351444E+03  0.66000028068E+03  0.46999998093E+01 0.  1.
       -5    1    3    3    0  502  0.16007918303E+03 -0.18646147030E+03  0.90444445451E+03  0.93724867887E+03  0.46999998093E+01 0. -1.
</event>
<event>
 5   0  0.1984680E-01  0.4921263E+03  0.7818609E-02  0.1015855E+00
       -1   -1    0    0    0  501  0.00000000000E+00  0.00000000000E+00  0.10197603425E+04  0.10197603425E+04  0.50400001928E-02 0. -1.
        1   -1    0    0  501    0  0.00000000000E+00  0.00000000000E+00 -0.59373832586E+02  0.59373832800E+02  0.50400001928E-02 0.  1.
    10030    2    1    2    0    0  0.00000000000E+00  0.00000000000E+00  0.96038650992E+03  0.10791341753E+04  0.49212632515E+03 0.  0.
        5    1    3    3  502    0 -0.10932358769E+03 -0.21924741473E+03  0.52941728701E+03  0.58337451905E+03  0.46999998093E+01 0.  1.
       -5    1    3    3    0  502  0.10932358769E+03  0.21924741473E+03  0.43096922291E+03  0.49575965627E+03  0.46999998093E+01 0. -1.
</event>
<event>
 5   0  0.2000612E-01  0.5143310E+03  0.7818609E-02  0.1010105E+00
        1   -1    0    0  501    0  0.00000000000E+00  0.00000000000E+00  0.14547450406E+03  0.14547450415E+03  0.50400001928E-02 0. -1.
       -1   -1    0    0    0  501  0.00000000000E+00  0.00000000000E+00 -0.45460954981E+03  0.45460954984E+03  0.50400001928E-02 0.  1.
    10030    2    1    2    0    0  0.00000000000E+00  0.00000000000E+00 -0.30913504575E+03  0.60008405398E+03  0.51433101728E+03 0.  0.
        2    1    3    3  502    0  0.23144315338E+03  0.64631754936E+02 -0.26144192320E+03  0.35509868516E+03  0.25500000920E-02 0.  1.
       -2    1    3    3    0  502 -0.23144315338E+03 -0.64631754936E+02 -0.47693122548E+02  0.24498536882E+03  0.25500000920E-02 0. -1.
</event>
<event>
 5   0  0.3117389E-01  0.4889221E+03  0.7818609E-02  0.1016712E+00
       -2   -1    0    0    0  501  0.00000000000E+00  0.00000000000E+00  0.14270857244E+03  0.14270857247E+03  0.25500000920E-02 0.  1.
        2   -1    0    0  501    0  0.00000000000E+00  0.00000000000E+00 -0.41876391565E+03  0.41876391566E+03  0.25500000920E-02 0. -1.
    10030    2    1    2    0    0  0.00000000000E+00  0.00000000000E+00 -0.27605534321E+03  0.56147248812E+03  0.48892208214E+03 0.  0.
        4    1    3    3  502    0 -0.94469508240E+00 -0.23660456201E+03 -0.67451033194E+02  0.24603631031E+03  0.12699999809E+01 0.  1.
       -4    1    3    3    0  502  0.94469508240E+00  0.23660456201E+03 -0.20860431001E+03  0.31543617781E+03  0.12699999809E+01 0. -1.
</event>
<event>
 5   0  0.3187123E-01  0.4545900E+03  0.7818609E-02  0.1026362E+00
       -2   -1    0    0    0  501  0.00000000000E+00  0.00000000000E+00  0.25848915562E+03  0.25848915564E+03  0.25500000920E-02 0.  1.
        2   -1    0    0  501    0  0.00000000000E+00  0.00000000000E+00 -0.19986530730E+03  0.19986530732E+03  0.25500000920E-02 0. -1.
    10030    2    1    2    0    0  0.00000000000E+00  0.00000000000E+00  0.58623848325E+02  0.45835446295E+03  0.45458998902E+03 0.  0.
        5    1    3    3  502    0 -0.57456267013E+02 -0.19880019229E+03  0.12399475000E+03  0.24128722946E+03  0.46999998093E+01 0.  1.
       -5    1    3    3    0  502  0.57456267013E+02  0.19880019229E+03 -0.65370901673E+02  0.21706723350E+03  0.46999998093E+01 0. -1.
</event>
<event>
 5   0  0.2013450E-01  0.4942821E+03  0.7818609E-02  0.1015282E+00
       -1   -1    0    0    0  501  0.00000000000E+00  0.00000000000E+00  0.39868374571E+02  0.39868374889E+02  0.50400001928E-02 0.  1.
        1   -1    0    0  501    0  0.00000000000E+00  0.00000000000E+00 -0.15320086761E+04  0.15320086761E+04  0.50400001928E-02 0. -1.
    10030    2    1    2    0    0  0.00000000000E+00  0.00000000000E+00 -0.14921403015E+04  0.15718770510E+04  0.49428208951E+03 0.  0.
        4    1    3    3  502    0  0.11871692763E+03 -0.47690106915E+02 -0.14184912203E+04  0.14242496305E+04  0.12699999809E+01 0. -1.
       -4    1    3    3    0  502 -0.11871692763E+03  0.47690106915E+02 -0.73649081273E+02  0.14762742047E+03  0.12699999809E+01 0.  1.
</event>
<event>
 5   0  0.3329246E-01  0.4965548E+03  0.7818609E-02  0.1014682E+00
        2   -1    0    0  501    0  0.00000000000E+00  0.00000000000E+00  0.63632205192E+03  0.63632205193E+03  0.25500000920E-02 0.  1.
       -2   -1    0    0    0  501  0.00000000000E+00  0.00000000000E+00 -0.96871819845E+02  0.96871819878E+02  0.25500000920E-02 0. -1.
    10030    2    1    2    0    0  0.00000000000E+00  0.00000000000E+00  0.53945023208E+03  0.73319387181E+03  0.49655483158E+03 0.  0.
        2    1    3    3  502    0  0.99493923763E+02  0.77160699826E+02 -0.46234467938E+02  0.13412844775E+03  0.25500000920E-02 0. -1.
       -2    1    3    3    0  502 -0.99493923763E+02 -0.77160699826E+02  0.58568470002E+03  0.59906542406E+03  0.25500000920E-02 0.  1.
</event>
<event>
 5   0  0.1292375E-01  0.4985235E+03  0.7818609E-02  0.1014165E+00
        3   -1    0    0  501    0  0.00000000000E+00  0.00000000000E+00  0.11149977684E+03  0.11149982258E+03  0.10100000352E+00 0.  1.
       -3   -1    0    0    0  501  0.00000000000E+00  0.00000000000E+00 -0.55723345735E+03  0.55723346651E+03  0.10100000352E+00 0. -1.
    10030    2    1    2    0    0  0.00000000000E+00  0.00000000000E+00 -0.44573368052E+03  0.66873328909E+03  0.49852351799E+03 0.  0.
        1    1    3    3  502    0  0.13151626620E+03 -0.15787687251E+03 -0.33588628691E+02  0.20820622265E+03  0.50400001928E-02 0.  1.
       -1    1    3    3    0  502 -0.13151626620E+03  0.15787687251E+03 -0.41214505183E+03  0.46052706644E+03  0.50400001928E-02 0. -1.
</event>
<event>
 5   0  0.2000612E-01  0.4984293E+03  0.7818609E-02  0.1014190E+00
       -1   -1    0    0    0  501  0.00000000000E+00  0.00000000000E+00  0.22976052179E+03  0.22976052184E+03  0.50400001928E-02 0. -1.
        1   -1    0    0  501    0  0.00000000000E+00  0.00000000000E+00 -0.27031594160E+03  0.27031594165E+03  0.50400001928E-02 0.  1.
    10030    2    1    2    0    0  0.00000000000E+00  0.00000000000E+00 -0.40555419815E+02  0.50007646349E+03  0.49842926004E+03 0.  0.
        2    1    3    3  502    0  0.15495060454E+03 -0.41628590782E+02 -0.21160480901E+03  0.26555456053E+03  0.25500000920E-02 0.  1.
       -2    1    3    3    0  502 -0.15495060454E+03  0.41628590782E+02  0.17104938919E+03  0.23452190296E+03  0.25500000920E-02 0. -1.
</event>
<event>
 5   0  0.3111146E-01  0.5014395E+03  0.7818609E-02  0.1013404E+00
       -2   -1    0    0    0  501  0.00000000000E+00  0.00000000000E+00  0.49021166560E+03  0.49021166561E+03  0.25500000920E-02 0.  1.
        2   -1    0    0  501    0  0.00000000000E+00  0.00000000000E+00 -0.12823114023E+03  0.12823114026E+03  0.25500000920E-02 0. -1.
    10030    2    1    2    0    0  0.00000000000E+00  0.00000000000E+00  0.36198052537E+03  0.61844280586E+03  0.50143953113E+03 0.  0.
        1    1    3    3  502    0 -0.24834566679E+03 -0.33825262560E+02  0.17312373099E+03  0.30461704624E+03  0.50400001928E-02 0. -1.
       -1    1    3    3    0  502  0.24834566679E+03  0.33825262560E+02  0.18885679437E+03  0.31382575963E+03  0.50400001928E-02 0.  1.
</event>
<event>
 5   0  0.1967161E-01  0.5027385E+03  0.7818609E-02  0.1013067E+00
       -1   -1    0    0    0  501  0.00000000000E+00  0.00000000000E+00  0.10637349005E+03  0.10637349017E+03  0.50400001928E-02 0.  1.
        1   -1    0    0  501    0  0.00000000000E+00  0.00000000000E+00 -0.59400609316E+03  0.59400609318E+03  0.50400001928E-02 0. -1.
    10030    2    1    2    0    0  0.00000000000E+00  0.00000000000E+00 -0.48763260311E+03  0.70037958336E+03  0.50273850575E+03 0.  0.
        1    1    3    3  502    0  0.14203572050E+03 -0.15692377721E+03 -0.54908404331E+02  0.21866447047E+03  0.50400001928E-02 0.  1.
       -1    1    3    3    0  502 -0.14203572050E+03  0.15692377721E+03 -0.43272419878E+03  0.48171511289E+03  0.50400001928E-02 0. -1.
</event>
<event>
 5   0  0.1984297E-01  0.5472926E+03  0.7818609E-02  0.1002123E+00
       -1   -1    0    0    0  501  0.00000000000E+00  0.00000000000E+00  0.98316807634E+02  0.98316807763E+02  0.50400001928E-02 0. -1.
        1   -1    0    0  501    0  0.00000000000E+00  0.00000000000E+00 -0.76164296244E+03  0.76164296245E+03  0.50400001928E-02 0.  1.
    10030    2    1    2    0    0  0.00000000000E+00  0.00000000000E+00 -0.66332615480E+03  0.85995977022E+03  0.54729262625E+03 0.  0.
        3    1    3    3  502    0 -0.10905112035E+03  0.24937683536E+02 -0.72407333436E+03  0.73266379646E+03  0.10100000352E+00 0.  1.
       -3    1    3    3    0  502  0.10905112035E+03 -0.24937683536E+02  0.60747179559E+02  0.12729597376E+03  0.10100000352E+00 0. -1.
</event>
<event>
 5   0  0.3117389E-01  0.5472440E+03  0.7818609E-02  0.1002134E+00
        2   -1    0    0  501    0  0.00000000000E+00  0.00000000000E+00  0.18583611260E+03  0.18583611262E+03  0.25500000920E-02 0. -1.
       -2   -1    0    0    0  501  0.00000000000E+00  0.00000000000E+00 -0.40287647481E+03  0.40287647482E+03  0.25500000920E-02 0.  1.
    10030    2    1    2    0    0  0.00000000000E+00  0.00000000000E+00 -0.21704036220E+03  0.58871258744E+03  0.54724399657E+03 0.  0.
        4    1    3    3  502    0  0.10227416389E+03  0.23087047239E+03 -0.22189201368E+03  0.33615302804E+03  0.12699999809E+01 0.  1.
       -4    1    3    3    0  502 -0.10227416389E+03 -0.23087047239E+03  0.48516514783E+01  0.25255955940E+03  0.12699999809E+01 0. -1.
</event>
<event>
 5   0  0.3111146E-01  0.4891124E+03  0.7818609E-02  0.1016660E+00
        2   -1    0    0  501    0  0.00000000000E+00  0.00000000000E+00  0.32819491024E+03  0.32819491025E+03  0.25500000920E-02 0.  1.
       -2   -1    0    0    0  501  0.00000000000E+00  0.00000000000E+00 -0.18223236737E+03  0.18223236739E+03  0.25500000920E-02 0. -1.
    10030    2    1    2    0    0  0.00000000000E+00  0.00000000000E+00  0.14596254287E+03  0.51042727764E+03  0.48911240205E+03 0.  0.
        1    1    3    3  502    0 -0.14301457670E+03 -0.73149293621E+02 -0.11945573362E+03  0.20018406687E+03  0.50400001928E-02 0. -1.
       -1    1    3    3    0  502  0.14301457670E+03  0.73149293621E+02  0.26541827649E+03  0.31024321077E+03  0.50400001928E-02 0.  1.
</event>
<event>
 5   0  0.1292375E-01  0.5233376E+03  0.7818609E-02  0.1007861E+00
       -4   -1    0    0    0  501  0.00000000000E+00  0.00000000000E+00  0.94445704032E+03  0.94445789420E+03  0.12699999809E+01 0.  1.
        4   -1    0    0  501    0  0.00000000000E+00  0.00000000000E+00 -0.72490828629E+02  0.72501952631E+02  0.12699999809E+01 0. -1.
    10030    2    1    2    0    0  0.00000000000E+00  0.00000000000E+00  0.87196621170E+03  0.10169598468E+04  0.52333761161E+03 0.  0.
        2    1    3    3  502    0  0.94477749147E+02 -0.53170090460E+02  0.89876914131E+03  0.90528397367E+03  0.25500000920E-02 0.  1.
       -2    1    3    3    0  502 -0.94477749147E+02  0.53170090460E+02 -0.26802929618E+02  0.11167587316E+03  0.25500000920E-02 0. -1.
</event>
<event>
 5   0  0.2013450E-01  0.5075820E+03  0.7818609E-02  0.1011819E+00
       -1   -1    0    0    0  501  0.00000000000E+00  0.00000000000E+00  0.19311221378E+03  0.19311221385E+03  0.50400001928E-02 0. -1.
        1   -1    0    0  501    0  0.00000000000E+00  0.00000000000E+00 -0.33353592413E+03  0.33353592417E+03  0.50400001928E-02 0.  1.
    10030    2    1    2    0    0  0.00000000000E+00  0.00000000000E+00 -0.14042371035E+03  0.52664813802E+03  0.50758195678E+03 0.  0.
        4    1    3    3  502    0 -0.15331627775E+03 -0.11673808331E+03  0.10114183695E+03  0.21763488966E+03  0.12699999809E+01 0. -1.
       -4    1    3    3    0  502  0.15331627775E+03  0.11673808331E+03 -0.24156554730E+03  0.30901324836E+03  0.12699999809E+01 0.  1.
</event>
<event>
 5   0  0.1984680E-01  0.4506240E+03  0.7818609E-02  0.1027536E+00
       -1   -1    0    0    0  501  0.00000000000E+00  0.00000000000E+00  0.51558387493E+02  0.51558387740E+02  0.50400001928E-02 0.  1.
        1   -1    0    0  501    0  0.00000000000E+00  0.00000000000E+00 -0.98462130675E+03  0.98462130676E+03  0.50400001928E-02 0. -1.
    10030    2    1    2    0    0  0.00000000000E+00  0.00000000000E+00 -0.93306291925E+03  0.10361796945E+04  0.45062395410E+03 0.  0.
        5    1    3    3  502    0  0.44766115790E+02  0.42925010605E+02  0.31426377377E+02  0.69686934583E+02  0.46999998093E+01 0.  1.
       -5    1    3    3    0  502 -0.44766115790E+02 -0.42925010605E+02 -0.96448929663E+03  0.96649275992E+03  0.46999998093E+01 0. -1.
</event>
<event>
 5   0  0.3329246E-01  0.4954439E+03  0.7818609E-02  0.1014975E+00
       -2   -1    0    0    0  501  0.00000000000E+00  0.00000000000E+00  0.59929345576E+02  0.59929345630E+02  0.25500000920E-02 0.  1.
        2   -1    0    0  501    0  0.00000000000E+00  0.00000000000E+00 -0.10239753157E+04  0.10239753157E+04  0.25500000920E-02 0. -1.
    10030    2    1    2    0    0  0.00000000000E+00  0.00000000000E+00 -0.96404597008E+03  0.10839046613E+04  0.49544392451E+03 0.  0.
        2    1    3    3  502    0  0.23228272808E+03  0.75629163715E+02 -0.39205548764E+03  0.46193348175E+03  0.25500000920E-02 0.  1.
       -2    1    3    3    0  502 -0.23228272808E+03 -0.75629163715E+02 -0.57199048244E+03  0.62197117954E+03  0.25500000920E-02 0. -1.
</event>
<event>
 5   0  0.2013450E-01  0.4583880E+03  0.7818609E-02  0.1025250E+00
        1   -1    0    0  501    0  0.00000000000E+00  0.00000000000E+00  0.43329638240E+03  0.43329638243E+03  0.50400001928E-02 0.  1.
       -1   -1    0    0    0  501  0.00000000000E+00  0.00000000000E+00 -0.12123315238E+03  0.12123315248E+03  0.50400001928E-02 0. -1.
    10030    2    1    2    0    0  0.00000000000E+00  0.00000000000E+00  0.31206323002E+03  0.55452953492E+03  0.45838798584E+03 0.  0.
        4    1    3    3  502    0 -0.21424252937E+03 -0.79761740577E+02  0.13628370266E+03  0.26615156802E+03  0.12699999809E+01 0. -1.
       -4    1    3    3    0  502  0.21424252937E+03  0.79761740577E+02  0.17577952736E+03  0.28837796689E+03  0.12699999809E+01 0.  1.
</event>
<event>
 5   0  0.3187123E-01  0.4845402E+03  0.7818609E-02  0.1017895E+00
        2   -1    0    0  501    0  0.00000000000E+00  0.00000000000E+00  0.10822132041E+04  0.10822132041E+04  0.25500000920E-02 0.  1.
       -2   -1    0    0    0  501  0.00000000000E+00  0.00000000000E+00 -0.54235895297E+02  0.54235895357E+02  0.25500000920E-02 0. -1.
    10030    2    1    2    0    0  0.00000000000E+00  0.00000000000E+00  0.10279773088E+04  0.11364490994E+04  0.48454020292E+03 0.  0.
        5    1    3    3  502    0 -0.13455188144E+03 -0.92705955294E+02  0.93337993631E+03  0.94758577367E+03  0.46999998093E+01 0. -1.
       -5    1    3    3    0  502  0.13455188144E+03  0.92705955294E+02  0.94597372473E+02  0.18886332578E+03  0.46999998093E+01 0.  1.
</event>
<event>
 5   0  0.1984680E-01  0.5018467E+03  0.7818609E-02  0.1013298E+00
        1   -1    0    0  501    0  0.00000000000E+00  0.00000000000E+00  0.11912271543E+04  0.11912271543E+04  0.50400001928E-02 0. -1.
       -1   -1    0    0    0  501  0.00000000000E+00  0.00000000000E+00 -0.52855187506E+02  0.52855187746E+02  0.50400001928E-02 0.  1.
    10030    2    1    2    0    0  0.00000000000E+00  0.00000000000E+00  0.11383719668E+04  0.12440823421E+04  0.50184672863E+03 0.  0.
        5    1    3    3  502    0  0.66661957655E+02 -0.23201422041E+03  0.39984901622E+03  0.46709286105E+03  0.46999998093E+01 0.  1.
       -5    1    3    3    0  502 -0.66661957655E+02  0.23201422041E+03  0.73852295057E+03  0.77698948101E+03  0.46999998093E+01 0. -1.
</event>
<event>
 5   0  0.2013450E-01  0.4827824E+03  0.7818609E-02  0.1018373E+00
        1   -1    0    0  501    0  0.00000000000E+00  0.00000000000E+00  0.11394929833E+04  0.11394929833E+04  0.50400001928E-02 0. -1.
       -1   -1    0    0    0  501  0.00000000000E+00  0.00000000000E+00 -0.51136520869E+02  0.51136521117E+02  0.50400001928E-02 0.  1.
    10030    2    1    2    0    0  0.00000000000E+00  0.00000000000E+00  0.10883564624E+04  0.11906295044E+04  0.48278238110E+03 0.  0.
        4    1    3    3  502    0 -0.16792191220E+03 -0.17332796770E+03  0.55716754474E+03  0.60718830588E+03  0.12699999809E+01 0.  1.
       -4    1    3    3    0  502  0.16792191220E+03  0.17332796770E+03  0.53118891767E+03  0.58344119853E+03  0.12699999809E+01 0. -1.
</event>
<event>
 5   0  0.3329246E-01  0.4748358E+03  0.7818609E-02  0.1020564E+00
       -2   -1    0    0    0  501  0.00000000000E+00  0.00000000000E+00  0.15913997287E+03  0.15913997289E+03  0.25500000920E-02 0. -1.
        2   -1    0    0  501    0  0.00000000000E+00  0.00000000000E+00 -0.35419926543E+03  0.35419926544E+03  0.25500000920E-02 0.  1.
    10030    2    1    2    0    0  0.00000000000E+00  0.00000000000E+00 -0.19505929256E+03  0.51333923833E+03  0.47483580951E+03 0.  0.
        2    1    3    3  502    0  0.15162579430E+03 -0.16824673957E+03 -0.20552586070E+02  0.22741977854E+03  0.25500000920E-02 0.  1.
       -2    1    3    3    0  502 -0.15162579430E+03  0.16824673957E+03 -0.17450670649E+03  0.28591945979E+03  0.25500000920E-02 0. -1.
</event>
<event>
 5   0  0.1984680E-01  0.4808767E+03  0.7818609E-02  0.1018895E+00
       -1   -1    0    0    0  501  0.00000000000E+00  0.00000000000E+00  0.29434821572E+03  0.29434821576E+03  0.50400001928E-02 0. -1.
        1   -1    0    0  501    0  0.00000000000E+00  0.00000000000E+00 -0.19640207946E+03  0.19640207952E+03  0.50400001928E-02 0.  1.
    10030    2    1    2    0    0  0.00000000000E+00  0.00000000000E+00  0.97946136263E+02  0.49075029528E+03  0.48087670635E+03 0.  0.
        5    1    3    3  502    0  0.16892835309E+03  0.11873333887E+03 -0.76656582939E+02  0.22030142065E+03  0.46999998093E+01 0.  1.
       -5    1    3    3    0  502 -0.16892835309E+03 -0.11873333887E+03  0.17460271920E+03  0.27044887463E+03  0.46999998093E+01 0. -1.
</event>
<event>
 5   0  0.3111146E-01  0.5163128E+03  0.7818609E-02  0.1009607E+00
       -2   -1    0    0    0  501  0.00000000000E+00  0.00000000000E+00  0.30715187645E+02  0.30715187751E+02  0.25500000920E-02 0.  1.
        2   -1    0    0  501    0  0.00000000000E+00  0.00000000000E+00 -0.21697645789E+04  0.21697645789E+04  0.25500000920E-02 0. -1.
    10030    2    1    2    0    0  0.00000000000E+00  0.00000000000E+00 -0.21390493913E+04  0.22004797667E+04  0.51631279785E+03 0.  0.
        1    1    3    3  502    0 -0.23151210188E+03  0.91510652045E+01 -0.15547678799E+04  0.15719366259E+04  0.50400001928E-02 0. -1.
       -1    1    3    3    0  502  0.23151210188E+03 -0.91510652045E+01 -0.58428151138E+03  0.62854314082E+03  0.50400001928E-02 0.  1.
</event>
<event>
 5   0  0.1967161E-01  0.4879897E+03  0.7818609E-02  0.1016962E+00
       -1   -1    0    0    0  501  0.00000000000E+00  0.00000000000E+00  0.17406450615E+03  0.17406450623E+03  0.50400001928E-02 0. -1.
        1   -1    0    0  501    0  0.00000000000E+00  0.00000000000E+00 -0.34201966375E+03  0.34201966379E+03  0.50400001928E-02 0.  1.
    10030    2    1    2    0    0  0.00000000000E+00  0.00000000000E+00 -0.16795515760E+03  0.51608417001E+03  0.48798968798E+03 0.  0.
        1    1    3    3  502    0  0.62888377729E+02  0.14976059834E+03  0.10857689712E+03  0.19537688574E+03  0.50400001928E-02 0. -1.
       -1    1    3    3    0  502 -0.62888377729E+02 -0.14976059834E+03 -0.27653205472E+03  0.32070728427E+03  0.50400001928E-02 0.  1.
</event>
<event>
 5   0  0.2000612E-01  0.4980895E+03  0.7818609E-02  0.1014279E+00
        1   -1    0    0  501    0  0.00000000000E+00  0.00000000000E+00  0.53240621252E+03  0.53240621254E+03  0.50400001928E-02 0. -1.
       -1   -1    0    0    0  501  0.00000000000E+00  0.00000000000E+00 -0.11649615523E+03  0.11649615534E+03  0.50400001928E-02 0.  1.
    10030    2    1    2    0    0  0.00000000000E+00  0.00000000000E+00  0.41591005729E+03  0.64890236788E+03  0.49808945711E+03 0.  0.
        2    1    3    3  502    0  0.19971757311E+03  0.10140078217E+03  0.66112856925E+02  0.23353829984E+03  0.25500000920E-02 0.  1.
       -2    1    3    3    0  502 -0.19971757311E+03 -0.10140078217E+03  0.34979720037E+03  0.41536406805E+03  0.25500000920E-02 0. -1.
</event>
<event>
 5   0  0.3117389E-01  0.4916088E+03  0.7818609E-02  0.1015993E+00
        2   -1    0    0  501    0  0.00000000000E+00  0.00000000000E+00  0.16668038528E+04  0.16668038528E+04  0.25500000920E-02 0.  1.
       -2   -1    0    0    0  501  0.00000000000E+00  0.00000000000E+00 -0.36248894177E+02  0.36248894267E+02  0.25500000920E-02 0. -1.
    10030    2    1    2    0    0  0.00000000000E+00  0.00000000000E+00  0.16305549586E+04  0.17030527470E+04  0.49160877352E+03 0.  0.
        4    1    3    3  502    0 -0.15392130439E+03 -0.13384754029E+03  0.12904128052E+04  0.13064355142E+04  0.12699999809E+01 0.  1.
       -4    1    3    3    0  502  0.15392130439E+03  0.13384754029E+03  0.34014215340E+03  0.39661723287E+03  0.12699999809E+01 0. -1.
</event>
<event>
 5   0  0.3329246E-01  0.5097675E+03  0.7818609E-02  0.1011260E+00
       -2   -1    0    0    0  501  0.00000000000E+00  0.00000000000E+00  0.61456664415E+02  0.61456664468E+02  0.25500000920E-02 0. -1.
        2   -1    0    0  501    0  0.00000000000E+00  0.00000000000E+00 -0.10570981025E+04  0.10570981025E+04  0.25500000920E-02 0.  1.
    10030    2    1    2    0    0  0.00000000000E+00  0.00000000000E+00 -0.99564143807E+03  0.11185547670E+04  0.50976748962E+03 0.  0.
        2    1    3    3  502    0  0.38915283591E+02 -0.64717451258E+02 -0.10319874611E+04  0.10347467650E+04  0.25500000920E-02 0.  1.
       -2    1    3    3    0  502 -0.38915283591E+02  0.64717451258E+02  0.36346023037E+02  0.83808001953E+02  0.25500000920E-02 0. -1.
</event>
<event>
 5   0  0.3117389E-01  0.4970398E+03  0.7818609E-02  0.1014554E+00
        2   -1    0    0  501    0  0.00000000000E+00  0.00000000000E+00  0.97573664716E+03  0.97573664716E+03  0.25500000920E-02 0. -1.
       -2   -1    0    0    0  501  0.00000000000E+00  0.00000000000E+00 -0.63297973073E+02  0.63297973124E+02  0.25500000920E-02 0.  1.
    10030    2    1    2    0    0  0.00000000000E+00  0.00000000000E+00  0.91243867408E+03  0.10390346203E+04  0.49703984567E+03 0.  0.
        4    1    3    3  502    0 -0.17833986569E+03  0.17048898169E+03  0.39389255734E+03  0.46478442336E+03  0.12699999809E+01 0.  1.
       -4    1    3    3    0  502  0.17833986569E+03 -0.17048898169E+03  0.51854611674E+03  0.57425019692E+03  0.12699999809E+01 0. -1.
</event>
<event>
 5   0  0.1292375E-01  0.4928319E+03  0.7818609E-02  0.1015667E+00
        4   -1    0    0  501    0  0.00000000000E+00  0.00000000000E+00  0.33214820284E+03  0.33215063082E+03  0.12699999809E+01 0.  1.
       -4   -1    0    0    0  501  0.00000000000E+00  0.00000000000E+00 -0.18280716610E+03  0.18281157752E+03  0.12699999809E+01 0. -1.
    10030    2    1    2    0    0  0.00000000000E+00  0.00000000000E+00  0.14934103675E+03  0.51496220834E+03  0.49283194982E+03 0.  0.
        3    1    3    3  502    0  0.14804531284E+03 -0.19593353932E+03  0.53423834462E+02  0.25131948347E+03  0.10100000352E+00 0. -1.
       -3    1    3    3    0  502 -0.14804531284E+03  0.19593353932E+03  0.95917202284E+02  0.26364272487E+03  0.10100000352E+00 0.  1.
</event>
<event>
 5   0  0.3111146E-01  0.5506568E+03  0.7818609E-02  0.1001342E+00
       -2   -1    0    0    0  501  0.00000000000E+00  0.00000000000E+00  0.27122320509E+03  0.27122320510E+03  0.25500000920E-02 0. -1.
        2   -1    0    0  501    0  0.00000000000E+00  0.00000000000E+00 -0.27949573429E+03  0.27949573430E+03  0.25500000920E-02 0.  1.
    10030    2    1    2    0    0  0.00000000000E+00  0.00000000000E+00 -0.82725291973E+01  0.55071893940E+03  0.55065680371E+03 0.  0.
        1    1    3    3  502    0 -0.67072439139E+01  0.78233520950E+02  0.25978791981E+03  0.27139497826E+03  0.50400001928E-02 0. -1.
       -1    1    3    3    0  502  0.67072439139E+01 -0.78233520950E+02 -0.26806044901E+03  0.27932396114E+03  0.50400001928E-02 0.  1.
</event>
<event>
 5   0  0.2013450E-01  0.4986126E+03  0.7818609E-02  0.1014142E+00
       -1   -1    0    0    0  501  0.00000000000E+00  0.00000000000E+00  0.48522075497E+02  0.48522075759E+02  0.50400001928E-02 0. -1.
        1   -1    0    0  501    0  0.00000000000E+00  0.00000000000E+00 -0.12809349824E+04  0.12809349824E+04  0.50400001928E-02 0.  1.
    10030    2    1    2    0    0  0.00000000000E+00  0.00000000000E+00 -0.12324129069E+04  0.13294570582E+04  0.49861257146E+03 0.  0.
        4    1    3    3  502    0  0.18588198072E+03 -0.13475862113E+03 -0.35714820779E+03  0.42458032450E+03  0.12699999809E+01 0. -1.
       -4    1    3    3    0  502 -0.18588198072E+03  0.13475862113E+03 -0.87526469914E+03  0.90487673369E+03  0.12699999809E+01 0.  1.
</event>
<event>
 5   0  0.2000612E-01  0.4823247E+03  0.7818609E-02  0.1018498E+00
       -1   -1    0    0    0  501  0.00000000000E+00  0.00000000000E+00  0.32798792060E+03  0.32798792064E+03  0.50400001928E-02 0.  1.
        1   -1    0    0  501    0  0.00000000000E+00  0.00000000000E+00 -0.17732141854E+03  0.17732141861E+03  0.50400001928E-02 0. -1.
    10030    2    1    2    0    0  0.00000000000E+00  0.00000000000E+00  0.15066650206E+03  0.50530933925E+03  0.48232471789E+03 0.  0.
        2    1    3    3  502    0 -0.38107135635E+02 -0.81979257311E+02 -0.15889771256E+03  0.18281475728E+03  0.25500000920E-02 0. -1.
       -2    1    3    3    0  502  0.38107135635E+02  0.81979257311E+02  0.30956421462E+03  0.32249458196E+03  0.25500000920E-02 0.  1.
</event>
<event>
 5   0  0.2013450E-01  0.4902439E+03  0.7818609E-02  0.1016357E+00
        1   -1    0    0  501    0  0.00000000000E+00  0.00000000000E+00  0.42696265433E+02  0.42696265731E+02  0.50400001928E-02 0.  1.
       -1   -1    0    0    0  501  0.00000000000E+00  0.00000000000E+00 -0.14072607500E+04  0.14072607501E+04  0.50400001928E-02 0. -1.
    10030    2    1    2    0    0  0.00000000000E+00  0.00000000000E+00 -0.13645644846E+04  0.14499570158E+04  0.49024393414E+03 0.  0.
        4    1    3    3  502    0  0.80245722139E+02 -0.15497962907E+03 -0.17321770468E+03  0.24589438274E+03  0.12699999809E+01 0.  1.
       -4    1    3    3    0  502 -0.80245722139E+02  0.15497962907E+03 -0.11913467799E+04  0.12040626330E+04  0.12699999809E+01 0. -1.
</event>
<event>
 5   0  0.3111146E-01  0.4773014E+03  0.7818609E-02  0.1019879E+00
        2   -1    0    0  501    0  0.00000000000E+00  0.00000000000E+00  0.68052817542E+03  0.68052817543E+03  0.25500000920E-02 0.  1.
       -2   -1    0    0    0  501  0.00000000000E+00  0.00000000000E+00 -0.83691096584E+02  0.83691096623E+02  0.25500000920E-02 0. -1.
    10030    2    1    2    0    0  0.00000000000E+00  0.00000000000E+00  0.59683707884E+03  0.76421927205E+03  0.47730136926E+03 0.  0.
        1    1    3    3  502    0  0.88759957601E+02  0.78511666236E+02 -0.33256931716E+02  0.12307898009E+03  0.50400001928E-02 0. -1.
       -1    1    3    3    0  502 -0.88759957601E+02 -0.78511666236E+02  0.63009401055E+03  0.64114029196E+03  0.50400001928E-02 0.  1.
</event>
<event>
 5   0  0.1967161E-01  0.4826643E+03  0.7818609E-02  0.1018406E+00
        1   -1    0    0  501    0  0.00000000000E+00  0.00000000000E+00  0.19209834302E+03  0.19209834309E+03  0.50400001928E-02 0.  1.
       -1   -1    0    0    0  501  0.00000000000E+00  0.00000000000E+00 -0.30318430769E+03  0.30318430773E+03  0.50400001928E-02 0. -1.
    10030    2    1    2    0    0  0.00000000000E+00  0.00000000000E+00 -0.11108596467E+03  0.49528265082E+03  0.48266428567E+03 0.  0.
        1    1    3    3  502    0  0.23454206919E+03 -0.49266646018E+02 -0.26446467367E+02  0.24111532571E+03  0.50400001928E-02 0.  1.
       -1    1    3    3    0  502 -0.23454206919E+03  0.49266646018E+02 -0.84639497299E+02  0.25416732512E+03  0.50400001928E-02 0. -1.
</event>
<event>
 5   0  0.1984680E-01  0.5030243E+03  0.7818609E-02  0.1012993E+00
        1   -1    0    0  501    0  0.00000000000E+00  0.00000000000E+00  0.29906525187E+03  0.29906525191E+03  0.50400001928E-02 0. -1.
       -1   -1    0    0    0  501  0.00000000000E+00  0.00000000000E+00 -0.21152029819E+03  0.21152029825E+03  0.50400001928E-02 0.  1.
    10030    2    1    2    0    0  0.00000000000E+00  0.00000000000E+00  0.87544953682E+02  0.51058555016E+03  0.50302433850E+03 0.  0.
        5    1    3    3  502    0 -0.24822895646E+03  0.31376158435E+02  0.18210542520E+02  0.25090992806E+03  0.46999998093E+01 0. -1.
       -5    1    3    3    0  502  0.24822895646E+03 -0.31376158435E+02  0.69334411162E+02  0.25967562210E+03  0.46999998093E+01 0.  1.
</event>
<event>
 5   0  0.1984297E-01  0.4975619E+03  0.7818609E-02  0.1014417E+00
        1   -1    0    0  501    0  0.00000000000E+00  0.00000000000E+00  0.13124015502E+04  0.13124015502E+04  0.50400001928E-02 0.  1.
       -1   -1    0    0    0  501  0.00000000000E+00  0.00000000000E+00 -0.47159317897E+02  0.47159318166E+02  0.50400001928E-02 0. -1.
    10030    2    1    2    0    0  0.00000000000E+00  0.00000000000E+00  0.12652422323E+04  0.13595608684E+04  0.49756190410E+03 0.  0.
        3    1    3    3  502    0 -0.14203963770E+03  0.11299180975E+03  0.16770735665E+03  0.24711975927E+03  0.10100000352E+00 0. -1.
       -3    1    3    3    0  502  0.14203963770E+03 -0.11299180975E+03  0.10975348756E+04  0.11124411091E+04  0.10100000352E+00 0.  1.
</event>
<event>
 5   0  0.3329246E-01  0.5078139E+03  0.7818609E-02  0.1011759E+00
       -2   -1    0    0    0  501  0.00000000000E+00  0.00000000000E+00  0.49479734410E+02  0.49479734476E+02  0.25500000920E-02 0.  1.
        2   -1    0    0  501    0  0.00000000000E+00  0.00000000000E+00 -0.13029323072E+04  0.13029323072E+04  0.25500000920E-02 0. -1.
    10030    2    1    2    0    0  0.00000000000E+00  0.00000000000E+00 -0.12534525728E+04  0.13524120417E+04  0.50781392088E+03 0.  0.
        2    1    3    3  502    0  0.22758502230E+03 -0.96746333596E+02 -0.78003870834E+03  0.81830017840E+03  0.25500000920E-02 0. -1.
       -2    1    3    3    0  502 -0.22758502230E+03  0.96746333596E+02 -0.47341386444E+03  0.53411186327E+03  0.25500000920E-02 0.  1.
</event>
<event>
 5   0  0.3117389E-01  0.5144443E+03  0.7818609E-02  0.1010076E+00
        2   -1    0    0  501    0  0.00000000000E+00  0.00000000000E+00  0.11389580452E+04  0.11389580452E+04  0.25500000920E-02 0. -1.
       -2   -1    0    0    0  501  0.00000000000E+00  0.00000000000E+00 -0.58091015442E+02  0.58091015498E+02  0.25500000920E-02 0.  1.
    10030    2    1    2    0    0  0.00000000000E+00  0.00000000000E+00  0.10808670297E+04  0.11970490607E+04  0.51444428046E+03 0.  0.
        4    1    3    3  502    0  0.10777395046E+03 -0.15028498187E+03  0.95642317782E+03  0.97413947058E+03  0.12699999809E+01 0. -1.
       -4    1    3    3    0  502 -0.10777395046E+03  0.15028498187E+03  0.12444385190E+03  0.22290959008E+03  0.12699999809E+01 0.  1.
</event>
<event>
 5   0  0.1292375E-01  0.5048480E+03  0.7818609E-02  0.1012521E+00
        3   -1    0    0  501    0  0.00000000000E+00  0.00000000000E+00  0.19057543246E+03  0.19057545923E+03  0.10100000352E+00 0. -1.
       -3   -1    0    0    0  501  0.00000000000E+00  0.00000000000E+00 -0.33434455523E+03  0.33434457049E+03  0.10100000352E+00 0.  1.
    10030    2    1    2    0    0  0.00000000000E+00  0.00000000000E+00 -0.14376912277E+03  0.52492002971E+03  0.50484797408E+03 0.  0.
        1    1    3    3  502    0  0.19124270154E+03  0.14190242661E+03  0.15156337036E+02  0.23862058618E+03  0.50400001928E-02 0. -1.
       -1    1    3    3    0  502 -0.19124270154E+03 -0.14190242661E+03 -0.15892545981E+03  0.28629944354E+03  0.50400001928E-02 0.  1.
</event>
<event>
 5   0  0.3117389E-01  0.4996987E+03  0.7818609E-02  0.1013858E+00
       -2   -1    0    0    0  501  0.00000000000E+00  0.00000000000E+00  0.56183402591E+02  0.56183402648E+02  0.25500000920E-02 0.  1.
        2   -1    0    0  501    0  0.00000000000E+00  0.00000000000E+00 -0.11110876855E+04  0.11110876855E+04  0.25500000920E-02 0. -1.
    10030    2    1    2    0    0  0.00000000000E+00  0.00000000000E+00 -0.10549042830E+04  0.11672710882E+04  0.49969865634E+03 0.  0.
        4    1    3    3  502    0 -0.21155609463E+03 -0.10522600975E+03 -0.71714767436E+03  0.75507012525E+03  0.12699999809E+01 0.  1.
       -4    1    3    3    0  502  0.21155609463E+03  0.10522600975E+03 -0.33775660859E+03  0.41220096294E+03  0.12699999809E+01 0. -1.
</event>
<event>
 5   0  0.1292375E-01  0.5002839E+03  0.7818609E-02  0.1013705E+00
        3   -1    0    0  501    0  0.00000000000E+00  0.00000000000E+00  0.17292671616E+03  0.17292674566E+03  0.10100000352E+00 0. -1.
       -3   -1    0    0    0  501  0.00000000000E+00  0.00000000000E+00 -0.36183519239E+03  0.36183520648E+03  0.10100000352E+00 0.  1.
    10030    2    1    2    0    0  0.00000000000E+00  0.00000000000E+00 -0.18890847623E+03  0.53476195214E+03  0.50028385249E+03 0.  0.
        1    1    3    3  502    0  0.23608584607E+03 -0.74205839325E+02 -0.13340669594E+03  0.28114120980E+03  0.50400001928E-02 0. -1.
       -1    1    3    3    0  502 -0.23608584607E+03  0.74205839325E+02 -0.55501780286E+02  0.25362074234E+03  0.50400001928E-02 0.  1.
</event>
<event>
 5   0  0.1984680E-01  0.3476336E+03  0.7818609E-02  0.1063591E+00
       -1   -1    0    0    0  501  0.00000000000E+00  0.00000000000E+00  0.68309388065E+02  0.68309388251E+02  0.50400001928E-02 0.  1.
        1   -1    0    0  501    0  0.00000000000E+00  0.00000000000E+00 -0.44228595735E+03  0.44228595738E+03  0.50400001928E-02 0. -1.
    10030    2    1    2    0    0  0.00000000000E+00  0.00000000000E+00 -0.37397656928E+03  0.51059534563E+03  0.34763361835E+03 0.  0.
        5    1    3    3  502    0  0.67807501258E+02  0.42450378862E+02 -0.41353358312E+03  0.42122678721E+03  0.46999998093E+01 0. -1.
       -5    1    3    3    0  502 -0.67807501258E+02 -0.42450378862E+02  0.39557013839E+02  0.89368558422E+02  0.46999998093E+01 0.  1.
</event>
<event>
 5   0  0.1967161E-01  0.5004473E+03  0.7818609E-02  0.1013662E+00
        1   -1    0    0  501    0  0.00000000000E+00  0.00000000000E+00  0.65843865441E+03  0.65843865443E+03  0.50400001928E-02 0.  1.
       -1   -1    0    0    0  501  0.00000000000E+00  0.00000000000E+00 -0.95091435070E+02  0.95091435204E+02  0.50400001928E-02 0. -1.
    10030    2    1    2    0    0  0.00000000000E+00  0.00000000000E+00  0.56334721934E+03  0.75353008963E+03  0.50044730636E+03 0.  0.
        1    1    3    3  502    0 -0.11849382279E+03 -0.19702611711E+03  0.13298262763E+03  0.26560206351E+03  0.50400001928E-02 0. -1.
       -1    1    3    3    0  502  0.11849382279E+03  0.19702611711E+03  0.43036459171E+03  0.48792802613E+03  0.50400001928E-02 0.  1.
</event>
<event>
 5   0  0.2000612E-01  0.5175348E+03  0.7818609E-02  0.1009301E+00
       -1   -1    0    0    0  501  0.00000000000E+00  0.00000000000E+00  0.68066561162E+02  0.68066561349E+02  0.50400001928E-02 0.  1.
        1   -1    0    0  501    0  0.00000000000E+00  0.00000000000E+00 -0.98375119266E+03  0.98375119267E+03  0.50400001928E-02 0. -1.
    10030    2    1    2    0    0  0.00000000000E+00  0.00000000000E+00 -0.91568463150E+03  0.10518177540E+04  0.51753477498E+03 0.  0.
        2    1    3    3  502    0 -0.19894051819E+01  0.43800210073E+02 -0.97614687868E+03  0.97713107866E+03  0.25500000920E-02 0. -1.
       -2    1    3    3    0  502  0.19894051819E+01 -0.43800210073E+02  0.60462247180E+02  0.74686675357E+02  0.25500000920E-02 0.  1.
</event>
<event>
 5   0  0.3187123E-01  0.5041740E+03  0.7818609E-02  0.1012695E+00
       -2   -1    0    0    0  501  0.00000000000E+00  0.00000000000E+00  0.85251256201E+02  0.85251256239E+02  0.25500000920E-02 0. -1.
        2   -1    0    0  501    0  0.00000000000E+00  0.00000000000E+00 -0.74541851520E+03  0.74541851520E+03  0.25500000920E-02 0.  1.
    10030    2    1    2    0    0  0.00000000000E+00  0.00000000000E+00 -0.66016725900E+03  0.83066977144E+03  0.50417403675E+03 0.  0.
        5    1    3    3  502    0  0.24886103171E+02  0.14120928312E+03 -0.67160067759E+03  0.68675245897E+03  0.46999998093E+01 0.  1.
       -5    1    3    3    0  502 -0.24886103171E+02 -0.14120928312E+03  0.11433418592E+02  0.14391731247E+03  0.46999998093E+01 0. -1.
</event>
<event>
 5   0  0.1984297E-01  0.4999946E+03  0.7818609E-02  0.1013780E+00
        1   -1    0    0  501    0  0.00000000000E+00  0.00000000000E+00  0.73022045721E+02  0.73022045895E+02  0.50400001928E-02 0.  1.
       -1   -1    0    0    0  501  0.00000000000E+00  0.00000000000E+00 -0.85588737107E+03  0.85588737108E+03  0.50400001928E-02 0. -1.
    10030    2    1    2    0    0  0.00000000000E+00  0.00000000000E+00 -0.78286532535E+03  0.92890941698E+03  0.49999458729E+03 0.  0.
        3    1    3    3  502    0 -0.22013289963E+03  0.10784669394E+03 -0.48262272877E+03  0.54130777883E+03  0.10100000352E+00 0. -1.
       -3    1    3    3    0  502  0.22013289963E+03 -0.10784669394E+03 -0.30024259657E+03  0.38760163815E+03  0.10100000352E+00 0.  1.
</event>
<event>
 5   0  0.2000612E-01  0.4269953E+03  0.7818609E-02  0.1034813E+00
       -1   -1    0    0    0  501  0.00000000000E+00  0.00000000000E+00  0.70277021975E+02  0.70277022155E+02  0.50400001928E-02 0.  1.
        1   -1    0    0  501    0  0.00000000000E+00  0.00000000000E+00 -0.64859390469E+03  0.64859390471E+03  0.50400001928E-02 0. -1.
    10030    2    1    2    0    0  0.00000000000E+00  0.00000000000E+00 -0.57831688272E+03  0.71887092687E+03  0.42699530754E+03 0.  0.
        2    1    3    3  502    0  0.44396299531E+01  0.14520469398E+03 -0.55255379300E+03  0.57133160917E+03  0.25500000920E-02 0. -1.
       -2    1    3    3    0  502 -0.44396299531E+01 -0.14520469398E+03 -0.25763089719E+02  0.14753931770E+03  0.25500000920E-02 0.  1.
</event>
<event>
 5   0  0.3178149E-01  0.4977794E+03  0.7818609E-02  0.1014360E+00
       -2   -1    0    0    0  501  0.00000000000E+00  0.00000000000E+00  0.58854842561E+02  0.58854842616E+02  0.25500000920E-02 0. -1.
        2   -1    0    0  501    0  0.00000000000E+00  0.00000000000E+00 -0.10525232842E+04  0.10525232842E+04  0.25500000920E-02 0.  1.
    10030    2    1    2    0    0  0.00000000000E+00  0.00000000000E+00 -0.99366844160E+03  0.11113781268E+04  0.49777943796E+03 0.  0.
        3    1    3    3  502    0  0.24323633645E+03 -0.13580266520E+02 -0.38303927215E+03  0.45394650920E+03  0.10100000352E+00 0. -1.
       -3    1    3    3    0  502 -0.24323633645E+03  0.13580266520E+02 -0.61062916945E+03  0.65743161758E+03  0.10100000352E+00 0.  1.
</event>
<event>
 5   0  0.1984297E-01  0.5733492E+03  0.7818609E-02  0.9962295E-01
       -1   -1    0    0    0  501  0.00000000000E+00  0.00000000000E+00  0.20728657263E+03  0.20728657269E+03  0.50400001928E-02 0. -1.
        1   -1    0    0  501    0  0.00000000000E+00  0.00000000000E+00 -0.39646723572E+03  0.39646723576E+03  0.50400001928E-02 0.  1.
    10030    2    1    2    0    0  0.00000000000E+00  0.00000000000E+00 -0.18918066310E+03  0.60375380845E+03  0.57334922859E+03 0.  0.
        3    1    3    3  502    0  0.27251729472E+03  0.86658051593E+02 -0.11583520270E+03  0.30853378780E+03  0.10100000352E+00 0.  1.
       -3    1    3    3    0  502 -0.27251729472E+03 -0.86658051593E+02 -0.73345460396E+02  0.29522002065E+03  0.10100000352E+00 0. -1.
</event>
<event>
 5   0  0.1984297E-01  0.5024307E+03  0.7818609E-02  0.1013146E+00
       -1   -1    0    0    0  501  0.00000000000E+00  0.00000000000E+00  0.89036883153E+03  0.89036883154E+03  0.50400001928E-02 0.  1.
        1   -1    0    0  501    0  0.00000000000E+00  0.00000000000E+00 -0.70879772675E+02  0.70879772854E+02  0.50400001928E-02 0. -1.
    10030    2    1    2    0    0  0.00000000000E+00  0.00000000000E+00  0.81948905885E+03  0.96124860440E+03  0.50243065379E+03 0.  0.
        3    1    3    3  502    0 -0.54168009000E+02 -0.56465584980E+01 -0.59449419905E+02  0.80624441393E+02  0.10100000352E+00 0. -1.
       -3    1    3    3    0  502  0.54168009000E+02  0.56465584980E+01  0.87893847876E+03  0.88062416300E+03  0.10100000352E+00 0.  1.
</event>
<event>
 5   0  0.1967161E-01  0.4679339E+03  0.7818609E-02  0.1022505E+00
        1   -1    0    0  501    0  0.00000000000E+00  0.00000000000E+00  0.83996635623E+03  0.83996635624E+03  0.50400001928E-02 0.  1.
       -1   -1    0    0    0  501  0.00000000000E+00  0.00000000000E+00 -0.65169911071E+02  0.65169911265E+02  0.50400001928E-02 0. -1.
    10030    2    1    2    0    0  0.00000000000E+00  0.00000000000E+00  0.77479644516E+03  0.90513626751E+03  0.46793389633E+03 0.  0.
        1    1    3    3  502    0  0.12061318626E+03 -0.43706266002E+02  0.89285803560E+01  0.12859820357E+03  0.50400001928E-02 0. -1.
       -1    1    3    3    0  502 -0.12061318626E+03  0.43706266002E+02  0.76586786480E+03  0.77653806394E+03  0.50400001928E-02 0.  1.
</event>
<event>
 5   0  0.1292375E-01  0.4950230E+03  0.7818609E-02  0.1015086E+00
        4   -1    0    0  501    0  0.00000000000E+00  0.00000000000E+00  0.52213465982E+02  0.52228908948E+02  0.12699999809E+01 0. -1.
       -4   -1    0    0    0  501  0.00000000000E+00  0.00000000000E+00 -0.11731086112E+04  0.11731092987E+04  0.12699999809E+01 0.  1.
    10030    2    1    2    0    0  0.00000000000E+00  0.00000000000E+00 -0.11208951453E+04  0.12253382076E+04  0.49502302616E+03 0.  0.
        2    1    3    3  502    0 -0.22051483719E+02  0.35249283076E+02  0.43515069178E+02  0.60185888244E+02  0.25500000920E-02 0. -1.
       -2    1    3    3    0  502  0.22051483719E+02 -0.35249283076E+02 -0.11644102144E+04  0.11651523194E+04  0.25500000920E-02 0.  1.
</event>
<event>
 5   0  0.2013450E-01  0.5020113E+03  0.7818609E-02  0.1013255E+00
        1   -1    0    0  501    0  0.00000000000E+00  0.00000000000E+00  0.80337037628E+03  0.80337037630E+03  0.50400001928E-02 0.  1.
       -1   -1    0    0    0  501  0.00000000000E+00  0.00000000000E+00 -0.78424410707E+02  0.78424410869E+02  0.50400001928E-02 0. -1.
    10030    2    1    2    0    0  0.00000000000E+00  0.00000000000E+00  0.72494596557E+03  0.88179478717E+03  0.50201134815E+03 0.  0.
        4    1    3    3  502    0 -0.58438356281E+02  0.22070102953E+03  0.54567637133E+03  0.59151356793E+03  0.12699999809E+01 0.  1.
       -4    1    3    3    0  502  0.58438356281E+02 -0.22070102953E+03  0.17926959424E+03  0.29028121923E+03  0.12699999809E+01 0. -1.
</event>
<event>
 5   0  0.2000612E-01  0.5051538E+03  0.7818609E-02  0.1012442E+00
       -1   -1    0    0    0  501  0.00000000000E+00  0.00000000000E+00  0.16213750832E+03  0.16213750840E+03  0.50400001928E-02 0. -1.
        1   -1    0    0  501    0  0.00000000000E+00  0.00000000000E+00 -0.39346286121E+03  0.39346286124E+03  0.50400001928E-02 0.  1.
    10030    2    1    2    0    0  0.00000000000E+00  0.00000000000E+00 -0.23132535288E+03  0.55560036964E+03  0.50515379030E+03 0.  0.
        2    1    3    3  502    0 -0.17564884487E+03  0.49765148930E+02 -0.30763854339E+03  0.35772973057E+03  0.25500000920E-02 0.  1.
       -2    1    3    3    0  502  0.17564884487E+03 -0.49765148930E+02  0.76313190502E+02  0.19787063907E+03  0.25500000920E-02 0. -1.
</event>
<event>
 5   0  0.3178149E-01  0.4087176E+03  0.7818609E-02  0.1040802E+00
        2   -1    0    0  501    0  0.00000000000E+00  0.00000000000E+00  0.11338103671E+04  0.11338103671E+04  0.25500000920E-02 0. -1.
       -2   -1    0    0    0  501  0.00000000000E+00  0.00000000000E+00 -0.36833784328E+02  0.36833784416E+02  0.25500000920E-02 0.  1.
    10030    2    1    2    0    0  0.00000000000E+00  0.00000000000E+00  0.10969765828E+04  0.11706441516E+04  0.40871763645E+03 0.  0.
        3    1    3    3  502    0  0.50230079128E+02  0.11176685583E+02 -0.17973497817E+02  0.54507210299E+02  0.10100000352E+00 0.  1.
       -3    1    3    3    0  502 -0.50230079128E+02 -0.11176685583E+02  0.11149500806E+04  0.11161369413E+04  0.10100000352E+00 0. -1.
</event>
<event>
 5   0  0.3117389E-01  0.5136043E+03  0.7818609E-02  0.1010288E+00
        2   -1    0    0  501    0  0.00000000000E+00  0.00000000000E+00  0.61328313007E+03  0.61328313008E+03  0.25500000920E-02 0.  1.
       -2   -1    0    0    0  501  0.00000000000E+00  0.00000000000E+00 -0.10753164582E+03  0.10753164585E+03  0.25500000920E-02 0. -1.
    10030    2    1    2    0    0  0.00000000000E+00  0.00000000000E+00  0.50575148425E+03  0.72081477593E+03  0.51360430038E+03 0.  0.
        4    1    3    3  502    0  0.12223786300E+03  0.17725867883E+03  0.44927263321E+03  0.49820703149E+03  0.12699999809E+01 0.  1.
       -4    1    3    3    0  502 -0.12223786300E+03 -0.17725867883E+03  0.56478851040E+02  0.22260774444E+03  0.12699999809E+01 0. -1.
</event>
<event>
 5   0  0.3117389E-01  0.5217186E+03  0.7818609E-02  0.1008261E+00
        2   -1    0    0  501    0  0.00000000000E+00  0.00000000000E+00  0.24179660237E+03  0.24179660239E+03  0.25500000920E-02 0. -1.
       -2   -1    0    0    0  501  0.00000000000E+00  0.00000000000E+00 -0.28142484415E+03  0.28142484416E+03  0.25500000920E-02 0.  1.
    10030    2    1    2    0    0  0.00000000000E+00  0.00000000000E+00 -0.39628241775E+02  0.52322144655E+03  0.52171858754E+03 0.  0.
        4    1    3    3  502    0  0.25070355562E+02 -0.14695180375E+03 -0.23449289412E+03  0.27787026765E+03  0.12699999809E+01 0.  1.
       -4    1    3    3    0  502 -0.25070355562E+02  0.14695180375E+03  0.19486465234E+03  0.24535117890E+03  0.12699999809E+01 0. -1.
</event>
<event>
 5   0  0.1984680E-01  0.5031765E+03  0.7818609E-02  0.1012953E+00
       -1   -1    0    0    0  501  0.00000000000E+00  0.00000000000E+00  0.24150310378E+03  0.24150310383E+03  0.50400001928E-02 0.  1.
        1   -1    0    0  501    0  0.00000000000E+00  0.00000000000E+00 -0.26209451650E+03  0.26209451655E+03  0.50400001928E-02 0. -1.
    10030    2    1    2    0    0  0.00000000000E+00  0.00000000000E+00 -0.20591412720E+02  0.50359762038E+03  0.50317646703E+03 0.  0.
        5    1    3    3  502    0 -0.61039488795E+02 -0.20282024236E+03 -0.14610260852E+03  0.25735176727E+03  0.46999998093E+01 0. -1.
       -5    1    3    3    0  502  0.61039488795E+02  0.20282024236E+03  0.12551119580E+03  0.24624585311E+03  0.46999998093E+01 0.  1.
</event>
<event>
 5   0  0.1984297E-01  0.5041654E+03  0.7818609E-02  0.1012697E+00
        1   -1    0    0  501    0  0.00000000000E+00  0.00000000000E+00  0.91568927290E+03  0.91568927291E+03  0.50400001928E-02 0.  1.
       -1   -1    0    0    0  501  0.00000000000E+00  0.00000000000E+00 -0.69396554047E+02  0.69396554230E+02  0.50400001928E-02 0. -1.
    10030    2    1    2    0    0  0.00000000000E+00  0.00000000000E+00  0.84629271885E+03  0.98508582714E+03  0.50416537055E+03 0.  0.
        3    1    3    3  502    0 -0.25463399364E+02 -0.16129839396E+03  0.47916679776E+02  0.17018100658E+03  0.10100000352E+00 0. -1.
       -3    1    3    3    0  502  0.25463399364E+02  0.16129839396E+03  0.79837603908E+03  0.81490482056E+03  0.10100000352E+00 0.  1.
</event>
<event>
 5   0  0.3117389E-01  0.5035127E+03  0.7818609E-02  0.1012866E+00
        2   -1    0    0  501    0  0.00000000000E+00  0.00000000000E+00  0.89694671593E+03  0.89694671594E+03  0.25500000920E-02 0. -1.
       -2   -1    0    0    0  501  0.00000000000E+00  0.00000000000E+00 -0.70663351300E+02  0.70663351346E+02  0.25500000920E-02 0.  1.
    10030    2    1    2    0    0  0.00000000000E+00  0.00000000000E+00  0.82628336463E+03  0.96761006728E+03  0.50351270455E+03 0.  0.
        4    1    3    3  502    0 -0.32426091627E+02  0.23125449122E+03  0.23236154675E+03  0.32942919184E+03  0.12699999809E+01 0.  1.
       -4    1    3    3    0  502  0.32426091627E+02 -0.23125449122E+03  0.59392181788E+03  0.63818087544E+03  0.12699999809E+01 0. -1.
</event>
<event>
 5   0  0.1292375E-01  0.4976631E+03  0.7818609E-02  0.1014391E+00
        3   -1    0    0  501    0  0.00000000000E+00  0.00000000000E+00  0.10282686551E+03  0.10282691511E+03  0.10100000352E+00 0.  1.
       -3   -1    0    0    0  501  0.00000000000E+00  0.00000000000E+00 -0.60214917130E+03  0.60214917977E+03  0.10100000352E+00 0. -1.
    10030    2    1    2    0    0  0.00000000000E+00  0.00000000000E+00 -0.49932230579E+03  0.70497609488E+03  0.49766306804E+03 0.  0.
        1    1    3    3  502    0 -0.43811955589E+01  0.89586204889E+02 -0.57845337289E+03  0.58536585791E+03  0.50400001928E-02 0. -1.
       -1    1    3    3    0  502  0.43811955589E+01 -0.89586204889E+02  0.79131067099E+02  0.11961023696E+03  0.50400001928E-02 0.  1.
</event>
<event>
 5   0  0.3187123E-01  0.4942012E+03  0.7818609E-02  0.1015304E+00
        2   -1    0    0  501    0  0.00000000000E+00  0.00000000000E+00  0.64938751385E+03  0.64938751385E+03  0.25500000920E-02 0.  1.
       -2   -1    0    0    0  501  0.00000000000E+00  0.00000000000E+00 -0.94025069026E+02  0.94025069060E+02  0.25500000920E-02 0. -1.
    10030    2    1    2    0    0  0.00000000000E+00  0.00000000000E+00  0.55536244482E+03  0.74341258291E+03  0.49420119720E+03 0.  0.
        5    1    3    3  502    0  0.18336703350E+03 -0.34372516604E+02  0.34046523062E+02  0.18970027571E+03  0.46999998093E+01 0. -1.
       -5    1    3    3    0  502 -0.18336703350E+03  0.34372516604E+02  0.52131592176E+03  0.55371230721E+03  0.46999998093E+01 0.  1.
</event>
<event>
 5   0  0.1984680E-01  0.5000079E+03  0.7818609E-02  0.1013777E+00
        1   -1    0    0  501    0  0.00000000000E+00  0.00000000000E+00  0.27186842873E+03  0.27186842877E+03  0.50400001928E-02 0.  1.
       -1   -1    0    0    0  501  0.00000000000E+00  0.00000000000E+00 -0.22989788156E+03  0.22989788161E+03  0.50400001928E-02 0. -1.
    10030    2    1    2    0    0  0.00000000000E+00  0.00000000000E+00  0.41970547171E+02  0.50176631039E+03  0.50000790335E+03 0.  0.
        5    1    3    3  502    0 -0.36216047310E+02  0.54157919049E+02 -0.22118310193E+03  0.23062683464E+03  0.46999998093E+01 0. -1.
       -5    1    3    3    0  502  0.36216047310E+02 -0.54157919049E+02  0.26315364910E+03  0.27113947575E+03  0.46999998093E+01 0.  1.
</event>
<event>
 5   0  0.1984297E-01  0.4949550E+03  0.7818609E-02  0.1015104E+00
        1   -1    0    0  501    0  0.00000000000E+00  0.00000000000E+00  0.60318625843E+03  0.60318625845E+03  0.50400001928E-02 0. -1.
       -1   -1    0    0    0  501  0.00000000000E+00  0.00000000000E+00 -0.10153597448E+03  0.10153597461E+03  0.50400001928E-02 0.  1.
    10030    2    1    2    0    0  0.00000000000E+00  0.00000000000E+00  0.50165028395E+03  0.70472223306E+03  0.49495496602E+03 0.  0.
        3    1    3    3  502    0  0.19573297214E+03 -0.13525769586E+03  0.34780174968E+03  0.42139305637E+03  0.10100000352E+00 0.  1.
       -3    1    3    3    0  502 -0.19573297214E+03  0.13525769586E+03  0.15384853426E+03  0.28332917669E+03  0.10100000352E+00 0. -1.
</event>
<event>
 5   0  0.3329246E-01  0.5106808E+03  0.7818609E-02  0.1011028E+00
        2   -1    0    0  501    0  0.00000000000E+00  0.00000000000E+00  0.34784369241E+03  0.34784369242E+03  0.25500000920E-02 0. -1.
       -2   -1    0    0    0  501  0.00000000000E+00  0.00000000000E+00 -0.18743682217E+03  0.18743682218E+03  0.25500000920E-02 0.  1.
    10030    2    1    2    0    0  0.00000000000E+00  0.00000000000E+00  0.16040687024E+03  0.53528051460E+03  0.51068078610E+03 0.  0.
        2    1    3    3  502    0 -0.93830725506E+02  0.18621559062E+03  0.23467355406E+03  0.31393013270E+03  0.25500000920E-02 0. -1.
       -2    1    3    3    0  502  0.93830725506E+02 -0.18621559062E+03 -0.74266683813E+02  0.22135038190E+03  0.25500000920E-02 0.  1.
</event>
<event>
 5   0  0.3187123E-01  0.4932607E+03  0.7818609E-02  0.1015553E+00
       -2   -1    0    0    0  501  0.00000000000E+00  0.00000000000E+00  0.22098961981E+03  0.22098961983E+03  0.25500000920E-02 0.  1.
        2   -1    0    0  501    0  0.00000000000E+00  0.00000000000E+00 -0.27524614807E+03  0.27524614808E+03  0.25500000920E-02 0. -1.
    10030    2    1    2    0    0  0.00000000000E+00  0.00000000000E+00 -0.54256528259E+02  0.49623576791E+03  0.49326074899E+03 0.  0.
        5    1    3    3  502    0  0.90734785095E+02 -0.18517422625E+03 -0.16315529401E+03  0.26299056115E+03  0.46999998093E+01 0. -1.
       -5    1    3    3    0  502 -0.90734785095E+02  0.18517422625E+03  0.10889876575E+03  0.23324520675E+03  0.46999998093E+01 0.  1.
</event>
<event>
 5   0  0.3111146E-01  0.4933427E+03  0.7818609E-02  0.1015531E+00
        2   -1    0    0  501    0  0.00000000000E+00  0.00000000000E+00  0.22189712907E+04  0.22189712907E+04  0.25500000920E-02 0. -1.
       -2   -1    0    0    0  501  0.00000000000E+00  0.00000000000E+00 -0.27421159945E+02  0.27421160064E+02  0.25500000920E-02 0.  1.
    10030    2    1    2    0    0  0.00000000000E+00  0.00000000000E+00  0.21915501307E+04  0.22463924507E+04  0.49334274824E+03 0.  0.
        1    1    3    3  502    0  0.17477579303E+03  0.91951728231E+02  0.42277735158E+03  0.46662874664E+03  0.50400001928E-02 0.  1.
       -1    1    3    3    0  502 -0.17477579303E+03 -0.91951728231E+02  0.17687727791E+04  0.17797637041E+04  0.50400001928E-02 0. -1.
</event>
<event>
 5   0  0.3117389E-01  0.5052282E+03  0.7818609E-02  0.1012423E+00
        2   -1    0    0  501    0  0.00000000000E+00  0.00000000000E+00  0.36942823960E+03  0.36942823961E+03  0.25500000920E-02 0.  1.
       -2   -1    0    0    0  501  0.00000000000E+00  0.00000000000E+00 -0.17273686570E+03  0.17273686572E+03  0.25500000920E-02 0. -1.
    10030    2    1    2    0    0  0.00000000000E+00  0.00000000000E+00  0.19669137390E+03  0.54216510533E+03  0.50522817109E+03 0.  0.
        4    1    3    3  502    0  0.19809529372E+03  0.15575315874E+03  0.11728451661E+03  0.27795334606E+03  0.12699999809E+01 0. -1.
       -4    1    3    3    0  502 -0.19809529372E+03 -0.15575315874E+03  0.79406857290E+02  0.26421175927E+03  0.12699999809E+01 0.  1.
</event>
<event>
 5   0  0.3187123E-01  0.4804806E+03  0.7818609E-02  0.1019003E+00
        2   -1    0    0  501    0  0.00000000000E+00  0.00000000000E+00  0.87613797390E+03  0.87613797390E+03  0.25500000920E-02 0. -1.
       -2   -1    0    0    0  501  0.00000000000E+00  0.00000000000E+00 -0.65874782474E+02  0.65874782524E+02  0.25500000920E-02 0.  1.
    10030    2    1    2    0    0  0.00000000000E+00  0.00000000000E+00  0.81026319143E+03  0.94201275643E+03  0.48048058638E+03 0.  0.
        5    1    3    3  502    0 -0.21641599815E+03  0.78720910384E+02  0.27128894921E+03  0.35588291607E+03  0.46999998093E+01 0.  1.
       -5    1    3    3    0  502  0.21641599815E+03 -0.78720910384E+02  0.53897424222E+03  0.58612984036E+03  0.46999998093E+01 0. -1.
</event>
<event>
 5   0  0.3178149E-01  0.5054114E+03  0.7818609E-02  0.1012376E+00
       -2   -1    0    0    0  501  0.00000000000E+00  0.00000000000E+00  0.32072581233E+03  0.32072581234E+03  0.25500000920E-02 0. -1.
        2   -1    0    0  501    0  0.00000000000E+00  0.00000000000E+00 -0.19911144368E+03  0.19911144369E+03  0.25500000920E-02 0.  1.
    10030    2    1    2    0    0  0.00000000000E+00  0.00000000000E+00  0.12161436865E+03  0.51983725603E+03  0.50541143447E+03 0.  0.
        3    1    3    3  502    0 -0.13607955426E+03  0.13393065396E+03 -0.10946278858E+03  0.22008447797E+03  0.10100000352E+00 0.  1.
       -3    1    3    3    0  502  0.13607955426E+03 -0.13393065396E+03  0.23107715723E+03  0.29975277806E+03  0.10100000352E+00 0. -1.
</event>
<event>
 5   0  0.2000612E-01  0.5072521E+03  0.7818609E-02  0.1011903E+00
       -1   -1    0    0    0  501  0.00000000000E+00  0.00000000000E+00  0.20695770295E+03  0.20695770301E+03  0.50400001928E-02 0. -1.
        1   -1    0    0  501    0  0.00000000000E+00  0.00000000000E+00 -0.31081793685E+03  0.31081793689E+03  0.50400001928E-02 0.  1.
    10030    2    1    2    0    0  0.00000000000E+00  0.00000000000E+00 -0.10386023390E+03  0.51777563990E+03  0.50725207253E+03 0.  0.
        2    1    3    3  502    0  0.18443625526E+03  0.65347254393E+02  0.11278420217E+03  0.22584789611E+03  0.25500000920E-02 0. -1.
       -2    1    3    3    0  502 -0.18443625526E+03 -0.65347254393E+02 -0.21664443607E+03  0.29192774379E+03  0.25500000920E-02 0.  1.
</event>
<event>
 5   0  0.3187123E-01  0.4950578E+03  0.7818609E-02  0.1015077E+00
       -2   -1    0    0    0  501  0.00000000000E+00  0.00000000000E+00  0.11111107155E+04  0.11111107155E+04  0.25500000920E-02 0.  1.
        2   -1    0    0  501    0  0.00000000000E+00  0.00000000000E+00 -0.55143514528E+02  0.55143514587E+02  0.25500000920E-02 0. -1.
    10030    2    1    2    0    0  0.00000000000E+00  0.00000000000E+00  0.10559672009E+04  0.11662542301E+04  0.49505777407E+03 0.  0.
        5    1    3    3  502    0 -0.17568699549E+03  0.17416679416E+03  0.51158291599E+03  0.56827736406E+03  0.46999998093E+01 0.  1.
       -5    1    3    3    0  502  0.17568699549E+03 -0.17416679416E+03  0.54438428494E+03  0.59797686599E+03  0.46999998093E+01 0. -1.
</event>
<event>
 5   0  0.1984680E-01  0.4943173E+03  0.7818609E-02  0.1015273E+00
        1   -1    0    0  501    0  0.00000000000E+00  0.00000000000E+00  0.19813814448E+03  0.19813814455E+03  0.50400001928E-02 0. -1.
       -1   -1    0    0    0  501  0.00000000000E+00  0.00000000000E+00 -0.30830710894E+03  0.30830710898E+03  0.50400001928E-02 0.  1.
    10030    2    1    2    0    0  0.00000000000E+00  0.00000000000E+00 -0.11016896446E+03  0.50644525352E+03  0.49431730102E+03 0.  0.
        5    1    3    3  502    0  0.15432904703E+03  0.73454012626E+02 -0.23793555569E+03  0.29299891704E+03  0.46999998093E+01 0.  1.
       -5    1    3    3    0  502 -0.15432904703E+03 -0.73454012626E+02  0.12776659123E+03  0.21344633649E+03  0.46999998093E+01 0. -1.
</event>
<event>
 5   0  0.1984297E-01  0.5306210E+03  0.7818609E-02  0.1006082E+00
       -1   -1    0    0    0  501  0.00000000000E+00  0.00000000000E+00  0.99725158416E+02  0.99725158544E+02  0.50400001928E-02 0. -1.
        1   -1    0    0  501    0  0.00000000000E+00  0.00000000000E+00 -0.70583663244E+03  0.70583663246E+03  0.50400001928E-02 0.  1.
    10030    2    1    2    0    0  0.00000000000E+00  0.00000000000E+00 -0.60611147403E+03  0.80556179100E+03  0.53062103255E+03 0.  0.
        3    1    3    3  502    0 -0.15229348977E+02  0.55219810736E+02 -0.69633691487E+03  0.69868896497E+03  0.10100000352E+00 0.  1.
       -3    1    3    3    0  502  0.15229348977E+02 -0.55219810736E+02  0.90225440841E+02  0.10687282603E+03  0.10100000352E+00 0. -1.
</event>
<event>
 5   0  0.1984680E-01  0.5043142E+03  0.7818609E-02  0.1012659E+00
        1   -1    0    0  501    0  0.00000000000E+00  0.00000000000E+00  0.11427362230E+03  0.11427362241E+03  0.50400001928E-02 0. -1.
       -1   -1    0    0    0  501  0.00000000000E+00  0.00000000000E+00 -0.55641180559E+03  0.55641180561E+03  0.50400001928E-02 0.  1.
    10030    2    1    2    0    0  0.00000000000E+00  0.00000000000E+00 -0.44213818329E+03  0.67068542802E+03  0.50431415828E+03 0.  0.
        5    1    3    3  502    0  0.11280919677E+03 -0.21847148538E+03 -0.14695917453E+03  0.28648698709E+03  0.46999998093E+01 0.  1.
       -5    1    3    3    0  502 -0.11280919677E+03  0.21847148538E+03 -0.29517900876E+03  0.38419844093E+03  0.46999998093E+01 0. -1.
</event>
<event>
 5   0  0.2013450E-01  0.4957194E+03  0.7818609E-02  0.1014902E+00
        1   -1    0    0  501    0  0.00000000000E+00  0.00000000000E+00  0.43536233785E+03  0.43536233788E+03  0.50400001928E-02 0.  1.
       -1   -1    0    0    0  501  0.00000000000E+00  0.00000000000E+00 -0.14111104828E+03  0.14111104837E+03  0.50400001928E-02 0. -1.
    10030    2    1    2    0    0  0.00000000000E+00  0.00000000000E+00  0.29425128957E+03  0.57647338624E+03  0.49571942027E+03 0.  0.
        4    1    3    3  502    0  0.63988544344E+02 -0.15120165190E+03 -0.68799871890E+02  0.17802109037E+03  0.12699999809E+01 0. -1.
       -4    1    3    3    0  502 -0.63988544344E+02  0.15120165190E+03  0.36305116146E+03  0.39845229587E+03  0.12699999809E+01 0.  1.
</event>
<event>
 5   0  0.3178149E-01  0.3923207E+03  0.7818609E-02  0.1046472E+00
        2   -1    0    0  501    0  0.00000000000E+00  0.00000000000E+00  0.28343970969E+03  0.28343970970E+03  0.25500000920E-02 0.  1.
       -2   -1    0    0    0  501  0.00000000000E+00  0.00000000000E+00 -0.13575688034E+03  0.13575688037E+03  0.25500000920E-02 0. -1.
    10030    2    1    2    0    0  0.00000000000E+00  0.00000000000E+00  0.14768282935E+03  0.41919659007E+03  0.39232074001E+03 0.  0.
        3    1    3    3  502    0  0.92672953378E+02  0.15362745241E+03 -0.10895866713E+02  0.17974537694E+03  0.10100000352E+00 0. -1.
       -3    1    3    3    0  502 -0.92672953378E+02 -0.15362745241E+03  0.15857869606E+03  0.23945121312E+03  0.10100000352E+00 0.  1.
</event>
<event>
 5   0  0.1292375E-01  0.4842431E+03  0.7818609E-02  0.1017976E+00
        4   -1    0    0  501    0  0.00000000000E+00  0.00000000000E+00  0.89567955966E+02  0.89576959291E+02  0.12699999809E+01 0.  1.
       -4   -1    0    0    0  501  0.00000000000E+00  0.00000000000E+00 -0.65446443530E+03  0.65446566753E+03  0.12699999809E+01 0. -1.
    10030    2    1    2    0    0  0.00000000000E+00  0.00000000000E+00 -0.56489647934E+03  0.74404262682E+03  0.48424311886E+03 0.  0.
        2    1    3    3  502    0  0.15011722778E+03  0.62873600318E+02 -0.55788421174E+03  0.58113945436E+03  0.25500000920E-02 0. -1.
       -2    1    3    3    0  502 -0.15011722778E+03 -0.62873600318E+02 -0.70122675913E+01  0.16290317246E+03  0.25500000920E-02 0.  1.
</event>
<event>
 5   0  0.2013450E-01  0.4158100E+03  0.7818609E-02  0.1038439E+00
       -1   -1    0    0    0  501  0.00000000000E+00  0.00000000000E+00  0.65583797778E+02  0.65583797972E+02  0.50400001928E-02 0.  1.
        1   -1    0    0  501    0  0.00000000000E+00  0.00000000000E+00 -0.65907265844E+03  0.65907265846E+03  0.50400001928E-02 0. -1.
    10030    2    1    2    0    0  0.00000000000E+00  0.00000000000E+00 -0.59348886067E+03  0.72465645643E+03  0.41580999521E+03 0.  0.
        4    1    3    3  502    0 -0.67050833880E+01 -0.16609651873E+03 -0.51434418279E+03  0.54054099100E+03  0.12699999809E+01 0.  1.
       -4    1    3    3    0  502  0.67050833880E+01  0.16609651873E+03 -0.79144677874E+02  0.18411546544E+03  0.12699999809E+01 0. -1.
</event>
<event>
 5   0  0.3117389E-01  0.5128497E+03  0.7818609E-02  0.1010478E+00
        2   -1    0    0  501    0  0.00000000000E+00  0.00000000000E+00  0.10408147117E+04  0.10408147117E+04  0.25500000920E-02 0. -1.
       -2   -1    0    0    0  501  0.00000000000E+00  0.00000000000E+00 -0.63175234372E+02  0.63175234423E+02  0.25500000920E-02 0.  1.
    10030    2    1    2    0    0  0.00000000000E+00  0.00000000000E+00  0.97763947736E+03  0.11039899462E+04  0.51284973776E+03 0.  0.
        4    1    3    3  502    0  0.10672519953E+03 -0.13653224509E+03  0.81968692437E+02  0.19170759402E+03  0.12699999809E+01 0.  1.
       -4    1    3    3    0  502 -0.10672519953E+03  0.13653224509E+03  0.89567078492E+03  0.91228235214E+03  0.12699999809E+01 0. -1.
</event>
<event>
 5   0  0.3329246E-01  0.4898618E+03  0.7818609E-02  0.1016460E+00
        2   -1    0    0  501    0  0.00000000000E+00  0.00000000000E+00  0.88030287099E+03  0.88030287099E+03  0.25500000920E-02 0.  1.
       -2   -1    0    0    0  501  0.00000000000E+00  0.00000000000E+00 -0.68148291322E+02  0.68148291370E+02  0.25500000920E-02 0. -1.
    10030    2    1    2    0    0  0.00000000000E+00  0.00000000000E+00  0.81215457967E+03  0.94845116236E+03  0.48986176225E+03 0.  0.
        2    1    3    3  502    0  0.20857264545E+03 -0.81591837326E+02  0.21410071628E+03  0.30983688139E+03  0.25500000920E-02 0. -1.
       -2    1    3    3    0  502 -0.20857264545E+03  0.81591837326E+02  0.59805386338E+03  0.63861428097E+03  0.25500000920E-02 0.  1.
</event>
<event>
 5   0  0.2013450E-01  0.5700579E+03  0.7818609E-02  0.9969551E-01
        1   -1    0    0  501    0  0.00000000000E+00  0.00000000000E+00  0.76228838207E+03  0.76228838209E+03  0.50400001928E-02 0. -1.
       -1   -1    0    0    0  501  0.00000000000E+00  0.00000000000E+00 -0.10657580130E+03  0.10657580142E+03  0.50400001928E-02 0.  1.
    10030    2    1    2    0    0  0.00000000000E+00  0.00000000000E+00  0.65571258077E+03  0.86886418351E+03  0.57005787496E+03 0.  0.
        4    1    3    3  502    0 -0.17433171431E+03  0.13622133580E+03  0.60174931876E+03  0.64113310199E+03  0.12699999809E+01 0. -1.
       -4    1    3    3    0  502  0.17433171431E+03 -0.13622133580E+03  0.53963262011E+02  0.22773108152E+03  0.12699999809E+01 0.  1.
</event>
<event>
 5   0  0.3187123E-01  0.4762872E+03  0.7818609E-02  0.1020161E+00
        2   -1    0    0  501    0  0.00000000000E+00  0.00000000000E+00  0.10315946606E+04  0.10315946606E+04  0.25500000920E-02 0.  1.
       -2   -1    0    0    0  501  0.00000000000E+00  0.00000000000E+00 -0.54975444183E+02  0.54975444243E+02  0.25500000920E-02 0. -1.
    10030    2    1    2    0    0  0.00000000000E+00  0.00000000000E+00  0.97661921639E+03  0.10865701048E+04  0.47628720208E+03 0.  0.
        5    1    3    3  502    0 -0.22495208399E+03  0.89433392412E+01  0.66512197685E+03  0.70220563762E+03  0.46999998093E+01 0.  1.
       -5    1    3    3    0  502  0.22495208399E+03 -0.89433392412E+01  0.31149723953E+03  0.38436446720E+03  0.46999998093E+01 0. -1.
</event>
<event>
 5   0  0.1292375E-01  0.5003028E+03  0.7818609E-02  0.1013700E+00
        3   -1    0    0  501    0  0.00000000000E+00  0.00000000000E+00  0.11800666910E+04  0.11800666954E+04  0.10100000352E+00 0. -1.
       -3   -1    0    0    0  501  0.00000000000E+00  0.00000000000E+00 -0.53027229396E+02  0.53027325582E+02  0.10100000352E+00 0.  1.
    10030    2    1    2    0    0  0.00000000000E+00  0.00000000000E+00  0.11270394617E+04  0.12330940210E+04  0.50030282469E+03 0.  0.
        3    1    3    3  502    0 -0.24094296760E+03 -0.16170168958E+02  0.72440092818E+03  0.76359131932E+03  0.10100000352E+00 0. -1.
       -3    1    3    3    0  502  0.24094296760E+03  0.16170168958E+02  0.40263853348E+03  0.46950270163E+03  0.10100000352E+00 0.  1.
</event>
<event>
 5   0  0.1984297E-01  0.4939287E+03  0.7818609E-02  0.1015376E+00
       -1   -1    0    0    0  501  0.00000000000E+00  0.00000000000E+00  0.24824495651E+03  0.24824495656E+03  0.50400001928E-02 0. -1.
        1   -1    0    0  501    0  0.00000000000E+00  0.00000000000E+00 -0.24569036048E+03  0.24569036053E+03  0.50400001928E-02 0.  1.
    10030    2    1    2    0    0  0.00000000000E+00  0.00000000000E+00  0.25545960310E+01  0.49393531710E+03  0.49392871096E+03 0.  0.
        3    1    3    3  502    0  0.14748126692E+03 -0.15242154344E+03 -0.12524843017E+03  0.24631327707E+03  0.10100000352E+00 0.  1.
       -3    1    3    3    0  502 -0.14748126692E+03  0.15242154344E+03  0.12780302621E+03  0.24762204003E+03  0.10100000352E+00 0. -1.
</event>
<event>
 5   0  0.3117389E-01  0.4989252E+03  0.7818609E-02  0.1014060E+00
        2   -1    0    0  501    0  0.00000000000E+00  0.00000000000E+00  0.30614923065E+03  0.30614923066E+03  0.25500000920E-02 0.  1.
       -2   -1    0    0    0  501  0.00000000000E+00  0.00000000000E+00 -0.20327205428E+03  0.20327205430E+03  0.25500000920E-02 0. -1.
    10030    2    1    2    0    0  0.00000000000E+00  0.00000000000E+00  0.10287717637E+03  0.50942128496E+03  0.49892517691E+03 0.  0.
        4    1    3    3  502    0 -0.24300524448E+03 -0.14801638586E+02 -0.41055931549E+01  0.24349354435E+03  0.12699999809E+01 0. -1.
       -4    1    3    3    0  502  0.24300524448E+03  0.14801638586E+02  0.10698276953E+03  0.26592774060E+03  0.12699999809E+01 0.  1.
</event>
<event>
 5   0  0.1292375E-01  0.5018844E+03  0.7818609E-02  0.1013288E+00
       -3   -1    0    0    0  501  0.00000000000E+00  0.00000000000E+00  0.18940717897E+03  0.18940720590E+03  0.10100000352E+00 0.  1.
        3   -1    0    0  501    0  0.00000000000E+00  0.00000000000E+00 -0.33246876113E+03  0.33246877647E+03  0.10100000352E+00 0. -1.
    10030    2    1    2    0    0  0.00000000000E+00  0.00000000000E+00 -0.14306158216E+03  0.52187598237E+03  0.50188437382E+03 0.  0.
        2    1    3    3  502    0  0.47841934260E+01 -0.52027560448E+02 -0.32675045963E+03  0.33090122156E+03  0.25500000920E-02 0. -1.
       -2    1    3    3    0  502 -0.47841934260E+01  0.52027560448E+02  0.18368887748E+03  0.19097476081E+03  0.25500000920E-02 0.  1.
</event>
<event>
 5   0  0.1292375E-01  0.4922599E+03  0.7818609E-02  0.1015819E+00
        4   -1    0    0  501    0  0.00000000000E+00  0.00000000000E+00  0.10187376044E+03  0.10188167630E+03  0.12699999809E+01 0. -1.
       -4   -1    0    0    0  501  0.00000000000E+00  0.00000000000E+00 -0.59462533243E+03  0.59462668866E+03  0.12699999809E+01 0.  1.
    10030    2    1    2    0    0  0.00000000000E+00  0.00000000000E+00 -0.49275157199E+03  0.69650836496E+03  0.49225988132E+03 0.  0.
        2    1    3    3  502    0  0.12768175786E+03 -0.12802316504E+03 -0.48266059150E+03  0.51541615096E+03  0.25500000920E-02 0.  1.
       -2    1    3    3    0  502 -0.12768175786E+03  0.12802316504E+03 -0.10090980490E+02  0.18109221400E+03  0.25500000920E-02 0. -1.
</event>
<event>
 5   0  0.1292375E-01  0.4957563E+03  0.7818609E-02  0.1014893E+00
        3   -1    0    0  501    0  0.00000000000E+00  0.00000000000E+00  0.96848172442E+02  0.96848225107E+02  0.10100000352E+00 0.  1.
       -3   -1    0    0    0  501  0.00000000000E+00  0.00000000000E+00 -0.63443181966E+03  0.63443182770E+03  0.10100000352E+00 0. -1.
    10030    2    1    2    0    0  0.00000000000E+00  0.00000000000E+00 -0.53758364722E+03  0.73128005280E+03  0.49575632913E+03 0.  0.
        5    1    3    3  502    0 -0.20142034861E+03  0.14322891515E+03 -0.29586327227E+03  0.38554097687E+03  0.46999998093E+01 0. -1.
       -5    1    3    3    0  502  0.20142034861E+03 -0.14322891515E+03 -0.24172037495E+03  0.34573907594E+03  0.46999998093E+01 0.  1.
</event>
<event>
 5   0  0.1967161E-01  0.4962788E+03  0.7818609E-02  0.1014755E+00
       -1   -1    0    0    0  501  0.00000000000E+00  0.00000000000E+00  0.59533687446E+02  0.59533687660E+02  0.50400001928E-02 0.  1.
        1   -1    0    0  501    0  0.00000000000E+00  0.00000000000E+00 -0.10342575034E+04  0.10342575034E+04  0.50400001928E-02 0. -1.
    10030    2    1    2    0    0  0.00000000000E+00  0.00000000000E+00 -0.97472381596E+03  0.10937911911E+04  0.49627880499E+03 0.  0.
        1    1    3    3  502    0 -0.74860295419E+02 -0.13740640063E+03 -0.91181411707E+03  0.92514299807E+03  0.50400001928E-02 0. -1.
       -1    1    3    3    0  502  0.74860295419E+02  0.13740640063E+03 -0.62909698892E+02  0.16864819301E+03  0.50400001928E-02 0.  1.
</event>
<event>
 5   0  0.1967161E-01  0.5094882E+03  0.7818609E-02  0.1011332E+00
       -1   -1    0    0    0  501  0.00000000000E+00  0.00000000000E+00  0.79856651929E+02  0.79856652088E+02  0.50400001928E-02 0. -1.
        1   -1    0    0  501    0  0.00000000000E+00  0.00000000000E+00 -0.81263804444E+03  0.81263804445E+03  0.50400001928E-02 0.  1.
    10030    2    1    2    0    0  0.00000000000E+00  0.00000000000E+00 -0.73278139251E+03  0.89249469654E+03  0.50948818843E+03 0.  0.
        1    1    3    3  502    0  0.14942476483E+03 -0.98478877478E+02 -0.48803625786E+02  0.18549297444E+03  0.50400001928E-02 0. -1.
       -1    1    3    3    0  502 -0.14942476483E+03  0.98478877478E+02 -0.68397776672E+03  0.70700172210E+03  0.50400001928E-02 0.  1.
</event>
<event>
 5   0  0.1984297E-01  0.4120189E+03  0.7818609E-02  0.1039696E+00
       -1   -1    0    0    0  501  0.00000000000E+00  0.00000000000E+00  0.39589508025E+02  0.39589508345E+02  0.50400001928E-02 0. -1.
        1   -1    0    0  501    0  0.00000000000E+00  0.00000000000E+00 -0.10719984055E+04  0.10719984055E+04  0.50400001928E-02 0.  1.
    10030    2    1    2    0    0  0.00000000000E+00  0.00000000000E+00 -0.10324088975E+04  0.11115879139E+04  0.41201888143E+03 0.  0.
        3    1    3    3  502    0 -0.54709584461E+02 -0.19714854207E+03 -0.45127549253E+03  0.49548992586E+03  0.10100000352E+00 0.  1.
       -3    1    3    3    0  502  0.54709584461E+02  0.19714854207E+03 -0.58113340498E+03  0.61609798803E+03  0.10100000352E+00 0. -1.
</event>
<event>
 5   0  0.3117389E-01  0.5037291E+03  0.7818609E-02  0.1012810E+00
       -2   -1    0    0    0  501  0.00000000000E+00  0.00000000000E+00  0.54003694960E+02  0.54003695021E+02  0.25500000920E-02 0. -1.
        2   -1    0    0  501    0  0.00000000000E+00  0.00000000000E+00 -0.11746555740E+04  0.11746555740E+04  0.25500000920E-02 0.  1.
    10030    2    1    2    0    0  0.00000000000E+00  0.00000000000E+00 -0.11206518790E+04  0.12286592690E+04  0.50372905948E+03 0.  0.
        4    1    3    3  502    0  0.93517626179E+02 -0.16129807169E+03 -0.97333518134E+03  0.99103259405E+03  0.12699999809E+01 0.  1.
       -4    1    3    3    0  502 -0.93517626179E+02  0.16129807169E+03 -0.14731669769E+03  0.23762667497E+03  0.12699999809E+01 0. -1.
</event>
<event>
 5   0  0.3111146E-01  0.5039858E+03  0.7818609E-02  0.1012744E+00
       -2   -1    0    0    0  501  0.00000000000E+00  0.00000000000E+00  0.58577876674E+02  0.58577876729E+02  0.25500000920E-02 0. -1.
        2   -1    0    0  501    0  0.00000000000E+00  0.00000000000E+00 -0.10840341199E+04  0.10840341199E+04  0.25500000920E-02 0.  1.
    10030    2    1    2    0    0  0.00000000000E+00  0.00000000000E+00 -0.10254562432E+04  0.11426119966E+04  0.50398578161E+03 0.  0.
        1    1    3    3  502    0  0.17159558543E+03 -0.22013377867E+02 -0.92812309044E+03  0.94410915935E+03  0.50400001928E-02 0.  1.
       -1    1    3    3    0  502 -0.17159558543E+03  0.22013377867E+02 -0.97333152763E+02  0.19850283725E+03  0.50400001928E-02 0. -1.
</event>
<event>
 5   0  0.1292375E-01  0.4929232E+03  0.7818609E-02  0.1015643E+00
       -4   -1    0    0    0  501  0.00000000000E+00  0.00000000000E+00  0.94970044008E+03  0.94970128924E+03  0.12699999809E+01 0.  1.
        4   -1    0    0  501    0  0.00000000000E+00  0.00000000000E+00 -0.63953317915E+02  0.63965926651E+02  0.12699999809E+01 0. -1.
    10030    2    1    2    0    0  0.00000000000E+00  0.00000000000E+00  0.88574712217E+03  0.10136672159E+04  0.49292317876E+03 0.  0.
        2    1    3    3  502    0  0.10388976579E+03  0.98989935763E+02  0.30808724248E+02  0.14676943930E+03  0.25500000920E-02 0. -1.
       -2    1    3    3    0  502 -0.10388976579E+03 -0.98989935763E+02  0.85493839792E+03  0.86689777659E+03  0.25500000920E-02 0.  1.
</event>
<event>
 5   0  0.1292375E-01  0.2938235E+03  0.7818609E-02  0.1088370E+00
        4   -1    0    0  501    0  0.00000000000E+00  0.00000000000E+00  0.84169809074E+02  0.84179389755E+02  0.12699999809E+01 0.  1.
       -4   -1    0    0    0  501  0.00000000000E+00  0.00000000000E+00 -0.25639702639E+03  0.25640017169E+03  0.12699999809E+01 0. -1.
    10030    2    1    2    0    0  0.00000000000E+00  0.00000000000E+00 -0.17222721731E+03  0.34057956144E+03  0.29382345599E+03 0.  0.
        5    1    3    3  502    0 -0.57546731739E+02 -0.98525219566E+02  0.21017344414E+02  0.11611487411E+03  0.46999998093E+01 0.  1.
       -5    1    3    3    0  502  0.57546731739E+02  0.98525219566E+02 -0.19324456173E+03  0.22446468733E+03  0.46999998093E+01 0. -1.
</event>
<event>
 5   0  0.1292375E-01  0.4912718E+03  0.7818609E-02  0.1016083E+00
        3   -1    0    0  501    0  0.00000000000E+00  0.00000000000E+00  0.93444397524E+03  0.93444398070E+03  0.10100000352E+00 0. -1.
       -3   -1    0    0    0  501  0.00000000000E+00  0.00000000000E+00 -0.64569904701E+02  0.64569983693E+02  0.10100000352E+00 0.  1.
    10030    2    1    2    0    0  0.00000000000E+00  0.00000000000E+00  0.86987407054E+03  0.99901396439E+03  0.49127182135E+03 0.  0.
        1    1    3    3  502    0  0.11516976378E+03  0.15821893779E+03  0.13304442461E+03  0.23663923114E+03  0.50400001928E-02 0.  1.
       -1    1    3    3    0  502 -0.11516976378E+03 -0.15821893779E+03  0.73682964592E+03  0.76237473325E+03  0.50400001928E-02 0. -1.
</event>
<event>
 5   0  0.1984680E-01  0.5209167E+03  0.7818609E-02  0.1008459E+00
        1   -1    0    0  501    0  0.00000000000E+00  0.00000000000E+00  0.57435427353E+03  0.57435427355E+03  0.50400001928E-02 0. -1.
       -1   -1    0    0    0  501  0.00000000000E+00  0.00000000000E+00 -0.11811272981E+03  0.11811272992E+03  0.50400001928E-02 0.  1.
    10030    2    1    2    0    0  0.00000000000E+00  0.00000000000E+00  0.45624154372E+03  0.69246700346E+03  0.52091669648E+03 0.  0.
        5    1    3    3  502    0  0.17601272937E+03 -0.19059775763E+03  0.19814532728E+03  0.32648376198E+03  0.46999998093E+01 0.  1.
       -5    1    3    3    0  502 -0.17601272937E+03  0.19059775763E+03  0.25809621644E+03  0.36598324149E+03  0.46999998093E+01 0. -1.
</event>
<event>
 5   0  0.3117389E-01  0.4958934E+03  0.7818609E-02  0.1014856E+00
       -2   -1    0    0    0  501  0.00000000000E+00  0.00000000000E+00  0.15422541287E+03  0.15422541289E+03  0.25500000920E-02 0. -1.
        2   -1    0    0  501    0  0.00000000000E+00  0.00000000000E+00 -0.39862154040E+03  0.39862154041E+03  0.25500000920E-02 0.  1.
    10030    2    1    2    0    0  0.00000000000E+00  0.00000000000E+00 -0.24439612753E+03  0.55284695330E+03  0.49589342265E+03 0.  0.
        4    1    3    3  502    0  0.74026261668E+02 -0.21070676976E+03 -0.21315877222E+01  0.22334589050E+03  0.12699999809E+01 0. -1.
       -4    1    3    3    0  502 -0.74026261668E+02  0.21070676976E+03 -0.24226453981E+03  0.32950106280E+03  0.12699999809E+01 0.  1.
</event>
<event>
 5   0  0.1984297E-01  0.5153239E+03  0.7818609E-02  0.1009855E+00
       -1   -1    0    0    0  501  0.00000000000E+00  0.00000000000E+00  0.13919725311E+03  0.13919725320E+03  0.50400001928E-02 0. -1.
        1   -1    0    0  501    0  0.00000000000E+00  0.00000000000E+00 -0.47694672118E+03  0.47694672120E+03  0.50400001928E-02 0.  1.
    10030    2    1    2    0    0  0.00000000000E+00  0.00000000000E+00 -0.33774946807E+03  0.61614397440E+03  0.51532387292E+03 0.  0.
        3    1    3    3  502    0  0.28696494334E+02 -0.30274850828E+01  0.13725922538E+03  0.14025961502E+03  0.10100000352E+00 0. -1.
       -3    1    3    3    0  502 -0.28696494334E+02  0.30274850828E+01 -0.47500869345E+03  0.47588435938E+03  0.10100000352E+00 0.  1.
</event>
<event>
 5   0  0.3117389E-01  0.4949033E+03  0.7818609E-02  0.1015118E+00
       -2   -1    0    0    0  501  0.00000000000E+00  0.00000000000E+00  0.31435113672E+02  0.31435113775E+02  0.25500000920E-02 0.  1.
        2   -1    0    0  501    0  0.00000000000E+00  0.00000000000E+00 -0.19478954664E+04  0.19478954664E+04  0.25500000920E-02 0. -1.
    10030    2    1    2    0    0  0.00000000000E+00  0.00000000000E+00 -0.19164603527E+04  0.19793305802E+04  0.49490328554E+03 0.  0.
        4    1    3    3  502    0  0.24395592431E+03  0.40017978426E+02 -0.91538380004E+03  0.94817985946E+03  0.12699999809E+01 0.  1.
       -4    1    3    3    0  502 -0.24395592431E+03 -0.40017978426E+02 -0.10010765527E+04  0.10311507207E+04  0.12699999809E+01 0. -1.
</event>
<event>
 5   0  0.1967161E-01  0.4998872E+03  0.7818609E-02  0.1013808E+00
       -1   -1    0    0    0  501  0.00000000000E+00  0.00000000000E+00  0.15544510690E+03  0.15544510698E+03  0.50400001928E-02 0. -1.
        1   -1    0    0  501    0  0.00000000000E+00  0.00000000000E+00 -0.40188980416E+03  0.40188980419E+03  0.50400001928E-02 0.  1.
    10030    2    1    2    0    0  0.00000000000E+00  0.00000000000E+00 -0.24644469726E+03  0.55733491118E+03  0.49988720168E+03 0.  0.
        1    1    3    3  502    0  0.11481148824E+02 -0.72261011148E+02 -0.38968232943E+03  0.39649185163E+03  0.50400001928E-02 0.  1.
       -1    1    3    3    0  502 -0.11481148824E+02  0.72261011148E+02  0.14323763217E+03  0.16084305955E+03  0.50400001928E-02 0. -1.
</event>
<event>
 5   0  0.1967161E-01  0.4979042E+03  0.7818609E-02  0.1014327E+00
       -1   -1    0    0    0  501  0.00000000000E+00  0.00000000000E+00  0.18631225449E+03  0.18631225456E+03  0.50400001928E-02 0.  1.
        1   -1    0    0  501    0  0.00000000000E+00  0.00000000000E+00 -0.33265200603E+03  0.33265200606E+03  0.50400001928E-02 0. -1.
    10030    2    1    2    0    0  0.00000000000E+00  0.00000000000E+00 -0.14633975154E+03  0.51896426062E+03  0.49790418850E+03 0.  0.
        1    1    3    3  502    0 -0.72225392474E+02  0.25021887112E+02 -0.32011858848E+03  0.32911777963E+03  0.50400001928E-02 0. -1.
       -1    1    3    3    0  502  0.72225392474E+02 -0.25021887112E+02  0.17377883694E+03  0.18984648100E+03  0.50400001928E-02 0.  1.
</event>
<event>
 5   0  0.3117389E-01  0.5004981E+03  0.7818609E-02  0.1013649E+00
        2   -1    0    0  501    0  0.00000000000E+00  0.00000000000E+00  0.18023113010E+04  0.18023113010E+04  0.25500000920E-02 0.  1.
       -2   -1    0    0    0  501  0.00000000000E+00  0.00000000000E+00 -0.34746819800E+02  0.34746819894E+02  0.25500000920E-02 0. -1.
    10030    2    1    2    0    0  0.00000000000E+00  0.00000000000E+00  0.17675644812E+04  0.18370581209E+04  0.50049809626E+03 0.  0.
        4    1    3    3  502    0 -0.18161966611E+03 -0.60437126161E+02  0.29211341949E+03  0.34924234005E+03  0.12699999809E+01 0. -1.
       -4    1    3    3    0  502  0.18161966611E+03  0.60437126161E+02  0.14754510617E+04  0.14878157809E+04  0.12699999809E+01 0.  1.
</event>
<event>
 5   0  0.3111146E-01  0.4941099E+03  0.7818609E-02  0.1015328E+00
        2   -1    0    0  501    0  0.00000000000E+00  0.00000000000E+00  0.47458649705E+03  0.47458649706E+03  0.25500000920E-02 0.  1.
       -2   -1    0    0    0  501  0.00000000000E+00  0.00000000000E+00 -0.12860913434E+03  0.12860913437E+03  0.25500000920E-02 0. -1.
    10030    2    1    2    0    0  0.00000000000E+00  0.00000000000E+00  0.34597736271E+03  0.60319563143E+03  0.49410994147E+03 0.  0.
        1    1    3    3  502    0  0.12742923230E+03 -0.14918836255E+03  0.35627037223E+03  0.40672343788E+03  0.50400001928E-02 0.  1.
       -1    1    3    3    0  502 -0.12742923230E+03  0.14918836255E+03 -0.10293009518E+02  0.19647219355E+03  0.50400001928E-02 0. -1.
</event>
<event>
 5   0  0.3117389E-01  0.2914254E+03  0.7818609E-02  0.1089607E+00
       -2   -1    0    0    0  501  0.00000000000E+00  0.00000000000E+00  0.27739122230E+03  0.27739122232E+03  0.25500000920E-02 0. -1.
        2   -1    0    0  501    0  0.00000000000E+00  0.00000000000E+00 -0.76542382775E+02  0.76542382818E+02  0.25500000920E-02 0.  1.
    10030    2    1    2    0    0  0.00000000000E+00  0.00000000000E+00  0.20084883953E+03  0.35393360513E+03  0.29142536009E+03 0.  0.
        4    1    3    3  502    0 -0.12890105373E+02  0.50822936285E+02 -0.64681421507E+02  0.83273194110E+02  0.12699999809E+01 0.  1.
       -4    1    3    3    0  502  0.12890105373E+02 -0.50822936285E+02  0.26553026104E+03  0.27066041102E+03  0.12699999809E+01 0. -1.
</event>
<event>
 5   0  0.3117389E-01  0.4988348E+03  0.7818609E-02  0.1014084E+00
        2   -1    0    0  501    0  0.00000000000E+00  0.00000000000E+00  0.58936669746E+03  0.58936669747E+03  0.25500000920E-02 0.  1.
       -2   -1    0    0    0  501  0.00000000000E+00  0.00000000000E+00 -0.10555233117E+03  0.10555233120E+03  0.25500000920E-02 0. -1.
    10030    2    1    2    0    0  0.00000000000E+00  0.00000000000E+00  0.48381436629E+03  0.69491902867E+03  0.49883475758E+03 0.  0.
        4    1    3    3  502    0  0.12763799998E+03 -0.65690869679E+02 -0.42229719595E+02  0.14963860302E+03  0.12699999809E+01 0. -1.
       -4    1    3    3    0  502 -0.12763799998E+03  0.65690869679E+02  0.52604408589E+03  0.54528042565E+03  0.12699999809E+01 0.  1.
</event>
<event>
 5   0  0.1967161E-01  0.5095263E+03  0.7818609E-02  0.1011322E+00
       -1   -1    0    0    0  501  0.00000000000E+00  0.00000000000E+00  0.28066834969E+03  0.28066834973E+03  0.50400001928E-02 0. -1.
        1   -1    0    0  501    0  0.00000000000E+00  0.00000000000E+00 -0.23124894404E+03  0.23124894409E+03  0.50400001928E-02 0.  1.
    10030    2    1    2    0    0  0.00000000000E+00  0.00000000000E+00  0.49419405652E+02  0.51191729382E+03  0.50952628790E+03 0.  0.
        1    1    3    3  502    0  0.16735815559E+03  0.10297595964E+03  0.18761700418E+03  0.27168537095E+03  0.50400001928E-02 0. -1.
       -1    1    3    3    0  502 -0.16735815559E+03 -0.10297595964E+03 -0.13819759853E+03  0.24023192288E+03  0.50400001928E-02 0.  1.
</event>
<event>
 5   0  0.1984297E-01  0.5021820E+03  0.7818609E-02  0.1013211E+00
       -1   -1    0    0    0  501  0.00000000000E+00  0.00000000000E+00  0.14426423000E+03  0.14426423009E+03  0.50400001928E-02 0.  1.
        1   -1    0    0  501    0  0.00000000000E+00  0.00000000000E+00 -0.43702225105E+03  0.43702225108E+03  0.50400001928E-02 0. -1.
    10030    2    1    2    0    0  0.00000000000E+00  0.00000000000E+00 -0.29275802104E+03  0.58128648117E+03  0.50218195339E+03 0.  0.
        3    1    3    3  502    0 -0.18652770954E+03  0.47779881442E+02  0.40162219374E+02  0.19669396931E+03  0.10100000352E+00 0.  1.
       -3    1    3    3    0  502  0.18652770954E+03 -0.47779881442E+02 -0.33292024042E+03  0.38459251186E+03  0.10100000352E+00 0. -1.
</event>
<event>
 5   0  0.3329246E-01  0.3307294E+03  0.7818609E-02  0.1070815E+00
        2   -1    0    0  501    0  0.00000000000E+00  0.00000000000E+00  0.96545624903E+03  0.96545624904E+03  0.25500000920E-02 0.  1.
       -2   -1    0    0    0  501  0.00000000000E+00  0.00000000000E+00 -0.28323900440E+02  0.28323900555E+02  0.25500000920E-02 0. -1.
    10030    2    1    2    0    0  0.00000000000E+00  0.00000000000E+00  0.93713234859E+03  0.99378014959E+03  0.33072941651E+03 0.  0.
        2    1    3    3  502    0  0.29879683338E+02 -0.10062531782E+03  0.85251543611E+03  0.85895332753E+03  0.25500000920E-02 0.  1.
       -2    1    3    3    0  502 -0.29879683338E+02  0.10062531782E+03  0.84616912489E+02  0.13482682207E+03  0.25500000920E-02 0. -1.
</event>
<event>
 5   0  0.1292375E-01  0.4806107E+03  0.7818609E-02  0.1018967E+00
       -3   -1    0    0    0  501  0.00000000000E+00  0.00000000000E+00  0.12853167382E+03  0.12853171350E+03  0.10100000352E+00 0. -1.
        3   -1    0    0  501    0  0.00000000000E+00  0.00000000000E+00 -0.44927948642E+03  0.44927949777E+03  0.10100000352E+00 0.  1.
    10030    2    1    2    0    0  0.00000000000E+00  0.00000000000E+00 -0.32074781261E+03  0.57781121127E+03  0.48061069129E+03 0.  0.
        4    1    3    3  502    0 -0.48305086389E+02  0.18330067657E+03 -0.33793406563E+03  0.38747072795E+03  0.12699999809E+01 0.  1.
       -4    1    3    3    0  502  0.48305086389E+02 -0.18330067657E+03  0.17186253025E+02  0.19034048333E+03  0.12699999809E+01 0. -1.
</event>
<event>
 5   0  0.2000612E-01  0.4973509E+03  0.7818609E-02  0.1014473E+00
       -1   -1    0    0    0  501  0.00000000000E+00  0.00000000000E+00  0.14982907617E+03  0.14982907625E+03  0.50400001928E-02 0.  1.
        1   -1    0    0  501    0  0.00000000000E+00  0.00000000000E+00 -0.41273358215E+03  0.41273358218E+03  0.50400001928E-02 0. -1.
    10030    2    1    2    0    0  0.00000000000E+00  0.00000000000E+00 -0.26290450598E+03  0.56256265843E+03  0.49735094792E+03 0.  0.
        2    1    3    3  502    0  0.10119220473E+03  0.74604145101E+01 -0.38825335875E+03  0.40129314804E+03  0.25500000920E-02 0. -1.
       -2    1    3    3    0  502 -0.10119220473E+03 -0.74604145101E+01  0.12534885276E+03  0.16126951038E+03  0.25500000920E-02 0.  1.
</event>
<event>
 5   0  0.2000612E-01  0.4988235E+03  0.7818609E-02  0.1014086E+00
        1   -1    0    0  501    0  0.00000000000E+00  0.00000000000E+00  0.68984402093E+03  0.68984402095E+03  0.50400001928E-02 0. -1.
       -1   -1    0    0    0  501  0.00000000000E+00  0.00000000000E+00 -0.90174331956E+02  0.90174332097E+02  0.50400001928E-02 0.  1.
    10030    2    1    2    0    0  0.00000000000E+00  0.00000000000E+00  0.59966968898E+03  0.78001835305E+03  0.49882351109E+03 0.  0.
        2    1    3    3  502    0  0.48724001831E+02  0.24300631477E+03  0.34351059737E+03  0.42358662383E+03  0.25500000920E-02 0.  1.
       -2    1    3    3    0  502 -0.48724001831E+02 -0.24300631477E+03  0.25615909161E+03  0.35643172922E+03  0.25500000920E-02 0. -1.
</event>
<event>
 5   0  0.2013450E-01  0.5195616E+03  0.7818609E-02  0.1008796E+00
       -1   -1    0    0    0  501  0.00000000000E+00  0.00000000000E+00  0.12525130362E+03  0.12525130372E+03  0.50400001928E-02 0.  1.
        1   -1    0    0  501    0  0.00000000000E+00  0.00000000000E+00 -0.53880522524E+03  0.53880522527E+03  0.50400001928E-02 0. -1.
    10030    2    1    2    0    0  0.00000000000E+00  0.00000000000E+00 -0.41355392163E+03  0.66405652898E+03  0.51956157248E+03 0.  0.
        4    1    3    3  502    0 -0.15697410656E+03  0.72559640488E+02 -0.45454126968E+03  0.48632823309E+03  0.12699999809E+01 0. -1.
       -4    1    3    3    0  502  0.15697410656E+03 -0.72559640488E+02  0.40987348056E+02  0.17772829589E+03  0.12699999809E+01 0.  1.
</event>
<event>
 5   0  0.3329246E-01  0.4274357E+03  0.7818609E-02  0.1034673E+00
        2   -1    0    0  501    0  0.00000000000E+00  0.00000000000E+00  0.88928024118E+03  0.88928024118E+03  0.25500000920E-02 0.  1.
       -2   -1    0    0    0  501  0.00000000000E+00  0.00000000000E+00 -0.51362114757E+02  0.51362114820E+02  0.25500000920E-02 0. -1.
    10030    2    1    2    0    0  0.00000000000E+00  0.00000000000E+00  0.83791812642E+03  0.94064235600E+03  0.42743567390E+03 0.  0.
        2    1    3    3  502    0  0.12057146458E+03  0.85276743947E+02  0.75892935578E+03  0.77316451561E+03  0.25500000920E-02 0.  1.
       -2    1    3    3    0  502 -0.12057146458E+03 -0.85276743947E+02  0.78988770648E+02  0.16747784040E+03  0.25500000920E-02 0. -1.
</event>
<event>
 5   0  0.1967161E-01  0.5043600E+03  0.7818609E-02  0.1012647E+00
       -1   -1    0    0    0  501  0.00000000000E+00  0.00000000000E+00  0.18008776844E+03  0.18008776851E+03  0.50400001928E-02 0.  1.
        1   -1    0    0  501    0  0.00000000000E+00  0.00000000000E+00 -0.35313202470E+03  0.35313202474E+03  0.50400001928E-02 0. -1.
    10030    2    1    2    0    0  0.00000000000E+00  0.00000000000E+00 -0.17304425627E+03  0.53321979325E+03  0.50436002348E+03 0.  0.
        1    1    3    3  502    0 -0.10371651297E+03  0.21668478813E+03 -0.16762786971E+03  0.29293090516E+03  0.50400001928E-02 0. -1.
       -1    1    3    3    0  502  0.10371651297E+03 -0.21668478813E+03 -0.54163865539E+01  0.24028888809E+03  0.50400001928E-02 0.  1.
</event>
<event>
 5   0  0.3329246E-01  0.4772568E+03  0.7818609E-02  0.1019892E+00
       -2   -1    0    0    0  501  0.00000000000E+00  0.00000000000E+00  0.18819144130E+03  0.18819144132E+03  0.25500000920E-02 0.  1.
        2   -1    0    0  501    0  0.00000000000E+00  0.00000000000E+00 -0.30258292052E+03  0.30258292053E+03  0.25500000920E-02 0. -1.
    10030    2    1    2    0    0  0.00000000000E+00  0.00000000000E+00 -0.11439147922E+03  0.49077436184E+03  0.47725681108E+03 0.  0.
        2    1    3    3  502    0 -0.40445990203E+02  0.12401620646E+03 -0.26267426232E+03  0.29328086484E+03  0.25500000920E-02 0. -1.
       -2    1    3    3    0  502  0.40445990203E+02 -0.12401620646E+03  0.14828278311E+03  0.19749349700E+03  0.25500000920E-02 0.  1.
</event>
<event>
 5   0  0.3329246E-01  0.5013349E+03  0.7818609E-02  0.1013431E+00
        2   -1    0    0  501    0  0.00000000000E+00  0.00000000000E+00  0.21831101073E+04  0.21831101073E+04  0.25500000920E-02 0. -1.
       -2   -1    0    0    0  501  0.00000000000E+00  0.00000000000E+00 -0.28781955266E+02  0.28781955379E+02  0.25500000920E-02 0.  1.
    10030    2    1    2    0    0  0.00000000000E+00  0.00000000000E+00  0.21543281521E+04  0.22118920627E+04  0.50133492828E+03 0.  0.
        2    1    3    3  502    0  0.49799086615E+02  0.20532553931E+03  0.16723049405E+04  0.16855985110E+04  0.25500000920E-02 0. -1.
       -2    1    3    3    0  502 -0.49799086615E+02 -0.20532553931E+03  0.48202321155E+03  0.52629355174E+03  0.25500000920E-02 0.  1.
</event>
<event>
 5   0  0.3329246E-01  0.4975585E+03  0.7818609E-02  0.1014418E+00
       -2   -1    0    0    0  501  0.00000000000E+00  0.00000000000E+00  0.34261667887E+02  0.34261667982E+02  0.25500000920E-02 0. -1.
        2   -1    0    0  501    0  0.00000000000E+00  0.00000000000E+00 -0.18064242182E+04  0.18064242182E+04  0.25500000920E-02 0.  1.
    10030    2    1    2    0    0  0.00000000000E+00  0.00000000000E+00 -0.17721625503E+04  0.18406858862E+04  0.49755846577E+03 0.  0.
        2    1    3    3  502    0 -0.13483283106E+03  0.31031322843E+02 -0.12119856995E+03  0.18393457721E+03  0.25500000920E-02 0. -1.
       -2    1    3    3    0  502  0.13483283106E+03 -0.31031322843E+02 -0.16509639803E+04  0.16567513090E+04  0.25500000920E-02 0.  1.
</event>
<event>
 5   0  0.3111146E-01  0.4997278E+03  0.7818609E-02  0.1013850E+00
        2   -1    0    0  501    0  0.00000000000E+00  0.00000000000E+00  0.48426078929E+03  0.48426078930E+03  0.25500000920E-02 0.  1.
       -2   -1    0    0    0  501  0.00000000000E+00  0.00000000000E+00 -0.12892218708E+03  0.12892218711E+03  0.25500000920E-02 0. -1.
    10030    2    1    2    0    0  0.00000000000E+00  0.00000000000E+00  0.35533860221E+03  0.61318297641E+03  0.49972776622E+03 0.  0.
        1    1    3    3  502    0  0.18607179330E+03  0.92257947757E+02  0.72143595302E+01  0.20781310881E+03  0.50400001928E-02 0. -1.
       -1    1    3    3    0  502 -0.18607179330E+03 -0.92257947757E+02  0.34812424268E+03  0.40536986760E+03  0.50400001928E-02 0.  1.
</event>
<event>
 5   0  0.2000612E-01  0.4689536E+03  0.7818609E-02  0.1022216E+00
        1   -1    0    0  501    0  0.00000000000E+00  0.00000000000E+00  0.45286126789E+03  0.45286126791E+03  0.50400001928E-02 0.  1.
       -1   -1    0    0    0  501  0.00000000000E+00  0.00000000000E+00 -0.12140445046E+03  0.12140445056E+03  0.50400001928E-02 0. -1.
    10030    2    1    2    0    0  0.00000000000E+00  0.00000000000E+00  0.33145681743E+03  0.57426571848E+03  0.46895361562E+03 0.  0.
        2    1    3    3  502    0 -0.28006321047E+02 -0.22386233292E+03  0.24395402999E+03  0.33228341348E+03  0.25500000920E-02 0.  1.
       -2    1    3    3    0  502  0.28006321047E+02  0.22386233292E+03  0.87502787438E+02  0.24198230500E+03  0.25500000920E-02 0. -1.
</event>
<event>
 5   0  0.3117389E-01  0.5107647E+03  0.7818609E-02  0.1011007E+00
        2   -1    0    0  501    0  0.00000000000E+00  0.00000000000E+00  0.84884329415E+03  0.84884329416E+03  0.25500000920E-02 0.  1.
       -2   -1    0    0    0  501  0.00000000000E+00  0.00000000000E+00 -0.76834132909E+02  0.76834132951E+02  0.25500000920E-02 0. -1.
    10030    2    1    2    0    0  0.00000000000E+00  0.00000000000E+00  0.77200916124E+03  0.92567742711E+03  0.51076467577E+03 0.  0.
        4    1    3    3  502    0 -0.19427164553E+03  0.20942275585E+02  0.68401394528E+03  0.71137665227E+03  0.12699999809E+01 0.  1.
       -4    1    3    3    0  502  0.19427164553E+03 -0.20942275585E+02  0.87995215964E+02  0.21430077483E+03  0.12699999809E+01 0. -1.
</event>
<event>
 5   0  0.3187123E-01  0.4327283E+03  0.7818609E-02  0.1033002E+00
       -2   -1    0    0    0  501  0.00000000000E+00  0.00000000000E+00  0.19112900454E+03  0.19112900456E+03  0.25500000920E-02 0. -1.
        2   -1    0    0  501    0  0.00000000000E+00  0.00000000000E+00 -0.24493118076E+03  0.24493118077E+03  0.25500000920E-02 0.  1.
    10030    2    1    2    0    0  0.00000000000E+00  0.00000000000E+00 -0.53802176217E+02  0.43606018533E+03  0.43272833402E+03 0.  0.
        5    1    3    3  502    0  0.15609881261E+03 -0.46065937825E+02  0.11668268366E+03  0.20031437440E+03  0.46999998093E+01 0. -1.
       -5    1    3    3    0  502 -0.15609881261E+03  0.46065937825E+02 -0.17048485988E+03  0.23574581093E+03  0.46999998093E+01 0.  1.
</event>
<event>
 5   0  0.1984297E-01  0.4736325E+03  0.7818609E-02  0.1020900E+00
        1   -1    0    0  501    0  0.00000000000E+00  0.00000000000E+00  0.89667647486E+03  0.89667647487E+03  0.50400001928E-02 0. -1.
       -1   -1    0    0    0  501  0.00000000000E+00  0.00000000000E+00 -0.62544231604E+02  0.62544231807E+02  0.50400001928E-02 0.  1.
    10030    2    1    2    0    0  0.00000000000E+00  0.00000000000E+00  0.83413224325E+03  0.95922070668E+03  0.47363252093E+03 0.  0.
        3    1    3    3  502    0 -0.81162213701E+02 -0.17378287301E+03  0.13575316598E+03  0.23498239117E+03  0.10100000352E+00 0.  1.
       -3    1    3    3    0  502  0.81162213701E+02  0.17378287301E+03  0.69837907727E+03  0.72423831551E+03  0.10100000352E+00 0. -1.
</event>
<event>
 5   0  0.3187123E-01  0.4988983E+03  0.7818609E-02  0.1014067E+00
        2   -1    0    0  501    0  0.00000000000E+00  0.00000000000E+00  0.29202072309E+03  0.29202072310E+03  0.25500000920E-02 0.  1.
       -2   -1    0    0    0  501  0.00000000000E+00  0.00000000000E+00 -0.21308375799E+03  0.21308375801E+03  0.25500000920E-02 0. -1.
    10030    2    1    2    0    0  0.00000000000E+00  0.00000000000E+00  0.78936965102E+02  0.50510448111E+03  0.49889827859E+03 0.  0.
        5    1    3    3  502    0 -0.88820847597E+02  0.56561816042E+02 -0.18942891462E+03  0.21678050119E+03  0.46999998093E+01 0. -1.
       -5    1    3    3    0  502  0.88820847597E+02 -0.56561816042E+02  0.26836587972E+03  0.28832397992E+03  0.46999998093E+01 0.  1.
</event>
<event>
 5   0  0.1984297E-01  0.4978003E+03  0.7818609E-02  0.1014355E+00
       -1   -1    0    0    0  501  0.00000000000E+00  0.00000000000E+00  0.62132015467E+02  0.62132015671E+02  0.50400001928E-02 0. -1.
        1   -1    0    0  501    0  0.00000000000E+00  0.00000000000E+00 -0.99709126456E+03  0.99709126457E+03  0.50400001928E-02 0.  1.
    10030    2    1    2    0    0  0.00000000000E+00  0.00000000000E+00 -0.93495924909E+03  0.10592232802E+04  0.49780032136E+03 0.  0.
        3    1    3    3  502    0  0.20012119083E+03  0.13625853043E+03 -0.34457407059E+03  0.42112489650E+03  0.10100000352E+00 0. -1.
       -3    1    3    3    0  502 -0.20012119083E+03 -0.13625853043E+03 -0.59038517850E+03  0.63809838374E+03  0.10100000352E+00 0.  1.
</event>
<event>
 5   0  0.3187123E-01  0.2753539E+03  0.7818609E-02  0.1098254E+00
        2   -1    0    0  501    0  0.00000000000E+00  0.00000000000E+00  0.21847951336E+03  0.21847951338E+03  0.25500000920E-02 0.  1.
       -2   -1    0    0    0  501  0.00000000000E+00  0.00000000000E+00 -0.86758446440E+02  0.86758446478E+02  0.25500000920E-02 0. -1.
    10030    2    1    2    0    0  0.00000000000E+00  0.00000000000E+00  0.13172106692E+03  0.30523795986E+03  0.27535390439E+03 0.  0.
        5    1    3    3  502    0  0.12533367287E+03 -0.43244957624E+02  0.25067287188E+02  0.13501523914E+03  0.46999998093E+01 0. -1.
       -5    1    3    3    0  502 -0.12533367287E+03  0.43244957624E+02  0.10665377973E+03  0.17022272071E+03  0.46999998093E+01 0.  1.
</event>
<event>
 5   0  0.3329246E-01  0.4915389E+03  0.7818609E-02  0.1016011E+00
       -2   -1    0    0    0  501  0.00000000000E+00  0.00000000000E+00  0.39291052282E+02  0.39291052365E+02  0.25500000920E-02 0.  1.
        2   -1    0    0  501    0  0.00000000000E+00  0.00000000000E+00 -0.15373124010E+04  0.15373124010E+04  0.25500000920E-02 0. -1.
    10030    2    1    2    0    0  0.00000000000E+00  0.00000000000E+00 -0.14980213487E+04  0.15766034534E+04  0.49153889771E+03 0.  0.
        2    1    3    3  502    0  0.58752108269E+02 -0.76999256322E+02 -0.24502970562E+02  0.99905411631E+02  0.25500000920E-02 0.  1.
       -2    1    3    3    0  502 -0.58752108269E+02  0.76999256322E+02 -0.14735183782E+04  0.14766980418E+04  0.25500000920E-02 0. -1.
</event>
<event>
 5   0  0.2013450E-01  0.4832101E+03  0.7818609E-02  0.1018257E+00
       -1   -1    0    0    0  501  0.00000000000E+00  0.00000000000E+00  0.71611407437E+02  0.71611407614E+02  0.50400001928E-02 0.  1.
        1   -1    0    0  501    0  0.00000000000E+00  0.00000000000E+00 -0.81513543861E+03  0.81513543863E+03  0.50400001928E-02 0. -1.
    10030    2    1    2    0    0  0.00000000000E+00  0.00000000000E+00 -0.74352403118E+03  0.88674684624E+03  0.48321008307E+03 0.  0.
        4    1    3    3  502    0 -0.18299905934E+03  0.13436789586E+03 -0.52340080015E+03  0.57052028680E+03  0.12699999809E+01 0. -1.
       -4    1    3    3    0  502  0.18299905934E+03 -0.13436789586E+03 -0.22012323103E+03  0.31622655944E+03  0.12699999809E+01 0.  1.
</event>
<event>
 5   0  0.1967161E-01  0.5041625E+03  0.7818609E-02  0.1012698E+00
       -1   -1    0    0    0  501  0.00000000000E+00  0.00000000000E+00  0.33847612427E+03  0.33847612431E+03  0.50400001928E-02 0. -1.
        1   -1    0    0  501    0  0.00000000000E+00  0.00000000000E+00 -0.18773839246E+03  0.18773839253E+03  0.50400001928E-02 0.  1.
    10030    2    1    2    0    0  0.00000000000E+00  0.00000000000E+00  0.15073773181E+03  0.52621451684E+03  0.50416252731E+03 0.  0.
        1    1    3    3  502    0 -0.13722012399E+03 -0.20388898015E+03  0.16836694842E+02  0.24634031942E+03  0.50400001928E-02 0.  1.
       -1    1    3    3    0  502  0.13722012399E+03  0.20388898015E+03  0.13390103697E+03  0.27987419742E+03  0.50400001928E-02 0. -1.
</event>
<event>
 5   0  0.3117389E-01  0.5061914E+03  0.7818609E-02  0.1012175E+00
       -2   -1    0    0    0  501  0.00000000000E+00  0.00000000000E+00  0.41065653030E+03  0.41065653031E+03  0.25500000920E-02 0. -1.
        2   -1    0    0  501    0  0.00000000000E+00  0.00000000000E+00 -0.15598782958E+03  0.15598782960E+03  0.25500000920E-02 0.  1.
    10030    2    1    2    0    0  0.00000000000E+00  0.00000000000E+00  0.25466870071E+03  0.56664435991E+03  0.50619135067E+03 0.  0.
        4    1    3    3  502    0 -0.55923188381E+02  0.14296234455E+02 -0.14851763699E+03  0.15934518102E+03  0.12699999809E+01 0.  1.
       -4    1    3    3    0  502  0.55923188381E+02 -0.14296234455E+02  0.40318633770E+03  0.40729917889E+03  0.12699999809E+01 0. -1.
</event>
<event>
 5   0  0.3117389E-01  0.4778943E+03  0.7818609E-02  0.1019715E+00
        2   -1    0    0  501    0  0.00000000000E+00  0.00000000000E+00  0.11680615956E+04  0.11680615956E+04  0.25500000920E-02 0.  1.
       -2   -1    0    0    0  501  0.00000000000E+00  0.00000000000E+00 -0.48880759857E+02  0.48880759923E+02  0.25500000920E-02 0. -1.
    10030    2    1    2    0    0  0.00000000000E+00  0.00000000000E+00  0.11191808358E+04  0.12169423555E+04  0.47789429122E+03 0.  0.
        4    1    3    3  502    0 -0.12220376952E+03  0.17219403401E+03  0.84440322157E+03  0.87040390632E+03  0.12699999809E+01 0.  1.
       -4    1    3    3    0  502  0.12220376952E+03 -0.17219403401E+03  0.27477761419E+03  0.34653844923E+03  0.12699999809E+01 0. -1.
</event>
<event>
 5   0  0.3111146E-01  0.5089558E+03  0.7818609E-02  0.1011467E+00
        2   -1    0    0  501    0  0.00000000000E+00  0.00000000000E+00  0.49404431324E+03  0.49404431325E+03  0.25500000920E-02 0.  1.
       -2   -1    0    0    0  501  0.00000000000E+00  0.00000000000E+00 -0.13107934561E+03  0.13107934564E+03  0.25500000920E-02 0. -1.
    10030    2    1    2    0    0  0.00000000000E+00  0.00000000000E+00  0.36296496763E+03  0.62512365889E+03  0.50895581456E+03 0.  0.
        1    1    3    3  502    0  0.82701501358E+01 -0.76335943192E+02  0.47947726037E+03  0.48558625891E+03  0.50400001928E-02 0.  1.
       -1    1    3    3    0  502 -0.82701501358E+01  0.76335943192E+02 -0.11651229274E+03  0.13953739997E+03  0.50400001928E-02 0. -1.
</event>
<event>
 5   0  0.3187123E-01  0.4786156E+03  0.7818609E-02  0.1019516E+00
       -2   -1    0    0    0  501  0.00000000000E+00  0.00000000000E+00  0.12420874985E+03  0.12420874987E+03  0.25500000920E-02 0.  1.
        2   -1    0    0  501    0  0.00000000000E+00  0.00000000000E+00 -0.46106428571E+03  0.46106428572E+03  0.25500000920E-02 0. -1.
    10030    2    1    2    0    0  0.00000000000E+00  0.00000000000E+00 -0.33685553586E+03  0.58527303559E+03  0.47861558077E+03 0.  0.
        5    1    3    3  502    0  0.12422340057E+03  0.11805819435E+03  0.35743308466E+02  0.17512528259E+03  0.46999998093E+01 0.  1.
       -5    1    3    3    0  502 -0.12422340057E+03 -0.11805819435E+03 -0.37259884433E+03  0.41014775301E+03  0.46999998093E+01 0. -1.
</event>
<event>
 5   0  0.1984297E-01  0.4714618E+03  0.7818609E-02  0.1021508E+00
       -1   -1    0    0    0  501  0.00000000000E+00  0.00000000000E+00  0.76677176138E+02  0.76677176304E+02  0.50400001928E-02 0. -1.
        1   -1    0    0  501    0  0.00000000000E+00  0.00000000000E+00 -0.72471454260E+03  0.72471454262E+03  0.50400001928E-02 0.  1.
    10030    2    1    2    0    0  0.00000000000E+00  0.00000000000E+00 -0.64803736646E+03  0.80139171892E+03  0.47146183178E+03 0.  0.
        3    1    3    3  502    0 -0.17967743505E+03 -0.14882785419E+03 -0.26674409444E+03  0.35438133835E+03  0.10100000352E+00 0.  1.
       -3    1    3    3    0  502  0.17967743505E+03  0.14882785419E+03 -0.38129327202E+03  0.44701038057E+03  0.10100000352E+00 0. -1.
</event>
<event>
 5   0  0.1967161E-01  0.4835641E+03  0.7818609E-02  0.1018160E+00
       -1   -1    0    0    0  501  0.00000000000E+00  0.00000000000E+00  0.79424594790E+02  0.79424594949E+02  0.50400001928E-02 0.  1.
        1   -1    0    0  501    0  0.00000000000E+00  0.00000000000E+00 -0.73602588331E+03  0.73602588332E+03  0.50400001928E-02 0. -1.
    10030    2    1    2    0    0  0.00000000000E+00  0.00000000000E+00 -0.65660128852E+03  0.81545047827E+03  0.48356409134E+03 0.  0.
        1    1    3    3  502    0 -0.10574307387E+03 -0.15418082716E+03 -0.69761787798E+02  0.19954957328E+03  0.50400001928E-02 0.  1.
       -1    1    3    3    0  502  0.10574307387E+03  0.15418082716E+03 -0.58683950072E+03  0.61590090499E+03  0.50400001928E-02 0. -1.
</event>
<event>
 5   0  0.3329246E-01  0.5274696E+03  0.7818609E-02  0.1006848E+00
       -2   -1    0    0    0  501  0.00000000000E+00  0.00000000000E+00  0.18400005860E+03  0.18400005861E+03  0.25500000920E-02 0.  1.
        2   -1    0    0  501    0  0.00000000000E+00  0.00000000000E+00 -0.37802188227E+03  0.37802188228E+03  0.25500000920E-02 0. -1.
    10030    2    1    2    0    0  0.00000000000E+00  0.00000000000E+00 -0.19402182367E+03  0.56202194089E+03  0.52746961427E+03 0.  0.
        2    1    3    3  502    0 -0.75071340116E+02 -0.17187266742E+03  0.10055388955E+03  0.21280743555E+03  0.25500000920E-02 0.  1.
       -2    1    3    3    0  502  0.75071340116E+02  0.17187266742E+03 -0.29457571323E+03  0.34921450534E+03  0.25500000920E-02 0. -1.
</event>
<event>
 5   0  0.1984680E-01  0.5528153E+03  0.7818609E-02  0.1000844E+00
       -1   -1    0    0    0  501  0.00000000000E+00  0.00000000000E+00  0.92551995645E+02  0.92551995782E+02  0.50400001928E-02 0.  1.
        1   -1    0    0  501    0  0.00000000000E+00  0.00000000000E+00 -0.82549485438E+03  0.82549485440E+03  0.50400001928E-02 0. -1.
    10030    2    1    2    0    0  0.00000000000E+00  0.00000000000E+00 -0.73294285874E+03  0.91804685018E+03  0.55281532626E+03 0.  0.
        5    1    3    3  502    0  0.23319736203E+03  0.14787151969E+03 -0.38555910393E+03  0.47426248915E+03  0.46999998093E+01 0.  1.
       -5    1    3    3    0  502 -0.23319736203E+03 -0.14787151969E+03 -0.34738375480E+03  0.44378436103E+03  0.46999998093E+01 0. -1.
</event>
<event>
 5   0  0.1967161E-01  0.5081389E+03  0.7818609E-02  0.1011676E+00
        1   -1    0    0  501    0  0.00000000000E+00  0.00000000000E+00  0.29582754737E+03  0.29582754741E+03  0.50400001928E-02 0.  1.
       -1   -1    0    0    0  501  0.00000000000E+00  0.00000000000E+00 -0.21820578911E+03  0.21820578917E+03  0.50400001928E-02 0. -1.
    10030    2    1    2    0    0  0.00000000000E+00  0.00000000000E+00  0.77621758260E+02  0.51403333658E+03  0.50813889219E+03 0.  0.
        1    1    3    3  502    0  0.62064829038E+01  0.13104167275E+03  0.25891432525E+03  0.29025345523E+03  0.50400001928E-02 0.  1.
       -1    1    3    3    0  502 -0.62064829038E+01 -0.13104167275E+03 -0.18129256699E+03  0.22377988135E+03  0.50400001928E-02 0. -1.
</event>
<event>
 5   0  0.2000612E-01  0.4964775E+03  0.7818609E-02  0.1014702E+00
       -1   -1    0    0    0  501  0.00000000000E+00  0.00000000000E+00  0.35112807797E+03  0.35112807800E+03  0.50400001928E-02 0.  1.
        1   -1    0    0  501    0  0.00000000000E+00  0.00000000000E+00 -0.17549856595E+03  0.17549856603E+03  0.50400001928E-02 0. -1.
    10030    2    1    2    0    0  0.00000000000E+00  0.00000000000E+00  0.17562951201E+03  0.52662664403E+03  0.49647748863E+03 0.  0.
        2    1    3    3  502    0 -0.89807370801E+02  0.22179591738E+03  0.15788437913E+03  0.28668147829E+03  0.25500000920E-02 0.  1.
       -2    1    3    3    0  502  0.89807370801E+02 -0.22179591738E+03  0.17745132885E+02  0.23994516574E+03  0.25500000920E-02 0. -1.
</event>
<event>
 5   0  0.3329246E-01  0.4383364E+03  0.7818609E-02  0.1031258E+00
        2   -1    0    0  501    0  0.00000000000E+00  0.00000000000E+00  0.28055328394E+03  0.28055328395E+03  0.25500000920E-02 0.  1.
       -2   -1    0    0    0  501  0.00000000000E+00  0.00000000000E+00 -0.17121415162E+03  0.17121415164E+03  0.25500000920E-02 0. -1.
    10030    2    1    2    0    0  0.00000000000E+00  0.00000000000E+00  0.10933913231E+03  0.45176743559E+03  0.43833636628E+03 0.  0.
        2    1    3    3  502    0 -0.13340801136E+03  0.92690633586E+02 -0.96962357069E+02  0.18918496173E+03  0.25500000920E-02 0. -1.
       -2    1    3    3    0  502  0.13340801136E+03 -0.92690633586E+02  0.20630148938E+03  0.26258247386E+03  0.25500000920E-02 0.  1.
</event>
<event>
 5   0  0.3178149E-01  0.5362234E+03  0.7818609E-02  0.1004734E+00
       -2   -1    0    0    0  501  0.00000000000E+00  0.00000000000E+00  0.15947561929E+03  0.15947561931E+03  0.25500000920E-02 0. -1.
        2   -1    0    0  501    0  0.00000000000E+00  0.00000000000E+00 -0.45075148186E+03  0.45075148187E+03  0.25500000920E-02 0.  1.
    10030    2    1    2    0    0  0.00000000000E+00  0.00000000000E+00 -0.29127586257E+03  0.61022710118E+03  0.53622335542E+03 0.  0.
        3    1    3    3  502    0 -0.22284540413E+02 -0.26711266829E+03 -0.15266076861E+03  0.30846571734E+03  0.10100000352E+00 0.  1.
       -3    1    3    3    0  502  0.22284540413E+02  0.26711266829E+03 -0.13861509396E+03  0.30176138384E+03  0.10100000352E+00 0. -1.
</event>
<event>
 5   0  0.1984680E-01  0.4480031E+03  0.7818609E-02  0.1028319E+00
       -1   -1    0    0    0  501  0.00000000000E+00  0.00000000000E+00  0.20958002340E+03  0.20958002346E+03  0.50400001928E-02 0.  1.
        1   -1    0    0  501    0  0.00000000000E+00  0.00000000000E+00 -0.23941547463E+03  0.23941547468E+03  0.50400001928E-02 0. -1.
    10030    2    1    2    0    0  0.00000000000E+00  0.00000000000E+00 -0.29835451227E+02  0.44899549814E+03  0.44800312856E+03 0.  0.
        5    1    3    3  502    0  0.36399199479E+02  0.19280086470E+03  0.93291506665E+02  0.21730731780E+03  0.46999998093E+01 0.  1.
       -5    1    3    3    0  502 -0.36399199479E+02 -0.19280086470E+03 -0.12312695789E+03  0.23168818034E+03  0.46999998093E+01 0. -1.
</event>
<event>
 5   0  0.1967161E-01  0.5040565E+03  0.7818609E-02  0.1012726E+00
        1   -1    0    0  501    0  0.00000000000E+00  0.00000000000E+00  0.38739173259E+03  0.38739173262E+03  0.50400001928E-02 0.  1.
       -1   -1    0    0    0  501  0.00000000000E+00  0.00000000000E+00 -0.16396384112E+03  0.16396384120E+03  0.50400001928E-02 0. -1.
    10030    2    1    2    0    0  0.00000000000E+00  0.00000000000E+00  0.22342789147E+03  0.55135557382E+03  0.50405649098E+03 0.  0.
        1    1    3    3  502    0 -0.13193454711E+03  0.19910834900E+03  0.19968031172E+03  0.31132472802E+03  0.50400001928E-02 0.  1.
       -1    1    3    3    0  502  0.13193454711E+03 -0.19910834900E+03  0.23747579748E+02  0.24003084580E+03  0.50400001928E-02 0. -1.
</event>
<event>
 5   0  0.1984297E-01  0.4874186E+03  0.7818609E-02  0.1017116E+00
       -1   -1    0    0    0  501  0.00000000000E+00  0.00000000000E+00  0.36516055952E+02  0.36516056300E+02  0.50400001928E-02 0.  1.
        1   -1    0    0  501    0  0.00000000000E+00  0.00000000000E+00 -0.16265232704E+04  0.16265232704E+04  0.50400001928E-02 0. -1.
    10030    2    1    2    0    0  0.00000000000E+00  0.00000000000E+00 -0.15900072145E+04  0.16630393267E+04  0.48741856775E+03 0.  0.
        3    1    3    3  502    0  0.32624949809E+02 -0.36767613118E+02  0.19426647441E+02  0.52854986106E+02  0.10100000352E+00 0.  1.
       -3    1    3    3    0  502 -0.32624949809E+02  0.36767613118E+02 -0.16094338619E+04  0.16101843406E+04  0.10100000352E+00 0. -1.
</event>
<event>
 5   0  0.3187123E-01  0.4987240E+03  0.7818609E-02  0.1014112E+00
        2   -1    0    0  501    0  0.00000000000E+00  0.00000000000E+00  0.29341873621E+03  0.29341873622E+03  0.25500000920E-02 0.  1.
       -2   -1    0    0    0  501  0.00000000000E+00  0.00000000000E+00 -0.21192039627E+03  0.21192039629E+03  0.25500000920E-02 0. -1.
    10030    2    1    2    0    0  0.00000000000E+00  0.00000000000E+00  0.81498339931E+02  0.50533913251E+03  0.49872403133E+03 0.  0.
        5    1    3    3  502    0 -0.17761521522E+03 -0.17012804602E+03 -0.64124816916E+00  0.24599434530E+03  0.46999998093E+01 0. -1.
       -5    1    3    3    0  502  0.17761521522E+03  0.17012804602E+03  0.82139588100E+02  0.25934478721E+03  0.46999998093E+01 0.  1.
</event>
<event>
 5   0  0.1984680E-01  0.4086876E+03  0.7818609E-02  0.1040812E+00
        1   -1    0    0  501    0  0.00000000000E+00  0.00000000000E+00  0.34982108851E+03  0.34982108855E+03  0.50400001928E-02 0. -1.
       -1   -1    0    0    0  501  0.00000000000E+00  0.00000000000E+00 -0.11936497215E+03  0.11936497225E+03  0.50400001928E-02 0.  1.
    10030    2    1    2    0    0  0.00000000000E+00  0.00000000000E+00  0.23045611637E+03  0.46918606080E+03  0.40868758004E+03 0.  0.
        5    1    3    3  502    0  0.19566118353E+03 -0.46140771978E+02  0.73486035850E+02  0.21409006759E+03  0.46999998093E+01 0.  1.
       -5    1    3    3    0  502 -0.19566118353E+03  0.46140771978E+02  0.15697008052E+03  0.25509599321E+03  0.46999998093E+01 0. -1.
</event>
<event>
 5   0  0.3329246E-01  0.4980397E+03  0.7818609E-02  0.1014292E+00
        2   -1    0    0  501    0  0.00000000000E+00  0.00000000000E+00  0.55228893130E+03  0.55228893130E+03  0.25500000920E-02 0.  1.
       -2   -1    0    0    0  501  0.00000000000E+00  0.00000000000E+00 -0.11227981109E+03  0.11227981112E+03  0.25500000920E-02 0. -1.
    10030    2    1    2    0    0  0.00000000000E+00  0.00000000000E+00  0.44000912021E+03  0.66456874242E+03  0.49803974493E+03 0.  0.
        2    1    3    3  502    0 -0.50561405854E+01 -0.96525100683E+02 -0.86227249173E+02  0.12952914007E+03  0.25500000920E-02 0. -1.
       -2    1    3    3    0  502  0.50561405854E+01  0.96525100683E+02  0.52623636938E+03  0.53503960236E+03  0.25500000920E-02 0.  1.
</event>
<event>
 5   0  0.3329246E-01  0.3071724E+03  0.7818609E-02  0.1081709E+00
       -2   -1    0    0    0  501  0.00000000000E+00  0.00000000000E+00  0.89034888391E+01  0.89034892043E+01  0.25500000920E-02 0.  1.
        2   -1    0    0  501    0  0.00000000000E+00  0.00000000000E+00 -0.26493798922E+04  0.26493798922E+04  0.25500000920E-02 0. -1.
    10030    2    1    2    0    0  0.00000000000E+00  0.00000000000E+00 -0.26404764034E+04  0.26582833814E+04  0.30717242577E+03 0.  0.
        2    1    3    3  502    0  0.14170815325E+03 -0.35612736882E+02 -0.91072206022E+03  0.92236876503E+03  0.25500000920E-02 0.  1.
       -2    1    3    3    0  502 -0.14170815325E+03  0.35612736882E+02 -0.17297543431E+04  0.17359146164E+04  0.25500000920E-02 0. -1.
</event>
<event>
 5   0  0.3187123E-01  0.5196554E+03  0.7818609E-02  0.1008772E+00
        2   -1    0    0  501    0  0.00000000000E+00  0.00000000000E+00  0.27935758784E+03  0.27935758785E+03  0.25500000920E-02 0. -1.
       -2   -1    0    0    0  501  0.00000000000E+00  0.00000000000E+00 -0.24166310921E+03  0.24166310923E+03  0.25500000920E-02 0.  1.
    10030    2    1    2    0    0  0.00000000000E+00  0.00000000000E+00  0.37694478623E+02  0.52102069707E+03  0.51965535989E+03 0.  0.
        5    1    3    3  502    0 -0.24248499089E+03 -0.29856882043E+02  0.10738513675E+03  0.26691583281E+03  0.46999998093E+01 0. -1.
       -5    1    3    3    0  502  0.24248499089E+03  0.29856882043E+02 -0.69690658127E+02  0.25410486426E+03  0.46999998093E+01 0.  1.
</event>
<event>
 5   0  0.3111146E-01  0.5228117E+03  0.7818609E-02  0.1007990E+00
       -2   -1    0    0    0  501  0.00000000000E+00  0.00000000000E+00  0.98509166730E+02  0.98509166763E+02  0.25500000920E-02 0. -1.
        2   -1    0    0  501    0  0.00000000000E+00  0.00000000000E+00 -0.69367157523E+03  0.69367157523E+03  0.25500000920E-02 0.  1.
    10030    2    1    2    0    0  0.00000000000E+00  0.00000000000E+00 -0.59516240850E+03  0.79218074199E+03  0.52281166351E+03 0.  0.
        1    1    3    3  502    0  0.14880243512E+03  0.16734099539E+03 -0.93233614135E+02  0.24256479602E+03  0.50400001928E-02 0. -1.
       -1    1    3    3    0  502 -0.14880243512E+03 -0.16734099539E+03 -0.50192879436E+03  0.54961594598E+03  0.50400001928E-02 0.  1.
</event>
<event>
 5   0  0.3329246E-01  0.5074646E+03  0.7818609E-02  0.1011849E+00
       -2   -1    0    0    0  501  0.00000000000E+00  0.00000000000E+00  0.64635122782E+02  0.64635122832E+02  0.25500000920E-02 0.  1.
        2   -1    0    0  501    0  0.00000000000E+00  0.00000000000E+00 -0.99605418198E+03  0.99605418198E+03  0.25500000920E-02 0. -1.
    10030    2    1    2    0    0  0.00000000000E+00  0.00000000000E+00 -0.93141905920E+03  0.10606893048E+04  0.50746461700E+03 0.  0.
        2    1    3    3  502    0 -0.20475294104E+03 -0.12540851071E+02 -0.15358668878E+03  0.25626141104E+03  0.25500000920E-02 0.  1.
       -2    1    3    3    0  502  0.20475294104E+03  0.12540851071E+02 -0.77783237041E+03  0.80442789377E+03  0.25500000920E-02 0. -1.
</event>
<event>
 5   0  0.3111146E-01  0.5045307E+03  0.7818609E-02  0.1012603E+00
       -2   -1    0    0    0  501  0.00000000000E+00  0.00000000000E+00  0.12309031046E+03  0.12309031049E+03  0.25500000920E-02 0. -1.
        2   -1    0    0  501    0  0.00000000000E+00  0.00000000000E+00 -0.51700085914E+03  0.51700085915E+03  0.25500000920E-02 0.  1.
    10030    2    1    2    0    0  0.00000000000E+00  0.00000000000E+00 -0.39391054868E+03  0.64009116964E+03  0.50453065822E+03 0.  0.
        1    1    3    3  502    0 -0.14917814020E+03  0.12724423793E+03 -0.39832335021E+03  0.44396700885E+03  0.50400001928E-02 0.  1.
       -1    1    3    3    0  502  0.14917814020E+03 -0.12724423793E+03  0.44128015284E+01  0.19612416079E+03  0.50400001928E-02 0. -1.
</event>
<event>
 5   0  0.2000612E-01  0.5118817E+03  0.7818609E-02  0.1010723E+00
       -1   -1    0    0    0  501  0.00000000000E+00  0.00000000000E+00  0.32600611501E+03  0.32600611505E+03  0.50400001928E-02 0.  1.
        1   -1    0    0  501    0  0.00000000000E+00  0.00000000000E+00 -0.20093401504E+03  0.20093401510E+03  0.50400001928E-02 0. -1.
    10030    2    1    2    0    0  0.00000000000E+00  0.00000000000E+00  0.12507209997E+03  0.52694013015E+03  0.51188169587E+03 0.  0.
        2    1    3    3  502    0  0.15469466323E+03  0.68470975902E+02  0.26024592758E+03  0.31039757763E+03  0.25500000920E-02 0.  1.
       -2    1    3    3    0  502 -0.15469466323E+03 -0.68470975902E+02 -0.13517382761E+03  0.21654255252E+03  0.25500000920E-02 0. -1.
</event>
<event>
 5   0  0.2013450E-01  0.4258308E+03  0.7818609E-02  0.1035185E+00
       -1   -1    0    0    0  501  0.00000000000E+00  0.00000000000E+00  0.37574091837E+03  0.37574091840E+03  0.50400001928E-02 0. -1.
        1   -1    0    0  501    0  0.00000000000E+00  0.00000000000E+00 -0.12064955200E+03  0.12064955210E+03  0.50400001928E-02 0.  1.
    10030    2    1    2    0    0  0.00000000000E+00  0.00000000000E+00  0.25509136637E+03  0.49639047051E+03  0.42583082793E+03 0.  0.
        4    1    3    3  502    0  0.54981258649E+02 -0.36928834288E+02 -0.10833104394E+03  0.12697994167E+03  0.12699999809E+01 0.  1.
       -4    1    3    3    0  502 -0.54981258649E+02  0.36928834288E+02  0.36342241031E+03  0.36941052884E+03  0.12699999809E+01 0. -1.
</event>
<event>
 5   0  0.2013450E-01  0.4315406E+03  0.7818609E-02  0.1033374E+00
       -1   -1    0    0    0  501  0.00000000000E+00  0.00000000000E+00  0.95375902079E+02  0.95375902212E+02  0.50400001928E-02 0. -1.
        1   -1    0    0  501    0  0.00000000000E+00  0.00000000000E+00 -0.48814034224E+03  0.48814034226E+03  0.50400001928E-02 0.  1.
    10030    2    1    2    0    0  0.00000000000E+00  0.00000000000E+00 -0.39276444016E+03  0.58351624448E+03  0.43154061467E+03 0.  0.
        4    1    3    3  502    0 -0.19073621105E+03  0.10226788305E+02 -0.33207382529E+03  0.38309206171E+03  0.12699999809E+01 0.  1.
       -4    1    3    3    0  502  0.19073621105E+03 -0.10226788305E+02 -0.60690614867E+02  0.20042418276E+03  0.12699999809E+01 0. -1.
</event>
<event>
 5   0  0.3117389E-01  0.5646266E+03  0.7818609E-02  0.9981640E-01
        2   -1    0    0  501    0  0.00000000000E+00  0.00000000000E+00  0.15220566500E+04  0.15220566500E+04  0.25500000920E-02 0.  1.
       -2   -1    0    0    0  501  0.00000000000E+00  0.00000000000E+00 -0.52363887594E+02  0.52363887656E+02  0.25500000920E-02 0. -1.
    10030    2    1    2    0    0  0.00000000000E+00  0.00000000000E+00  0.14696927624E+04  0.15744205376E+04  0.56462661425E+03 0.  0.
        4    1    3    3  502    0 -0.54863977061E+01  0.26159388402E+03  0.10304424767E+04  0.10631438151E+04  0.12699999809E+01 0.  1.
       -4    1    3    3    0  502  0.54863977061E+01 -0.26159388402E+03  0.43925028563E+03  0.51127672257E+03  0.12699999809E+01 0. -1.
</event>
<event>
 5   0  0.1984680E-01  0.5013424E+03  0.7818609E-02  0.1013429E+00
        1   -1    0    0  501    0  0.00000000000E+00  0.00000000000E+00  0.21389104072E+03  0.21389104078E+03  0.50400001928E-02 0.  1.
       -1   -1    0    0    0  501  0.00000000000E+00  0.00000000000E+00 -0.29377592692E+03  0.29377592696E+03  0.50400001928E-02 0. -1.
    10030    2    1    2    0    0  0.00000000000E+00  0.00000000000E+00 -0.79884886199E+02  0.50766696774E+03  0.50134235318E+03 0.  0.
        5    1    3    3  502    0  0.77546547514E+02  0.17347015015E+03  0.12554688074E+03  0.22779260148E+03  0.46999998093E+01 0.  1.
       -5    1    3    3    0  502 -0.77546547514E+02 -0.17347015015E+03 -0.20543176694E+03  0.27987436626E+03  0.46999998093E+01 0. -1.
</event>
<event>
 5   0  0.2000612E-01  0.4991421E+03  0.7818609E-02  0.1014003E+00
       -1   -1    0    0    0  501  0.00000000000E+00  0.00000000000E+00  0.25409128341E+03  0.25409128346E+03  0.50400001928E-02 0.  1.
        1   -1    0    0  501    0  0.00000000000E+00  0.00000000000E+00 -0.24513124786E+03  0.24513124791E+03  0.50400001928E-02 0. -1.
    10030    2    1    2    0    0  0.00000000000E+00  0.00000000000E+00  0.89600355481E+01  0.49922253136E+03  0.49914211762E+03 0.  0.
        2    1    3    3  502    0 -0.13099602974E+03  0.27704032316E+02  0.21512790857E+03  0.25339196962E+03  0.25500000920E-02 0.  1.
       -2    1    3    3    0  502  0.13099602974E+03 -0.27704032316E+02 -0.20616787303E+03  0.24583056175E+03  0.25500000920E-02 0. -1.
</event>
<event>
 5   0  0.2013450E-01  0.4970156E+03  0.7818609E-02  0.1014561E+00
        1   -1    0    0  501    0  0.00000000000E+00  0.00000000000E+00  0.52455345508E+03  0.52455345510E+03  0.50400001928E-02 0. -1.
       -1   -1    0    0    0  501  0.00000000000E+00  0.00000000000E+00 -0.11773084704E+03  0.11773084715E+03  0.50400001928E-02 0.  1.
    10030    2    1    2    0    0  0.00000000000E+00  0.00000000000E+00  0.40682260804E+03  0.64228430225E+03  0.49701558377E+03 0.  0.
        4    1    3    3  502    0 -0.62645888557E+02 -0.15815429867E+03 -0.30692352514E+02  0.17286099313E+03  0.12699999809E+01 0.  1.
       -4    1    3    3    0  502  0.62645888557E+02  0.15815429867E+03  0.43751496055E+03  0.46942330912E+03  0.12699999809E+01 0. -1.
</event>
<event>
 5   0  0.2013450E-01  0.5066316E+03  0.7818609E-02  0.1012062E+00
       -1   -1    0    0    0  501  0.00000000000E+00  0.00000000000E+00  0.10806638424E+03  0.10806638436E+03  0.50400001928E-02 0.  1.
        1   -1    0    0  501    0  0.00000000000E+00  0.00000000000E+00 -0.59379134665E+03  0.59379134667E+03  0.50400001928E-02 0. -1.
    10030    2    1    2    0    0  0.00000000000E+00  0.00000000000E+00 -0.48572496241E+03  0.70185773103E+03  0.50663155794E+03 0.  0.
        4    1    3    3  502    0  0.16431231175E+03  0.18918703181E+03 -0.19145525594E+03  0.31535217888E+03  0.12699999809E+01 0.  1.
       -4    1    3    3    0  502 -0.16431231175E+03 -0.18918703181E+03 -0.29426970647E+03  0.38650555215E+03  0.12699999809E+01 0. -1.
</event>
<event>
 5   0  0.3178149E-01  0.6417736E+03  0.7818609E-02  0.9822339E-01
       -2   -1    0    0    0  501  0.00000000000E+00  0.00000000000E+00  0.71648200531E+02  0.71648200577E+02  0.25500000920E-02 0. -1.
        2   -1    0    0  501    0  0.00000000000E+00  0.00000000000E+00 -0.14371379439E+04  0.14371379439E+04  0.25500000920E-02 0.  1.
    10030    2    1    2    0    0  0.00000000000E+00  0.00000000000E+00 -0.13654897434E+04  0.15087861445E+04  0.64177362872E+03 0.  0.
        3    1    3    3  502    0  0.31271662242E+03  0.71441159766E+02 -0.70280565308E+03  0.77254858841E+03  0.10100000352E+00 0. -1.
       -3    1    3    3    0  502 -0.31271662242E+03 -0.71441159766E+02 -0.66268409028E+03  0.73623755606E+03  0.10100000352E+00 0.  1.
</event>
<event>
 5   0  0.2000612E-01  0.5180239E+03  0.7818609E-02  0.1009179E+00
        1   -1    0    0  501    0  0.00000000000E+00  0.00000000000E+00  0.18029868753E+03  0.18029868760E+03  0.50400001928E-02 0. -1.
       -1   -1    0    0    0  501  0.00000000000E+00  0.00000000000E+00 -0.37208913805E+03  0.37208913808E+03  0.50400001928E-02 0.  1.
    10030    2    1    2    0    0  0.00000000000E+00  0.00000000000E+00 -0.19179045052E+03  0.55238782568E+03  0.51802387305E+03 0.  0.
        2    1    3    3  502    0 -0.13290729987E+03 -0.14598306795E+03 -0.27468326863E+03  0.33826957380E+03  0.25500000920E-02 0.  1.
       -2    1    3    3    0  502  0.13290729987E+03  0.14598306795E+03  0.82892818118E+02  0.21411825188E+03  0.25500000920E-02 0. -1.
</event>
<event>
 5   0  0.3178149E-01  0.4979451E+03  0.7818609E-02  0.1014317E+00
        2   -1    0    0  501    0  0.00000000000E+00  0.00000000000E+00  0.19183819013E+03  0.19183819015E+03  0.25500000920E-02 0.  1.
       -2   -1    0    0    0  501  0.00000000000E+00  0.00000000000E+00 -0.32312300422E+03  0.32312300423E+03  0.25500000920E-02 0. -1.
    10030    2    1    2    0    0  0.00000000000E+00  0.00000000000E+00 -0.13128481409E+03  0.51496119438E+03  0.49794510672E+03 0.  0.
        3    1    3    3  502    0  0.19108813199E+03 -0.23993100338E+00  0.99412937057E+02  0.21540119315E+03  0.10100000352E+00 0.  1.
       -3    1    3    3    0  502 -0.19108813199E+03  0.23993100338E+00 -0.23069775115E+03  0.29956000123E+03  0.10100000352E+00 0. -1.
</event>
<event>
 5   0  0.1984680E-01  0.5112087E+03  0.7818609E-02  0.1010894E+00
        1   -1    0    0  501    0  0.00000000000E+00  0.00000000000E+00  0.82565603946E+03  0.82565603947E+03  0.50400001928E-02 0.  1.
       -1   -1    0    0    0  501  0.00000000000E+00  0.00000000000E+00 -0.79129285868E+02  0.79129286028E+02  0.50400001928E-02 0. -1.
    10030    2    1    2    0    0  0.00000000000E+00  0.00000000000E+00  0.74652675359E+03  0.90478532550E+03  0.51120865742E+03 0.  0.
        5    1    3    3  502    0 -0.20129866050E+02  0.23528057516E+03  0.54621857685E+03  0.59509577737E+03  0.46999998093E+01 0.  1.
       -5    1    3    3    0  502  0.20129866050E+02 -0.23528057516E+03  0.20030817674E+03  0.30968954813E+03  0.46999998093E+01 0. -1.
</event>
<event>
 5   0  0.3178149E-01  0.5081780E+03  0.7818609E-02  0.1011666E+00
       -2   -1    0    0    0  501  0.00000000000E+00  0.00000000000E+00  0.11059875609E+03  0.11059875612E+03  0.25500000920E-02 0. -1.
        2   -1    0    0  501    0  0.00000000000E+00  0.00000000000E+00 -0.58374268660E+03  0.58374268660E+03  0.25500000920E-02 0.  1.
    10030    2    1    2    0    0  0.00000000000E+00  0.00000000000E+00 -0.47314393051E+03  0.69434144272E+03  0.50817798073E+03 0.  0.
        3    1    3    3  502    0  0.17400436272E+03  0.36533366309E+02  0.11443271043E+02  0.17816611281E+03  0.10100000352E+00 0. -1.
       -3    1    3    3    0  502 -0.17400436272E+03 -0.36533366309E+02 -0.48458720155E+03  0.51617532991E+03  0.10100000352E+00 0.  1.
</event>
<event>
 5   0  0.1967161E-01  0.5080364E+03  0.7818609E-02  0.1011702E+00
        1   -1    0    0  501    0  0.00000000000E+00  0.00000000000E+00  0.65618135805E+03  0.65618135807E+03  0.50400001928E-02 0.  1.
       -1   -1    0    0    0  501  0.00000000000E+00  0.00000000000E+00 -0.98334478857E+02  0.98334478986E+02  0.50400001928E-02 0. -1.
    10030    2    1    2    0    0  0.00000000000E+00  0.00000000000E+00  0.55784687919E+03  0.75451583705E+03  0.50803642364E+03 0.  0.
        1    1    3    3  502    0 -0.11547383159E+03 -0.22034406498E+03  0.20262115102E+03  0.32084426693E+03  0.50400001928E-02 0.  1.
       -1    1    3    3    0  502  0.11547383159E+03  0.22034406498E+03  0.35522572817E+03  0.43367157012E+03  0.50400001928E-02 0. -1.
</event>
<event>
 5   0  0.1984680E-01  0.4182284E+03  0.7818609E-02  0.1037644E+00
        1   -1    0    0  501    0  0.00000000000E+00  0.00000000000E+00  0.11751354269E+04  0.11751354269E+04  0.50400001928E-02 0. -1.
       -1   -1    0    0    0  501  0.00000000000E+00  0.00000000000E+00 -0.37211669874E+02  0.37211670215E+02  0.50400001928E-02 0.  1.
    10030    2    1    2    0    0  0.00000000000E+00  0.00000000000E+00  0.11379237570E+04  0.12123470971E+04  0.41822841498E+03 0.  0.
        5    1    3    3  502    0 -0.12438826047E+03 -0.15457320064E+03  0.37796523077E+03  0.42690176782E+03  0.46999998093E+01 0.  1.
       -5    1    3    3    0  502  0.12438826047E+03  0.15457320064E+03  0.75995852622E+03  0.78544532927E+03  0.46999998093E+01 0. -1.
</event>
<event>
 5   0  0.3187123E-01  0.4873908E+03  0.7818609E-02  0.1017124E+00
        2   -1    0    0  501    0  0.00000000000E+00  0.00000000000E+00  0.77445556513E+03  0.77445556513E+03  0.25500000920E-02 0. -1.
       -2   -1    0    0    0  501  0.00000000000E+00  0.00000000000E+00 -0.76682833478E+02  0.76682833521E+02  0.25500000920E-02 0.  1.
    10030    2    1    2    0    0  0.00000000000E+00  0.00000000000E+00  0.69777273165E+03  0.85113839866E+03  0.48739079662E+03 0.  0.
        5    1    3    3  502    0 -0.65452305867E+02 -0.19010515207E+02 -0.59617074212E+02  0.90673532894E+02  0.46999998093E+01 0.  1.
       -5    1    3    3    0  502  0.65452305867E+02  0.19010515207E+02  0.75738980586E+03  0.76046486576E+03  0.46999998093E+01 0. -1.
</event>
<event>
 5   0  0.1967161E-01  0.4892280E+03  0.7818609E-02  0.1016629E+00
        1   -1    0    0  501    0  0.00000000000E+00  0.00000000000E+00  0.63311951356E+03  0.63311951358E+03  0.50400001928E-02 0. -1.
       -1   -1    0    0    0  501  0.00000000000E+00  0.00000000000E+00 -0.94509804067E+02  0.94509804201E+02  0.50400001928E-02 0.  1.
    10030    2    1    2    0    0  0.00000000000E+00  0.00000000000E+00  0.53860970949E+03  0.72762931778E+03  0.48922796827E+03 0.  0.
        1    1    3    3  502    0 -0.21756058805E+03  0.10649977428E+03  0.21862323094E+03  0.32629883317E+03  0.50400001928E-02 0.  1.
       -1    1    3    3    0  502  0.21756058805E+03 -0.10649977428E+03  0.31998647855E+03  0.40133048461E+03  0.50400001928E-02 0. -1.
</event>
<event>
 5   0  0.2000612E-01  0.4892953E+03  0.7818609E-02  0.1016611E+00
        1   -1    0    0  501    0  0.00000000000E+00  0.00000000000E+00  0.61437370042E+02  0.61437370248E+02  0.50400001928E-02 0.  1.
       -1   -1    0    0    0  501  0.00000000000E+00  0.00000000000E+00 -0.97420285482E+03  0.97420285483E+03  0.50400001928E-02 0. -1.
    10030    2    1    2    0    0  0.00000000000E+00  0.00000000000E+00 -0.91276548478E+03  0.10356402251E+04  0.48929525402E+03 0.  0.
        2    1    3    3  502    0  0.38672576377E+02  0.31789595602E+02 -0.96324582966E+03  0.96454583868E+03  0.25500000920E-02 0. -1.
       -2    1    3    3    0  502 -0.38672576377E+02 -0.31789595602E+02  0.50480344880E+02  0.71094386402E+02  0.25500000920E-02 0.  1.
</event>
<event>
 5   0  0.3329246E-01  0.5015742E+03  0.7818609E-02  0.1013369E+00
        2   -1    0    0  501    0  0.00000000000E+00  0.00000000000E+00  0.91271032637E+03  0.91271032637E+03  0.25500000920E-02 0. -1.
       -2   -1    0    0    0  501  0.00000000000E+00  0.00000000000E+00 -0.68909227904E+02  0.68909227951E+02  0.25500000920E-02 0.  1.
    10030    2    1    2    0    0  0.00000000000E+00  0.00000000000E+00  0.84380109847E+03  0.98161955432E+03  0.50157417762E+03 0.  0.
        2    1    3    3  502    0  0.10455084942E+03  0.13708737162E+03  0.77833770456E+03  0.79720349342E+03  0.25500000920E-02 0. -1.
       -2    1    3    3    0  502 -0.10455084942E+03 -0.13708737162E+03  0.65463393910E+02  0.18441606091E+03  0.25500000920E-02 0.  1.
</event>
<event>
 5   0  0.3329246E-01  0.5269546E+03  0.7818609E-02  0.1006973E+00
        2   -1    0    0  501    0  0.00000000000E+00  0.00000000000E+00  0.31472784373E+03  0.31472784374E+03  0.25500000920E-02 0.  1.
       -2   -1    0    0    0  501  0.00000000000E+00  0.00000000000E+00 -0.22057246963E+03  0.22057246964E+03  0.25500000920E-02 0. -1.
    10030    2    1    2    0    0  0.00000000000E+00  0.00000000000E+00  0.94155374098E+02  0.53530031338E+03  0.52695463850E+03 0.  0.
        2    1    3    3  502    0  0.13667739134E+03  0.11287834898E+03  0.24509584525E+03  0.30248008915E+03  0.25500000920E-02 0.  1.
       -2    1    3    3    0  502 -0.13667739134E+03 -0.11287834898E+03 -0.15094047115E+03  0.23282022422E+03  0.25500000920E-02 0. -1.
</event>
<event>
 5   0  0.3117389E-01  0.4943200E+03  0.7818609E-02  0.1015272E+00
        2   -1    0    0  501    0  0.00000000000E+00  0.00000000000E+00  0.89125323223E+03  0.89125323224E+03  0.25500000920E-02 0.  1.
       -2   -1    0    0    0  501  0.00000000000E+00  0.00000000000E+00 -0.68541751799E+02  0.68541751846E+02  0.25500000920E-02 0. -1.
    10030    2    1    2    0    0  0.00000000000E+00  0.00000000000E+00  0.82271148043E+03  0.95979498408E+03  0.49431996868E+03 0.  0.
        4    1    3    3  502    0  0.17070751033E+03  0.18170467418E+02  0.66117845426E+02  0.18396848196E+03  0.12699999809E+01 0. -1.
       -4    1    3    3    0  502 -0.17070751033E+03 -0.18170467418E+02  0.75659363501E+03  0.77582650213E+03  0.12699999809E+01 0.  1.
</event>
<event>
 5   0  0.3111146E-01  0.5177429E+03  0.7818609E-02  0.1009249E+00
        2   -1    0    0  501    0  0.00000000000E+00  0.00000000000E+00  0.16634236273E+04  0.16634236273E+04  0.25500000920E-02 0. -1.
       -2   -1    0    0    0  501  0.00000000000E+00  0.00000000000E+00 -0.40287046926E+02  0.40287047007E+02  0.25500000920E-02 0.  1.
    10030    2    1    2    0    0  0.00000000000E+00  0.00000000000E+00  0.16231365804E+04  0.17037106743E+04  0.51774289296E+03 0.  0.
        1    1    3    3  502    0  0.69288039046E+02  0.23038305750E+03  0.49701863015E+03  0.55218176743E+03  0.50400001928E-02 0.  1.
       -1    1    3    3    0  502 -0.69288039046E+02 -0.23038305750E+03  0.11261179502E+04  0.11515289069E+04  0.50400001928E-02 0. -1.
</event>
<event>
 5   0  0.1292375E-01  0.4888773E+03  0.7818609E-02  0.1016724E+00
       -4   -1    0    0    0  501  0.00000000000E+00  0.00000000000E+00  0.64405627177E+02  0.64418147381E+02  0.12699999809E+01 0.  1.
        4   -1    0    0  501    0  0.00000000000E+00  0.00000000000E+00 -0.92761469943E+03  0.92761556881E+03  0.12699999809E+01 0. -1.
    10030    2    1    2    0    0  0.00000000000E+00  0.00000000000E+00 -0.86320907225E+03  0.99203371619E+03  0.48887727666E+03 0.  0.
        2    1    3    3  502    0 -0.49606904736E+02 -0.14091482901E+03 -0.82420471966E+03  0.83763431995E+03  0.25500000920E-02 0. -1.
       -2    1    3    3    0  502  0.49606904736E+02  0.14091482901E+03 -0.39004352587E+02  0.15439939624E+03  0.25500000920E-02 0.  1.
</event>
<event>
 5   0  0.3117389E-01  0.5164676E+03  0.7818609E-02  0.1009568E+00
        2   -1    0    0  501    0  0.00000000000E+00  0.00000000000E+00  0.16955732332E+04  0.16955732333E+04  0.25500000920E-02 0. -1.
       -2   -1    0    0    0  501  0.00000000000E+00  0.00000000000E+00 -0.39328704942E+02  0.39328705025E+02  0.25500000920E-02 0.  1.
    10030    2    1    2    0    0  0.00000000000E+00  0.00000000000E+00  0.16562445283E+04  0.17349019383E+04  0.51646761553E+03 0.  0.
        4    1    3    3  502    0  0.15517272210E+03  0.60029788831E+02  0.16473159322E+03  0.23413726729E+03  0.12699999809E+01 0.  1.
       -4    1    3    3    0  502 -0.15517272210E+03 -0.60029788831E+02  0.14915129351E+04  0.15007646710E+04  0.12699999809E+01 0. -1.
</event>
<event>
 5   0  0.3178149E-01  0.5024986E+03  0.7818609E-02  0.1013129E+00
        2   -1    0    0  501    0  0.00000000000E+00  0.00000000000E+00  0.24118130687E+03  0.24118130689E+03  0.25500000920E-02 0.  1.
       -2   -1    0    0    0  501  0.00000000000E+00  0.00000000000E+00 -0.26173754583E+03  0.26173754584E+03  0.25500000920E-02 0. -1.
    10030    2    1    2    0    0  0.00000000000E+00  0.00000000000E+00 -0.20556238958E+02  0.50291885273E+03  0.50249857062E+03 0.  0.
        3    1    3    3  502    0  0.18342619421E+03 -0.53581533644E+02  0.15298416882E+03  0.24478626509E+03  0.10100000352E+00 0.  1.
       -3    1    3    3    0  502 -0.18342619421E+03  0.53581533644E+02 -0.17354040777E+03  0.25813258764E+03  0.10100000352E+00 0. -1.
</event>
<event>
 5   0  0.1984680E-01  0.5074270E+03  0.7818609E-02  0.1011858E+00
       -1   -1    0    0    0  501  0.00000000000E+00  0.00000000000E+00  0.92609193189E+02  0.92609193326E+02  0.50400001928E-02 0.  1.
        1   -1    0    0  501    0  0.00000000000E+00  0.00000000000E+00 -0.69507725223E+03  0.69507725225E+03  0.50400001928E-02 0. -1.
    10030    2    1    2    0    0  0.00000000000E+00  0.00000000000E+00 -0.60246805904E+03  0.78768644558E+03  0.50742701384E+03 0.  0.
        5    1    3    3  502    0 -0.11223033258E+03 -0.15925640165E+03 -0.49059530502E+02  0.20096561036E+03  0.46999998093E+01 0.  1.
       -5    1    3    3    0  502  0.11223033258E+03  0.15925640165E+03 -0.55340852854E+03  0.58672083521E+03  0.46999998093E+01 0. -1.
</event>
<event>
 5   0  0.1984680E-01  0.4958643E+03  0.7818609E-02  0.1014864E+00
        1   -1    0    0  501    0  0.00000000000E+00  0.00000000000E+00  0.40387069872E+03  0.40387069875E+03  0.50400001928E-02 0. -1.
       -1   -1    0    0    0  501  0.00000000000E+00  0.00000000000E+00 -0.15220306363E+03  0.15220306372E+03  0.50400001928E-02 0.  1.
    10030    2    1    2    0    0  0.00000000000E+00  0.00000000000E+00  0.25166763508E+03  0.55607376247E+03  0.49586432696E+03 0.  0.
        5    1    3    3  502    0 -0.83595598228E+02  0.15336487382E+03 -0.71419580364E+02  0.18876401940E+03  0.46999998093E+01 0.  1.
       -5    1    3    3    0  502  0.83595598228E+02 -0.15336487382E+03  0.32308721545E+03  0.36730974306E+03  0.46999998093E+01 0. -1.
</event>
<event>
 5   0  0.1984297E-01  0.5054012E+03  0.7818609E-02  0.1012379E+00
        1   -1    0    0  501    0  0.00000000000E+00  0.00000000000E+00  0.21893281768E+03  0.21893281774E+03  0.50400001928E-02 0. -1.
       -1   -1    0    0    0  501  0.00000000000E+00  0.00000000000E+00 -0.29167665400E+03  0.29167665404E+03  0.50400001928E-02 0.  1.
    10030    2    1    2    0    0  0.00000000000E+00  0.00000000000E+00 -0.72743836312E+02  0.51060947178E+03  0.50540119406E+03 0.  0.
        3    1    3    3  502    0  0.78472474028E+02 -0.23998517027E+03 -0.25932457777E+02  0.25381748107E+03  0.10100000352E+00 0. -1.
       -3    1    3    3    0  502 -0.78472474028E+02  0.23998517027E+03 -0.46811378536E+02  0.25679199071E+03  0.10100000352E+00 0.  1.
</event>
<event>
 5   0  0.1292375E-01  0.5223686E+03  0.7818609E-02  0.1008100E+00
       -3   -1    0    0    0  501  0.00000000000E+00  0.00000000000E+00  0.43554912060E+03  0.43554913231E+03  0.10100000352E+00 0. -1.
        3   -1    0    0  501    0  0.00000000000E+00  0.00000000000E+00 -0.15662347544E+03  0.15662350800E+03  0.10100000352E+00 0.  1.
    10030    2    1    2    0    0  0.00000000000E+00  0.00000000000E+00  0.27892564516E+03  0.59217264031E+03  0.52236856759E+03 0.  0.
        3    1    3    3  502    0 -0.25840815217E+03 -0.13291266283E+02  0.17979502758E+03  0.31508362860E+03  0.10100000352E+00 0. -1.
       -3    1    3    3    0  502  0.25840815217E+03  0.13291266283E+02  0.99130617583E+02  0.27708901171E+03  0.10100000352E+00 0.  1.
</event>
<event>
 5   0  0.3187123E-01  0.5041383E+03  0.7818609E-02  0.1012704E+00
        2   -1    0    0  501    0  0.00000000000E+00  0.00000000000E+00  0.22181689444E+03  0.22181689445E+03  0.25500000920E-02 0. -1.
       -2   -1    0    0    0  501  0.00000000000E+00  0.00000000000E+00 -0.28644733791E+03  0.28644733792E+03  0.25500000920E-02 0.  1.
    10030    2    1    2    0    0  0.00000000000E+00  0.00000000000E+00 -0.64630443470E+02  0.50826423237E+03  0.50413831007E+03 0.  0.
        5    1    3    3  502    0 -0.35446696435E+02 -0.14913567231E+03  0.16936910965E+03  0.22848610974E+03  0.46999998093E+01 0. -1.
       -5    1    3    3    0  502  0.35446696435E+02  0.14913567231E+03 -0.23399955312E+03  0.27977812263E+03  0.46999998093E+01 0.  1.
</event>
<event>
 5   0  0.2013450E-01  0.4942491E+03  0.7818609E-02  0.1015291E+00
       -1   -1    0    0    0  501  0.00000000000E+00  0.00000000000E+00  0.23596810138E+03  0.23596810143E+03  0.50400001928E-02 0. -1.
        1   -1    0    0  501    0  0.00000000000E+00  0.00000000000E+00 -0.25880852059E+03  0.25880852064E+03  0.50400001928E-02 0.  1.
    10030    2    1    2    0    0  0.00000000000E+00  0.00000000000E+00 -0.22840419211E+02  0.49477662207E+03  0.49424914870E+03 0.  0.
        4    1    3    3  502    0 -0.47754134627E+02  0.84284178711E+02  0.21616502506E+03  0.23688227268E+03  0.12699999809E+01 0. -1.
       -4    1    3    3    0  502  0.47754134627E+02 -0.84284178711E+02 -0.23900544427E+03  0.25789434938E+03  0.12699999809E+01 0.  1.
</event>
<event>
 5   0  0.3111146E-01  0.5008009E+03  0.7818609E-02  0.1013570E+00
       -2   -1    0    0    0  501  0.00000000000E+00  0.00000000000E+00  0.34423618268E+02  0.34423618362E+02  0.25500000920E-02 0.  1.
        2   -1    0    0  501    0  0.00000000000E+00  0.00000000000E+00 -0.18214352720E+04  0.18214352720E+04  0.25500000920E-02 0. -1.
    10030    2    1    2    0    0  0.00000000000E+00  0.00000000000E+00 -0.17870116537E+04  0.18558588903E+04  0.50080092888E+03 0.  0.
        1    1    3    3  502    0  0.17910632575E+03 -0.21767352355E+02 -0.15369419971E+04  0.15474959115E+04  0.50400001928E-02 0. -1.
       -1    1    3    3    0  502 -0.17910632575E+03  0.21767352355E+02 -0.25006965659E+03  0.30836297885E+03  0.50400001928E-02 0.  1.
</event>
<event>
 5   0  0.1292375E-01  0.4975784E+03  0.7818609E-02  0.1014413E+00
        3   -1    0    0  501    0  0.00000000000E+00  0.00000000000E+00  0.88371633605E+03  0.88371634182E+03  0.10100000352E+00 0.  1.
       -3   -1    0    0    0  501  0.00000000000E+00  0.00000000000E+00 -0.70040607160E+02  0.70040679982E+02  0.10100000352E+00 0. -1.
    10030    2    1    2    0    0  0.00000000000E+00  0.00000000000E+00  0.81367572889E+03  0.95375702180E+03  0.49757840071E+03 0.  0.
        2    1    3    3  502    0  0.67684498089E+02 -0.25375916369E+02 -0.49468396981E+02  0.87591384962E+02  0.25500000920E-02 0. -1.
       -2    1    3    3    0  502 -0.67684498089E+02  0.25375916369E+02  0.86314412587E+03  0.86616563684E+03  0.25500000920E-02 0.  1.
</event>
<event>
 5   0  0.3329246E-01  0.5085146E+03  0.7818609E-02  0.1011580E+00
        2   -1    0    0  501    0  0.00000000000E+00  0.00000000000E+00  0.87160338973E+03  0.87160338973E+03  0.25500000920E-02 0. -1.
       -2   -1    0    0    0  501  0.00000000000E+00  0.00000000000E+00 -0.74169940233E+02  0.74169940276E+02  0.25500000920E-02 0.  1.
    10030    2    1    2    0    0  0.00000000000E+00  0.00000000000E+00  0.79743344950E+03  0.94577333001E+03  0.50851458719E+03 0.  0.
        2    1    3    3  502    0  0.64779827791E+02  0.50471740644E+02  0.84625891989E+03  0.85023407494E+03  0.25500000920E-02 0. -1.
       -2    1    3    3    0  502 -0.64779827791E+02 -0.50471740644E+02 -0.48825470396E+02  0.95539255064E+02  0.25500000920E-02 0.  1.
</event>
<event>
 5   0  0.1984680E-01  0.5437395E+03  0.7818609E-02  0.1002953E+00
       -1   -1    0    0    0  501  0.00000000000E+00  0.00000000000E+00  0.23005094723E+03  0.23005094729E+03  0.50400001928E-02 0. -1.
        1   -1    0    0  501    0  0.00000000000E+00  0.00000000000E+00 -0.32129037225E+03  0.32129037229E+03  0.50400001928E-02 0.  1.
    10030    2    1    2    0    0  0.00000000000E+00  0.00000000000E+00 -0.91239425021E+02  0.55134131958E+03  0.54373947621E+03 0.  0.
        5    1    3    3  502    0 -0.87763066672E+02 -0.18335316496E+03  0.13737592073E+03  0.24538739284E+03  0.46999998093E+01 0. -1.
       -5    1    3    3    0  502  0.87763066672E+02  0.18335316496E+03 -0.22861534575E+03  0.30595392673E+03  0.46999998093E+01 0.  1.
</event>
<event>
 5   0  0.3117389E-01  0.4865345E+03  0.7818609E-02  0.1017355E+00
        2   -1    0    0  501    0  0.00000000000E+00  0.00000000000E+00  0.39854273877E+03  0.39854273878E+03  0.25500000920E-02 0.  1.
       -2   -1    0    0    0  501  0.00000000000E+00  0.00000000000E+00 -0.14848835943E+03  0.14848835945E+03  0.25500000920E-02 0. -1.
    10030    2    1    2    0    0  0.00000000000E+00  0.00000000000E+00  0.25005437934E+03  0.54703109823E+03  0.48653451039E+03 0.  0.
        4    1    3    3  502    0  0.21261220380E+03  0.27165078729E+02 -0.43232128596E+01  0.21438795156E+03  0.12699999809E+01 0.  1.
       -4    1    3    3    0  502 -0.21261220380E+03 -0.27165078729E+02  0.25437759220E+03  0.33264314666E+03  0.12699999809E+01 0. -1.
</event>
<event>
 5   0  0.3187123E-01  0.4979914E+03  0.7818609E-02  0.1014305E+00
        2   -1    0    0  501    0  0.00000000000E+00  0.00000000000E+00  0.18809504423E+03  0.18809504425E+03  0.25500000920E-02 0. -1.
       -2   -1    0    0    0  501  0.00000000000E+00  0.00000000000E+00 -0.32961457786E+03  0.32961457787E+03  0.25500000920E-02 0.  1.
    10030    2    1    2    0    0  0.00000000000E+00  0.00000000000E+00 -0.14151953363E+03  0.51770962212E+03  0.49799144012E+03 0.  0.
        5    1    3    3  502    0  0.11655047843E+03  0.14134569555E+03 -0.24599916850E+03  0.30675772293E+03  0.46999998093E+01 0.  1.
       -5    1    3    3    0  502 -0.11655047843E+03 -0.14134569555E+03  0.10447963487E+03  0.21095189919E+03  0.46999998093E+01 0. -1.
</event>
<event>
 5   0  0.2013450E-01  0.5607538E+03  0.7818609E-02  0.9990350E-01
       -1   -1    0    0    0  501  0.00000000000E+00  0.00000000000E+00  0.18691187362E+03  0.18691187368E+03  0.50400001928E-02 0. -1.
        1   -1    0    0  501    0  0.00000000000E+00  0.00000000000E+00 -0.42057902183E+03  0.42057902186E+03  0.50400001928E-02 0.  1.
    10030    2    1    2    0    0  0.00000000000E+00  0.00000000000E+00 -0.23366714822E+03  0.60749089555E+03  0.56075382479E+03 0.  0.
        4    1    3    3  502    0 -0.18964755366E+03 -0.12248479890E+03  0.63278761573E+02  0.23446649043E+03  0.12699999809E+01 0. -1.
       -4    1    3    3    0  502  0.18964755366E+03  0.12248479890E+03 -0.29694590979E+03  0.37302440511E+03  0.12699999809E+01 0.  1.
</event>
<event>
 5   0  0.3178149E-01  0.4699639E+03  0.7818609E-02  0.1021930E+00
       -2   -1    0    0    0  501  0.00000000000E+00  0.00000000000E+00  0.49360335271E+02  0.49360335337E+02  0.25500000920E-02 0.  1.
        2   -1    0    0  501    0  0.00000000000E+00  0.00000000000E+00 -0.11186413896E+04  0.11186413896E+04  0.25500000920E-02 0. -1.
    10030    2    1    2    0    0  0.00000000000E+00  0.00000000000E+00 -0.10692810544E+04  0.11680017250E+04  0.46996388832E+03 0.  0.
        3    1    3    3  502    0  0.80339735014E+01  0.18998783292E+03 -0.87772534920E+03  0.89808781319E+03  0.10100000352E+00 0. -1.
       -3    1    3    3    0  502 -0.80339735014E+01 -0.18998783292E+03 -0.19155570517E+03  0.26991391178E+03  0.10100000352E+00 0.  1.
</event>
<event>
 5   0  0.1984680E-01  0.5261194E+03  0.7818609E-02  0.1007178E+00
       -1   -1    0    0    0  501  0.00000000000E+00  0.00000000000E+00  0.96905306584E+02  0.96905306715E+02  0.50400001928E-02 0. -1.
        1   -1    0    0  501    0  0.00000000000E+00  0.00000000000E+00 -0.71410329193E+03  0.71410329195E+03  0.50400001928E-02 0.  1.
    10030    2    1    2    0    0  0.00000000000E+00  0.00000000000E+00 -0.61719798534E+03  0.81100859866E+03  0.52611937238E+03 0.  0.
        5    1    3    3  502    0  0.13795498644E+03 -0.10267237428E+03 -0.18262295545E+01  0.17204249428E+03  0.46999998093E+01 0. -1.
       -5    1    3    3    0  502 -0.13795498644E+03  0.10267237428E+03 -0.61537175579E+03  0.63896610438E+03  0.46999998093E+01 0.  1.
</event>
<event>
 5   0  0.1967161E-01  0.5047787E+03  0.7818609E-02  0.1012539E+00
       -1   -1    0    0    0  501  0.00000000000E+00  0.00000000000E+00  0.32263040560E+03  0.32263040564E+03  0.50400001928E-02 0. -1.
        1   -1    0    0  501    0  0.00000000000E+00  0.00000000000E+00 -0.19744071242E+03  0.19744071249E+03  0.50400001928E-02 0.  1.
    10030    2    1    2    0    0  0.00000000000E+00  0.00000000000E+00  0.12518969317E+03  0.52007111812E+03  0.50477867291E+03 0.  0.
        1    1    3    3  502    0  0.16755797269E+03 -0.14889399739E+03  0.18210591141E+03  0.28880384289E+03  0.50400001928E-02 0. -1.
       -1    1    3    3    0  502 -0.16755797269E+03  0.14889399739E+03 -0.56916218240E+02  0.23126727523E+03  0.50400001928E-02 0.  1.
</event>
<event>
 5   0  0.1984297E-01  0.4518937E+03  0.7818609E-02  0.1027159E+00
       -1   -1    0    0    0  501  0.00000000000E+00  0.00000000000E+00  0.10766890236E+03  0.10766890247E+03  0.50400001928E-02 0. -1.
        1   -1    0    0  501    0  0.00000000000E+00  0.00000000000E+00 -0.47415704801E+03  0.47415704803E+03  0.50400001928E-02 0.  1.
    10030    2    1    2    0    0  0.00000000000E+00  0.00000000000E+00 -0.36648814565E+03  0.58182595051E+03  0.45189365539E+03 0.  0.
        3    1    3    3  502    0 -0.11149204932E+03  0.92787829500E+02 -0.40629477354E+03  0.43141107029E+03  0.10100000352E+00 0.  1.
       -3    1    3    3    0  502  0.11149204932E+03 -0.92787829500E+02  0.39806627889E+02  0.15041488022E+03  0.10100000352E+00 0. -1.
</event>
<event>
 5   0  0.2013450E-01  0.4995825E+03  0.7818609E-02  0.1013888E+00
        1   -1    0    0  501    0  0.00000000000E+00  0.00000000000E+00  0.72074258948E+03  0.72074258950E+03  0.50400001928E-02 0.  1.
       -1   -1    0    0    0  501  0.00000000000E+00  0.00000000000E+00 -0.86571371785E+02  0.86571371931E+02  0.50400001928E-02 0. -1.
    10030    2    1    2    0    0  0.00000000000E+00  0.00000000000E+00  0.63417121770E+03  0.80731396143E+03  0.49958252468E+03 0.  0.
        4    1    3    3  502    0 -0.68134166790E+02 -0.61043625652E+01  0.70530553360E+03  0.70861628301E+03  0.12699999809E+01 0.  1.
       -4    1    3    3    0  502  0.68134166790E+02  0.61043625652E+01 -0.71134315901E+02  0.98697678418E+02  0.12699999809E+01 0. -1.
</event>
<event>
 5   0  0.3178149E-01  0.5096134E+03  0.7818609E-02  0.1011300E+00
       -2   -1    0    0    0  501  0.00000000000E+00  0.00000000000E+00  0.81796918229E+02  0.81796918269E+02  0.25500000920E-02 0.  1.
        2   -1    0    0  501    0  0.00000000000E+00  0.00000000000E+00 -0.79375169037E+03  0.79375169037E+03  0.25500000920E-02 0. -1.
    10030    2    1    2    0    0  0.00000000000E+00  0.00000000000E+00 -0.71195477214E+03  0.87554860864E+03  0.50961335199E+03 0.  0.
        3    1    3    3  502    0  0.19189076746E+02 -0.82107625268E+02  0.57132461284E+02  0.10185288963E+03  0.10100000352E+00 0.  1.
       -3    1    3    3    0  502 -0.19189076746E+02  0.82107625268E+02 -0.76908723342E+03  0.77369571901E+03  0.10100000352E+00 0. -1.
</event>
<event>
 5   0  0.1984680E-01  0.4988262E+03  0.7818609E-02  0.1014086E+00
       -1   -1    0    0    0  501  0.00000000000E+00  0.00000000000E+00  0.14358509775E+03  0.14358509784E+03  0.50400001928E-02 0. -1.
        1   -1    0    0  501    0  0.00000000000E+00  0.00000000000E+00 -0.43324056799E+03  0.43324056802E+03  0.50400001928E-02 0.  1.
    10030    2    1    2    0    0  0.00000000000E+00  0.00000000000E+00 -0.28965547024E+03  0.57682566586E+03  0.49882617950E+03 0.  0.
        5    1    3    3  502    0  0.19451981122E+03  0.78892414916E+02  0.10843487836E+02  0.21024186385E+03  0.46999998093E+01 0. -1.
       -5    1    3    3    0  502 -0.19451981122E+03 -0.78892414916E+02 -0.30049895808E+03  0.36658380201E+03  0.46999998093E+01 0.  1.
</event>
<event>
 5   0  0.3178149E-01  0.4962537E+03  0.7818609E-02  0.1014761E+00
        2   -1    0    0  501    0  0.00000000000E+00  0.00000000000E+00  0.11943822410E+04  0.11943822410E+04  0.25500000920E-02 0.  1.
       -2   -1    0    0    0  501  0.00000000000E+00  0.00000000000E+00 -0.51547098339E+02  0.51547098402E+02  0.25500000920E-02 0. -1.
    10030    2    1    2    0    0  0.00000000000E+00  0.00000000000E+00  0.11428351426E+04  0.12459293394E+04  0.49625372087E+03 0.  0.
        3    1    3    3  502    0 -0.93473894863E+02  0.16473874907E+03  0.97383579628E+03  0.99208487176E+03  0.10100000352E+00 0.  1.
       -3    1    3    3    0  502  0.93473894863E+02 -0.16473874907E+03  0.16899934634E+03  0.25384446760E+03  0.10100000352E+00 0. -1.
</event>
<event>
 5   0  0.3187123E-01  0.5051419E+03  0.7818609E-02  0.1012445E+00
        2   -1    0    0  501    0  0.00000000000E+00  0.00000000000E+00  0.43113780998E+03  0.43113780999E+03  0.25500000920E-02 0.  1.
       -2   -1    0    0    0  501  0.00000000000E+00  0.00000000000E+00 -0.14796215844E+03  0.14796215847E+03  0.25500000920E-02 0. -1.
    10030    2    1    2    0    0  0.00000000000E+00  0.00000000000E+00  0.28317565154E+03  0.57909996845E+03  0.50514188486E+03 0.  0.
        5    1    3    3  502    0 -0.24735670583E+03  0.50314710142E+02  0.14994019453E+03  0.29363423150E+03  0.46999998093E+01 0. -1.
       -5    1    3    3    0  502  0.24735670583E+03 -0.50314710142E+02  0.13323545701E+03  0.28546573696E+03  0.46999998093E+01 0.  1.
</event>
<event>
 5   0  0.2000612E-01  0.2660915E+03  0.7818609E-02  0.1103538E+00
       -1   -1    0    0    0  501  0.00000000000E+00  0.00000000000E+00  0.14505957156E+02  0.14505958031E+02  0.50400001928E-02 0. -1.
        1   -1    0    0  501    0  0.00000000000E+00  0.00000000000E+00 -0.12202690998E+04  0.12202690998E+04  0.50400001928E-02 0.  1.
    10030    2    1    2    0    0  0.00000000000E+00  0.00000000000E+00 -0.12057631426E+04  0.12347750578E+04  0.26609150176E+03 0.  0.
        2    1    3    3  502    0 -0.10519906474E+03 -0.79683855461E+01 -0.97903677365E+03  0.98470469815E+03  0.25500000920E-02 0.  1.
       -2    1    3    3    0  502  0.10519906474E+03  0.79683855461E+01 -0.22672636896E+03  0.25007035965E+03  0.25500000920E-02 0. -1.
</event>
<event>
 5   0  0.2013450E-01  0.5341329E+03  0.7818609E-02  0.1005235E+00
       -1   -1    0    0    0  501  0.00000000000E+00  0.00000000000E+00  0.26858122125E+03  0.26858122130E+03  0.50400001928E-02 0. -1.
        1   -1    0    0  501    0  0.00000000000E+00  0.00000000000E+00 -0.26556017485E+03  0.26556017490E+03  0.50400001928E-02 0.  1.
    10030    2    1    2    0    0  0.00000000000E+00  0.00000000000E+00  0.30210463948E+01  0.53414139620E+03  0.53413285277E+03 0.  0.
        4    1    3    3  502    0  0.18361004788E+03  0.19471989665E+01  0.19543737789E+03  0.26816752757E+03  0.12699999809E+01 0. -1.
       -4    1    3    3    0  502 -0.18361004788E+03 -0.19471989665E+01 -0.19241633150E+03  0.26597386863E+03  0.12699999809E+01 0.  1.
</event>
<event>
 5   0  0.3329246E-01  0.5156074E+03  0.7818609E-02  0.1009784E+00
        2   -1    0    0  501    0  0.00000000000E+00  0.00000000000E+00  0.15820060302E+04  0.15820060302E+04  0.25500000920E-02 0. -1.
       -2   -1    0    0    0  501  0.00000000000E+00  0.00000000000E+00 -0.42011686792E+02  0.42011686870E+02  0.25500000920E-02 0.  1.
    10030    2    1    2    0    0  0.00000000000E+00  0.00000000000E+00  0.15399943435E+04  0.16240177171E+04  0.51560737741E+03 0.  0.
        2    1    3    3  502    0 -0.45847690118E+02 -0.25317936676E+03  0.82087651798E+03  0.86025581092E+03  0.25500000920E-02 0.  1.
       -2    1    3    3    0  502  0.45847690118E+02  0.25317936676E+03  0.71911782547E+03  0.76376190620E+03  0.25500000920E-02 0. -1.
</event>
<event>
 5   0  0.3178149E-01  0.4657611E+03  0.7818609E-02  0.1023123E+00
        2   -1    0    0  501    0  0.00000000000E+00  0.00000000000E+00  0.59121706326E+03  0.59121706326E+03  0.25500000920E-02 0.  1.
       -2   -1    0    0    0  501  0.00000000000E+00  0.00000000000E+00 -0.91731723370E+02  0.91731723405E+02  0.25500000920E-02 0. -1.
    10030    2    1    2    0    0  0.00000000000E+00  0.00000000000E+00  0.49948533989E+03  0.68294878667E+03  0.46576114098E+03 0.  0.
        3    1    3    3  502    0 -0.83414917036E+02 -0.17280986830E+03  0.56256534512E+02  0.19996526409E+03  0.10100000352E+00 0. -1.
       -3    1    3    3    0  502  0.83414917036E+02  0.17280986830E+03  0.44322880537E+03  0.48298352258E+03  0.10100000352E+00 0.  1.
</event>
<event>
 5   0  0.1967161E-01  0.4958383E+03  0.7818609E-02  0.1014871E+00
        1   -1    0    0  501    0  0.00000000000E+00  0.00000000000E+00  0.21516024461E+03  0.21516024467E+03  0.50400001928E-02 0.  1.
       -1   -1    0    0    0  501  0.00000000000E+00  0.00000000000E+00 -0.28566574130E+03  0.28566574135E+03  0.50400001928E-02 0. -1.
    10030    2    1    2    0    0  0.00000000000E+00  0.00000000000E+00 -0.70505496689E+02  0.50082598602E+03  0.49583832366E+03 0.  0.
        1    1    3    3  502    0 -0.60307875897E+02  0.46670081767E+01  0.20759260871E+03  0.21622560458E+03  0.50400001928E-02 0.  1.
       -1    1    3    3    0  502  0.60307875897E+02 -0.46670081767E+01 -0.27809810540E+03  0.28460038144E+03  0.50400001928E-02 0. -1.
</event>
<event>
 5   0  0.3187123E-01  0.4995094E+03  0.7818609E-02  0.1013907E+00
       -2   -1    0    0    0  501  0.00000000000E+00  0.00000000000E+00  0.16818527651E+03  0.16818527653E+03  0.25500000920E-02 0.  1.
        2   -1    0    0  501    0  0.00000000000E+00  0.00000000000E+00 -0.37088509746E+03  0.37088509747E+03  0.25500000920E-02 0. -1.
    10030    2    1    2    0    0  0.00000000000E+00  0.00000000000E+00 -0.20269982095E+03  0.53907037400E+03  0.49950941004E+03 0.  0.
        5    1    3    3  502    0  0.38454498817E+02  0.26575246847E+02  0.16337388990E+03  0.16999444145E+03  0.46999998093E+01 0.  1.
       -5    1    3    3    0  502 -0.38454498817E+02 -0.26575246847E+02 -0.36607371084E+03  0.36907593256E+03  0.46999998093E+01 0. -1.
</event>
<event>
 5   0  0.2013450E-01  0.5112578E+03  0.7818609E-02  0.1010882E+00
        1   -1    0    0  501    0  0.00000000000E+00  0.00000000000E+00  0.27902747346E+03  0.27902747351E+03  0.50400001928E-02 0.  1.
       -1   -1    0    0    0  501  0.00000000000E+00  0.00000000000E+00 -0.23419242907E+03  0.23419242912E+03  0.50400001928E-02 0. -1.
    10030    2    1    2    0    0  0.00000000000E+00  0.00000000000E+00  0.44835044396E+02  0.51321990263E+03  0.51125775031E+03 0.  0.
        4    1    3    3  502    0  0.62040481262E+02 -0.22169811212E+03 -0.89118917703E+02  0.24686609452E+03  0.12699999809E+01 0.  1.
       -4    1    3    3    0  502 -0.62040481262E+02  0.22169811212E+03  0.13395396210E+03  0.26635380811E+03  0.12699999809E+01 0. -1.
</event>
<event>
 5   0  0.1292375E-01  0.5454700E+03  0.7818609E-02  0.1002548E+00
       -3   -1    0    0    0  501  0.00000000000E+00  0.00000000000E+00  0.63347476866E+03  0.63347477671E+03  0.10100000352E+00 0. -1.
        3   -1    0    0  501    0  0.00000000000E+00  0.00000000000E+00 -0.11742278878E+03  0.11742283222E+03  0.10100000352E+00 0.  1.
    10030    2    1    2    0    0  0.00000000000E+00  0.00000000000E+00  0.51605197988E+03  0.75089760893E+03  0.54547004790E+03 0.  0.
        5    1    3    3  502    0  0.64568578759E+02  0.26428536458E+03  0.28364892285E+03  0.39305808315E+03  0.46999998093E+01 0. -1.
       -5    1    3    3    0  502 -0.64568578759E+02 -0.26428536458E+03  0.23240305703E+03  0.35783952578E+03  0.46999998093E+01 0.  1.
</event>
<event>
 5   0  0.1984680E-01  0.5032593E+03  0.7818609E-02  0.1012932E+00
        1   -1    0    0  501    0  0.00000000000E+00  0.00000000000E+00  0.60395925399E+03  0.60395925401E+03  0.50400001928E-02 0. -1.
       -1   -1    0    0    0  501  0.00000000000E+00  0.00000000000E+00 -0.10483735524E+03  0.10483735536E+03  0.50400001928E-02 0.  1.
    10030    2    1    2    0    0  0.00000000000E+00  0.00000000000E+00  0.49912189875E+03  0.70879660937E+03  0.50325934035E+03 0.  0.
        5    1    3    3  502    0  0.30213229701E+01 -0.43002881227E+02  0.59865695138E+03  0.60022546732E+03  0.46999998093E+01 0. -1.
       -5    1    3    3    0  502 -0.30213229701E+01  0.43002881227E+02 -0.99535052630E+02  0.10857114205E+03  0.46999998093E+01 0.  1.
</event>
<event>
 5   0  0.3329246E-01  0.5039404E+03  0.7818609E-02  0.1012756E+00
       -2   -1    0    0    0  501  0.00000000000E+00  0.00000000000E+00  0.25168078122E+03  0.25168078123E+03  0.25500000920E-02 0.  1.
        2   -1    0    0  501    0  0.00000000000E+00  0.00000000000E+00 -0.25225991643E+03  0.25225991645E+03  0.25500000920E-02 0. -1.
    10030    2    1    2    0    0  0.00000000000E+00  0.00000000000E+00 -0.57913521508E+00  0.50394069768E+03  0.50394036490E+03 0.  0.
        2    1    3    3  502    0 -0.86148036066E+02  0.16269715252E+03 -0.17232783187E+03  0.25216805745E+03  0.25500000920E-02 0. -1.
       -2    1    3    3    0  502  0.86148036066E+02 -0.16269715252E+03  0.17174869665E+03  0.25177264022E+03  0.25500000920E-02 0.  1.
</event>
<event>
 5   0  0.1967161E-01  0.5477967E+03  0.7818609E-02  0.1002005E+00
        1   -1    0    0  501    0  0.00000000000E+00  0.00000000000E+00  0.77595833102E+03  0.77595833104E+03  0.50400001928E-02 0.  1.
       -1   -1    0    0    0  501  0.00000000000E+00  0.00000000000E+00 -0.96680831085E+02  0.96680831216E+02  0.50400001928E-02 0. -1.
    10030    2    1    2    0    0  0.00000000000E+00  0.00000000000E+00  0.67927749994E+03  0.87263916226E+03  0.54779666445E+03 0.  0.
        1    1    3    3  502    0  0.23030876064E+03 -0.17732822959E+02  0.10517170281E+03  0.25380635401E+03  0.50400001928E-02 0. -1.
       -1    1    3    3    0  502 -0.23030876064E+03  0.17732822959E+02  0.57410579712E+03  0.61883280824E+03  0.50400001928E-02 0.  1.
</event>
<event>
 5   0  0.2000612E-01  0.4986889E+03  0.7818609E-02  0.1014122E+00
       -1   -1    0    0    0  501  0.00000000000E+00  0.00000000000E+00  0.55414257277E+02  0.55414257506E+02  0.50400001928E-02 0.  1.
        1   -1    0    0  501    0  0.00000000000E+00  0.00000000000E+00 -0.11219613839E+04  0.11219613840E+04  0.50400001928E-02 0. -1.
    10030    2    1    2    0    0  0.00000000000E+00  0.00000000000E+00 -0.10665471267E+04  0.11773756415E+04  0.49868890875E+03 0.  0.
        2    1    3    3  502    0  0.17590560479E+03  0.16821758782E+03 -0.40541774107E+03  0.47286730002E+03  0.25500000920E-02 0.  1.
       -2    1    3    3    0  502 -0.17590560479E+03 -0.16821758782E+03 -0.66112938560E+03  0.70450834145E+03  0.25500000920E-02 0. -1.
</event>
<event>
 5   0  0.3187123E-01  0.6023835E+03  0.7818609E-02  0.9900473E-01
        2   -1    0    0  501    0  0.00000000000E+00  0.00000000000E+00  0.82304891013E+03  0.82304891013E+03  0.25500000920E-02 0. -1.
       -2   -1    0    0    0  501  0.00000000000E+00  0.00000000000E+00 -0.11022002235E+03  0.11022002238E+03  0.25500000920E-02 0.  1.
    10030    2    1    2    0    0  0.00000000000E+00  0.00000000000E+00  0.71282888778E+03  0.93326893251E+03  0.60238349673E+03 0.  0.
        5    1    3    3  502    0  0.79525711990E+02  0.16530093008E+03 -0.13622412957E+02  0.18400107740E+03  0.46999998093E+01 0.  1.
       -5    1    3    3    0  502 -0.79525711990E+02 -0.16530093008E+03  0.72645130074E+03  0.74926785510E+03  0.46999998093E+01 0. -1.
</event>
<event>
 5   0  0.3117389E-01  0.4901932E+03  0.7818609E-02  0.1016371E+00
        2   -1    0    0  501    0  0.00000000000E+00  0.00000000000E+00  0.52682485897E+03  0.52682485897E+03  0.25500000920E-02 0.  1.
       -2   -1    0    0    0  501  0.00000000000E+00  0.00000000000E+00 -0.11402717856E+03  0.11402717858E+03  0.25500000920E-02 0. -1.
    10030    2    1    2    0    0  0.00000000000E+00  0.00000000000E+00  0.41279768041E+03  0.64085203756E+03  0.49019323648E+03 0.  0.
        4    1    3    3  502    0  0.27352219471E+02  0.23825701174E+02 -0.11049413839E+03  0.11630294693E+03  0.12699999809E+01 0. -1.
       -4    1    3    3    0  502 -0.27352219471E+02 -0.23825701174E+02  0.52329181881E+03  0.52454909062E+03  0.12699999809E+01 0.  1.
</event>
<event>
 5   0  0.2000612E-01  0.4650310E+03  0.7818609E-02  0.1023332E+00
       -1   -1    0    0    0  501  0.00000000000E+00  0.00000000000E+00  0.62624924864E+02  0.62624925067E+02  0.50400001928E-02 0.  1.
        1   -1    0    0  501    0  0.00000000000E+00  0.00000000000E+00 -0.86328993864E+03  0.86328993865E+03  0.50400001928E-02 0. -1.
    10030    2    1    2    0    0  0.00000000000E+00  0.00000000000E+00 -0.80066501378E+03  0.92591486372E+03  0.46503104259E+03 0.  0.
        2    1    3    3  502    0  0.20224275874E+03 -0.33925234676E+02 -0.18212580996E+03  0.27426787211E+03  0.25500000920E-02 0.  1.
       -2    1    3    3    0  502 -0.20224275874E+03  0.33925234676E+02 -0.61853920381E+03  0.65164699161E+03  0.25500000920E-02 0. -1.
</event>
<event>
 5   0  0.1984297E-01  0.5543156E+03  0.7818609E-02  0.1000500E+00
       -1   -1    0    0    0  501  0.00000000000E+00  0.00000000000E+00  0.34942814243E+03  0.34942814246E+03  0.50400001928E-02 0. -1.
        1   -1    0    0  501    0  0.00000000000E+00  0.00000000000E+00 -0.21983477961E+03  0.21983477967E+03  0.50400001928E-02 0.  1.
    10030    2    1    2    0    0  0.00000000000E+00  0.00000000000E+00  0.12959336282E+03  0.56926292213E+03  0.55431564548E+03 0.  0.
        3    1    3    3  502    0  0.87242437986E+02  0.46306928718E+02 -0.20114742192E+03  0.22408897826E+03  0.10100000352E+00 0.  1.
       -3    1    3    3    0  502 -0.87242437986E+02 -0.46306928718E+02  0.33074078474E+03  0.34517394387E+03  0.10100000352E+00 0. -1.
</event>
<event>
 5   0  0.2000612E-01  0.5073246E+03  0.7818609E-02  0.1011885E+00
       -1   -1    0    0    0  501  0.00000000000E+00  0.00000000000E+00  0.13840366168E+03  0.13840366178E+03  0.50400001928E-02 0. -1.
        1   -1    0    0  501    0  0.00000000000E+00  0.00000000000E+00 -0.46490506143E+03  0.46490506146E+03  0.50400001928E-02 0.  1.
    10030    2    1    2    0    0  0.00000000000E+00  0.00000000000E+00 -0.32650139975E+03  0.60330872324E+03  0.50732460171E+03 0.  0.
        2    1    3    3  502    0  0.51728963612E+02  0.24351847497E+03 -0.22111253624E+03  0.33296829732E+03  0.25500000920E-02 0. -1.
       -2    1    3    3    0  502 -0.51728963612E+02 -0.24351847497E+03 -0.10538886351E+03  0.27034042592E+03  0.25500000920E-02 0.  1.
</event>
<event>
 5   0  0.3178149E-01  0.4977548E+03  0.7818609E-02  0.1014367E+00
        2   -1    0    0  501    0  0.00000000000E+00  0.00000000000E+00  0.11588209319E+04  0.11588209319E+04  0.25500000920E-02 0. -1.
       -2   -1    0    0    0  501  0.00000000000E+00  0.00000000000E+00 -0.53450842103E+02  0.53450842164E+02  0.25500000920E-02 0.  1.
    10030    2    1    2    0    0  0.00000000000E+00  0.00000000000E+00  0.11053700898E+04  0.12122717741E+04  0.49775477776E+03 0.  0.
        3    1    3    3  502    0 -0.23474882783E+02 -0.24201202308E+03  0.68199630244E+03  0.72404409823E+03  0.10100000352E+00 0. -1.
       -3    1    3    3    0  502  0.23474882783E+02  0.24201202308E+03  0.42337378737E+03  0.48822767585E+03  0.10100000352E+00 0.  1.
</event>
<event>
 5   0  0.1984680E-01  0.4959207E+03  0.7818609E-02  0.1014849E+00
       -1   -1    0    0    0  501  0.00000000000E+00  0.00000000000E+00  0.14440749691E+03  0.14440749700E+03  0.50400001928E-02 0. -1.
        1   -1    0    0  501    0  0.00000000000E+00  0.00000000000E+00 -0.42576965122E+03  0.42576965125E+03  0.50400001928E-02 0.  1.
    10030    2    1    2    0    0  0.00000000000E+00  0.00000000000E+00 -0.28136215431E+03  0.57017714825E+03  0.49592067764E+03 0.  0.
        5    1    3    3  502    0  0.21831226554E+03  0.10551632461E+02 -0.61539889784E+01  0.21870423821E+03  0.46999998093E+01 0. -1.
       -5    1    3    3    0  502 -0.21831226554E+03 -0.10551632461E+02 -0.27520816533E+03  0.35147291004E+03  0.46999998093E+01 0.  1.
</event>
<event>
 5   0  0.2013450E-01  0.4980341E+03  0.7818609E-02  0.1014293E+00
       -1   -1    0    0    0  501  0.00000000000E+00  0.00000000000E+00  0.36478333672E+03  0.36478333676E+03  0.50400001928E-02 0.  1.
        1   -1    0    0  501    0  0.00000000000E+00  0.00000000000E+00 -0.16998991027E+03  0.16998991035E+03  0.50400001928E-02 0. -1.
    10030    2    1    2    0    0  0.00000000000E+00  0.00000000000E+00  0.19479342645E+03  0.53477324710E+03  0.49803408200E+03 0.  0.
        4    1    3    3  502    0  0.23499990050E+03  0.13549015305E+02  0.18462573807E+03  0.29916016631E+03  0.12699999809E+01 0. -1.
       -4    1    3    3    0  502 -0.23499990050E+03 -0.13549015305E+02  0.10167688383E+02  0.23561308079E+03  0.12699999809E+01 0.  1.
</event>
<event>
 5   0  0.1967161E-01  0.4446157E+03  0.7818609E-02  0.1029340E+00
       -1   -1    0    0    0  501  0.00000000000E+00  0.00000000000E+00  0.12021262717E+04  0.12021262717E+04  0.50400001928E-02 0.  1.
        1   -1    0    0  501    0  0.00000000000E+00  0.00000000000E+00 -0.41111133108E+02  0.41111133417E+02  0.50400001928E-02 0. -1.
    10030    2    1    2    0    0  0.00000000000E+00  0.00000000000E+00  0.11610151386E+04  0.12432374051E+04  0.44461566939E+03 0.  0.
        1    1    3    3  502    0  0.21755010062E+03 -0.32280893762E+02  0.48987116501E+03  0.53697659234E+03  0.50400001928E-02 0. -1.
       -1    1    3    3    0  502 -0.21755010062E+03  0.32280893762E+02  0.67114397357E+03  0.70626081278E+03  0.50400001928E-02 0.  1.
</event>
<event>
 5   0  0.3111146E-01  0.5039216E+03  0.7818609E-02  0.1012760E+00
       -2   -1    0    0    0  501  0.00000000000E+00  0.00000000000E+00  0.50347108918E+02  0.50347108982E+02  0.25500000920E-02 0. -1.
        2   -1    0    0  501    0  0.00000000000E+00  0.00000000000E+00 -0.12609313095E+04  0.12609313095E+04  0.25500000920E-02 0.  1.
    10030    2    1    2    0    0  0.00000000000E+00  0.00000000000E+00 -0.12105842006E+04  0.13112784185E+04  0.50392160509E+03 0.  0.
        1    1    3    3  502    0 -0.10122799431E+03  0.22287133477E+03 -0.76067119970E+03  0.79908661156E+03  0.50400001928E-02 0. -1.
       -1    1    3    3    0  502  0.10122799431E+03 -0.22287133477E+03 -0.44991300085E+03  0.51219180690E+03  0.50400001928E-02 0.  1.
</event>
<event>
 5   0  0.1967161E-01  0.4008314E+03  0.7818609E-02  0.1043492E+00
       -1   -1    0    0    0  501  0.00000000000E+00  0.00000000000E+00  0.17873262052E+03  0.17873262059E+03  0.50400001928E-02 0.  1.
        1   -1    0    0  501    0  0.00000000000E+00  0.00000000000E+00 -0.22472927272E+03  0.22472927277E+03  0.50400001928E-02 0. -1.
    10030    2    1    2    0    0  0.00000000000E+00  0.00000000000E+00 -0.45996652199E+02  0.40346189336E+03  0.40083139521E+03 0.  0.
        1    1    3    3  502    0 -0.11173924995E+03 -0.78096437530E+02 -0.17086966415E+03  0.21858901090E+03  0.50400001928E-02 0. -1.
       -1    1    3    3    0  502  0.11173924995E+03  0.78096437530E+02  0.12487301195E+03  0.18487288247E+03  0.50400001928E-02 0.  1.
</event>
<event>
 5   0  0.3178149E-01  0.4886198E+03  0.7818609E-02  0.1016793E+00
        2   -1    0    0  501    0  0.00000000000E+00  0.00000000000E+00  0.19132422872E+03  0.19132422874E+03  0.25500000920E-02 0. -1.
       -2   -1    0    0    0  501  0.00000000000E+00  0.00000000000E+00 -0.31196949032E+03  0.31196949033E+03  0.25500000920E-02 0.  1.
    10030    2    1    2    0    0  0.00000000000E+00  0.00000000000E+00 -0.12064526159E+03  0.50329371906E+03  0.48861977908E+03 0.  0.
        3    1    3    3  502    0  0.12445760085E+03 -0.29374042942E+02 -0.27474435367E+03  0.30304619926E+03  0.10100000352E+00 0.  1.
       -3    1    3    3    0  502 -0.12445760085E+03  0.29374042942E+02  0.15409909208E+03  0.20024751981E+03  0.10100000352E+00 0. -1.
</event>
<event>
 5   0  0.3178149E-01  0.4808397E+03  0.7818609E-02  0.1018905E+00
        2   -1    0    0  501    0  0.00000000000E+00  0.00000000000E+00  0.10304991081E+04  0.10304991081E+04  0.25500000920E-02 0.  1.
       -2   -1    0    0    0  501  0.00000000000E+00  0.00000000000E+00 -0.56090984278E+02  0.56090984336E+02  0.25500000920E-02 0. -1.
    10030    2    1    2    0    0  0.00000000000E+00  0.00000000000E+00  0.97440812384E+03  0.10865900925E+04  0.48083972093E+03 0.  0.
        3    1    3    3  502    0 -0.33552949033E+02 -0.23704323024E+03  0.43736558785E+03  0.49860200664E+03  0.10100000352E+00 0.  1.
       -3    1    3    3    0  502  0.33552949033E+02  0.23704323024E+03  0.53704253600E+03  0.58798808582E+03  0.10100000352E+00 0. -1.
</event>
<event>
 5   0  0.3117389E-01  0.5140825E+03  0.7818609E-02  0.1010167E+00
        2   -1    0    0  501    0  0.00000000000E+00  0.00000000000E+00  0.19915205597E+04  0.19915205597E+04  0.25500000920E-02 0. -1.
       -2   -1    0    0    0  501  0.00000000000E+00  0.00000000000E+00 -0.33175755154E+02  0.33175755252E+02  0.25500000920E-02 0.  1.
    10030    2    1    2    0    0  0.00000000000E+00  0.00000000000E+00  0.19583448045E+04  0.20246963149E+04  0.51408247810E+03 0.  0.
        4    1    3    3  502    0  0.27843231016E+02  0.24047775562E+03  0.63891563335E+03  0.68324197463E+03  0.12699999809E+01 0.  1.
       -4    1    3    3    0  502 -0.27843231016E+02 -0.24047775562E+03  0.13194291712E+04  0.13414543403E+04  0.12699999809E+01 0. -1.
</event>
<event>
 5   0  0.1984297E-01  0.4419717E+03  0.7818609E-02  0.1030144E+00
       -1   -1    0    0    0  501  0.00000000000E+00  0.00000000000E+00  0.17062208037E+03  0.17062208044E+03  0.50400001928E-02 0.  1.
        1   -1    0    0  501    0  0.00000000000E+00  0.00000000000E+00 -0.28621588130E+03  0.28621588134E+03  0.50400001928E-02 0. -1.
    10030    2    1    2    0    0  0.00000000000E+00  0.00000000000E+00 -0.11559380093E+03  0.45683796178E+03  0.44197171461E+03 0.  0.
        3    1    3    3  502    0  0.15596349272E+03  0.15589445127E+03 -0.72670057189E+02  0.23218233872E+03  0.10100000352E+00 0. -1.
       -3    1    3    3    0  502 -0.15596349272E+03 -0.15589445127E+03 -0.42923743741E+02  0.22465562307E+03  0.10100000352E+00 0.  1.
</event>
<event>
 5   0  0.3117389E-01  0.4953279E+03  0.7818609E-02  0.1015006E+00
       -2   -1    0    0    0  501  0.00000000000E+00  0.00000000000E+00  0.43250189556E+02  0.43250189631E+02  0.25500000920E-02 0.  1.
        2   -1    0    0  501    0  0.00000000000E+00  0.00000000000E+00 -0.14182002590E+04  0.14182002590E+04  0.25500000920E-02 0. -1.
    10030    2    1    2    0    0  0.00000000000E+00  0.00000000000E+00 -0.13749500695E+04  0.14614504487E+04  0.49532789176E+03 0.  0.
        4    1    3    3  502    0 -0.18450850449E+03 -0.87497877997E+02 -0.27402416624E+03  0.34174570000E+03  0.12699999809E+01 0.  1.
       -4    1    3    3    0  502  0.18450850449E+03  0.87497877997E+02 -0.11009259032E+04  0.11197047487E+04  0.12699999809E+01 0. -1.
</event>
<event>
 5   0  0.1984680E-01  0.4776040E+03  0.7818609E-02  0.1019796E+00
       -1   -1    0    0    0  501  0.00000000000E+00  0.00000000000E+00  0.19957046115E+03  0.19957046121E+03  0.50400001928E-02 0. -1.
        1   -1    0    0  501    0  0.00000000000E+00  0.00000000000E+00 -0.28574561374E+03  0.28574561378E+03  0.50400001928E-02 0.  1.
    10030    2    1    2    0    0  0.00000000000E+00  0.00000000000E+00 -0.86175152595E+02  0.48531607499E+03  0.47760395279E+03 0.  0.
        5    1    3    3  502    0 -0.63006071624E+01 -0.72126530457E+02 -0.27427478319E+03  0.28370879567E+03  0.46999998093E+01 0.  1.
       -5    1    3    3    0  502  0.63006071624E+01  0.72126530457E+02  0.18809963060E+03  0.20160727932E+03  0.46999998093E+01 0. -1.
</event>
<event>
 5   0  0.3111146E-01  0.4973003E+03  0.7818609E-02  0.1014486E+00
        2   -1    0    0  501    0  0.00000000000E+00  0.00000000000E+00  0.20027192760E+04  0.20027192760E+04  0.25500000920E-02 0.  1.
       -2   -1    0    0    0  501  0.00000000000E+00  0.00000000000E+00 -0.30871473909E+02  0.30871474015E+02  0.25500000920E-02 0. -1.
    10030    2    1    2    0    0  0.00000000000E+00  0.00000000000E+00  0.19718478021E+04  0.20335907500E+04  0.49730029554E+03 0.  0.
        1    1    3    3  502    0  0.27154548028E+02  0.23520197533E+02 -0.20203259855E+02  0.41215784656E+02  0.50400001928E-02 0. -1.
       -1    1    3    3    0  502 -0.27154548028E+02 -0.23520197533E+02  0.19920510619E+04  0.19923749654E+04  0.50400001928E-02 0.  1.
</event>
<event>
 5   0  0.1292375E-01  0.5016852E+03  0.7818609E-02  0.1013340E+00
        4   -1    0    0  501    0  0.00000000000E+00  0.00000000000E+00  0.14796024491E+03  0.14796569526E+03  0.12699999809E+01 0. -1.
       -4   -1    0    0    0  501  0.00000000000E+00  0.00000000000E+00 -0.42524879272E+03  0.42525068913E+03  0.12699999809E+01 0.  1.
    10030    2    1    2    0    0  0.00000000000E+00  0.00000000000E+00 -0.27728854780E+03  0.57321638440E+03  0.50168524455E+03 0.  0.
        5    1    3    3  502    0  0.21708507341E+03  0.10710478027E+03 -0.63697810517E+02  0.25035347834E+03  0.46999998093E+01 0. -1.
       -5    1    3    3    0  502 -0.21708507341E+03 -0.10710478027E+03 -0.21359073728E+03  0.32286290605E+03  0.46999998093E+01 0.  1.
</event>
<event>
 5   0  0.3187123E-01  0.5024508E+03  0.7818609E-02  0.1013141E+00
        2   -1    0    0  501    0  0.00000000000E+00  0.00000000000E+00  0.62339058060E+03  0.62339058061E+03  0.25500000920E-02 0.  1.
       -2   -1    0    0    0  501  0.00000000000E+00  0.00000000000E+00 -0.10124342128E+03  0.10124342132E+03  0.25500000920E-02 0. -1.
    10030    2    1    2    0    0  0.00000000000E+00  0.00000000000E+00  0.52214715932E+03  0.72463400192E+03  0.50245077447E+03 0.  0.
        5    1    3    3  502    0 -0.11513757321E+03 -0.12348588541E+03  0.52928645983E+03  0.55558228123E+03  0.46999998093E+01 0.  1.
       -5    1    3    3    0  502  0.11513757321E+03  0.12348588541E+03 -0.71393005145E+01  0.16905172069E+03  0.46999998093E+01 0. -1.
</event>
<event>
 5   0  0.1984297E-01  0.4980291E+03  0.7818609E-02  0.1014295E+00
       -1   -1    0    0    0  501  0.00000000000E+00  0.00000000000E+00  0.57631803711E+02  0.57631803931E+02  0.50400001928E-02 0.  1.
        1   -1    0    0  501    0  0.00000000000E+00  0.00000000000E+00 -0.10759380437E+04  0.10759380438E+04  0.50400001928E-02 0. -1.
    10030    2    1    2    0    0  0.00000000000E+00  0.00000000000E+00 -0.10183062400E+04  0.11335698477E+04  0.49802911671E+03 0.  0.
        3    1    3    3  502    0 -0.73180233121E+02  0.22201115348E+03 -0.31383222311E+03  0.39132463921E+03  0.10100000352E+00 0.  1.
       -3    1    3    3    0  502  0.73180233121E+02 -0.22201115348E+03 -0.70447401692E+03  0.74224520848E+03  0.10100000352E+00 0. -1.
</event>
<event>
 5   0  0.1967161E-01  0.5018133E+03  0.7818609E-02  0.1013307E+00
        1   -1    0    0  501    0  0.00000000000E+00  0.00000000000E+00  0.48033708607E+03  0.48033708609E+03  0.50400001928E-02 0.  1.
       -1   -1    0    0    0  501  0.00000000000E+00  0.00000000000E+00 -0.13106244186E+03  0.13106244196E+03  0.50400001928E-02 0. -1.
    10030    2    1    2    0    0  0.00000000000E+00  0.00000000000E+00  0.34927464421E+03  0.61139952805E+03  0.50181331769E+03 0.  0.
        1    1    3    3  502    0 -0.95049281118E+02 -0.56025158028E+02  0.44919487835E+03  0.46254645489E+03  0.50400001928E-02 0.  1.
       -1    1    3    3    0  502  0.95049281118E+02  0.56025158028E+02 -0.99920234140E+02  0.14885307316E+03  0.50400001928E-02 0. -1.
</event>
<event>
 5   0  0.1292375E-01  0.5121905E+03  0.7818609E-02  0.1010645E+00
       -3   -1    0    0    0  501  0.00000000000E+00  0.00000000000E+00  0.40547270371E+03  0.40547271629E+03  0.10100000352E+00 0.  1.
        3   -1    0    0  501    0  0.00000000000E+00  0.00000000000E+00 -0.16174893113E+03  0.16174896267E+03  0.10100000352E+00 0. -1.
    10030    2    1    2    0    0  0.00000000000E+00  0.00000000000E+00  0.24372377258E+03  0.56722167896E+03  0.51219054634E+03 0.  0.
        3    1    3    3  502    0  0.10023686681E+03  0.15622467755E+03 -0.73535697590E+02  0.19965241888E+03  0.10100000352E+00 0. -1.
       -3    1    3    3    0  502 -0.10023686681E+03 -0.15622467755E+03  0.31725947017E+03  0.36756926008E+03  0.10100000352E+00 0.  1.
</event>
<event>
 5   0  0.1984680E-01  0.5087091E+03  0.7818609E-02  0.1011530E+00
        1   -1    0    0  501    0  0.00000000000E+00  0.00000000000E+00  0.12197545679E+04  0.12197545679E+04  0.50400001928E-02 0.  1.
       -1   -1    0    0    0  501  0.00000000000E+00  0.00000000000E+00 -0.53040374234E+02  0.53040374474E+02  0.50400001928E-02 0. -1.
    10030    2    1    2    0    0  0.00000000000E+00  0.00000000000E+00  0.11667141937E+04  0.12727949424E+04  0.50870910712E+03 0.  0.
        5    1    3    3  502    0 -0.23271570862E+03 -0.60920321008E+02  0.37694113791E+03  0.44718519429E+03  0.46999998093E+01 0. -1.
       -5    1    3    3    0  502  0.23271570862E+03  0.60920321008E+02  0.78977305578E+03  0.82560974812E+03  0.46999998093E+01 0.  1.
</event>
<event>
 5   0  0.1967161E-01  0.3100815E+03  0.7818609E-02  0.1080307E+00
        1   -1    0    0  501    0  0.00000000000E+00  0.00000000000E+00  0.12199875342E+04  0.12199875342E+04  0.50400001928E-02 0.  1.
       -1   -1    0    0    0  501  0.00000000000E+00  0.00000000000E+00 -0.19703177031E+02  0.19703177675E+02  0.50400001928E-02 0. -1.
    10030    2    1    2    0    0  0.00000000000E+00  0.00000000000E+00  0.12002843572E+04  0.12396907119E+04  0.31008147812E+03 0.  0.
        1    1    3    3  502    0  0.95443547596E+02 -0.10575048672E+03  0.35548209760E+03  0.38296234535E+03  0.50400001928E-02 0. -1.
       -1    1    3    3    0  502 -0.95443547596E+02  0.10575048672E+03  0.84480225960E+03  0.85672836656E+03  0.50400001928E-02 0.  1.
</event>
<event>
 5   0  0.2000612E-01  0.4895399E+03  0.7818609E-02  0.1016546E+00
        1   -1    0    0  501    0  0.00000000000E+00  0.00000000000E+00  0.22237782471E+03  0.22237782477E+03  0.50400001928E-02 0.  1.
       -1   -1    0    0    0  501  0.00000000000E+00  0.00000000000E+00 -0.26941685045E+03  0.26941685050E+03  0.50400001928E-02 0. -1.
    10030    2    1    2    0    0  0.00000000000E+00  0.00000000000E+00 -0.47039025741E+02  0.49179467527E+03  0.48953991939E+03 0.  0.
        2    1    3    3  502    0 -0.89525565505E+02 -0.53145358432E+02  0.19902523848E+03  0.22461144575E+03  0.25500000920E-02 0.  1.
       -2    1    3    3    0  502  0.89525565505E+02  0.53145358432E+02 -0.24606426422E+03  0.26718322952E+03  0.25500000920E-02 0. -1.
</event>
<event>
 5   0  0.1984297E-01  0.6787050E+03  0.7818609E-02  0.9754359E-01
       -1   -1    0    0    0  501  0.00000000000E+00  0.00000000000E+00  0.46044335876E+03  0.46044335879E+03  0.50400001928E-02 0.  1.
        1   -1    0    0  501    0  0.00000000000E+00  0.00000000000E+00 -0.25010705413E+03  0.25010705418E+03  0.50400001928E-02 0. -1.
    10030    2    1    2    0    0  0.00000000000E+00  0.00000000000E+00  0.21033630464E+03  0.71055041297E+03  0.67870503779E+03 0.  0.
        3    1    3    3  502    0  0.16180249220E+03 -0.26318149702E+03 -0.41832258173E+02  0.31176031639E+03  0.10100000352E+00 0. -1.
       -3    1    3    3    0  502 -0.16180249220E+03  0.26318149702E+03  0.25216856281E+03  0.39879009657E+03  0.10100000352E+00 0.  1.
</event>
<event>
 5   0  0.3187123E-01  0.6358697E+03  0.7818609E-02  0.9833661E-01
        2   -1    0    0  501    0  0.00000000000E+00  0.00000000000E+00  0.73450666872E+03  0.73450666872E+03  0.25500000920E-02 0.  1.
       -2   -1    0    0    0  501  0.00000000000E+00  0.00000000000E+00 -0.13761967573E+03  0.13761967575E+03  0.25500000920E-02 0. -1.
    10030    2    1    2    0    0  0.00000000000E+00  0.00000000000E+00  0.59688699299E+03  0.87212634448E+03  0.63586970232E+03 0.  0.
        5    1    3    3  502    0 -0.12981536073E+03 -0.66467606878E+02  0.68586782656E+03  0.70121803753E+03  0.46999998093E+01 0.  1.
       -5    1    3    3    0  502  0.12981536073E+03  0.66467606878E+02 -0.88980833567E+02  0.17090830695E+03  0.46999998093E+01 0. -1.
</event>
<event>
 5   0  0.1984680E-01  0.4955437E+03  0.7818609E-02  0.1014949E+00
       -1   -1    0    0    0  501  0.00000000000E+00  0.00000000000E+00  0.31408061404E+03  0.31408061408E+03  0.50400001928E-02 0. -1.
        1   -1    0    0  501    0  0.00000000000E+00  0.00000000000E+00 -0.19546219800E+03  0.19546219807E+03  0.50400001928E-02 0.  1.
    10030    2    1    2    0    0  0.00000000000E+00  0.00000000000E+00  0.11861841604E+03  0.50954281214E+03  0.49554369009E+03 0.  0.
        5    1    3    3  502    0  0.17798229763E+03  0.12397415554E+03  0.18236246109E+03  0.28341744252E+03  0.46999998093E+01 0. -1.
       -5    1    3    3    0  502 -0.17798229763E+03 -0.12397415554E+03 -0.63744045051E+02  0.22612536963E+03  0.46999998093E+01 0.  1.
</event>
<event>
 5   0  0.3111146E-01  0.5009067E+03  0.7818609E-02  0.1013543E+00
       -2   -1    0    0    0  501  0.00000000000E+00  0.00000000000E+00  0.42428081822E+02  0.42428081899E+02  0.25500000920E-02 0. -1.
        2   -1    0    0  501    0  0.00000000000E+00  0.00000000000E+00 -0.14784285193E+04  0.14784285193E+04  0.25500000920E-02 0.  1.
    10030    2    1    2    0    0  0.00000000000E+00  0.00000000000E+00 -0.14360004375E+04  0.15208566012E+04  0.50090672283E+03 0.  0.
        1    1    3    3  502    0 -0.12102250829E+03 -0.50080757049E+02 -0.13661601049E+04  0.13724241188E+04  0.50400001928E-02 0.  1.
       -1    1    3    3    0  502  0.12102250829E+03  0.50080757049E+02 -0.69840332583E+02  0.14843248236E+03  0.50400001928E-02 0. -1.
</event>
<event>
 5   0  0.1967161E-01  0.4922940E+03  0.7818609E-02  0.1015810E+00
        1   -1    0    0  501    0  0.00000000000E+00  0.00000000000E+00  0.45715058057E+03  0.45715058059E+03  0.50400001928E-02 0. -1.
       -1   -1    0    0    0  501  0.00000000000E+00  0.00000000000E+00 -0.13253475960E+03  0.13253475970E+03  0.50400001928E-02 0.  1.
    10030    2    1    2    0    0  0.00000000000E+00  0.00000000000E+00  0.32461582097E+03  0.58968534029E+03  0.49229398669E+03 0.  0.
        1    1    3    3  502    0  0.54070965842E+02 -0.14105239912E+03 -0.70481345395E+02  0.16669453716E+03  0.50400001928E-02 0.  1.
       -1    1    3    3    0  502 -0.54070965842E+02  0.14105239912E+03  0.39509716636E+03  0.42299080313E+03  0.50400001928E-02 0. -1.
</event>
<event>
 5   0  0.3117389E-01  0.4965885E+03  0.7818609E-02  0.1014673E+00
       -2   -1    0    0    0  501  0.00000000000E+00  0.00000000000E+00  0.78063052504E+02  0.78063052546E+02  0.25500000920E-02 0.  1.
        2   -1    0    0  501    0  0.00000000000E+00  0.00000000000E+00 -0.78974669356E+03  0.78974669357E+03  0.25500000920E-02 0. -1.
    10030    2    1    2    0    0  0.00000000000E+00  0.00000000000E+00 -0.71168364106E+03  0.86780974611E+03  0.49658851225E+03 0.  0.
        4    1    3    3  502    0  0.36783680742E+02  0.16140672781E+03 -0.67922346618E+03  0.69910750308E+03  0.12699999809E+01 0. -1.
       -4    1    3    3    0  502 -0.36783680742E+02 -0.16140672781E+03 -0.32460174883E+02  0.16870224304E+03  0.12699999809E+01 0.  1.
</event>
<event>
 5   0  0.3178149E-01  0.4957379E+03  0.7818609E-02  0.1014897E+00
       -2   -1    0    0    0  501  0.00000000000E+00  0.00000000000E+00  0.43060799558E+02  0.43060799634E+02  0.25500000920E-02 0.  1.
        2   -1    0    0  501    0  0.00000000000E+00  0.00000000000E+00 -0.14267970288E+04  0.14267970288E+04  0.25500000920E-02 0. -1.
    10030    2    1    2    0    0  0.00000000000E+00  0.00000000000E+00 -0.13837362293E+04  0.14698578285E+04  0.49573791837E+03 0.  0.
        3    1    3    3  502    0 -0.12401511746E+03 -0.21322582835E+03 -0.76413164125E+03  0.80295839157E+03  0.10100000352E+00 0. -1.
       -3    1    3    3    0  502  0.12401511746E+03  0.21322582835E+03 -0.61960458803E+03  0.66689943690E+03  0.10100000352E+00 0.  1.
</event>
<event>
 5   0  0.1967161E-01  0.5031714E+03  0.7818609E-02  0.1012954E+00
       -1   -1    0    0    0  501  0.00000000000E+00  0.00000000000E+00  0.14150664110E+03  0.14150664119E+03  0.50400001928E-02 0. -1.
        1   -1    0    0  501    0  0.00000000000E+00  0.00000000000E+00 -0.44729605492E+03  0.44729605495E+03  0.50400001928E-02 0.  1.
    10030    2    1    2    0    0  0.00000000000E+00  0.00000000000E+00 -0.30578941382E+03  0.58880269614E+03  0.50317139165E+03 0.  0.
        1    1    3    3  502    0  0.23550701965E+02  0.22362931823E+03 -0.28492671237E+03  0.36297098917E+03  0.50400001928E-02 0.  1.
       -1    1    3    3    0  502 -0.23550701965E+02 -0.22362931823E+03 -0.20862701450E+02  0.22583170696E+03  0.50400001928E-02 0. -1.
</event>
<event>
 5   0  0.1984680E-01  0.5075129E+03  0.7818609E-02  0.1011836E+00
       -1   -1    0    0    0  501  0.00000000000E+00  0.00000000000E+00  0.39087969301E+03  0.39087969305E+03  0.50400001928E-02 0.  1.
        1   -1    0    0  501    0  0.00000000000E+00  0.00000000000E+00 -0.16473696967E+03  0.16473696975E+03  0.50400001928E-02 0. -1.
    10030    2    1    2    0    0  0.00000000000E+00  0.00000000000E+00  0.22614272334E+03  0.55561666279E+03  0.50751290097E+03 0.  0.
        5    1    3    3  502    0  0.18335487675E+03  0.16259499828E+03  0.41163996907E+02  0.24854116145E+03  0.46999998093E+01 0. -1.
       -5    1    3    3    0  502 -0.18335487675E+03 -0.16259499828E+03  0.18497872644E+03  0.30707550134E+03  0.46999998093E+01 0.  1.
</event>
<event>
 5   0  0.1984680E-01  0.4764996E+03  0.7818609E-02  0.1020102E+00
       -1   -1    0    0    0  501  0.00000000000E+00  0.00000000000E+00  0.11536242197E+03  0.11536242208E+03  0.50400001928E-02 0. -1.
        1   -1    0    0  501    0  0.00000000000E+00  0.00000000000E+00 -0.49204031089E+03  0.49204031091E+03  0.50400001928E-02 0.  1.
    10030    2    1    2    0    0  0.00000000000E+00  0.00000000000E+00 -0.37667788892E+03  0.60740273299E+03  0.47649957823E+03 0.  0.
        5    1    3    3  502    0  0.15418612362E+03 -0.48456308668E+02 -0.41139460573E+03  0.44202826402E+03  0.46999998093E+01 0.  1.
       -5    1    3    3    0  502 -0.15418612362E+03  0.48456308668E+02  0.34716716813E+02  0.16537446898E+03  0.46999998093E+01 0. -1.
</event>
<event>
 5   0  0.2000612E-01  0.4793692E+03  0.7818609E-02  0.1019309E+00
       -1   -1    0    0    0  501  0.00000000000E+00  0.00000000000E+00  0.38294855761E+02  0.38294856092E+02  0.50400001928E-02 0.  1.
        1   -1    0    0  501    0  0.00000000000E+00  0.00000000000E+00 -0.15001677789E+04  0.15001677789E+04  0.50400001928E-02 0. -1.
    10030    2    1    2    0    0  0.00000000000E+00  0.00000000000E+00 -0.14618729231E+04  0.15384626350E+04  0.47936920623E+03 0.  0.
        2    1    3    3  502    0 -0.18386718521E+03 -0.13558807448E+03 -0.49823236230E+03  0.54811199092E+03  0.25500000920E-02 0.  1.
       -2    1    3    3    0  502  0.18386718521E+03  0.13558807448E+03 -0.96364056083E+03  0.99035064408E+03  0.25500000920E-02 0. -1.
</event>
<event>
 5   0  0.3178149E-01  0.4754817E+03  0.7818609E-02  0.1020384E+00
        2   -1    0    0  501    0  0.00000000000E+00  0.00000000000E+00  0.60855111683E+03  0.60855111684E+03  0.25500000920E-02 0. -1.
       -2   -1    0    0    0  501  0.00000000000E+00  0.00000000000E+00 -0.92877527303E+02  0.92877527338E+02  0.25500000920E-02 0.  1.
    10030    2    1    2    0    0  0.00000000000E+00  0.00000000000E+00  0.51567358953E+03  0.70142864417E+03  0.47548174721E+03 0.  0.
        3    1    3    3  502    0 -0.92750755826E+01 -0.72685379168E+02 -0.75803829427E+02  0.10542970231E+03  0.10100000352E+00 0.  1.
       -3    1    3    3    0  502  0.92750755826E+01  0.72685379168E+02  0.59147741895E+03  0.59599894187E+03  0.10100000352E+00 0. -1.
</event>
<event>
 5   0  0.3329246E-01  0.5027748E+03  0.7818609E-02  0.1013057E+00
        2   -1    0    0  501    0  0.00000000000E+00  0.00000000000E+00  0.17103208362E+04  0.17103208362E+04  0.25500000920E-02 0.  1.
       -2   -1    0    0    0  501  0.00000000000E+00  0.00000000000E+00 -0.36949576544E+02  0.36949576632E+02  0.25500000920E-02 0. -1.
    10030    2    1    2    0    0  0.00000000000E+00  0.00000000000E+00  0.16733712597E+04  0.17472704129E+04  0.50277482328E+03 0.  0.
        2    1    3    3  502    0  0.17258660988E+03 -0.18115281333E+03  0.92132438134E+03  0.95469424181E+03  0.25500000920E-02 0.  1.
       -2    1    3    3    0  502 -0.17258660988E+03  0.18115281333E+03  0.75204687836E+03  0.79257617106E+03  0.25500000920E-02 0. -1.
</event>
<event>
 5   0  0.3178149E-01  0.5049538E+03  0.7818609E-02  0.1012494E+00
       -2   -1    0    0    0  501  0.00000000000E+00  0.00000000000E+00  0.86498731174E+02  0.86498731212E+02  0.25500000920E-02 0.  1.
        2   -1    0    0  501    0  0.00000000000E+00  0.00000000000E+00 -0.73694239486E+03  0.73694239486E+03  0.25500000920E-02 0. -1.
    10030    2    1    2    0    0  0.00000000000E+00  0.00000000000E+00 -0.65044366368E+03  0.82344112607E+03  0.50495378846E+03 0.  0.
        3    1    3    3  502    0  0.91077863482E+02 -0.64254824448E+02 -0.69464766060E+03  0.70353339811E+03  0.10100000352E+00 0. -1.
       -3    1    3    3    0  502 -0.91077863482E+02  0.64254824448E+02  0.44203996914E+02  0.11990772796E+03  0.10100000352E+00 0.  1.
</event>
<event>
 5   0  0.3329246E-01  0.5126338E+03  0.7818609E-02  0.1010533E+00
        2   -1    0    0  501    0  0.00000000000E+00  0.00000000000E+00  0.13651867869E+04  0.13651867869E+04  0.25500000920E-02 0. -1.
       -2   -1    0    0    0  501  0.00000000000E+00  0.00000000000E+00 -0.48124078093E+02  0.48124078161E+02  0.25500000920E-02 0.  1.
    10030    2    1    2    0    0  0.00000000000E+00  0.00000000000E+00  0.13170627088E+04  0.14133108650E+04  0.51263380923E+03 0.  0.
        2    1    3    3  502    0 -0.10357618308E+03 -0.21274769445E+03  0.38687987444E+03  0.45350374248E+03  0.25500000920E-02 0.  1.
       -2    1    3    3    0  502  0.10357618308E+03  0.21274769445E+03  0.93018283434E+03  0.95980712255E+03  0.25500000920E-02 0. -1.
</event>
<event>
 5   0  0.3178149E-01  0.4929631E+03  0.7818609E-02  0.1015632E+00
        2   -1    0    0  501    0  0.00000000000E+00  0.00000000000E+00  0.10906653765E+04  0.10906653765E+04  0.25500000920E-02 0.  1.
       -2   -1    0    0    0  501  0.00000000000E+00  0.00000000000E+00 -0.55702845677E+02  0.55702845736E+02  0.25500000920E-02 0. -1.
    10030    2    1    2    0    0  0.00000000000E+00  0.00000000000E+00  0.10349625308E+04  0.11463682222E+04  0.49296314340E+03 0.  0.
        3    1    3    3  502    0 -0.47605783062E+02 -0.93414925552E+02 -0.12614835896E+01  0.10485351896E+03  0.10100000352E+00 0. -1.
       -3    1    3    3    0  502  0.47605783062E+02  0.93414925552E+02  0.10362240144E+04  0.10415147033E+04  0.10100000352E+00 0.  1.
</event>
<event>
 5   0  0.3187123E-01  0.5018022E+03  0.7818609E-02  0.1013310E+00
       -2   -1    0    0    0  501  0.00000000000E+00  0.00000000000E+00  0.85147865252E+02  0.85147865290E+02  0.25500000920E-02 0. -1.
        2   -1    0    0  501    0  0.00000000000E+00  0.00000000000E+00 -0.73931814313E+03  0.73931814314E+03  0.25500000920E-02 0.  1.
    10030    2    1    2    0    0  0.00000000000E+00  0.00000000000E+00 -0.65417027788E+03  0.82446600843E+03  0.50180219867E+03 0.  0.
        5    1    3    3  502    0 -0.80556414992E+02  0.15144853367E+03 -0.62782004629E+03  0.65085028606E+03  0.46999998093E+01 0.  1.
       -5    1    3    3    0  502  0.80556414992E+02 -0.15144853367E+03 -0.26350231592E+02  0.17361572236E+03  0.46999998093E+01 0. -1.
</event>
<event>
 5   0  0.3117389E-01  0.4967821E+03  0.7818609E-02  0.1014622E+00
        2   -1    0    0  501    0  0.00000000000E+00  0.00000000000E+00  0.66734079310E+03  0.66734079311E+03  0.25500000920E-02 0.  1.
       -2   -1    0    0    0  501  0.00000000000E+00  0.00000000000E+00 -0.92453668859E+02  0.92453668894E+02  0.25500000920E-02 0. -1.
    10030    2    1    2    0    0  0.00000000000E+00  0.00000000000E+00  0.57488712424E+03  0.75979446200E+03  0.49678206375E+03 0.  0.
        4    1    3    3  502    0  0.38314765945E+02 -0.84517792539E+01  0.66256634230E+03  0.66372827627E+03  0.12699999809E+01 0.  1.
       -4    1    3    3    0  502 -0.38314765945E+02  0.84517792539E+01 -0.87679218060E+02  0.96066185734E+02  0.12699999809E+01 0. -1.
</event>
<event>
 5   0  0.3117389E-01  0.5181719E+03  0.7818609E-02  0.1009142E+00
        2   -1    0    0  501    0  0.00000000000E+00  0.00000000000E+00  0.73498990085E+02  0.73498990129E+02  0.25500000920E-02 0. -1.
       -2   -1    0    0    0  501  0.00000000000E+00  0.00000000000E+00 -0.91328490080E+03  0.91328490080E+03  0.25500000920E-02 0.  1.
    10030    2    1    2    0    0  0.00000000000E+00  0.00000000000E+00 -0.83978591071E+03  0.98678389093E+03  0.51817185525E+03 0.  0.
        4    1    3    3  502    0 -0.25428229051E+03  0.47428589892E+02 -0.44781309236E+03  0.51715291065E+03  0.12699999809E+01 0.  1.
       -4    1    3    3    0  502  0.25428229051E+03 -0.47428589892E+02 -0.39197281836E+03  0.46963098028E+03  0.12699999809E+01 0. -1.
</event>
<event>
 5   0  0.1967161E-01  0.5426621E+03  0.7818609E-02  0.1003207E+00
        1   -1    0    0  501    0  0.00000000000E+00  0.00000000000E+00  0.75593650979E+02  0.75593651147E+02  0.50400001928E-02 0.  1.
       -1   -1    0    0    0  501  0.00000000000E+00  0.00000000000E+00 -0.97389839057E+03  0.97389839058E+03  0.50400001928E-02 0. -1.
    10030    2    1    2    0    0  0.00000000000E+00  0.00000000000E+00 -0.89830473959E+03  0.10494920417E+04  0.54266208683E+03 0.  0.
        1    1    3    3  502    0  0.62744873728E+02  0.22009219055E+03 -0.16727640931E+03  0.28347643404E+03  0.50400001928E-02 0.  1.
       -1    1    3    3    0  502 -0.62744873728E+02 -0.22009219055E+03 -0.73102833028E+03  0.76601560769E+03  0.50400001928E-02 0. -1.
</event>
<event>
 5   0  0.3329246E-01  0.4565611E+03  0.7818609E-02  0.1025783E+00
       -2   -1    0    0    0  501  0.00000000000E+00  0.00000000000E+00  0.80076585626E+02  0.80076585667E+02  0.25500000920E-02 0. -1.
        2   -1    0    0  501    0  0.00000000000E+00  0.00000000000E+00 -0.65077722270E+03  0.65077722271E+03  0.25500000920E-02 0.  1.
    10030    2    1    2    0    0  0.00000000000E+00  0.00000000000E+00 -0.57070063708E+03  0.73085380837E+03  0.45656113726E+03 0.  0.
        2    1    3    3  502    0 -0.82375867947E+01  0.74709063143E+02 -0.63040177891E+03  0.63486668270E+03  0.25500000920E-02 0.  1.
       -2    1    3    3    0  502  0.82375867947E+01 -0.74709063143E+02  0.59701141832E+02  0.95987125670E+02  0.25500000920E-02 0. -1.
</event>
<event>
 5   0  0.1984680E-01  0.5414779E+03  0.7818609E-02  0.1003486E+00
       -1   -1    0    0    0  501  0.00000000000E+00  0.00000000000E+00  0.32078991404E+03  0.32078991408E+03  0.50400001928E-02 0. -1.
        1   -1    0    0  501    0  0.00000000000E+00  0.00000000000E+00 -0.22849715333E+03  0.22849715339E+03  0.50400001928E-02 0.  1.
    10030    2    1    2    0    0  0.00000000000E+00  0.00000000000E+00  0.92292760702E+02  0.54928706747E+03  0.54147791165E+03 0.  0.
        5    1    3    3  502    0  0.88856325532E+02  0.37046688604E+02  0.30279630808E+03  0.31776657771E+03  0.46999998093E+01 0. -1.
       -5    1    3    3    0  502 -0.88856325532E+02 -0.37046688604E+02 -0.21050354737E+03  0.23152048976E+03  0.46999998093E+01 0.  1.
</event>
<event>
 5   0  0.2013450E-01  0.5088257E+03  0.7818609E-02  0.1011501E+00
       -1   -1    0    0    0  501  0.00000000000E+00  0.00000000000E+00  0.10957990406E+03  0.10957990418E+03  0.50400001928E-02 0.  1.
        1   -1    0    0  501    0  0.00000000000E+00  0.00000000000E+00 -0.59067312263E+03  0.59067312265E+03  0.50400001928E-02 0. -1.
    10030    2    1    2    0    0  0.00000000000E+00  0.00000000000E+00 -0.48109321856E+03  0.70025302683E+03  0.50882572325E+03 0.  0.
        4    1    3    3  502    0 -0.17900870527E+03  0.10243250685E+03 -0.44554130753E+03  0.49096354716E+03  0.12699999809E+01 0. -1.
       -4    1    3    3    0  502  0.17900870527E+03 -0.10243250685E+03 -0.35551911033E+02  0.20928947967E+03  0.12699999809E+01 0.  1.
</event>
<event>
 5   0  0.1984680E-01  0.5120429E+03  0.7818609E-02  0.1010682E+00
        1   -1    0    0  501    0  0.00000000000E+00  0.00000000000E+00  0.10567477775E+03  0.10567477787E+03  0.50400001928E-02 0. -1.
       -1   -1    0    0    0  501  0.00000000000E+00  0.00000000000E+00 -0.62027089222E+03  0.62027089224E+03  0.50400001928E-02 0.  1.
    10030    2    1    2    0    0  0.00000000000E+00  0.00000000000E+00 -0.51459611447E+03  0.72594567011E+03  0.51204292293E+03 0.  0.
        5    1    3    3  502    0  0.15802390836E+03  0.14572408205E+03 -0.45434830156E+03  0.50265448653E+03  0.46999998093E+01 0. -1.
       -5    1    3    3    0  502 -0.15802390836E+03 -0.14572408205E+03 -0.60247812912E+02  0.22329118358E+03  0.46999998093E+01 0.  1.
</event>
<event>
 5   0  0.3111146E-01  0.5081626E+03  0.7818609E-02  0.1011670E+00
        2   -1    0    0  501    0  0.00000000000E+00  0.00000000000E+00  0.81838402547E+03  0.81838402548E+03  0.25500000920E-02 0. -1.
       -2   -1    0    0    0  501  0.00000000000E+00  0.00000000000E+00 -0.78883881862E+02  0.78883881903E+02  0.25500000920E-02 0.  1.
    10030    2    1    2    0    0  0.00000000000E+00  0.00000000000E+00  0.73950014361E+03  0.89726790738E+03  0.50816260706E+03 0.  0.
        1    1    3    3  502    0  0.17988492674E+03  0.24575754569E+02  0.55896611959E+02  0.18996574911E+03  0.50400001928E-02 0.  1.
       -1    1    3    3    0  502 -0.17988492674E+03 -0.24575754569E+02  0.68360353165E+03  0.70730215827E+03  0.50400001928E-02 0. -1.
</event>
<event>
 5   0  0.3178149E-01  0.4647463E+03  0.7818609E-02  0.1023414E+00
       -2   -1    0    0    0  501  0.00000000000E+00  0.00000000000E+00  0.98750844032E+02  0.98750844065E+02  0.25500000920E-02 0. -1.
        2   -1    0    0  501    0  0.00000000000E+00  0.00000000000E+00 -0.54680323676E+03  0.54680323677E+03  0.25500000920E-02 0.  1.
    10030    2    1    2    0    0  0.00000000000E+00  0.00000000000E+00 -0.44805239273E+03  0.64555408083E+03  0.46474630138E+03 0.  0.
        3    1    3    3  502    0 -0.78314007203E+02  0.56507378114E+02  0.69556212027E+02  0.11901363089E+03  0.10100000352E+00 0. -1.
       -3    1    3    3    0  502  0.78314007203E+02 -0.56507378114E+02 -0.51760860475E+03  0.52654044994E+03  0.10100000352E+00 0.  1.
</event>
<event>
 5   0  0.3187123E-01  0.5079035E+03  0.7818609E-02  0.1011736E+00
        2   -1    0    0  501    0  0.00000000000E+00  0.00000000000E+00  0.14978189029E+03  0.14978189031E+03  0.25500000920E-02 0. -1.
       -2   -1    0    0    0  501  0.00000000000E+00  0.00000000000E+00 -0.43056941518E+03  0.43056941518E+03  0.25500000920E-02 0.  1.
    10030    2    1    2    0    0  0.00000000000E+00  0.00000000000E+00 -0.28078752489E+03  0.58035130549E+03  0.50790353775E+03 0.  0.
        5    1    3    3  502    0  0.16504682998E+03 -0.14391426570E+03 -0.28724706320E+03  0.36122671174E+03  0.46999998093E+01 0.  1.
       -5    1    3    3    0  502 -0.16504682998E+03  0.14391426570E+03  0.64595383109E+01  0.21912459376E+03  0.46999998093E+01 0. -1.
</event>
<event>
 5   0  0.1984680E-01  0.2996099E+03  0.7818609E-02  0.1085436E+00
       -1   -1    0    0    0  501  0.00000000000E+00  0.00000000000E+00  0.46965047749E+03  0.46965047752E+03  0.50400001928E-02 0.  1.
        1   -1    0    0  501    0  0.00000000000E+00  0.00000000000E+00 -0.47783456667E+02  0.47783456933E+02  0.50400001928E-02 0. -1.
    10030    2    1    2    0    0  0.00000000000E+00  0.00000000000E+00  0.42186702082E+03  0.51743393445E+03  0.29960990181E+03 0.  0.
        5    1    3    3  502    0  0.80607883566E+02  0.10655080822E+03  0.94199775274E+02  0.16354324592E+03  0.46999998093E+01 0.  1.
       -5    1    3    3    0  502 -0.80607883566E+02 -0.10655080822E+03  0.32766724555E+03  0.35389068853E+03  0.46999998093E+01 0. -1.
</event>
<event>
 5   0  0.3178149E-01  0.5023782E+03  0.7818609E-02  0.1013160E+00
       -2   -1    0    0    0  501  0.00000000000E+00  0.00000000000E+00  0.39376113634E+02  0.39376113716E+02  0.25500000920E-02 0. -1.
        2   -1    0    0  501    0  0.00000000000E+00  0.00000000000E+00 -0.16023918052E+04  0.16023918052E+04  0.25500000920E-02 0.  1.
    10030    2    1    2    0    0  0.00000000000E+00  0.00000000000E+00 -0.15630156916E+04  0.16417679189E+04  0.50237819171E+03 0.  0.
        3    1    3    3  502    0  0.17762287341E+03  0.12978982959E+03 -0.38527588684E+03  0.44365843191E+03  0.10100000352E+00 0. -1.
       -3    1    3    3    0  502 -0.17762287341E+03 -0.12978982959E+03 -0.11777398047E+04  0.11981094870E+04  0.10100000352E+00 0.  1.
</event>
<event>
 5   0  0.3117389E-01  0.4158783E+03  0.7818609E-02  0.1038416E+00
       -2   -1    0    0    0  501  0.00000000000E+00  0.00000000000E+00  0.13804554414E+03  0.13804554416E+03  0.25500000920E-02 0. -1.
        2   -1    0    0  501    0  0.00000000000E+00  0.00000000000E+00 -0.31322053591E+03  0.31322053592E+03  0.25500000920E-02 0.  1.
    10030    2    1    2    0    0  0.00000000000E+00  0.00000000000E+00 -0.17517499176E+03  0.45126608008E+03  0.41587834434E+03 0.  0.
        4    1    3    3  502    0 -0.49475803410E+02 -0.18391200961E+03  0.29744561921E+01  0.19047819480E+03  0.12699999809E+01 0. -1.
       -4    1    3    3    0  502  0.49475803410E+02  0.18391200961E+03 -0.17814944796E+03  0.26078788528E+03  0.12699999809E+01 0.  1.
</event>
<event>
 5   0  0.3187123E-01  0.5017636E+03  0.7818609E-02  0.1013320E+00
       -2   -1    0    0    0  501  0.00000000000E+00  0.00000000000E+00  0.18582154634E+03  0.18582154635E+03  0.25500000920E-02 0. -1.
        2   -1    0    0  501    0  0.00000000000E+00  0.00000000000E+00 -0.33872106159E+03  0.33872106160E+03  0.25500000920E-02 0.  1.
    10030    2    1    2    0    0  0.00000000000E+00  0.00000000000E+00 -0.15289951526E+03  0.52454260796E+03  0.50176357560E+03 0.  0.
        5    1    3    3  502    0  0.85295468112E+01  0.24373353868E+03 -0.15128542943E+02  0.24439671408E+03  0.46999998093E+01 0. -1.
       -5    1    3    3    0  502 -0.85295468112E+01 -0.24373353868E+03 -0.13777097231E+03  0.28014589388E+03  0.46999998093E+01 0.  1.
</event>
<event>
 5   0  0.1984680E-01  0.5002313E+03  0.7818609E-02  0.1013719E+00
        1   -1    0    0  501    0  0.00000000000E+00  0.00000000000E+00  0.96160316454E+03  0.96160316455E+03  0.50400001928E-02 0. -1.
       -1   -1    0    0    0  501  0.00000000000E+00  0.00000000000E+00 -0.65055775279E+02  0.65055775474E+02  0.50400001928E-02 0.  1.
    10030    2    1    2    0    0  0.00000000000E+00  0.00000000000E+00  0.89654738926E+03  0.10266589400E+04  0.50023130445E+03 0.  0.
        5    1    3    3  502    0  0.12339144817E+03  0.13872007617E+03  0.79211150888E+03  0.81359169214E+03  0.46999998093E+01 0. -1.
       -5    1    3    3    0  502 -0.12339144817E+03 -0.13872007617E+03  0.10443588038E+03  0.21306724789E+03  0.46999998093E+01 0.  1.
</event>
<event>
 5   0  0.3178149E-01  0.5065658E+03  0.7818609E-02  0.1012079E+00
        2   -1    0    0  501    0  0.00000000000E+00  0.00000000000E+00  0.47566291608E+02  0.47566291676E+02  0.25500000920E-02 0.  1.
       -2   -1    0    0    0  501  0.00000000000E+00  0.00000000000E+00 -0.13486907245E+04  0.13486907245E+04  0.25500000920E-02 0. -1.
    10030    2    1    2    0    0  0.00000000000E+00  0.00000000000E+00 -0.13011244329E+04  0.13962570161E+04  0.50656575620E+03 0.  0.
        3    1    3    3  502    0 -0.33532980428E+02  0.13273345402E+03 -0.12379207211E+04  0.12454679251E+04  0.10100000352E+00 0. -1.
       -3    1    3    3    0  502  0.33532980428E+02 -0.13273345402E+03 -0.63203711778E+02  0.15078909104E+03  0.10100000352E+00 0.  1.
</event>
<event>
 5   0  0.3111146E-01  0.4797129E+03  0.7818609E-02  0.1019214E+00
        2   -1    0    0  501    0  0.00000000000E+00  0.00000000000E+00  0.93744913850E+03  0.93744913850E+03  0.25500000920E-02 0. -1.
       -2   -1    0    0    0  501  0.00000000000E+00  0.00000000000E+00 -0.61369860089E+02  0.61369860142E+02  0.25500000920E-02 0.  1.
    10030    2    1    2    0    0  0.00000000000E+00  0.00000000000E+00  0.87607927841E+03  0.99881899864E+03  0.47971292457E+03 0.  0.
        1    1    3    3  502    0  0.19112258492E+03  0.10241337630E+03  0.22453590381E+03  0.31214213788E+03  0.50400001928E-02 0.  1.
       -1    1    3    3    0  502 -0.19112258492E+03 -0.10241337630E+03  0.65154337459E+03  0.68667686077E+03  0.50400001928E-02 0. -1.
</event>
<event>
 5   0  0.3117389E-01  0.4988705E+03  0.7818609E-02  0.1014074E+00
       -2   -1    0    0    0  501  0.00000000000E+00  0.00000000000E+00  0.17018321429E+03  0.17018321431E+03  0.25500000920E-02 0. -1.
        2   -1    0    0  501    0  0.00000000000E+00  0.00000000000E+00 -0.36559384188E+03  0.36559384189E+03  0.25500000920E-02 0.  1.
    10030    2    1    2    0    0  0.00000000000E+00  0.00000000000E+00 -0.19541062759E+03  0.53577705620E+03  0.49887046473E+03 0.  0.
        4    1    3    3  502    0  0.24849038040E+03 -0.18735769478E+02 -0.86047603237E+02  0.26363668396E+03  0.12699999809E+01 0. -1.
       -4    1    3    3    0  502 -0.24849038040E+03  0.18735769478E+02 -0.10936302435E+03  0.27214037224E+03  0.12699999809E+01 0.  1.
</event>
<event>
 5   0  0.3111146E-01  0.5014961E+03  0.7818609E-02  0.1013389E+00
        2   -1    0    0  501    0  0.00000000000E+00  0.00000000000E+00  0.14906334733E+04  0.14906334733E+04  0.25500000920E-02 0. -1.
       -2   -1    0    0    0  501  0.00000000000E+00  0.00000000000E+00 -0.42179783325E+02  0.42179783402E+02  0.25500000920E-02 0.  1.
    10030    2    1    2    0    0  0.00000000000E+00  0.00000000000E+00  0.14484536899E+04  0.15328132567E+04  0.50149614946E+03 0.  0.
        1    1    3    3  502    0 -0.12460933629E+03 -0.13982816559E+03  0.12337999554E+04  0.12479349873E+04  0.50400001928E-02 0. -1.
       -1    1    3    3    0  502  0.12460933629E+03  0.13982816559E+03  0.21465373458E+03  0.28487826940E+03  0.50400001928E-02 0.  1.
</event>
<event>
 5   0  0.3178149E-01  0.5056391E+03  0.7818609E-02  0.1012317E+00
        2   -1    0    0  501    0  0.00000000000E+00  0.00000000000E+00  0.48421169977E+02  0.48421170044E+02  0.25500000920E-02 0. -1.
       -2   -1    0    0    0  501  0.00000000000E+00  0.00000000000E+00 -0.13200368759E+04  0.13200368760E+04  0.25500000920E-02 0.  1.
    10030    2    1    2    0    0  0.00000000000E+00  0.00000000000E+00 -0.12716157060E+04  0.13684580460E+04  0.50563912030E+03 0.  0.
        3    1    3    3  502    0  0.11885303635E+03  0.12726353310E+02 -0.32885045109E+02  0.12397354843E+03  0.10100000352E+00 0. -1.
       -3    1    3    3    0  502 -0.11885303635E+03 -0.12726353310E+02 -0.12387306609E+04  0.12444844976E+04  0.10100000352E+00 0.  1.
</event>
<event>
 5   0  0.3329246E-01  0.4906557E+03  0.7818609E-02  0.1016247E+00
        2   -1    0    0  501    0  0.00000000000E+00  0.00000000000E+00  0.23166357176E+03  0.23166357177E+03  0.25500000920E-02 0. -1.
       -2   -1    0    0    0  501  0.00000000000E+00  0.00000000000E+00 -0.25979813136E+03  0.25979813138E+03  0.25500000920E-02 0.  1.
    10030    2    1    2    0    0  0.00000000000E+00  0.00000000000E+00 -0.28134559606E+02  0.49146170315E+03  0.49065573696E+03 0.  0.
        2    1    3    3  502    0  0.18243657654E+03  0.16375792083E+03 -0.47783227604E+01  0.24519908946E+03  0.25500000920E-02 0. -1.
       -2    1    3    3    0  502 -0.18243657654E+03 -0.16375792083E+03 -0.23356236845E+02  0.24626261369E+03  0.25500000920E-02 0.  1.
</event>
<event>
 5   0  0.3111146E-01  0.4573610E+03  0.7818609E-02  0.1025549E+00
       -2   -1    0    0    0  501  0.00000000000E+00  0.00000000000E+00  0.11527969257E+03  0.11527969260E+03  0.25500000920E-02 0.  1.
        2   -1    0    0  501    0  0.00000000000E+00  0.00000000000E+00 -0.45363392379E+03  0.45363392379E+03  0.25500000920E-02 0. -1.
    10030    2    1    2    0    0  0.00000000000E+00  0.00000000000E+00 -0.33835423122E+03  0.56891361639E+03  0.45736103587E+03 0.  0.
        1    1    3    3  502    0  0.21828852584E+03  0.53483017149E+02 -0.11663092242E+03  0.25320561946E+03  0.50400001928E-02 0. -1.
       -1    1    3    3    0  502 -0.21828852584E+03 -0.53483017149E+02 -0.22172330880E+03  0.31570799693E+03  0.50400001928E-02 0.  1.
</event>
<event>
 5   0  0.3329246E-01  0.4668870E+03  0.7818609E-02  0.1022803E+00
        2   -1    0    0  501    0  0.00000000000E+00  0.00000000000E+00  0.12518210963E+04  0.12518210963E+04  0.25500000920E-02 0.  1.
       -2   -1    0    0    0  501  0.00000000000E+00  0.00000000000E+00 -0.43533276158E+02  0.43533276232E+02  0.25500000920E-02 0. -1.
    10030    2    1    2    0    0  0.00000000000E+00  0.00000000000E+00  0.12082878202E+04  0.12953543726E+04  0.46688702504E+03 0.  0.
        2    1    3    3  502    0 -0.16467332869E+03 -0.49114945035E+02  0.10425270072E+04  0.10565945976E+04  0.25500000920E-02 0.  1.
       -2    1    3    3    0  502  0.16467332869E+03  0.49114945035E+02  0.16576081301E+03  0.23875977497E+03  0.25500000920E-02 0. -1.
</event>
<event>
 5   0  0.2013450E-01  0.5106279E+03  0.7818609E-02  0.1011042E+00
       -1   -1    0    0    0  501  0.00000000000E+00  0.00000000000E+00  0.26555808829E+03  0.26555808834E+03  0.50400001928E-02 0. -1.
        1   -1    0    0  501    0  0.00000000000E+00  0.00000000000E+00 -0.24546494350E+03  0.24546494355E+03  0.50400001928E-02 0.  1.
    10030    2    1    2    0    0  0.00000000000E+00  0.00000000000E+00  0.20093144785E+02  0.51102303189E+03  0.51062785339E+03 0.  0.
        4    1    3    3  502    0 -0.69484553764E+02  0.73227787344E+02 -0.22464115282E+03  0.24628372356E+03  0.12699999809E+01 0.  1.
       -4    1    3    3    0  502  0.69484553764E+02 -0.73227787344E+02  0.24473429760E+03  0.26473930833E+03  0.12699999809E+01 0. -1.
</event>
<event>
 5   0  0.2000612E-01  0.4950974E+03  0.7818609E-02  0.1015067E+00
        1   -1    0    0  501    0  0.00000000000E+00  0.00000000000E+00  0.28367002083E+03  0.28367002087E+03  0.50400001928E-02 0.  1.
       -1   -1    0    0    0  501  0.00000000000E+00  0.00000000000E+00 -0.21602687749E+03  0.21602687755E+03  0.50400001928E-02 0. -1.
    10030    2    1    2    0    0  0.00000000000E+00  0.00000000000E+00  0.67643143336E+02  0.49969689842E+03  0.49509735957E+03 0.  0.
        2    1    3    3  502    0 -0.13367579558E+03  0.20780014983E+03  0.18507334646E+02  0.24777538625E+03  0.25500000920E-02 0. -1.
       -2    1    3    3    0  502  0.13367579558E+03 -0.20780014983E+03  0.49135808690E+02  0.25192151217E+03  0.25500000920E-02 0.  1.
</event>
<event>
 5   0  0.2013450E-01  0.4932002E+03  0.7818609E-02  0.1015569E+00
       -1   -1    0    0    0  501  0.00000000000E+00  0.00000000000E+00  0.77590845500E+02  0.77590845664E+02  0.50400001928E-02 0. -1.
        1   -1    0    0  501    0  0.00000000000E+00  0.00000000000E+00 -0.78374734079E+03  0.78374734081E+03  0.50400001928E-02 0.  1.
    10030    2    1    2    0    0  0.00000000000E+00  0.00000000000E+00 -0.70615649529E+03  0.86133818647E+03  0.49320023888E+03 0.  0.
        4    1    3    3  502    0  0.11721646915E+03 -0.12907074717E+03 -0.65763351404E+03  0.68035462085E+03  0.12699999809E+01 0.  1.
       -4    1    3    3    0  502 -0.11721646915E+03  0.12907074717E+03 -0.48522981251E+02  0.18098356563E+03  0.12699999809E+01 0. -1.
</event>
<event>
 5   0  0.1292375E-01  0.5095682E+03  0.7818609E-02  0.1011311E+00
        3   -1    0    0  501    0  0.00000000000E+00  0.00000000000E+00  0.89290350707E+02  0.89290407829E+02  0.10100000352E+00 0. -1.
       -3   -1    0    0    0  501  0.00000000000E+00  0.00000000000E+00 -0.72700927107E+03  0.72700927809E+03  0.10100000352E+00 0.  1.
    10030    2    1    2    0    0  0.00000000000E+00  0.00000000000E+00 -0.63771892036E+03  0.81629968591E+03  0.50956820528E+03 0.  0.
        5    1    3    3  502    0 -0.22351014524E+03 -0.11768232284E+03 -0.37167345997E+03  0.44940979627E+03  0.46999998093E+01 0. -1.
       -5    1    3    3    0  502  0.22351014524E+03  0.11768232284E+03 -0.26604546039E+03  0.36688988965E+03  0.46999998093E+01 0.  1.
</event>
<event>
 5   0  0.1984680E-01  0.4982244E+03  0.7818609E-02  0.1014243E+00
       -1   -1    0    0    0  501  0.00000000000E+00  0.00000000000E+00  0.13829220663E+03  0.13829220673E+03  0.50400001928E-02 0.  1.
        1   -1    0    0  501    0  0.00000000000E+00  0.00000000000E+00 -0.44873749175E+03  0.44873749177E+03  0.50400001928E-02 0. -1.
    10030    2    1    2    0    0  0.00000000000E+00  0.00000000000E+00 -0.31044528511E+03  0.58702969850E+03  0.49822443926E+03 0.  0.
        5    1    3    3  502    0 -0.15748680846E+03 -0.18191144910E+03 -0.79402534185E+02  0.25341807864E+03  0.46999998093E+01 0. -1.
       -5    1    3    3    0  502  0.15748680846E+03  0.18191144910E+03 -0.23104275093E+03  0.33361161986E+03  0.46999998093E+01 0.  1.
</event>
<event>
 5   0  0.3178149E-01  0.4894827E+03  0.7818609E-02  0.1016561E+00
        2   -1    0    0  501    0  0.00000000000E+00  0.00000000000E+00  0.12777185159E+04  0.12777185160E+04  0.25500000920E-02 0.  1.
       -2   -1    0    0    0  501  0.00000000000E+00  0.00000000000E+00 -0.46879130217E+02  0.46879130287E+02  0.25500000920E-02 0. -1.
    10030    2    1    2    0    0  0.00000000000E+00  0.00000000000E+00  0.12308393857E+04  0.13245976462E+04  0.48948271772E+03 0.  0.
        3    1    3    3  502    0 -0.33183838659E+02  0.41260499739E+02  0.12620329656E+04  0.12631432272E+04  0.10100000352E+00 0.  1.
       -3    1    3    3    0  502  0.33183838659E+02 -0.41260499739E+02 -0.31193579896E+02  0.61454419000E+02  0.10100000352E+00 0. -1.
</event>
<event>
 5   0  0.1292375E-01  0.4954918E+03  0.7818609E-02  0.1014962E+00
        3   -1    0    0  501    0  0.00000000000E+00  0.00000000000E+00  0.58828964144E+03  0.58828965011E+03  0.10100000352E+00 0.  1.
       -3   -1    0    0    0  501  0.00000000000E+00  0.00000000000E+00 -0.10433295953E+03  0.10433300841E+03  0.10100000352E+00 0. -1.
    10030    2    1    2    0    0  0.00000000000E+00  0.00000000000E+00  0.48395668192E+03  0.69262265853E+03  0.49549175284E+03 0.  0.
        2    1    3    3  502    0  0.10108432098E+03  0.18889912786E+03  0.41588052745E+03  0.46782211745E+03  0.25500000920E-02 0.  1.
       -2    1    3    3    0  502 -0.10108432098E+03 -0.18889912786E+03  0.68076154462E+02  0.22480054108E+03  0.25500000920E-02 0. -1.
</event>
<event>
 5   0  0.3178149E-01  0.4998489E+03  0.7818609E-02  0.1013818E+00
        2   -1    0    0  501    0  0.00000000000E+00  0.00000000000E+00  0.15942210138E+04  0.15942210138E+04  0.25500000920E-02 0. -1.
       -2   -1    0    0    0  501  0.00000000000E+00  0.00000000000E+00 -0.39180406448E+02  0.39180406531E+02  0.25500000920E-02 0.  1.
    10030    2    1    2    0    0  0.00000000000E+00  0.00000000000E+00  0.15550406074E+04  0.16334014204E+04  0.49984888660E+03 0.  0.
        3    1    3    3  502    0  0.21990679585E+02  0.66773303516E+02 -0.62042649600E+01  0.70574550340E+02  0.10100000352E+00 0.  1.
       -3    1    3    3    0  502 -0.21990679585E+02 -0.66773303516E+02  0.15612448723E+04  0.15628268700E+04  0.10100000352E+00 0. -1.
</event>
<event>
 5   0  0.1984297E-01  0.4978114E+03  0.7818609E-02  0.1014352E+00
        1   -1    0    0  501    0  0.00000000000E+00  0.00000000000E+00  0.87050635004E+02  0.87050635149E+02  0.50400001928E-02 0.  1.
       -1   -1    0    0    0  501  0.00000000000E+00  0.00000000000E+00 -0.71170124913E+03  0.71170124915E+03  0.50400001928E-02 0. -1.
    10030    2    1    2    0    0  0.00000000000E+00  0.00000000000E+00 -0.62465061413E+03  0.79875188430E+03  0.49781139294E+03 0.  0.
        3    1    3    3  502    0 -0.38324403578E+02  0.11129745702E+03 -0.66421881759E+03  0.67456840401E+03  0.10100000352E+00 0. -1.
       -3    1    3    3    0  502  0.38324403578E+02 -0.11129745702E+03  0.39568203463E+02  0.12418348029E+03  0.10100000352E+00 0.  1.
</event>
<event>
 5   0  0.2000612E-01  0.6012568E+03  0.7818609E-02  0.9902802E-01
       -1   -1    0    0    0  501  0.00000000000E+00  0.00000000000E+00  0.13426968419E+03  0.13426968428E+03  0.50400001928E-02 0. -1.
        1   -1    0    0  501    0  0.00000000000E+00  0.00000000000E+00 -0.67310386373E+03  0.67310386374E+03  0.50400001928E-02 0.  1.
    10030    2    1    2    0    0  0.00000000000E+00  0.00000000000E+00 -0.53883417954E+03  0.80737354803E+03  0.60125682783E+03 0.  0.
        2    1    3    3  502    0 -0.28269142844E+03  0.56732651115E+02 -0.38370910256E+03  0.47996428284E+03  0.25500000920E-02 0.  1.
       -2    1    3    3    0  502  0.28269142844E+03 -0.56732651115E+02 -0.15512507698E+03  0.32740926518E+03  0.25500000920E-02 0. -1.
</event>
<event>
 5   0  0.1984680E-01  0.5086700E+03  0.7818609E-02  0.1011540E+00
        1   -1    0    0  501    0  0.00000000000E+00  0.00000000000E+00  0.14276392139E+03  0.14276392148E+03  0.50400001928E-02 0. -1.
       -1   -1    0    0    0  501  0.00000000000E+00  0.00000000000E+00 -0.45309966209E+03  0.45309966211E+03  0.50400001928E-02 0.  1.
    10030    2    1    2    0    0  0.00000000000E+00  0.00000000000E+00 -0.31033574070E+03  0.59586358359E+03  0.50866996992E+03 0.  0.
        5    1    3    3  502    0  0.14766764812E+03  0.55467849784E+02 -0.38881090548E+03  0.41961700023E+03  0.46999998093E+01 0.  1.
       -5    1    3    3    0  502 -0.14766764812E+03 -0.55467849784E+02  0.78475164782E+02  0.17624658336E+03  0.46999998093E+01 0. -1.
</event>
<event>
 5   0  0.3117389E-01  0.5019767E+03  0.7818609E-02  0.1013264E+00
        2   -1    0    0  501    0  0.00000000000E+00  0.00000000000E+00  0.68355138567E+03  0.68355138568E+03  0.25500000920E-02 0. -1.
       -2   -1    0    0    0  501  0.00000000000E+00  0.00000000000E+00 -0.92158614995E+02  0.92158615031E+02  0.25500000920E-02 0.  1.
    10030    2    1    2    0    0  0.00000000000E+00  0.00000000000E+00  0.59139277068E+03  0.77571000071E+03  0.50197668869E+03 0.  0.
        4    1    3    3  502    0  0.17752897713E+03 -0.88491695584E+02  0.53332387904E+03  0.56901958733E+03  0.12699999809E+01 0. -1.
       -4    1    3    3    0  502 -0.17752897713E+03  0.88491695584E+02  0.58068891636E+02  0.20669041338E+03  0.12699999809E+01 0.  1.
</event>
<event>
 5   0  0.3117389E-01  0.5026307E+03  0.7818609E-02  0.1013095E+00
       -2   -1    0    0    0  501  0.00000000000E+00  0.00000000000E+00  0.10903926625E+03  0.10903926628E+03  0.25500000920E-02 0. -1.
        2   -1    0    0  501    0  0.00000000000E+00  0.00000000000E+00 -0.57923542013E+03  0.57923542014E+03  0.25500000920E-02 0.  1.
    10030    2    1    2    0    0  0.00000000000E+00  0.00000000000E+00 -0.47019615388E+03  0.68827468642E+03  0.50263070025E+03 0.  0.
        4    1    3    3  502    0 -0.65642880607E+02 -0.13424021899E+03 -0.51178828941E+03  0.53315878521E+03  0.12699999809E+01 0.  1.
       -4    1    3    3    0  502  0.65642880607E+02  0.13424021899E+03  0.41592135532E+02  0.15511590120E+03  0.12699999809E+01 0. -1.
</event>
<event>
 5   0  0.3178149E-01  0.5159067E+03  0.7818609E-02  0.1009708E+00
       -2   -1    0    0    0  501  0.00000000000E+00  0.00000000000E+00  0.19961935534E+03  0.19961935536E+03  0.25500000920E-02 0. -1.
        2   -1    0    0  501    0  0.00000000000E+00  0.00000000000E+00 -0.33333405549E+03  0.33333405550E+03  0.25500000920E-02 0.  1.
    10030    2    1    2    0    0  0.00000000000E+00  0.00000000000E+00 -0.13371470015E+03  0.53295341086E+03  0.51590669419E+03 0.  0.
        3    1    3    3  502    0 -0.12385732038E+03  0.22436815780E+03 -0.97120604953E+02  0.27406956809E+03  0.10100000352E+00 0.  1.
       -3    1    3    3    0  502  0.12385732038E+03 -0.22436815780E+03 -0.36594095199E+02  0.25888384277E+03  0.10100000352E+00 0. -1.
</event>
<event>
 5   0  0.2013450E-01  0.5076193E+03  0.7818609E-02  0.1011809E+00
       -1   -1    0    0    0  501  0.00000000000E+00  0.00000000000E+00  0.27347099768E+03  0.27347099773E+03  0.50400001928E-02 0.  1.
        1   -1    0    0  501    0  0.00000000000E+00  0.00000000000E+00 -0.23556190898E+03  0.23556190903E+03  0.50400001928E-02 0. -1.
    10030    2    1    2    0    0  0.00000000000E+00  0.00000000000E+00  0.37909088702E+02  0.50903290676E+03  0.50761934671E+03 0.  0.
        4    1    3    3  502    0 -0.44899051064E+02  0.70790745181E+02 -0.22127567207E+03  0.23662584462E+03  0.12699999809E+01 0. -1.
       -4    1    3    3    0  502  0.44899051064E+02 -0.70790745181E+02  0.25918476077E+03  0.27240706215E+03  0.12699999809E+01 0.  1.
</event>
<event>
 5   0  0.3117389E-01  0.5132031E+03  0.7818609E-02  0.1010389E+00
        2   -1    0    0  501    0  0.00000000000E+00  0.00000000000E+00  0.86830267167E+03  0.86830267168E+03  0.25500000920E-02 0. -1.
       -2   -1    0    0    0  501  0.00000000000E+00  0.00000000000E+00 -0.75831097898E+02  0.75831097941E+02  0.25500000920E-02 0.  1.
    10030    2    1    2    0    0  0.00000000000E+00  0.00000000000E+00  0.79247157377E+03  0.94413376962E+03  0.51320305893E+03 0.  0.
        4    1    3    3  502    0 -0.11842107351E+03  0.10026575675E+03  0.77220780740E+03  0.78764413496E+03  0.12699999809E+01 0. -1.
       -4    1    3    3    0  502  0.11842107351E+03 -0.10026575675E+03  0.20263766378E+02  0.15648963466E+03  0.12699999809E+01 0.  1.
</event>
<event>
 5   0  0.2013450E-01  0.4967233E+03  0.7818609E-02  0.1014638E+00
        1   -1    0    0  501    0  0.00000000000E+00  0.00000000000E+00  0.94945107242E+03  0.94945107244E+03  0.50400001928E-02 0.  1.
       -1   -1    0    0    0  501  0.00000000000E+00  0.00000000000E+00 -0.64967543049E+02  0.64967543245E+02  0.50400001928E-02 0. -1.
    10030    2    1    2    0    0  0.00000000000E+00  0.00000000000E+00  0.88448352937E+03  0.10144186157E+04  0.49672327720E+03 0.  0.
        4    1    3    3  502    0 -0.21942714889E+03 -0.50568622834E+02  0.22828142396E+03  0.32065476873E+03  0.12699999809E+01 0. -1.
       -4    1    3    3    0  502  0.21942714889E+03  0.50568622834E+02  0.65620210542E+03  0.69376384695E+03  0.12699999809E+01 0.  1.
</event>
<event>
 5   0  0.3111146E-01  0.4966590E+03  0.7818609E-02  0.1014655E+00
        2   -1    0    0  501    0  0.00000000000E+00  0.00000000000E+00  0.26374621162E+04  0.26374621162E+04  0.25500000920E-02 0. -1.
       -2   -1    0    0    0  501  0.00000000000E+00  0.00000000000E+00 -0.23381395747E+02  0.23381395886E+02  0.25500000920E-02 0.  1.
    10030    2    1    2    0    0  0.00000000000E+00  0.00000000000E+00  0.26140807205E+04  0.26608435121E+04  0.49665902063E+03 0.  0.
        1    1    3    3  502    0  0.78459285788E+02  0.21094917947E+02  0.25642436086E+04  0.25655303817E+04  0.50400001928E-02 0. -1.
       -1    1    3    3    0  502 -0.78459285788E+02 -0.21094917947E+02  0.49837111922E+02  0.95313130469E+02  0.50400001928E-02 0.  1.
</event>
<event>
 5   0  0.3187123E-01  0.5152483E+03  0.7818609E-02  0.1009874E+00
       -2   -1    0    0    0  501  0.00000000000E+00  0.00000000000E+00  0.52930350512E+02  0.52930350574E+02  0.25500000920E-02 0. -1.
        2   -1    0    0  501    0  0.00000000000E+00  0.00000000000E+00 -0.12539156416E+04  0.12539156416E+04  0.25500000920E-02 0.  1.
    10030    2    1    2    0    0  0.00000000000E+00  0.00000000000E+00 -0.12009852911E+04  0.13068459922E+04  0.51524826818E+03 0.  0.
        5    1    3    3  502    0 -0.24921837198E+03 -0.60546606489E+02 -0.66117518462E+03  0.70918996273E+03  0.46999998093E+01 0.  1.
       -5    1    3    3    0  502  0.24921837198E+03  0.60546606489E+02 -0.53981010650E+03  0.59765602948E+03  0.46999998093E+01 0. -1.
</event>
<event>
 5   0  0.2013450E-01  0.5010290E+03  0.7818609E-02  0.1013511E+00
       -1   -1    0    0    0  501  0.00000000000E+00  0.00000000000E+00  0.39364479886E+03  0.39364479889E+03  0.50400001928E-02 0. -1.
        1   -1    0    0  501    0  0.00000000000E+00  0.00000000000E+00 -0.15942674027E+03  0.15942674035E+03  0.50400001928E-02 0.  1.
    10030    2    1    2    0    0  0.00000000000E+00  0.00000000000E+00  0.23421805859E+03  0.55307153924E+03  0.50102896977E+03 0.  0.
        4    1    3    3  502    0 -0.22928243085E+03 -0.95632277085E+02  0.81511466946E+02  0.26146070003E+03  0.12699999809E+01 0. -1.
       -4    1    3    3    0  502  0.22928243085E+03  0.95632277085E+02  0.15270659164E+03  0.29161083921E+03  0.12699999809E+01 0.  1.
</event>
<event>
 5   0  0.2013450E-01  0.5187547E+03  0.7818609E-02  0.1008996E+00
        1   -1    0    0  501    0  0.00000000000E+00  0.00000000000E+00  0.26502175326E+03  0.26502175330E+03  0.50400001928E-02 0.  1.
       -1   -1    0    0    0  501  0.00000000000E+00  0.00000000000E+00 -0.25385312414E+03  0.25385312419E+03  0.50400001928E-02 0. -1.
    10030    2    1    2    0    0  0.00000000000E+00  0.00000000000E+00  0.11168629115E+02  0.51887487750E+03  0.51875466284E+03 0.  0.
        4    1    3    3  502    0 -0.30201858976E+01  0.25448670224E+03  0.55619741421E+02  0.26051443659E+03  0.12699999809E+01 0.  1.
       -4    1    3    3    0  502  0.30201858976E+01 -0.25448670224E+03 -0.44451112306E+02  0.25836044090E+03  0.12699999809E+01 0. -1.
</event>
<event>
 5   0  0.2013450E-01  0.4590407E+03  0.7818609E-02  0.1025060E+00
        1   -1    0    0  501    0  0.00000000000E+00  0.00000000000E+00  0.53803788632E+03  0.53803788634E+03  0.50400001928E-02 0.  1.
       -1   -1    0    0    0  501  0.00000000000E+00  0.00000000000E+00 -0.97910576006E+02  0.97910576135E+02  0.50400001928E-02 0. -1.
    10030    2    1    2    0    0  0.00000000000E+00  0.00000000000E+00  0.44012731031E+03  0.63594846247E+03  0.45904073637E+03 0.  0.
        4    1    3    3  502    0 -0.12334022952E+03 -0.65445523606E+02 -0.32297409775E+02  0.14332014637E+03  0.12699999809E+01 0. -1.
       -4    1    3    3    0  502  0.12334022952E+03  0.65445523606E+02  0.47242472008E+03  0.49262831610E+03  0.12699999809E+01 0.  1.
</event>
<event>
 5   0  0.3117389E-01  0.5033283E+03  0.7818609E-02  0.1012914E+00
        2   -1    0    0  501    0  0.00000000000E+00  0.00000000000E+00  0.95372713594E+02  0.95372713629E+02  0.25500000920E-02 0. -1.
       -2   -1    0    0    0  501  0.00000000000E+00  0.00000000000E+00 -0.66407728918E+03  0.66407728918E+03  0.25500000920E-02 0.  1.
    10030    2    1    2    0    0  0.00000000000E+00  0.00000000000E+00 -0.56870457559E+03  0.75945000281E+03  0.50332833467E+03 0.  0.
        4    1    3    3  502    0  0.10000944375E+03  0.13986187298E+03 -0.70755796288E+01  0.17208982852E+03  0.12699999809E+01 0. -1.
       -4    1    3    3    0  502 -0.10000944375E+03 -0.13986187298E+03 -0.56162899596E+03  0.58736017430E+03  0.12699999809E+01 0.  1.
</event>
<event>
 5   0  0.1967161E-01  0.4905044E+03  0.7818609E-02  0.1016288E+00
       -1   -1    0    0    0  501  0.00000000000E+00  0.00000000000E+00  0.11140737312E+03  0.11140737324E+03  0.50400001928E-02 0.  1.
        1   -1    0    0  501    0  0.00000000000E+00  0.00000000000E+00 -0.53989822168E+03  0.53989822170E+03  0.50400001928E-02 0. -1.
    10030    2    1    2    0    0  0.00000000000E+00  0.00000000000E+00 -0.42849084856E+03  0.65130559494E+03  0.49050440437E+03 0.  0.
        1    1    3    3  502    0 -0.42722542043E+02  0.69310584408E+02 -0.52142886411E+03  0.52774731933E+03  0.50400001928E-02 0. -1.
       -1    1    3    3    0  502  0.42722542043E+02 -0.69310584408E+02  0.92938015555E+02  0.12355827560E+03  0.50400001928E-02 0.  1.
</event>
<event>
 5   0  0.3111146E-01  0.5053470E+03  0.7818609E-02  0.1012393E+00
       -2   -1    0    0    0  501  0.00000000000E+00  0.00000000000E+00  0.87929633154E+03  0.87929633155E+03  0.25500000920E-02 0. -1.
        2   -1    0    0  501    0  0.00000000000E+00  0.00000000000E+00 -0.72607956675E+02  0.72607956720E+02  0.25500000920E-02 0.  1.
    10030    2    1    2    0    0  0.00000000000E+00  0.00000000000E+00  0.80668837487E+03  0.95190428827E+03  0.50534704894E+03 0.  0.
        1    1    3    3  502    0 -0.14306534859E+03  0.15374962810E+03  0.66797905594E+03  0.70021615328E+03  0.50400001928E-02 0. -1.
       -1    1    3    3    0  502  0.14306534859E+03 -0.15374962810E+03  0.13870931892E+03  0.25168813498E+03  0.50400001928E-02 0.  1.
</event>
<event>
 5   0  0.1984680E-01  0.5041580E+03  0.7818609E-02  0.1012699E+00
        1   -1    0    0  501    0  0.00000000000E+00  0.00000000000E+00  0.44080842575E+03  0.44080842578E+03  0.50400001928E-02 0.  1.
       -1   -1    0    0    0  501  0.00000000000E+00  0.00000000000E+00 -0.14415291085E+03  0.14415291094E+03  0.50400001928E-02 0. -1.
    10030    2    1    2    0    0  0.00000000000E+00  0.00000000000E+00  0.29665551490E+03  0.58496133672E+03  0.50415798212E+03 0.  0.
        5    1    3    3  502    0  0.19340810212E+03  0.68944641930E+02  0.31790911853E+03  0.37848164454E+03  0.46999998093E+01 0.  1.
       -5    1    3    3    0  502 -0.19340810212E+03 -0.68944641930E+02 -0.21253603623E+02  0.20647969218E+03  0.46999998093E+01 0. -1.
</event>
<event>
 5   0  0.1984680E-01  0.4847400E+03  0.7818609E-02  0.1017841E+00
       -1   -1    0    0    0  501  0.00000000000E+00  0.00000000000E+00  0.75619104385E+03  0.75619104387E+03  0.50400001928E-02 0.  1.
        1   -1    0    0  501    0  0.00000000000E+00  0.00000000000E+00 -0.77683030098E+02  0.77683030262E+02  0.50400001928E-02 0. -1.
    10030    2    1    2    0    0  0.00000000000E+00  0.00000000000E+00  0.67850801375E+03  0.83387407413E+03  0.48473997852E+03 0.  0.
        5    1    3    3  502    0 -0.16185499770E+03  0.57161451955E+02  0.63349550900E+03  0.65635594139E+03  0.46999998093E+01 0.  1.
       -5    1    3    3    0  502  0.16185499770E+03 -0.57161451955E+02  0.45012504750E+02  0.17751813274E+03  0.46999998093E+01 0. -1.
</event>
<event>
 5   0  0.3178149E-01  0.4952760E+03  0.7818609E-02  0.1015019E+00
       -2   -1    0    0    0  501  0.00000000000E+00  0.00000000000E+00  0.17189146422E+03  0.17189146424E+03  0.25500000920E-02 0.  1.
        2   -1    0    0  501    0  0.00000000000E+00  0.00000000000E+00 -0.35676343263E+03  0.35676343264E+03  0.25500000920E-02 0. -1.
    10030    2    1    2    0    0  0.00000000000E+00  0.00000000000E+00 -0.18487196841E+03  0.52865489688E+03  0.49527603949E+03 0.  0.
        3    1    3    3  502    0  0.83063979351E+02  0.51647144070E+02  0.15039924815E+03  0.17940734712E+03  0.10100000352E+00 0.  1.
       -3    1    3    3    0  502 -0.83063979351E+02 -0.51647144070E+02 -0.33527121656E+03  0.34924754976E+03  0.10100000352E+00 0. -1.
</event>
<event>
 5   0  0.1967161E-01  0.5150936E+03  0.7818609E-02  0.1009913E+00
        1   -1    0    0  501    0  0.00000000000E+00  0.00000000000E+00  0.15195036441E+04  0.15195036441E+04  0.50400001928E-02 0.  1.
       -1   -1    0    0    0  501  0.00000000000E+00  0.00000000000E+00 -0.43652644169E+02  0.43652644460E+02  0.50400001928E-02 0. -1.
    10030    2    1    2    0    0  0.00000000000E+00  0.00000000000E+00  0.14758509999E+04  0.15631562886E+04  0.51509359197E+03 0.  0.
        1    1    3    3  502    0 -0.18023880138E+03  0.13933776218E+03  0.11024603940E+04  0.11257530626E+04  0.50400001928E-02 0.  1.
       -1    1    3    3    0  502  0.18023880138E+03 -0.13933776218E+03  0.37339060587E+03  0.43740322595E+03  0.50400001928E-02 0. -1.
</event>
<event>
 5   0  0.1984680E-01  0.5008528E+03  0.7818609E-02  0.1013557E+00
        1   -1    0    0  501    0  0.00000000000E+00  0.00000000000E+00  0.29071267189E+03  0.29071267193E+03  0.50400001928E-02 0. -1.
       -1   -1    0    0    0  501  0.00000000000E+00  0.00000000000E+00 -0.21572288775E+03  0.21572288781E+03  0.50400001928E-02 0.  1.
    10030    2    1    2    0    0  0.00000000000E+00  0.00000000000E+00  0.74989784139E+02  0.50643555974E+03  0.50085278121E+03 0.  0.
        5    1    3    3  502    0  0.11165645218E+03 -0.23338631652E+02  0.26286816613E+03  0.28658963311E+03  0.46999998093E+01 0. -1.
       -5    1    3    3    0  502 -0.11165645218E+03  0.23338631652E+02 -0.18787838199E+03  0.21984592664E+03  0.46999998093E+01 0.  1.
</event>
<event>
 5   0  0.1292375E-01  0.4716350E+03  0.7818609E-02  0.1021460E+00
       -3   -1    0    0    0  501  0.00000000000E+00  0.00000000000E+00  0.40538888725E+03  0.40538889983E+03  0.10100000352E+00 0. -1.
        3   -1    0    0  501    0  0.00000000000E+00  0.00000000000E+00 -0.13717663888E+03  0.13717667606E+03  0.10100000352E+00 0.  1.
    10030    2    1    2    0    0  0.00000000000E+00  0.00000000000E+00  0.26821224837E+03  0.54256557589E+03  0.47163502199E+03 0.  0.
        2    1    3    3  502    0  0.77080837086E+02 -0.22286415730E+03  0.13422360436E+03  0.27134086318E+03  0.25500000920E-02 0. -1.
       -2    1    3    3    0  502 -0.77080837086E+02  0.22286415730E+03  0.13398864401E+03  0.27122471271E+03  0.25500000920E-02 0.  1.
</event>
<event>
 5   0  0.1292375E-01  0.4919617E+03  0.7818609E-02  0.1015899E+00
        3   -1    0    0  501    0  0.00000000000E+00  0.00000000000E+00  0.35586880696E+03  0.35586882129E+03  0.10100000352E+00 0. -1.
       -3   -1    0    0    0  501  0.00000000000E+00  0.00000000000E+00 -0.17002491098E+03  0.17002494098E+03  0.10100000352E+00 0.  1.
    10030    2    1    2    0    0  0.00000000000E+00  0.00000000000E+00  0.18584389598E+03  0.52589376227E+03  0.49196168095E+03 0.  0.
        5    1    3    3  502    0 -0.76966799576E+02  0.37162765425E+02  0.33943446030E+03  0.35006114067E+03  0.46999998093E+01 0. -1.
       -5    1    3    3    0  502  0.76966799576E+02 -0.37162765425E+02 -0.15359056432E+03  0.17583262160E+03  0.46999998093E+01 0.  1.
</event>
<event>
 5   0  0.3187123E-01  0.5963352E+03  0.7818609E-02  0.9913039E-01
        2   -1    0    0  501    0  0.00000000000E+00  0.00000000000E+00  0.28217357658E+03  0.28217357659E+03  0.25500000920E-02 0. -1.
       -2   -1    0    0    0  501  0.00000000000E+00  0.00000000000E+00 -0.31506819316E+03  0.31506819317E+03  0.25500000920E-02 0.  1.
    10030    2    1    2    0    0  0.00000000000E+00  0.00000000000E+00 -0.32894616578E+02  0.59724176976E+03  0.59633520418E+03 0.  0.
        5    1    3    3  502    0  0.95589530529E+02 -0.22288614560E+03  0.15721247767E+03  0.28905612842E+03  0.46999998093E+01 0. -1.
       -5    1    3    3    0  502 -0.95589530529E+02  0.22288614560E+03 -0.19010709425E+03  0.30818564134E+03  0.46999998093E+01 0.  1.
</event>
<event>
 5   0  0.1967161E-01  0.5031905E+03  0.7818609E-02  0.1012949E+00
        1   -1    0    0  501    0  0.00000000000E+00  0.00000000000E+00  0.96606600283E+03  0.96606600285E+03  0.50400001928E-02 0.  1.
       -1   -1    0    0    0  501  0.00000000000E+00  0.00000000000E+00 -0.65523646690E+02  0.65523646884E+02  0.50400001928E-02 0. -1.
    10030    2    1    2    0    0  0.00000000000E+00  0.00000000000E+00  0.90054235614E+03  0.10315896497E+04  0.50319049099E+03 0.  0.
        1    1    3    3  502    0  0.20273331265E+03 -0.14781277062E+03  0.48866641044E+03  0.54931254485E+03  0.50400001928E-02 0.  1.
       -1    1    3    3    0  502 -0.20273331265E+03  0.14781277062E+03  0.41187594570E+03  0.48227710488E+03  0.50400001928E-02 0. -1.
</event>
<event>
 5   0  0.1984680E-01  0.5828126E+03  0.7818609E-02  0.9941720E-01
        1   -1    0    0  501    0  0.00000000000E+00  0.00000000000E+00  0.18526414239E+03  0.18526414246E+03  0.50400001928E-02 0.  1.
       -1   -1    0    0    0  501  0.00000000000E+00  0.00000000000E+00 -0.45835977524E+03  0.45835977526E+03  0.50400001928E-02 0. -1.
    10030    2    1    2    0    0  0.00000000000E+00  0.00000000000E+00 -0.27309563285E+03  0.64362391772E+03  0.58281259663E+03 0.  0.
        5    1    3    3  502    0  0.35368072211E+02 -0.29192875593E+02 -0.45430730165E+03  0.45664027291E+03  0.46999998093E+01 0. -1.
       -5    1    3    3    0  502 -0.35368072211E+02  0.29192875593E+02  0.18121166880E+03  0.18698364481E+03  0.46999998093E+01 0.  1.
</event>
<event>
 5   0  0.1967161E-01  0.5181072E+03  0.7818609E-02  0.1009158E+00
        1   -1    0    0  501    0  0.00000000000E+00  0.00000000000E+00  0.22215965661E+04  0.22215965661E+04  0.50400001928E-02 0.  1.
       -1   -1    0    0    0  501  0.00000000000E+00  0.00000000000E+00 -0.30207452381E+02  0.30207452802E+02  0.50400001928E-02 0. -1.
    10030    2    1    2    0    0  0.00000000000E+00  0.00000000000E+00  0.21913891137E+04  0.22518040189E+04  0.51810722041E+03 0.  0.
        1    1    3    3  502    0  0.16090396255E+03 -0.17638937724E+03  0.65878723875E+03  0.70071672132E+03  0.50400001928E-02 0. -1.
       -1    1    3    3    0  502 -0.16090396255E+03  0.17638937724E+03  0.15326018750E+04  0.15510872976E+04  0.50400001928E-02 0.  1.
</event>
<event>
 5   0  0.3117389E-01  0.5201226E+03  0.7818609E-02  0.1008656E+00
        2   -1    0    0  501    0  0.00000000000E+00  0.00000000000E+00  0.15946651622E+03  0.15946651624E+03  0.25500000920E-02 0.  1.
       -2   -1    0    0    0  501  0.00000000000E+00  0.00000000000E+00 -0.42411335395E+03  0.42411335395E+03  0.25500000920E-02 0. -1.
    10030    2    1    2    0    0  0.00000000000E+00  0.00000000000E+00 -0.26464683773E+03  0.58357987019E+03  0.52012259725E+03 0.  0.
        4    1    3    3  502    0 -0.21239936161E+03  0.26922043734E+02 -0.29795491898E+03  0.36690193771E+03  0.12699999809E+01 0. -1.
       -4    1    3    3    0  502  0.21239936161E+03 -0.26922043734E+02  0.33308081248E+02  0.21667793249E+03  0.12699999809E+01 0.  1.
</event>
<event>
 5   0  0.1292375E-01  0.5279884E+03  0.7818609E-02  0.1006721E+00
       -4   -1    0    0    0  501  0.00000000000E+00  0.00000000000E+00  0.28210313541E+03  0.28210599410E+03  0.12699999809E+01 0. -1.
        4   -1    0    0  501    0  0.00000000000E+00  0.00000000000E+00 -0.24704195017E+03  0.24704521457E+03  0.12699999809E+01 0.  1.
    10030    2    1    2    0    0  0.00000000000E+00  0.00000000000E+00  0.35061185238E+02  0.52915120867E+03  0.52798836628E+03 0.  0.
        5    1    3    3  502    0 -0.14944984185E+03 -0.21544499250E+03 -0.12851825881E+02  0.26256248675E+03  0.46999998093E+01 0.  1.
       -5    1    3    3    0  502  0.14944984185E+03  0.21544499250E+03  0.47913011119E+02  0.26658872192E+03  0.46999998093E+01 0. -1.
</event>
<event>
 5   0  0.1984680E-01  0.5045629E+03  0.7818609E-02  0.1012595E+00
        1   -1    0    0  501    0  0.00000000000E+00  0.00000000000E+00  0.68040271050E+02  0.68040271236E+02  0.50400001928E-02 0.  1.
       -1   -1    0    0    0  501  0.00000000000E+00  0.00000000000E+00 -0.93541540392E+03  0.93541540394E+03  0.50400001928E-02 0. -1.
    10030    2    1    2    0    0  0.00000000000E+00  0.00000000000E+00 -0.86737513288E+03  0.10034556752E+04  0.50456285130E+03 0.  0.
        5    1    3    3  502    0 -0.15990317782E+03 -0.19408569989E+03 -0.39463774252E+03  0.46797363494E+03  0.46999998093E+01 0. -1.
       -5    1    3    3    0  502  0.15990317782E+03  0.19408569989E+03 -0.47273739036E+03  0.53548204024E+03  0.46999998093E+01 0.  1.
</event>
<event>
 5   0  0.3111146E-01  0.4929046E+03  0.7818609E-02  0.1015648E+00
       -2   -1    0    0    0  501  0.00000000000E+00  0.00000000000E+00  0.53961844797E+02  0.53961844857E+02  0.25500000920E-02 0. -1.
        2   -1    0    0  501    0  0.00000000000E+00  0.00000000000E+00 -0.11255867876E+04  0.11255867876E+04  0.25500000920E-02 0.  1.
    10030    2    1    2    0    0  0.00000000000E+00  0.00000000000E+00 -0.10716249428E+04  0.11795486325E+04  0.49290461380E+03 0.  0.
        1    1    3    3  502    0 -0.80975652109E+02  0.18718497425E+02  0.19414310756E+02  0.85348426276E+02  0.50400001928E-02 0. -1.
       -1    1    3    3    0  502  0.80975652109E+02 -0.18718497425E+02 -0.10910392536E+04  0.10942002062E+04  0.50400001928E-02 0.  1.
</event>
<event>
 5   0  0.3117389E-01  0.4975403E+03  0.7818609E-02  0.1014423E+00
        2   -1    0    0  501    0  0.00000000000E+00  0.00000000000E+00  0.96313779314E+03  0.96313779315E+03  0.25500000920E-02 0. -1.
       -2   -1    0    0    0  501  0.00000000000E+00  0.00000000000E+00 -0.64255185757E+02  0.64255185807E+02  0.25500000920E-02 0.  1.
    10030    2    1    2    0    0  0.00000000000E+00  0.00000000000E+00  0.89888260739E+03  0.10273929790E+04  0.49754034142E+03 0.  0.
        4    1    3    3  502    0 -0.13290286247E+03 -0.16490586553E+03  0.71889767159E+03  0.74944819064E+03  0.12699999809E+01 0.  1.
       -4    1    3    3    0  502  0.13290286247E+03  0.16490586553E+03  0.17998493580E+03  0.27794478831E+03  0.12699999809E+01 0. -1.
</event>
<event>
 5   0  0.3117389E-01  0.5029224E+03  0.7818609E-02  0.1013019E+00
       -2   -1    0    0    0  501  0.00000000000E+00  0.00000000000E+00  0.24516896767E+03  0.24516896768E+03  0.25500000920E-02 0.  1.
        2   -1    0    0  501    0  0.00000000000E+00  0.00000000000E+00 -0.25791492501E+03  0.25791492503E+03  0.25500000920E-02 0. -1.
    10030    2    1    2    0    0  0.00000000000E+00  0.00000000000E+00 -0.12745957347E+02  0.50308389271E+03  0.50292240323E+03 0.  0.
        4    1    3    3  502    0  0.80095539007E+02  0.22307742796E+03  0.77631893340E+02  0.24941362833E+03  0.12699999809E+01 0.  1.
       -4    1    3    3    0  502 -0.80095539007E+02 -0.22307742796E+03 -0.90377850686E+02  0.25367026438E+03  0.12699999809E+01 0. -1.
</event>
<event>
 5   0  0.3117389E-01  0.4886116E+03  0.7818609E-02  0.1016795E+00
       -2   -1    0    0    0  501  0.00000000000E+00  0.00000000000E+00  0.46480947722E+02  0.46480947792E+02  0.25500000920E-02 0. -1.
        2   -1    0    0  501    0  0.00000000000E+00  0.00000000000E+00 -0.12840815946E+04  0.12840815946E+04  0.25500000920E-02 0.  1.
    10030    2    1    2    0    0  0.00000000000E+00  0.00000000000E+00 -0.12376006468E+04  0.13305625424E+04  0.48861162293E+03 0.  0.
        4    1    3    3  502    0  0.49331325152E+01  0.19530414931E+02 -0.12818072484E+04  0.12819661492E+04  0.12699999809E+01 0.  1.
       -4    1    3    3    0  502 -0.49331325152E+01 -0.19530414931E+02  0.44206601541E+02  0.48596393112E+02  0.12699999809E+01 0. -1.
</event>
<event>
 5   0  0.3178149E-01  0.5261609E+03  0.7818609E-02  0.1007167E+00
        2   -1    0    0  501    0  0.00000000000E+00  0.00000000000E+00  0.10221221580E+04  0.10221221580E+04  0.25500000920E-02 0.  1.
       -2   -1    0    0    0  501  0.00000000000E+00  0.00000000000E+00 -0.67713349527E+02  0.67713349575E+02  0.25500000920E-02 0. -1.
    10030    2    1    2    0    0  0.00000000000E+00  0.00000000000E+00  0.95440880850E+03  0.10898355076E+04  0.52616086884E+03 0.  0.
        3    1    3    3  502    0  0.55726012327E+02  0.11965894593E+03  0.94856743984E+03  0.95770760147E+03  0.10100000352E+00 0.  1.
       -3    1    3    3    0  502 -0.55726012327E+02 -0.11965894593E+03  0.58413686563E+01  0.13212790613E+03  0.10100000352E+00 0. -1.
</event>
<event>
 5   0  0.1984297E-01  0.5097356E+03  0.7818609E-02  0.1011269E+00
        1   -1    0    0  501    0  0.00000000000E+00  0.00000000000E+00  0.79665351707E+03  0.79665351708E+03  0.50400001928E-02 0. -1.
       -1   -1    0    0    0  501  0.00000000000E+00  0.00000000000E+00 -0.81538067034E+02  0.81538067190E+02  0.50400001928E-02 0.  1.
    10030    2    1    2    0    0  0.00000000000E+00  0.00000000000E+00  0.71511545003E+03  0.87819158427E+03  0.50973557048E+03 0.  0.
        3    1    3    3  502    0 -0.31082814251E+02  0.15118014026E+03  0.70698384702E+03  0.72363509195E+03  0.10100000352E+00 0. -1.
       -3    1    3    3    0  502  0.31082814251E+02 -0.15118014026E+03  0.81316030135E+01  0.15455649232E+03  0.10100000352E+00 0.  1.
</event>
<event>
 5   0  0.2013450E-01  0.4937338E+03  0.7818609E-02  0.1015428E+00
        1   -1    0    0  501    0  0.00000000000E+00  0.00000000000E+00  0.12982885952E+03  0.12982885962E+03  0.50400001928E-02 0.  1.
       -1   -1    0    0    0  501  0.00000000000E+00  0.00000000000E+00 -0.46941223252E+03  0.46941223255E+03  0.50400001928E-02 0. -1.
    10030    2    1    2    0    0  0.00000000000E+00  0.00000000000E+00 -0.33958337300E+03  0.59924109217E+03  0.49373375347E+03 0.  0.
        4    1    3    3  502    0 -0.12726474352E+02  0.53106181696E+02  0.12240195104E+03  0.13403760742E+03  0.12699999809E+01 0.  1.
       -4    1    3    3    0  502  0.12726474352E+02 -0.53106181696E+02 -0.46198532405E+03  0.46520348475E+03  0.12699999809E+01 0. -1.
</event>
<event>
 5   0  0.3178149E-01  0.4934189E+03  0.7818609E-02  0.1015511E+00
       -2   -1    0    0    0  501  0.00000000000E+00  0.00000000000E+00  0.26019128225E+02  0.26019128350E+02  0.25500000920E-02 0.  1.
        2   -1    0    0  501    0  0.00000000000E+00  0.00000000000E+00 -0.23392620426E+04  0.23392620426E+04  0.25500000920E-02 0. -1.
    10030    2    1    2    0    0  0.00000000000E+00  0.00000000000E+00 -0.23132429144E+04  0.23652811710E+04  0.49341892622E+03 0.  0.
        3    1    3    3  502    0 -0.83619562003E+02 -0.54864621580E+02 -0.75514224553E+02  0.12531865847E+03  0.10100000352E+00 0.  1.
       -3    1    3    3    0  502  0.83619562003E+02  0.54864621580E+02 -0.22377286899E+04  0.22399625125E+04  0.10100000352E+00 0. -1.
</event>
<event>
 5   0  0.3329246E-01  0.4809604E+03  0.7818609E-02  0.1018872E+00
        2   -1    0    0  501    0  0.00000000000E+00  0.00000000000E+00  0.49038720339E+03  0.49038720339E+03  0.25500000920E-02 0. -1.
       -2   -1    0    0    0  501  0.00000000000E+00  0.00000000000E+00 -0.11792868467E+03  0.11792868470E+03  0.25500000920E-02 0.  1.
    10030    2    1    2    0    0  0.00000000000E+00  0.00000000000E+00  0.37245851872E+03  0.60831588809E+03  0.48096036379E+03 0.  0.
        2    1    3    3  502    0  0.22697479776E+02 -0.11157848815E+03  0.45413221145E+03  0.46818906447E+03  0.25500000920E-02 0. -1.
       -2    1    3    3    0  502 -0.22697479776E+02  0.11157848815E+03 -0.81673692735E+02  0.14012682362E+03  0.25500000920E-02 0.  1.
</event>
<event>
 5   0  0.1967161E-01  0.4900387E+03  0.7818609E-02  0.1016412E+00
        1   -1    0    0  501    0  0.00000000000E+00  0.00000000000E+00  0.81184926696E+03  0.81184926698E+03  0.50400001928E-02 0. -1.
       -1   -1    0    0    0  501  0.00000000000E+00  0.00000000000E+00 -0.73947810945E+02  0.73947811117E+02  0.50400001928E-02 0.  1.
    10030    2    1    2    0    0  0.00000000000E+00  0.00000000000E+00  0.73790145602E+03  0.88579707809E+03  0.49003867681E+03 0.  0.
        1    1    3    3  502    0  0.17471748318E+03 -0.13758352157E+03  0.18303023715E+03  0.28801995082E+03  0.50400001928E-02 0.  1.
       -1    1    3    3    0  502 -0.17471748318E+03  0.13758352157E+03  0.55487121887E+03  0.59777712727E+03  0.50400001928E-02 0. -1.
</event>
<event>
 5   0  0.3111146E-01  0.5043866E+03  0.7818609E-02  0.1012640E+00
       -2   -1    0    0    0  501  0.00000000000E+00  0.00000000000E+00  0.38440828665E+03  0.38440828666E+03  0.25500000920E-02 0. -1.
        2   -1    0    0  501    0  0.00000000000E+00  0.00000000000E+00 -0.16545291505E+03  0.16545291507E+03  0.25500000920E-02 0.  1.
    10030    2    1    2    0    0  0.00000000000E+00  0.00000000000E+00  0.21895537160E+03  0.54986120173E+03  0.50438664377E+03 0.  0.
        1    1    3    3  502    0 -0.15465680429E+03  0.18839142534E+03  0.18005576706E+03  0.30303487511E+03  0.50400001928E-02 0. -1.
       -1    1    3    3    0  502  0.15465680429E+03 -0.18839142534E+03  0.38899604538E+02  0.24682632662E+03  0.50400001928E-02 0.  1.
</event>
<event>
 5   0  0.2000612E-01  0.4968708E+03  0.7818609E-02  0.1014599E+00
        1   -1    0    0  501    0  0.00000000000E+00  0.00000000000E+00  0.10001567689E+04  0.10001567689E+04  0.50400001928E-02 0. -1.
       -1   -1    0    0    0  501  0.00000000000E+00  0.00000000000E+00 -0.61710482980E+02  0.61710483186E+02  0.50400001928E-02 0.  1.
    10030    2    1    2    0    0  0.00000000000E+00  0.00000000000E+00  0.93844628594E+03  0.10618672521E+04  0.49687083787E+03 0.  0.
        2    1    3    3  502    0 -0.12432927441E+03 -0.12345852888E+02  0.92812956316E+03  0.93650129448E+03  0.25500000920E-02 0. -1.
       -2    1    3    3    0  502  0.12432927441E+03  0.12345852888E+02  0.10316722783E+02  0.12536595763E+03  0.25500000920E-02 0.  1.
</event>
<event>
 5   0  0.3187123E-01  0.5272021E+03  0.7818609E-02  0.1006913E+00
       -2   -1    0    0    0  501  0.00000000000E+00  0.00000000000E+00  0.12588888549E+03  0.12588888552E+03  0.25500000920E-02 0. -1.
        2   -1    0    0  501    0  0.00000000000E+00  0.00000000000E+00 -0.55195899185E+03  0.55195899186E+03  0.25500000920E-02 0.  1.
    10030    2    1    2    0    0  0.00000000000E+00  0.00000000000E+00 -0.42607010636E+03  0.67784787738E+03  0.52720205740E+03 0.  0.
        5    1    3    3  502    0  0.97037627338E+02  0.24500442861E+03 -0.20729348522E+03  0.33531500141E+03  0.46999998093E+01 0. -1.
       -5    1    3    3    0  502 -0.97037627338E+02 -0.24500442861E+03 -0.21877662115E+03  0.34253287597E+03  0.46999998093E+01 0.  1.
</event>
<event>
 5   0  0.1292375E-01  0.4927080E+03  0.7818609E-02  0.1015700E+00
       -4   -1    0    0    0  501  0.00000000000E+00  0.00000000000E+00  0.30343115638E+03  0.30343381414E+03  0.12699999809E+01 0.  1.
        4   -1    0    0  501    0  0.00000000000E+00  0.00000000000E+00 -0.20000781730E+03  0.20001184935E+03  0.12699999809E+01 0. -1.
    10030    2    1    2    0    0  0.00000000000E+00  0.00000000000E+00  0.10342333908E+03  0.50344566349E+03  0.49270797539E+03 0.  0.
        3    1    3    3  502    0  0.24253554252E+03 -0.36373603454E+02  0.75538271139E+02  0.25661755400E+03  0.10100000352E+00 0. -1.
       -3    1    3    3    0  502 -0.24253554252E+03  0.36373603454E+02  0.27885067939E+02  0.24682810948E+03  0.10100000352E+00 0.  1.
</event>
<event>
 5   0  0.1967161E-01  0.4988058E+03  0.7818609E-02  0.1014091E+00
        1   -1    0    0  501    0  0.00000000000E+00  0.00000000000E+00  0.46182355289E+02  0.46182355564E+02  0.50400001928E-02 0.  1.
       -1   -1    0    0    0  501  0.00000000000E+00  0.00000000000E+00 -0.13468736634E+04  0.13468736634E+04  0.50400001928E-02 0. -1.
    10030    2    1    2    0    0  0.00000000000E+00  0.00000000000E+00 -0.13006913081E+04  0.13930560190E+04  0.49880576682E+03 0.  0.
        1    1    3    3  502    0  0.20517414554E+03  0.12657743528E+03 -0.82881125455E+03  0.86316068771E+03  0.50400001928E-02 0. -1.
       -1    1    3    3    0  502 -0.20517414554E+03 -0.12657743528E+03 -0.47188005359E+03  0.52989533129E+03  0.50400001928E-02 0.  1.
</event>
<event>
 5   0  0.1984680E-01  0.4966260E+03  0.7818609E-02  0.1014663E+00
        1   -1    0    0  501    0  0.00000000000E+00  0.00000000000E+00  0.35815464273E+03  0.35815464277E+03  0.50400001928E-02 0. -1.
       -1   -1    0    0    0  501  0.00000000000E+00  0.00000000000E+00 -0.17215841343E+03  0.17215841350E+03  0.50400001928E-02 0.  1.
    10030    2    1    2    0    0  0.00000000000E+00  0.00000000000E+00  0.18599622931E+03  0.53031305627E+03  0.49662595616E+03 0.  0.
        5    1    3    3  502    0  0.12514487336E+03 -0.20763311586E+03  0.35846706395E+02  0.24511186525E+03  0.46999998093E+01 0. -1.
       -5    1    3    3    0  502 -0.12514487336E+03  0.20763311586E+03  0.15014952291E+03  0.28520119102E+03  0.46999998093E+01 0.  1.
</event>
<event>
 5   0  0.3111146E-01  0.5039064E+03  0.7818609E-02  0.1012764E+00
       -2   -1    0    0    0  501  0.00000000000E+00  0.00000000000E+00  0.86056839360E+02  0.86056839398E+02  0.25500000920E-02 0. -1.
        2   -1    0    0  501    0  0.00000000000E+00  0.00000000000E+00 -0.73765675160E+03  0.73765675160E+03  0.25500000920E-02 0.  1.
    10030    2    1    2    0    0  0.00000000000E+00  0.00000000000E+00 -0.65159991224E+03  0.82371359100E+03  0.50390637461E+03 0.  0.
        1    1    3    3  502    0 -0.50970499908E+02  0.64147462532E+02 -0.71527204447E+03  0.71994929435E+03  0.50400001928E-02 0.  1.
       -1    1    3    3    0  502  0.50970499908E+02 -0.64147462532E+02  0.63672132234E+02  0.10376429665E+03  0.50400001928E-02 0. -1.
</event>
<event>
 5   0  0.1984297E-01  0.5082187E+03  0.7818609E-02  0.1011656E+00
       -1   -1    0    0    0  501  0.00000000000E+00  0.00000000000E+00  0.26007220014E+03  0.26007220019E+03  0.50400001928E-02 0.  1.
        1   -1    0    0  501    0  0.00000000000E+00  0.00000000000E+00 -0.24828318868E+03  0.24828318873E+03  0.50400001928E-02 0. -1.
    10030    2    1    2    0    0  0.00000000000E+00  0.00000000000E+00  0.11789011460E+02  0.50835538891E+03  0.50821867404E+03 0.  0.
        3    1    3    3  502    0  0.19250066392E+03  0.13363727072E+03  0.10418649458E+03  0.25645713401E+03  0.10100000352E+00 0.  1.
       -3    1    3    3    0  502 -0.19250066392E+03 -0.13363727072E+03 -0.92397483118E+02  0.25189825490E+03  0.10100000352E+00 0. -1.
</event>
<event>
 5   0  0.3329246E-01  0.4870465E+03  0.7818609E-02  0.1017216E+00
       -2   -1    0    0    0  501  0.00000000000E+00  0.00000000000E+00  0.15186070968E+03  0.15186070970E+03  0.25500000920E-02 0.  1.
        2   -1    0    0  501    0  0.00000000000E+00  0.00000000000E+00 -0.39051287931E+03  0.39051287932E+03  0.25500000920E-02 0. -1.
    10030    2    1    2    0    0  0.00000000000E+00  0.00000000000E+00 -0.23865216963E+03  0.54237358902E+03  0.48704645774E+03 0.  0.
        2    1    3    3  502    0  0.70535733379E+02 -0.93721499269E+02 -0.35698076450E+03  0.37575826716E+03  0.25500000920E-02 0. -1.
       -2    1    3    3    0  502 -0.70535733379E+02  0.93721499269E+02  0.11832859487E+03  0.16661532186E+03  0.25500000920E-02 0.  1.
</event>
<event>
 5   0  0.2013450E-01  0.4188436E+03  0.7818609E-02  0.1037443E+00
       -1   -1    0    0    0  501  0.00000000000E+00  0.00000000000E+00  0.21160163614E+03  0.21160163620E+03  0.50400001928E-02 0.  1.
        1   -1    0    0  501    0  0.00000000000E+00  0.00000000000E+00 -0.20726443295E+03  0.20726443302E+03  0.50400001928E-02 0. -1.
    10030    2    1    2    0    0  0.00000000000E+00  0.00000000000E+00  0.43372031828E+01  0.41886606921E+03  0.41884361354E+03 0.  0.
        4    1    3    3  502    0  0.11299018873E+03  0.13190447609E+02 -0.17366775591E+03  0.20761231418E+03  0.12699999809E+01 0. -1.
       -4    1    3    3    0  502 -0.11299018873E+03 -0.13190447609E+02  0.17800495909E+03  0.21125375504E+03  0.12699999809E+01 0.  1.
</event>
<event>
 5   0  0.1984680E-01  0.5007531E+03  0.7818609E-02  0.1013583E+00
       -1   -1    0    0    0  501  0.00000000000E+00  0.00000000000E+00  0.20055378589E+03  0.20055378596E+03  0.50400001928E-02 0.  1.
        1   -1    0    0  501    0  0.00000000000E+00  0.00000000000E+00 -0.31257653462E+03  0.31257653466E+03  0.50400001928E-02 0. -1.
    10030    2    1    2    0    0  0.00000000000E+00  0.00000000000E+00 -0.11202274873E+03  0.51313032061E+03  0.50075306260E+03 0.  0.
        5    1    3    3  502    0  0.19009098974E+03  0.12998387869E+02 -0.22239080154E+03  0.29288786434E+03  0.46999998093E+01 0. -1.
       -5    1    3    3    0  502 -0.19009098974E+03 -0.12998387869E+02  0.11036805282E+03  0.22024245628E+03  0.46999998093E+01 0.  1.
</event>
<event>
 5   0  0.3187123E-01  0.4820098E+03  0.7818609E-02  0.1018584E+00
        2   -1    0    0  501    0  0.00000000000E+00  0.00000000000E+00  0.26244021136E+03  0.26244021137E+03  0.25500000920E-02 0.  1.
       -2   -1    0    0    0  501  0.00000000000E+00  0.00000000000E+00 -0.22132040390E+03  0.22132040392E+03  0.25500000920E-02 0. -1.
    10030    2    1    2    0    0  0.00000000000E+00  0.00000000000E+00  0.41119807458E+02  0.48376061529E+03  0.48200984880E+03 0.  0.
        5    1    3    3  502    0  0.59437214779E+02  0.11628994425E+03  0.22379270251E+03  0.25915516072E+03  0.46999998093E+01 0.  1.
       -5    1    3    3    0  502 -0.59437214779E+02 -0.11628994425E+03 -0.18267289505E+03  0.22460545456E+03  0.46999998093E+01 0. -1.
</event>
<event>
 5   0  0.1984680E-01  0.4793067E+03  0.7818609E-02  0.1019326E+00
       -1   -1    0    0    0  501  0.00000000000E+00  0.00000000000E+00  0.38848342713E+02  0.38848343040E+02  0.50400001928E-02 0. -1.
        1   -1    0    0  501    0  0.00000000000E+00  0.00000000000E+00 -0.14784084555E+04  0.14784084555E+04  0.50400001928E-02 0.  1.
    10030    2    1    2    0    0  0.00000000000E+00  0.00000000000E+00 -0.14395601128E+04  0.15172567986E+04  0.47930666010E+03 0.  0.
        5    1    3    3  502    0  0.28167316084E+02 -0.17177354725E+03 -0.12410072217E+04  0.12531642205E+04  0.46999998093E+01 0.  1.
       -5    1    3    3    0  502 -0.28167316084E+02  0.17177354725E+03 -0.19855289114E+03  0.26409257811E+03  0.46999998093E+01 0. -1.
</event>
<event>
 5   0  0.1292375E-01  0.4954756E+03  0.7818609E-02  0.1014967E+00
        4   -1    0    0  501    0  0.00000000000E+00  0.00000000000E+00  0.10323644050E+03  0.10324425189E+03  0.12699999809E+01 0.  1.
       -4   -1    0    0    0  501  0.00000000000E+00  0.00000000000E+00 -0.59446850275E+03  0.59446985934E+03  0.12699999809E+01 0. -1.
    10030    2    1    2    0    0  0.00000000000E+00  0.00000000000E+00 -0.49123206225E+03  0.69771411123E+03  0.49547557158E+03 0.  0.
        1    1    3    3  502    0  0.14677817283E+03 -0.19608904402E+03 -0.29791331826E+03  0.38567744350E+03  0.50400001928E-02 0.  1.
       -1    1    3    3    0  502 -0.14677817283E+03  0.19608904402E+03 -0.19331874399E+03  0.31203666773E+03  0.50400001928E-02 0. -1.
</event>
<event>
 5   0  0.3111146E-01  0.4960025E+03  0.7818609E-02  0.1014828E+00
       -2   -1    0    0    0  501  0.00000000000E+00  0.00000000000E+00  0.15005965374E+03  0.15005965376E+03  0.25500000920E-02 0. -1.
        2   -1    0    0  501    0  0.00000000000E+00  0.00000000000E+00 -0.40986786475E+03  0.40986786476E+03  0.25500000920E-02 0.  1.
    10030    2    1    2    0    0  0.00000000000E+00  0.00000000000E+00 -0.25980821101E+03  0.55992751852E+03  0.49600253980E+03 0.  0.
        1    1    3    3  502    0 -0.43271563383E+02  0.24400897240E+03 -0.14072152670E+03  0.28498307829E+03  0.50400001928E-02 0.  1.
       -1    1    3    3    0  502  0.43271563383E+02 -0.24400897240E+03 -0.11908668431E+03  0.27494444023E+03  0.50400001928E-02 0. -1.
</event>
<event>
 5   0  0.2013450E-01  0.4842105E+03  0.7818609E-02  0.1017984E+00
       -1   -1    0    0    0  501  0.00000000000E+00  0.00000000000E+00  0.39748809197E+03  0.39748809201E+03  0.50400001928E-02 0.  1.
        1   -1    0    0  501    0  0.00000000000E+00  0.00000000000E+00 -0.14746342276E+03  0.14746342285E+03  0.50400001928E-02 0. -1.
    10030    2    1    2    0    0  0.00000000000E+00  0.00000000000E+00  0.25002466921E+03  0.54495151486E+03  0.48421051035E+03 0.  0.
        4    1    3    3  502    0 -0.16707670347E+03 -0.15153763496E+03  0.22399418139E+03  0.31788879478E+03  0.12699999809E+01 0.  1.
       -4    1    3    3    0  502  0.16707670347E+03  0.15153763496E+03  0.26030487824E+02  0.22706272008E+03  0.12699999809E+01 0. -1.
</event>
<event>
 5   0  0.3111146E-01  0.5015762E+03  0.7818609E-02  0.1013368E+00
        2   -1    0    0  501    0  0.00000000000E+00  0.00000000000E+00  0.25903823625E+03  0.25903823627E+03  0.25500000920E-02 0. -1.
       -2   -1    0    0    0  501  0.00000000000E+00  0.00000000000E+00 -0.24280075832E+03  0.24280075834E+03  0.25500000920E-02 0.  1.
    10030    2    1    2    0    0  0.00000000000E+00  0.00000000000E+00  0.16237477928E+02  0.50183899460E+03  0.50157623629E+03 0.  0.
        1    1    3    3  502    0 -0.14099236633E+03  0.19607773150E+03 -0.59513684726E+02  0.24873118591E+03  0.50400001928E-02 0.  1.
       -1    1    3    3    0  502  0.14099236633E+03 -0.19607773150E+03  0.75751162654E+02  0.25310780869E+03  0.50400001928E-02 0. -1.
</event>
<event>
 5   0  0.3111146E-01  0.5030088E+03  0.7818609E-02  0.1012997E+00
       -2   -1    0    0    0  501  0.00000000000E+00  0.00000000000E+00  0.61195057702E+02  0.61195057755E+02  0.25500000920E-02 0.  1.
        2   -1    0    0  501    0  0.00000000000E+00  0.00000000000E+00 -0.10336531382E+04  0.10336531382E+04  0.25500000920E-02 0. -1.
    10030    2    1    2    0    0  0.00000000000E+00  0.00000000000E+00 -0.97245808050E+03  0.10948481960E+04  0.50300880098E+03 0.  0.
        1    1    3    3  502    0  0.23241721204E+03  0.88072059154E+02 -0.40249318933E+03  0.47304885111E+03  0.50400001928E-02 0.  1.
       -1    1    3    3    0  502 -0.23241721204E+03 -0.88072059154E+02 -0.56996489117E+03  0.62179934485E+03  0.50400001928E-02 0. -1.
</event>
<event>
 5   0  0.2013450E-01  0.4741764E+03  0.7818609E-02  0.1020748E+00
       -1   -1    0    0    0  501  0.00000000000E+00  0.00000000000E+00  0.72892184799E+03  0.72892184801E+03  0.50400001928E-02 0.  1.
        1   -1    0    0  501    0  0.00000000000E+00  0.00000000000E+00 -0.77115002915E+02  0.77115003080E+02  0.50400001928E-02 0. -1.
    10030    2    1    2    0    0  0.00000000000E+00  0.00000000000E+00  0.65180684508E+03  0.80603685109E+03  0.47417638282E+03 0.  0.
        4    1    3    3  502    0 -0.17489716198E+03  0.15485051311E+03  0.39477424662E+03  0.45871125708E+03  0.12699999809E+01 0.  1.
       -4    1    3    3    0  502  0.17489716198E+03 -0.15485051311E+03  0.25703259846E+03  0.34732559401E+03  0.12699999809E+01 0. -1.
</event>
<event>
 5   0  0.1984297E-01  0.5034987E+03  0.7818609E-02  0.1012870E+00
        1   -1    0    0  501    0  0.00000000000E+00  0.00000000000E+00  0.12390841584E+04  0.12390841584E+04  0.50400001928E-02 0. -1.
       -1   -1    0    0    0  501  0.00000000000E+00  0.00000000000E+00 -0.51148856974E+02  0.51148857222E+02  0.50400001928E-02 0.  1.
    10030    2    1    2    0    0  0.00000000000E+00  0.00000000000E+00  0.11879353014E+04  0.12902330156E+04  0.50349871326E+03 0.  0.
        3    1    3    3  502    0 -0.20924737208E+03  0.61424042469E+02  0.91628068287E+03  0.94187455413E+03  0.10100000352E+00 0. -1.
       -3    1    3    3    0  502  0.20924737208E+03 -0.61424042469E+02  0.27165461855E+03  0.34835846150E+03  0.10100000352E+00 0.  1.
</event>
<event>
 5   0  0.1292375E-01  0.4847501E+03  0.7818609E-02  0.1017838E+00
       -3   -1    0    0    0  501  0.00000000000E+00  0.00000000000E+00  0.10454883932E+03  0.10454888810E+03  0.10100000352E+00 0. -1.
        3   -1    0    0  501    0  0.00000000000E+00  0.00000000000E+00 -0.56189657204E+03  0.56189658112E+03  0.10100000352E+00 0.  1.
    10030    2    1    2    0    0  0.00000000000E+00  0.00000000000E+00 -0.45734773273E+03  0.66644546922E+03  0.48475005396E+03 0.  0.
        4    1    3    3  502    0 -0.20383641237E+03 -0.11264142920E+03 -0.32096807508E+03  0.39655957018E+03  0.12699999809E+01 0.  1.
       -4    1    3    3    0  502  0.20383641237E+03  0.11264142920E+03 -0.13637965764E+03  0.26988589904E+03  0.12699999809E+01 0. -1.
</event>
<event>
 5   0  0.3117389E-01  0.5005273E+03  0.7818609E-02  0.1013641E+00
        2   -1    0    0  501    0  0.00000000000E+00  0.00000000000E+00  0.58738510768E+03  0.58738510769E+03  0.25500000920E-02 0. -1.
       -2   -1    0    0    0  501  0.00000000000E+00  0.00000000000E+00 -0.10662831739E+03  0.10662831742E+03  0.25500000920E-02 0.  1.
    10030    2    1    2    0    0  0.00000000000E+00  0.00000000000E+00  0.48075679029E+03  0.69401342511E+03  0.50052726481E+03 0.  0.
        4    1    3    3  502    0  0.17759020672E+03 -0.99327591269E+02  0.44238911948E+03  0.48694352634E+03  0.12699999809E+01 0. -1.
       -4    1    3    3    0  502 -0.17759020672E+03  0.99327591269E+02  0.38367670812E+02  0.20706989877E+03  0.12699999809E+01 0.  1.
</event>
<event>
 5   0  0.2013450E-01  0.5076783E+03  0.7818609E-02  0.1011794E+00
       -1   -1    0    0    0  501  0.00000000000E+00  0.00000000000E+00  0.19721923683E+03  0.19721923690E+03  0.50400001928E-02 0.  1.
        1   -1    0    0  501    0  0.00000000000E+00  0.00000000000E+00 -0.32671417840E+03  0.32671417843E+03  0.50400001928E-02 0. -1.
    10030    2    1    2    0    0  0.00000000000E+00  0.00000000000E+00 -0.12949494156E+03  0.52393341533E+03  0.50767832710E+03 0.  0.
        4    1    3    3  502    0 -0.22857292940E+03  0.11019894946E+03 -0.57955288735E+02  0.26028795767E+03  0.12699999809E+01 0. -1.
       -4    1    3    3    0  502  0.22857292940E+03 -0.11019894946E+03 -0.71539652827E+02  0.26364545766E+03  0.12699999809E+01 0.  1.
</event>
<event>
 5   0  0.1967161E-01  0.5000373E+03  0.7818609E-02  0.1013769E+00
       -1   -1    0    0    0  501  0.00000000000E+00  0.00000000000E+00  0.56515218911E+03  0.56515218913E+03  0.50400001928E-02 0.  1.
        1   -1    0    0  501    0  0.00000000000E+00  0.00000000000E+00 -0.11060619794E+03  0.11060619806E+03  0.50400001928E-02 0. -1.
    10030    2    1    2    0    0  0.00000000000E+00  0.00000000000E+00  0.45454599116E+03  0.67575838719E+03  0.50003733838E+03 0.  0.
        1    1    3    3  502    0 -0.17817769742E+03  0.15625891940E+03  0.33492235100E+03  0.41028907246E+03  0.50400001928E-02 0.  1.
       -1    1    3    3    0  502  0.17817769742E+03 -0.15625891940E+03  0.11962364016E+03  0.26546931473E+03  0.50400001928E-02 0. -1.
</event>
<event>
 5   0  0.1984680E-01  0.4825197E+03  0.7818609E-02  0.1018445E+00
       -1   -1    0    0    0  501  0.00000000000E+00  0.00000000000E+00  0.60710533442E+02  0.60710533651E+02  0.50400001928E-02 0. -1.
        1   -1    0    0  501    0  0.00000000000E+00  0.00000000000E+00 -0.95875169391E+03  0.95875169393E+03  0.50400001928E-02 0.  1.
    10030    2    1    2    0    0  0.00000000000E+00  0.00000000000E+00 -0.89804116047E+03  0.10194622276E+04  0.48251974836E+03 0.  0.
        5    1    3    3  502    0  0.18653993550E+03 -0.10288667491E+03 -0.20997256348E+03  0.29915444644E+03  0.46999998093E+01 0. -1.
       -5    1    3    3    0  502 -0.18653993550E+03  0.10288667491E+03 -0.68806859699E+03  0.72030778114E+03  0.46999998093E+01 0.  1.
</event>
<event>
 5   0  0.3117389E-01  0.3668482E+03  0.7818609E-02  0.1055905E+00
        2   -1    0    0  501    0  0.00000000000E+00  0.00000000000E+00  0.10455433182E+04  0.10455433182E+04  0.25500000920E-02 0. -1.
       -2   -1    0    0    0  501  0.00000000000E+00  0.00000000000E+00 -0.32178869490E+02  0.32178869591E+02  0.25500000920E-02 0.  1.
    10030    2    1    2    0    0  0.00000000000E+00  0.00000000000E+00  0.10133644487E+04  0.10777221878E+04  0.36684820860E+03 0.  0.
        4    1    3    3  502    0 -0.42244181617E+01 -0.18045331258E+03  0.60239936352E+03  0.62886234567E+03  0.12699999809E+01 0.  1.
       -4    1    3    3    0  502  0.42244181617E+01  0.18045331258E+03  0.41096508519E+03  0.44885984213E+03  0.12699999809E+01 0. -1.
</event>
<event>
 5   0  0.3329246E-01  0.5444594E+03  0.7818609E-02  0.1002785E+00
       -2   -1    0    0    0  501  0.00000000000E+00  0.00000000000E+00  0.36352102676E+02  0.36352102765E+02  0.25500000920E-02 0.  1.
        2   -1    0    0  501    0  0.00000000000E+00  0.00000000000E+00 -0.20386441875E+04  0.20386441875E+04  0.25500000920E-02 0. -1.
    10030    2    1    2    0    0  0.00000000000E+00  0.00000000000E+00 -0.20022920848E+04  0.20749962902E+04  0.54445937559E+03 0.  0.
        2    1    3    3  502    0 -0.65102328175E+02 -0.10073897425E+03 -0.69780248130E+02  0.13876576343E+03  0.25500000920E-02 0.  1.
       -2    1    3    3    0  502  0.65102328175E+02  0.10073897425E+03 -0.19325118367E+04  0.19362305268E+04  0.25500000920E-02 0. -1.
</event>
<event>
 5   0  0.1984680E-01  0.4973660E+03  0.7818609E-02  0.1014469E+00
        1   -1    0    0  501    0  0.00000000000E+00  0.00000000000E+00  0.11986043731E+03  0.11986043742E+03  0.50400001928E-02 0. -1.
       -1   -1    0    0    0  501  0.00000000000E+00  0.00000000000E+00 -0.51596029562E+03  0.51596029565E+03  0.50400001928E-02 0.  1.
    10030    2    1    2    0    0  0.00000000000E+00  0.00000000000E+00 -0.39609985831E+03  0.63582073306E+03  0.49736596872E+03 0.  0.
        5    1    3    3  502    0 -0.11576954653E+03  0.20563540252E+03 -0.97938882471E+02  0.25554377585E+03  0.46999998093E+01 0. -1.
       -5    1    3    3    0  502  0.11576954653E+03 -0.20563540252E+03 -0.29816097584E+03  0.38027695722E+03  0.46999998093E+01 0.  1.
</event>
<event>
 5   0  0.1967161E-01  0.4934349E+03  0.7818609E-02  0.1015507E+00
        1   -1    0    0  501    0  0.00000000000E+00  0.00000000000E+00  0.82846068704E+03  0.82846068705E+03  0.50400001928E-02 0.  1.
       -1   -1    0    0    0  501  0.00000000000E+00  0.00000000000E+00 -0.73473016728E+02  0.73473016901E+02  0.50400001928E-02 0. -1.
    10030    2    1    2    0    0  0.00000000000E+00  0.00000000000E+00  0.75498767031E+03  0.90193370395E+03  0.49343492378E+03 0.  0.
        1    1    3    3  502    0  0.19664534101E+03  0.56923860603E+00  0.64983869483E+03  0.67894038288E+03  0.50400001928E-02 0. -1.
       -1    1    3    3    0  502 -0.19664534101E+03 -0.56923860603E+00  0.10514897548E+03  0.22299332108E+03  0.50400001928E-02 0.  1.
</event>
<event>
 5   0  0.3178149E-01  0.4982671E+03  0.7818609E-02  0.1014232E+00
        2   -1    0    0  501    0  0.00000000000E+00  0.00000000000E+00  0.46758343167E+03  0.46758343167E+03  0.25500000920E-02 0.  1.
       -2   -1    0    0    0  501  0.00000000000E+00  0.00000000000E+00 -0.13274108242E+03  0.13274108244E+03  0.25500000920E-02 0. -1.
    10030    2    1    2    0    0  0.00000000000E+00  0.00000000000E+00  0.33484234925E+03  0.60032451412E+03  0.49826712053E+03 0.  0.
        3    1    3    3  502    0 -0.68948076936E+02 -0.11932828053E+03 -0.82632759760E+02  0.16068994690E+03  0.10100000352E+00 0. -1.
       -3    1    3    3    0  502  0.68948076936E+02  0.11932828053E+03  0.41747510901E+03  0.43963456722E+03  0.10100000352E+00 0.  1.
</event>
<event>
 5   0  0.3117389E-01  0.4898381E+03  0.7818609E-02  0.1016466E+00
        2   -1    0    0  501    0  0.00000000000E+00  0.00000000000E+00  0.60280090384E+03  0.60280090385E+03  0.25500000920E-02 0.  1.
       -2   -1    0    0    0  501  0.00000000000E+00  0.00000000000E+00 -0.99511032316E+02  0.99511032348E+02  0.25500000920E-02 0. -1.
    10030    2    1    2    0    0  0.00000000000E+00  0.00000000000E+00  0.50328987153E+03  0.70231193620E+03  0.48983809666E+03 0.  0.
        4    1    3    3  502    0 -0.22151644857E+03 -0.65879805481E+02  0.13539473436E+03  0.26784889910E+03  0.12699999809E+01 0. -1.
       -4    1    3    3    0  502  0.22151644857E+03  0.65879805481E+02  0.36789513716E+03  0.43446303710E+03  0.12699999809E+01 0.  1.
</event>
<event>
 5   0  0.3117389E-01  0.5038009E+03  0.7818609E-02  0.1012792E+00
        2   -1    0    0  501    0  0.00000000000E+00  0.00000000000E+00  0.14670941150E+03  0.14670941152E+03  0.25500000920E-02 0. -1.
       -2   -1    0    0    0  501  0.00000000000E+00  0.00000000000E+00 -0.43251372644E+03  0.43251372645E+03  0.25500000920E-02 0.  1.
    10030    2    1    2    0    0  0.00000000000E+00  0.00000000000E+00 -0.28580431495E+03  0.57922313797E+03  0.50380089035E+03 0.  0.
        4    1    3    3  502    0  0.22891941689E+03  0.90112388225E+02 -0.80691675463E+02  0.25891523966E+03  0.12699999809E+01 0. -1.
       -4    1    3    3    0  502 -0.22891941689E+03 -0.90112388225E+02 -0.20511263948E+03  0.32030789830E+03  0.12699999809E+01 0.  1.
</event>
<event>
 5   0  0.1984297E-01  0.5028703E+03  0.7818609E-02  0.1013032E+00
        1   -1    0    0  501    0  0.00000000000E+00  0.00000000000E+00  0.11103476505E+04  0.11103476505E+04  0.50400001928E-02 0. -1.
       -1   -1    0    0    0  501  0.00000000000E+00  0.00000000000E+00 -0.56936786071E+02  0.56936786294E+02  0.50400001928E-02 0.  1.
    10030    2    1    2    0    0  0.00000000000E+00  0.00000000000E+00  0.10534108645E+04  0.11672844368E+04  0.50287026867E+03 0.  0.
        3    1    3    3  502    0 -0.20514139652E+03 -0.94940651741E+02  0.78228370877E+03  0.81428774468E+03  0.10100000352E+00 0. -1.
       -3    1    3    3    0  502  0.20514139652E+03  0.94940651741E+02  0.27112715568E+03  0.35299669215E+03  0.10100000352E+00 0.  1.
</event>
<event>
 5   0  0.1984297E-01  0.4944813E+03  0.7818609E-02  0.1015229E+00
        1   -1    0    0  501    0  0.00000000000E+00  0.00000000000E+00  0.19728085184E+04  0.19728085184E+04  0.50400001928E-02 0. -1.
       -1   -1    0    0    0  501  0.00000000000E+00  0.00000000000E+00 -0.30985242486E+02  0.30985242896E+02  0.50400001928E-02 0.  1.
    10030    2    1    2    0    0  0.00000000000E+00  0.00000000000E+00  0.19418232759E+04  0.20037937613E+04  0.49448134743E+03 0.  0.
        3    1    3    3  502    0  0.65804857109E+01 -0.19506807508E+03  0.15859173511E+04  0.15978825713E+04  0.10100000352E+00 0. -1.
       -3    1    3    3    0  502 -0.65804857109E+01  0.19506807508E+03  0.35590592480E+03  0.40591119006E+03  0.10100000352E+00 0.  1.
</event>
<event>
 5   0  0.1967161E-01  0.5214019E+03  0.7818609E-02  0.1008339E+00
        1   -1    0    0  501    0  0.00000000000E+00  0.00000000000E+00  0.73770796862E+03  0.73770796864E+03  0.50400001928E-02 0. -1.
       -1   -1    0    0    0  501  0.00000000000E+00  0.00000000000E+00 -0.92129938445E+02  0.92129938583E+02  0.50400001928E-02 0.  1.
    10030    2    1    2    0    0  0.00000000000E+00  0.00000000000E+00  0.64557803018E+03  0.82983790722E+03  0.52140191716E+03 0.  0.
        1    1    3    3  502    0  0.23963888378E+03  0.42816284517E+02  0.47128135788E+03  0.53043957917E+03  0.50400001928E-02 0. -1.
       -1    1    3    3    0  502 -0.23963888378E+03 -0.42816284517E+02  0.17429667230E+03  0.29939832805E+03  0.50400001928E-02 0.  1.
</event>
<event>
 5   0  0.1292375E-01  0.4895513E+03  0.7818609E-02  0.1016543E+00
        4   -1    0    0  501    0  0.00000000000E+00  0.00000000000E+00  0.47360929015E+03  0.47361099292E+03  0.12699999809E+01 0. -1.
       -4   -1    0    0    0  501  0.00000000000E+00  0.00000000000E+00 -0.12650235320E+03  0.12650872802E+03  0.12699999809E+01 0.  1.
    10030    2    1    2    0    0  0.00000000000E+00  0.00000000000E+00  0.34710693694E+03  0.60011972094E+03  0.48955127800E+03 0.  0.
        1    1    3    3  502    0  0.11011580918E+03 -0.18791904149E+03  0.31047708604E+03  0.37925595390E+03  0.50400001928E-02 0. -1.
       -1    1    3    3    0  502 -0.11011580918E+03  0.18791904149E+03  0.36629850898E+02  0.22086376704E+03  0.50400001928E-02 0.  1.
</event>
<event>
 5   0  0.3178149E-01  0.4968227E+03  0.7818609E-02  0.1014612E+00
       -2   -1    0    0    0  501  0.00000000000E+00  0.00000000000E+00  0.42076830072E+03  0.42076830073E+03  0.25500000920E-02 0.  1.
        2   -1    0    0  501    0  0.00000000000E+00  0.00000000000E+00 -0.14665600588E+03  0.14665600591E+03  0.25500000920E-02 0. -1.
    10030    2    1    2    0    0  0.00000000000E+00  0.00000000000E+00  0.27411229483E+03  0.56742430663E+03  0.49682269833E+03 0.  0.
        3    1    3    3  502    0 -0.14337520747E+03  0.19839655860E+03  0.88728132346E+02  0.26036577396E+03  0.10100000352E+00 0. -1.
       -3    1    3    3    0  502  0.14337520747E+03 -0.19839655860E+03  0.18538416249E+03  0.30705853267E+03  0.10100000352E+00 0.  1.
</event>
<event>
 5   0  0.3178149E-01  0.4951949E+03  0.7818609E-02  0.1015041E+00
       -2   -1    0    0    0  501  0.00000000000E+00  0.00000000000E+00  0.12011938360E+03  0.12011938363E+03  0.25500000920E-02 0.  1.
        2   -1    0    0  501    0  0.00000000000E+00  0.00000000000E+00 -0.51036304199E+03  0.51036304200E+03  0.25500000920E-02 0. -1.
    10030    2    1    2    0    0  0.00000000000E+00  0.00000000000E+00 -0.39024365838E+03  0.63048242563E+03  0.49519488700E+03 0.  0.
        3    1    3    3  502    0 -0.86179377817E+02  0.22181473749E+03 -0.10806040498E+03  0.26135363831E+03  0.10100000352E+00 0. -1.
       -3    1    3    3    0  502  0.86179377817E+02 -0.22181473749E+03 -0.28218325340E+03  0.36912878732E+03  0.10100000352E+00 0.  1.
</event>
<event>
 5   0  0.1292375E-01  0.2845630E+03  0.7818609E-02  0.1093222E+00
        3   -1    0    0  501    0  0.00000000000E+00  0.00000000000E+00  0.75743847702E+02  0.75743915040E+02  0.10100000352E+00 0. -1.
       -3   -1    0    0    0  501  0.00000000000E+00  0.00000000000E+00 -0.26726941240E+03  0.26726943148E+03  0.10100000352E+00 0.  1.
    10030    2    1    2    0    0  0.00000000000E+00  0.00000000000E+00 -0.19152556470E+03  0.34301334652E+03  0.28456302283E+03 0.  0.
        1    1    3    3  502    0  0.11343748398E+03  0.67562192427E+02 -0.15967551306E+03  0.20719310344E+03  0.50400001928E-02 0.  1.
       -1    1    3    3    0  502 -0.11343748398E+03 -0.67562192427E+02 -0.31850051637E+02  0.13582024308E+03  0.50400001928E-02 0. -1.
</event>
<event>
 5   0  0.1984297E-01  0.5114867E+03  0.7818609E-02  0.1010823E+00
        1   -1    0    0  501    0  0.00000000000E+00  0.00000000000E+00  0.81792318179E+03  0.81792318180E+03  0.50400001928E-02 0.  1.
       -1   -1    0    0    0  501  0.00000000000E+00  0.00000000000E+00 -0.79964317614E+02  0.79964317773E+02  0.50400001928E-02 0. -1.
    10030    2    1    2    0    0  0.00000000000E+00  0.00000000000E+00  0.73795886417E+03  0.89788749957E+03  0.51148673168E+03 0.  0.
        3    1    3    3  502    0  0.96453657594E+02  0.14446497689E+03  0.39482479274E+02  0.17813566174E+03  0.10100000352E+00 0. -1.
       -3    1    3    3    0  502 -0.96453657594E+02 -0.14446497689E+03  0.69847638490E+03  0.71975183784E+03  0.10100000352E+00 0.  1.
</event>
<event>
 5   0  0.3117389E-01  0.4085578E+03  0.7818609E-02  0.1040856E+00
        2   -1    0    0  501    0  0.00000000000E+00  0.00000000000E+00  0.21914755243E+03  0.21914755245E+03  0.25500000920E-02 0. -1.
       -2   -1    0    0    0  501  0.00000000000E+00  0.00000000000E+00 -0.19041904397E+03  0.19041904399E+03  0.25500000920E-02 0.  1.
    10030    2    1    2    0    0  0.00000000000E+00  0.00000000000E+00  0.28728508461E+02  0.40956659644E+03  0.40855779238E+03 0.  0.
        4    1    3    3  502    0  0.70228085697E+02  0.17759105729E+03 -0.58324694866E+02  0.19968462780E+03  0.12699999809E+01 0.  1.
       -4    1    3    3    0  502 -0.70228085697E+02 -0.17759105729E+03  0.87053203327E+02  0.20988196864E+03  0.12699999809E+01 0. -1.
</event>
<event>
 5   0  0.3111146E-01  0.4998703E+03  0.7818609E-02  0.1013813E+00
        2   -1    0    0  501    0  0.00000000000E+00  0.00000000000E+00  0.72925334465E+03  0.72925334465E+03  0.25500000920E-02 0.  1.
       -2   -1    0    0    0  501  0.00000000000E+00  0.00000000000E+00 -0.85659651025E+02  0.85659651063E+02  0.25500000920E-02 0. -1.
    10030    2    1    2    0    0  0.00000000000E+00  0.00000000000E+00  0.64359369362E+03  0.81491299571E+03  0.49987033130E+03 0.  0.
        1    1    3    3  502    0 -0.66375199773E+02  0.15853173258E+02 -0.70177467449E+02  0.97887012469E+02  0.50400001928E-02 0. -1.
       -1    1    3    3    0  502  0.66375199773E+02 -0.15853173258E+02  0.71377116107E+03  0.71702598324E+03  0.50400001928E-02 0.  1.
</event>
<event>
 5   0  0.3117389E-01  0.4906487E+03  0.7818609E-02  0.1016249E+00
        2   -1    0    0  501    0  0.00000000000E+00  0.00000000000E+00  0.61063094576E+03  0.61063094577E+03  0.25500000920E-02 0.  1.
       -2   -1    0    0    0  501  0.00000000000E+00  0.00000000000E+00 -0.98560393795E+02  0.98560393828E+02  0.25500000920E-02 0. -1.
    10030    2    1    2    0    0  0.00000000000E+00  0.00000000000E+00  0.51207055197E+03  0.70919133960E+03  0.49064865838E+03 0.  0.
        4    1    3    3  502    0  0.74854461509E+02 -0.20743339230E+03  0.10069098911E+03  0.24242955851E+03  0.12699999809E+01 0. -1.
       -4    1    3    3    0  502 -0.74854461509E+02  0.20743339230E+03  0.41137956285E+03  0.46676178109E+03  0.12699999809E+01 0.  1.
</event>
<event>
 5   0  0.1292375E-01  0.4074037E+03  0.7818609E-02  0.1041246E+00
       -3   -1    0    0    0  501  0.00000000000E+00  0.00000000000E+00  0.63147990156E+03  0.63147990964E+03  0.10100000352E+00 0.  1.
        3   -1    0    0  501    0  0.00000000000E+00  0.00000000000E+00 -0.65709800242E+02  0.65709877863E+02  0.10100000352E+00 0. -1.
    10030    2    1    2    0    0  0.00000000000E+00  0.00000000000E+00  0.56577010132E+03  0.69718978750E+03  0.40740372145E+03 0.  0.
        1    1    3    3  502    0 -0.19510734422E+03  0.37874283220E+02  0.20648533158E+03  0.28659645720E+03  0.50400001928E-02 0. -1.
       -1    1    3    3    0  502  0.19510734422E+03 -0.37874283220E+02  0.35928476974E+03  0.41059333030E+03  0.50400001928E-02 0.  1.
</event>
<event>
 5   0  0.1984680E-01  0.4935723E+03  0.7818609E-02  0.1015470E+00
       -1   -1    0    0    0  501  0.00000000000E+00  0.00000000000E+00  0.90258198286E+02  0.90258198427E+02  0.50400001928E-02 0. -1.
        1   -1    0    0  501    0  0.00000000000E+00  0.00000000000E+00 -0.67476874698E+03  0.67476874699E+03  0.50400001928E-02 0.  1.
    10030    2    1    2    0    0  0.00000000000E+00  0.00000000000E+00 -0.58451054869E+03  0.76502694542E+03  0.49357233076E+03 0.  0.
        5    1    3    3  502    0  0.21723832905E+02  0.79301846309E+02  0.68329415238E+02  0.10701264752E+03  0.46999998093E+01 0. -1.
       -5    1    3    3    0  502 -0.21723832905E+02 -0.79301846309E+02 -0.65283996393E+03  0.65801429790E+03  0.46999998093E+01 0.  1.
</event>
<event>
 5   0  0.3111146E-01  0.4809397E+03  0.7818609E-02  0.1018877E+00
       -2   -1    0    0    0  501  0.00000000000E+00  0.00000000000E+00  0.24567345311E+03  0.24567345313E+03  0.25500000920E-02 0.  1.
        2   -1    0    0  501    0  0.00000000000E+00  0.00000000000E+00 -0.23537643602E+03  0.23537643603E+03  0.25500000920E-02 0. -1.
    10030    2    1    2    0    0  0.00000000000E+00  0.00000000000E+00  0.10297017097E+02  0.48104988916E+03  0.48093967116E+03 0.  0.
        1    1    3    3  502    0  0.15469797372E+03 -0.63048955690E+02 -0.16786253948E+03  0.23682159123E+03  0.50400001928E-02 0. -1.
       -1    1    3    3    0  502 -0.15469797372E+03  0.63048955690E+02  0.17815955657E+03  0.24422829793E+03  0.50400001928E-02 0.  1.
</event>
<event>
 5   0  0.3178149E-01  0.5061999E+03  0.7818609E-02  0.1012173E+00
        2   -1    0    0  501    0  0.00000000000E+00  0.00000000000E+00  0.58658562214E+03  0.58658562214E+03  0.25500000920E-02 0.  1.
       -2   -1    0    0    0  501  0.00000000000E+00  0.00000000000E+00 -0.10920755853E+03  0.10920755856E+03  0.25500000920E-02 0. -1.
    10030    2    1    2    0    0  0.00000000000E+00  0.00000000000E+00  0.47737806361E+03  0.69579318070E+03  0.50619989599E+03 0.  0.
        3    1    3    3  502    0 -0.14310492777E+03 -0.16441765973E+02 -0.47368454900E+02  0.15163486651E+03  0.10100000352E+00 0. -1.
       -3    1    3    3    0  502  0.14310492777E+03  0.16441765973E+02  0.52474651851E+03  0.54415831419E+03  0.10100000352E+00 0.  1.
</event>
<event>
 5   0  0.2013450E-01  0.4993453E+03  0.7818609E-02  0.1013950E+00
       -1   -1    0    0    0  501  0.00000000000E+00  0.00000000000E+00  0.91720382853E+03  0.91720382854E+03  0.50400001928E-02 0. -1.
        1   -1    0    0  501    0  0.00000000000E+00  0.00000000000E+00 -0.67963554587E+02  0.67963554774E+02  0.50400001928E-02 0.  1.
    10030    2    1    2    0    0  0.00000000000E+00  0.00000000000E+00  0.84924027394E+03  0.98516738331E+03  0.49934530164E+03 0.  0.
        4    1    3    3  502    0  0.20765722532E+03  0.12336872939E+03  0.54929627706E+03  0.60005781348E+03  0.12699999809E+01 0. -1.
       -4    1    3    3    0  502 -0.20765722532E+03 -0.12336872939E+03  0.29994399688E+03  0.38510956984E+03  0.12699999809E+01 0.  1.
</event>
<event>
 5   0  0.1292375E-01  0.4768524E+03  0.7818609E-02  0.1020004E+00
        3   -1    0    0  501    0  0.00000000000E+00  0.00000000000E+00  0.42294661773E+02  0.42294782367E+02  0.10100000352E+00 0. -1.
       -3   -1    0    0    0  501  0.00000000000E+00  0.00000000000E+00 -0.13440698104E+04  0.13440698142E+04  0.10100000352E+00 0.  1.
    10030    2    1    2    0    0  0.00000000000E+00  0.00000000000E+00 -0.13017751486E+04  0.13863645965E+04  0.47685244784E+03 0.  0.
        3    1    3    3  502    0  0.32206847163E+02 -0.56149436127E+02 -0.13180346035E+04  0.13196231532E+04  0.10100000352E+00 0.  1.
       -3    1    3    3    0  502 -0.32206847163E+02  0.56149436127E+02  0.16259454930E+02  0.66741443326E+02  0.10100000352E+00 0. -1.
</event>
<event>
 5   0  0.3187123E-01  0.5167835E+03  0.7818609E-02  0.1009489E+00
       -2   -1    0    0    0  501  0.00000000000E+00  0.00000000000E+00  0.76809852603E+02  0.76809852645E+02  0.25500000920E-02 0.  1.
        2   -1    0    0  501    0  0.00000000000E+00  0.00000000000E+00 -0.86924123213E+03  0.86924123213E+03  0.25500000920E-02 0. -1.
    10030    2    1    2    0    0  0.00000000000E+00  0.00000000000E+00 -0.79243137952E+03  0.94605108477E+03  0.51678347860E+03 0.  0.
        5    1    3    3  502    0  0.59768612164E+02  0.21439650623E+03 -0.15608559995E+03  0.27188775882E+03  0.46999998093E+01 0. -1.
       -5    1    3    3    0  502 -0.59768612164E+02 -0.21439650623E+03 -0.63634577958E+03  0.67416332596E+03  0.46999998093E+01 0.  1.
</event>
<event>
 5   0  0.3329246E-01  0.5185503E+03  0.7818609E-02  0.1009047E+00
        2   -1    0    0  501    0  0.00000000000E+00  0.00000000000E+00  0.57799700522E+03  0.57799700523E+03  0.25500000920E-02 0. -1.
       -2   -1    0    0    0  501  0.00000000000E+00  0.00000000000E+00 -0.11630441629E+03  0.11630441632E+03  0.25500000920E-02 0.  1.
    10030    2    1    2    0    0  0.00000000000E+00  0.00000000000E+00  0.46169258893E+03  0.69430142154E+03  0.51855030353E+03 0.  0.
        2    1    3    3  502    0 -0.92479377494E+02  0.23006797429E+03  0.33228628107E+03  0.41460569298E+03  0.25500000920E-02 0.  1.
       -2    1    3    3    0  502  0.92479377494E+02 -0.23006797429E+03  0.12940630786E+03  0.27969572856E+03  0.25500000920E-02 0. -1.
</event>
<event>
 5   0  0.3329246E-01  0.5095495E+03  0.7818609E-02  0.1011316E+00
       -2   -1    0    0    0  501  0.00000000000E+00  0.00000000000E+00  0.62161804911E+02  0.62161804964E+02  0.25500000920E-02 0. -1.
        2   -1    0    0  501    0  0.00000000000E+00  0.00000000000E+00 -0.10442129700E+04  0.10442129700E+04  0.25500000920E-02 0.  1.
    10030    2    1    2    0    0  0.00000000000E+00  0.00000000000E+00 -0.98205116505E+03  0.11063747749E+04  0.50954945964E+03 0.  0.
        2    1    3    3  502    0  0.18464268053E+03  0.12896545437E+03 -0.74962822819E+03  0.78273078923E+03  0.25500000920E-02 0. -1.
       -2    1    3    3    0  502 -0.18464268053E+03 -0.12896545437E+03 -0.23242293686E+03  0.32364398570E+03  0.25500000920E-02 0.  1.
</event>
<event>
 5   0  0.1984297E-01  0.4964024E+03  0.7818609E-02  0.1014722E+00
       -1   -1    0    0    0  501  0.00000000000E+00  0.00000000000E+00  0.60393178731E+03  0.60393178733E+03  0.50400001928E-02 0.  1.
        1   -1    0    0  501    0  0.00000000000E+00  0.00000000000E+00 -0.10200460576E+03  0.10200460588E+03  0.50400001928E-02 0. -1.
    10030    2    1    2    0    0  0.00000000000E+00  0.00000000000E+00  0.50192718155E+03  0.70593639322E+03  0.49640235262E+03 0.  0.
        3    1    3    3  502    0  0.82220790343E+02  0.23297859537E+03  0.21717461368E+03  0.32894392727E+03  0.10100000352E+00 0.  1.
       -3    1    3    3    0  502 -0.82220790343E+02 -0.23297859537E+03  0.28475256787E+03  0.37699246594E+03  0.10100000352E+00 0. -1.
</event>
<event>
 5   0  0.2000612E-01  0.5021781E+03  0.7818609E-02  0.1013212E+00
        1   -1    0    0  501    0  0.00000000000E+00  0.00000000000E+00  0.81065362309E+03  0.81065362310E+03  0.50400001928E-02 0.  1.
       -1   -1    0    0    0  501  0.00000000000E+00  0.00000000000E+00 -0.77771452751E+02  0.77771452914E+02  0.50400001928E-02 0. -1.
    10030    2    1    2    0    0  0.00000000000E+00  0.00000000000E+00  0.73288217034E+03  0.88842507602E+03  0.50217809600E+03 0.  0.
        2    1    3    3  502    0 -0.18578129142E+03  0.97168472430E-01  0.66526932253E+03  0.69072278752E+03  0.25500000920E-02 0.  1.
       -2    1    3    3    0  502  0.18578129142E+03 -0.97168472430E-01  0.67612847803E+02  0.19770228850E+03  0.25500000920E-02 0. -1.
</event>
<event>
 5   0  0.3111146E-01  0.4997511E+03  0.7818609E-02  0.1013844E+00
        2   -1    0    0  501    0  0.00000000000E+00  0.00000000000E+00  0.89102482749E+03  0.89102482750E+03  0.25500000920E-02 0.  1.
       -2   -1    0    0    0  501  0.00000000000E+00  0.00000000000E+00 -0.70074120050E+02  0.70074120096E+02  0.25500000920E-02 0. -1.
    10030    2    1    2    0    0  0.00000000000E+00  0.00000000000E+00  0.82095070744E+03  0.96109894759E+03  0.49975106104E+03 0.  0.
        1    1    3    3  502    0  0.85856578691E+02  0.22398756064E+03  0.54504129054E+03  0.59549289487E+03  0.50400001928E-02 0.  1.
       -1    1    3    3    0  502 -0.85856578691E+02 -0.22398756064E+03  0.27590941690E+03  0.36560605272E+03  0.50400001928E-02 0. -1.
</event>
<event>
 5   0  0.1292375E-01  0.4955995E+03  0.7818609E-02  0.1014934E+00
       -4   -1    0    0    0  501  0.00000000000E+00  0.00000000000E+00  0.96438620296E+02  0.96446982247E+02  0.12699999809E+01 0.  1.
        4   -1    0    0  501    0  0.00000000000E+00  0.00000000000E+00 -0.63668676989E+03  0.63668803652E+03  0.12699999809E+01 0. -1.
    10030    2    1    2    0    0  0.00000000000E+00  0.00000000000E+00 -0.54024814959E+03  0.73313501877E+03  0.49559952846E+03 0.  0.
        4    1    3    3  502    0  0.45637363709E+02 -0.18464252012E+03 -0.50508195982E+03  0.53970828069E+03  0.12699999809E+01 0. -1.
       -4    1    3    3    0  502 -0.45637363709E+02  0.18464252012E+03 -0.35166189772E+02  0.19342673808E+03  0.12699999809E+01 0.  1.
</event>
<event>
 5   0  0.1984680E-01  0.3531772E+03  0.7818609E-02  0.1061318E+00
       -1   -1    0    0    0  501  0.00000000000E+00  0.00000000000E+00  0.45616888939E+02  0.45616889218E+02  0.50400001928E-02 0.  1.
        1   -1    0    0  501    0  0.00000000000E+00  0.00000000000E+00 -0.68359639391E+03  0.68359639393E+03  0.50400001928E-02 0. -1.
    10030    2    1    2    0    0  0.00000000000E+00  0.00000000000E+00 -0.63797950497E+03  0.72921328315E+03  0.35317724099E+03 0.  0.
        5    1    3    3  502    0 -0.10452020941E+03 -0.14198076835E+03 -0.33727603756E+03  0.38060508177E+03  0.46999998093E+01 0.  1.
       -5    1    3    3    0  502  0.10452020941E+03  0.14198076835E+03 -0.30070346741E+03  0.34860820138E+03  0.46999998093E+01 0. -1.
</event>
<event>
 5   0  0.3187123E-01  0.5025451E+03  0.7818609E-02  0.1013117E+00
       -2   -1    0    0    0  501  0.00000000000E+00  0.00000000000E+00  0.95967017890E+02  0.95967017924E+02  0.25500000920E-02 0. -1.
        2   -1    0    0  501    0  0.00000000000E+00  0.00000000000E+00 -0.65791246672E+03  0.65791246673E+03  0.25500000920E-02 0.  1.
    10030    2    1    2    0    0  0.00000000000E+00  0.00000000000E+00 -0.56194544883E+03  0.75387948465E+03  0.50254511232E+03 0.  0.
        5    1    3    3  502    0 -0.24022890740E+03  0.66599814946E+02 -0.32770207808E+03  0.41177203071E+03  0.46999998093E+01 0.  1.
       -5    1    3    3    0  502  0.24022890740E+03 -0.66599814946E+02 -0.23424337075E+03  0.34210745394E+03  0.46999998093E+01 0. -1.
</event>
<event>
 5   0  0.1292375E-01  0.5138999E+03  0.7818609E-02  0.1010213E+00
       -4   -1    0    0    0  501  0.00000000000E+00  0.00000000000E+00  0.10288312209E+04  0.10288320048E+04  0.12699999809E+01 0. -1.
        4   -1    0    0  501    0  0.00000000000E+00  0.00000000000E+00 -0.64165988215E+02  0.64178555169E+02  0.12699999809E+01 0.  1.
    10030    2    1    2    0    0  0.00000000000E+00  0.00000000000E+00  0.96466523273E+03  0.10930105600E+04  0.51389986666E+03 0.  0.
        1    1    3    3  502    0  0.23923406247E+03 -0.86390891774E+02  0.55980954169E+03  0.61488457926E+03  0.50400001928E-02 0.  1.
       -1    1    3    3    0  502 -0.23923406247E+03  0.86390891774E+02  0.40485569104E+03  0.47812598070E+03  0.50400001928E-02 0. -1.
</event>
<event>
 5   0  0.1984297E-01  0.4536951E+03  0.7818609E-02  0.1026626E+00
       -1   -1    0    0    0  501  0.00000000000E+00  0.00000000000E+00  0.84726552837E+02  0.84726552987E+02  0.50400001928E-02 0.  1.
        1   -1    0    0  501    0  0.00000000000E+00  0.00000000000E+00 -0.60736348939E+03  0.60736348941E+03  0.50400001928E-02 0. -1.
    10030    2    1    2    0    0  0.00000000000E+00  0.00000000000E+00 -0.52263693655E+03  0.69209004240E+03  0.45369511716E+03 0.  0.
        3    1    3    3  502    0  0.13041030533E+03 -0.37607010972E+02  0.15955929747E+02  0.13665919986E+03  0.10100000352E+00 0.  1.
       -3    1    3    3    0  502 -0.13041030533E+03  0.37607010972E+02 -0.53859286630E+03  0.55543084254E+03  0.10100000352E+00 0. -1.
</event>
<event>
 5   0  0.1984297E-01  0.5098318E+03  0.7818609E-02  0.1011244E+00
        1   -1    0    0  501    0  0.00000000000E+00  0.00000000000E+00  0.61058813226E+02  0.61058813434E+02  0.50400001928E-02 0. -1.
       -1   -1    0    0    0  501  0.00000000000E+00  0.00000000000E+00 -0.10642543715E+04  0.10642543715E+04  0.50400001928E-02 0.  1.
    10030    2    1    2    0    0  0.00000000000E+00  0.00000000000E+00 -0.10031955583E+04  0.11253131850E+04  0.50983177233E+03 0.  0.
        3    1    3    3  502    0 -0.17730484724E+03  0.99787275000E+02 -0.16260668167E+03  0.26045239917E+03  0.10100000352E+00 0. -1.
       -3    1    3    3    0  502  0.17730484724E+03 -0.99787275000E+02 -0.84058887662E+03  0.86486078580E+03  0.10100000352E+00 0.  1.
</event>
<event>
 5   0  0.3329246E-01  0.5025552E+03  0.7818609E-02  0.1013114E+00
        2   -1    0    0  501    0  0.00000000000E+00  0.00000000000E+00  0.18151265195E+04  0.18151265195E+04  0.25500000920E-02 0. -1.
       -2   -1    0    0    0  501  0.00000000000E+00  0.00000000000E+00 -0.34785689019E+02  0.34785689112E+02  0.25500000920E-02 0.  1.
    10030    2    1    2    0    0  0.00000000000E+00  0.00000000000E+00  0.17803408304E+04  0.18499122086E+04  0.50255517796E+03 0.  0.
        2    1    3    3  502    0  0.39978008331E+01 -0.86924395566E+02  0.22445495693E+02  0.89864527148E+02  0.25500000920E-02 0.  1.
       -2    1    3    3    0  502 -0.39978008331E+01  0.86924395566E+02  0.17578953347E+04  0.17600476814E+04  0.25500000920E-02 0. -1.
</event>
<event>
 5   0  0.3111146E-01  0.5134613E+03  0.7818609E-02  0.1010324E+00
       -2   -1    0    0    0  501  0.00000000000E+00  0.00000000000E+00  0.80695134327E+02  0.80695134367E+02  0.25500000920E-02 0. -1.
        2   -1    0    0  501    0  0.00000000000E+00  0.00000000000E+00 -0.81678565434E+03  0.81678565434E+03  0.25500000920E-02 0.  1.
    10030    2    1    2    0    0  0.00000000000E+00  0.00000000000E+00 -0.73609052001E+03  0.89748078871E+03  0.51346130570E+03 0.  0.
        1    1    3    3  502    0 -0.13850911635E+02  0.22426897408E+03 -0.15097980520E+03  0.27070892503E+03  0.50400001928E-02 0. -1.
       -1    1    3    3    0  502  0.13850911635E+02 -0.22426897408E+03 -0.58511071481E+03  0.62677186368E+03  0.50400001928E-02 0.  1.
</event>
<event>
 5   0  0.1967161E-01  0.4938318E+03  0.7818609E-02  0.1015402E+00
        1   -1    0    0  501    0  0.00000000000E+00  0.00000000000E+00  0.48305984716E+03  0.48305984719E+03  0.50400001928E-02 0. -1.
       -1   -1    0    0    0  501  0.00000000000E+00  0.00000000000E+00 -0.12621100443E+03  0.12621100453E+03  0.50400001928E-02 0.  1.
    10030    2    1    2    0    0  0.00000000000E+00  0.00000000000E+00  0.35684884274E+03  0.60927085171E+03  0.49383182784E+03 0.  0.
        1    1    3    3  502    0  0.18833193744E+03 -0.13691100099E+03  0.77031058580E+02  0.24524951552E+03  0.50400001928E-02 0.  1.
       -1    1    3    3    0  502 -0.18833193744E+03  0.13691100099E+03  0.27981778415E+03  0.36402133620E+03  0.50400001928E-02 0. -1.
</event>
<event>
 5   0  0.3111146E-01  0.5174535E+03  0.7818609E-02  0.1009321E+00
       -2   -1    0    0    0  501  0.00000000000E+00  0.00000000000E+00  0.70447245941E+02  0.70447245988E+02  0.25500000920E-02 0. -1.
        2   -1    0    0  501    0  0.00000000000E+00  0.00000000000E+00 -0.95020789718E+03  0.95020789718E+03  0.25500000920E-02 0.  1.
    10030    2    1    2    0    0  0.00000000000E+00  0.00000000000E+00 -0.87976065124E+03  0.10206551432E+04  0.51745349338E+03 0.  0.
        1    1    3    3  502    0 -0.12981900888E+02 -0.22675149702E+03 -0.19546457061E+03  0.29965174710E+03  0.50400001928E-02 0. -1.
       -1    1    3    3    0  502  0.12981900888E+02  0.22675149702E+03 -0.68429608063E+03  0.72100339607E+03  0.50400001928E-02 0.  1.
</event>
<event>
 5   0  0.3111146E-01  0.4929701E+03  0.7818609E-02  0.1015630E+00
       -2   -1    0    0    0  501  0.00000000000E+00  0.00000000000E+00  0.48492613214E+02  0.48492613281E+02  0.25500000920E-02 0. -1.
        2   -1    0    0  501    0  0.00000000000E+00  0.00000000000E+00 -0.12528686745E+04  0.12528686745E+04  0.25500000920E-02 0.  1.
    10030    2    1    2    0    0  0.00000000000E+00  0.00000000000E+00 -0.12043760613E+04  0.13013612878E+04  0.49297008463E+03 0.  0.
        1    1    3    3  502    0 -0.13544083554E+03 -0.44587459759E+02 -0.11329374385E+04  0.11418754315E+04  0.50400001928E-02 0.  1.
       -1    1    3    3    0  502  0.13544083554E+03  0.44587459759E+02 -0.71438622777E+02  0.15948585627E+03  0.50400001928E-02 0. -1.
</event>
<event>
 5   0  0.3187123E-01  0.4979291E+03  0.7818609E-02  0.1014321E+00
       -2   -1    0    0    0  501  0.00000000000E+00  0.00000000000E+00  0.15401739681E+03  0.15401739684E+03  0.25500000920E-02 0. -1.
        2   -1    0    0  501    0  0.00000000000E+00  0.00000000000E+00 -0.40244376840E+03  0.40244376841E+03  0.25500000920E-02 0.  1.
    10030    2    1    2    0    0  0.00000000000E+00  0.00000000000E+00 -0.24842637159E+03  0.55646116525E+03  0.49792907761E+03 0.  0.
        5    1    3    3  502    0 -0.87860436240E+02  0.40310477756E+01  0.13602399113E+03  0.16205036799E+03  0.46999998093E+01 0. -1.
       -5    1    3    3    0  502  0.87860436240E+02 -0.40310477756E+01 -0.38445036272E+03  0.39441079726E+03  0.46999998093E+01 0.  1.
</event>
<event>
 5   0  0.3178149E-01  0.4986722E+03  0.7818609E-02  0.1014126E+00
        2   -1    0    0  501    0  0.00000000000E+00  0.00000000000E+00  0.19803256264E+03  0.19803256266E+03  0.25500000920E-02 0. -1.
       -2   -1    0    0    0  501  0.00000000000E+00  0.00000000000E+00 -0.31393068575E+03  0.31393068576E+03  0.25500000920E-02 0.  1.
    10030    2    1    2    0    0  0.00000000000E+00  0.00000000000E+00 -0.11589812311E+03  0.51196324842E+03  0.49867222982E+03 0.  0.
        3    1    3    3  502    0  0.18452183444E+03 -0.89695948021E+02  0.87512888481E+02  0.22305198122E+03  0.10100000352E+00 0.  1.
       -3    1    3    3    0  502 -0.18452183444E+03  0.89695948021E+02 -0.20341101160E+03  0.28891126720E+03  0.10100000352E+00 0. -1.
</event>
<event>
 5   0  0.2013450E-01  0.2574693E+03  0.7818609E-02  0.1108673E+00
       -1   -1    0    0    0  501  0.00000000000E+00  0.00000000000E+00  0.50478693574E+03  0.50478693576E+03  0.50400001928E-02 0.  1.
        1   -1    0    0  501    0  0.00000000000E+00  0.00000000000E+00 -0.32830897086E+02  0.32830897473E+02  0.50400001928E-02 0. -1.
    10030    2    1    2    0    0  0.00000000000E+00  0.00000000000E+00  0.47195603865E+03  0.53761783324E+03  0.25746928398E+03 0.  0.
        4    1    3    3  502    0 -0.53185448390E+02  0.69849343582E+02  0.43256182579E+03  0.44138301819E+03  0.12699999809E+01 0.  1.
       -4    1    3    3    0  502  0.53185448390E+02 -0.69849343582E+02  0.39394212863E+02  0.96234815043E+02  0.12699999809E+01 0. -1.
</event>
<event>
 5   0  0.1967161E-01  0.5130293E+03  0.7818609E-02  0.1010433E+00
       -1   -1    0    0    0  501  0.00000000000E+00  0.00000000000E+00  0.20974417244E+03  0.20974417250E+03  0.50400001928E-02 0. -1.
        1   -1    0    0  501    0  0.00000000000E+00  0.00000000000E+00 -0.31371441294E+03  0.31371441298E+03  0.50400001928E-02 0.  1.
    10030    2    1    2    0    0  0.00000000000E+00  0.00000000000E+00 -0.10397024049E+03  0.52345858548E+03  0.51302931671E+03 0.  0.
        1    1    3    3  502    0 -0.25489985721E+03  0.25814244209E+02 -0.39100766439E+02  0.25917018033E+03  0.50400001928E-02 0. -1.
       -1    1    3    3    0  502  0.25489985721E+03 -0.25814244209E+02 -0.64869474055E+02  0.26428840515E+03  0.50400001928E-02 0.  1.
</event>
<event>
 5   0  0.1967161E-01  0.4990627E+03  0.7818609E-02  0.1014024E+00
        1   -1    0    0  501    0  0.00000000000E+00  0.00000000000E+00  0.13661678300E+03  0.13661678309E+03  0.50400001928E-02 0.  1.
       -1   -1    0    0    0  501  0.00000000000E+00  0.00000000000E+00 -0.45577055418E+03  0.45577055421E+03  0.50400001928E-02 0. -1.
    10030    2    1    2    0    0  0.00000000000E+00  0.00000000000E+00 -0.31915377118E+03  0.59238733730E+03  0.49906274930E+03 0.  0.
        1    1    3    3  502    0  0.94042412868E+02  0.16777673815E+03  0.29125821674E+02  0.19452846269E+03  0.50400001928E-02 0.  1.
       -1    1    3    3    0  502 -0.94042412868E+02 -0.16777673815E+03 -0.34827959285E+03  0.39785887461E+03  0.50400001928E-02 0. -1.
</event>
<event>
 5   0  0.3187123E-01  0.4773288E+03  0.7818609E-02  0.1019872E+00
        2   -1    0    0  501    0  0.00000000000E+00  0.00000000000E+00  0.13155278538E+04  0.13155278538E+04  0.25500000920E-02 0.  1.
       -2   -1    0    0    0  501  0.00000000000E+00  0.00000000000E+00 -0.43298730273E+02  0.43298730348E+02  0.25500000920E-02 0. -1.
    10030    2    1    2    0    0  0.00000000000E+00  0.00000000000E+00  0.12722291235E+04  0.13588265841E+04  0.47732875782E+03 0.  0.
        5    1    3    3  502    0 -0.22750746735E+03 -0.64625988636E+02  0.72624539529E+03  0.76380012457E+03  0.46999998093E+01 0. -1.
       -5    1    3    3    0  502  0.22750746735E+03  0.64625988636E+02  0.54598372819E+03  0.59502645954E+03  0.46999998093E+01 0.  1.
</event>
<event>
 5   0  0.3111146E-01  0.4998016E+03  0.7818609E-02  0.1013831E+00
       -2   -1    0    0    0  501  0.00000000000E+00  0.00000000000E+00  0.73135521817E+02  0.73135521861E+02  0.25500000920E-02 0. -1.
        2   -1    0    0  501    0  0.00000000000E+00  0.00000000000E+00 -0.85389994532E+03  0.85389994532E+03  0.25500000920E-02 0.  1.
    10030    2    1    2    0    0  0.00000000000E+00  0.00000000000E+00 -0.78076442350E+03  0.92703546719E+03  0.49980163306E+03 0.  0.
        1    1    3    3  502    0  0.23894301299E+03  0.33238592220E+02 -0.26943727892E+03  0.36165593423E+03  0.50400001928E-02 0. -1.
       -1    1    3    3    0  502 -0.23894301299E+03 -0.33238592220E+02 -0.51132714459E+03  0.56537953295E+03  0.50400001928E-02 0.  1.
</event>
<event>
 5   0  0.1984297E-01  0.5231717E+03  0.7818609E-02  0.1007902E+00
       -1   -1    0    0    0  501  0.00000000000E+00  0.00000000000E+00  0.12129903197E+03  0.12129903207E+03  0.50400001928E-02 0.  1.
        1   -1    0    0  501    0  0.00000000000E+00  0.00000000000E+00 -0.56411951581E+03  0.56411951583E+03  0.50400001928E-02 0. -1.
    10030    2    1    2    0    0  0.00000000000E+00  0.00000000000E+00 -0.44282048384E+03  0.68541854790E+03  0.52317167823E+03 0.  0.
        3    1    3    3  502    0 -0.79568048225E+02 -0.58585740942E+02 -0.53872965338E+03  0.54771617921E+03  0.10100000352E+00 0. -1.
       -3    1    3    3    0  502  0.79568048225E+02  0.58585740942E+02  0.95909169538E+02  0.13770236869E+03  0.10100000352E+00 0.  1.
</event>
<event>
 5   0  0.1984297E-01  0.4936870E+03  0.7818609E-02  0.1015440E+00
       -1   -1    0    0    0  501  0.00000000000E+00  0.00000000000E+00  0.50452567855E+02  0.50452568107E+02  0.50400001928E-02 0.  1.
        1   -1    0    0  501    0  0.00000000000E+00  0.00000000000E+00 -0.12077030162E+04  0.12077030162E+04  0.50400001928E-02 0. -1.
    10030    2    1    2    0    0  0.00000000000E+00  0.00000000000E+00 -0.11572504484E+04  0.12581555843E+04  0.49368702045E+03 0.  0.
        3    1    3    3  502    0  0.14241080952E+03 -0.17964476367E+03 -0.81190071344E+03  0.84364439101E+03  0.10100000352E+00 0. -1.
       -3    1    3    3    0  502 -0.14241080952E+03  0.17964476367E+03 -0.34534973491E+03  0.41451119332E+03  0.10100000352E+00 0.  1.
</event>
<event>
 5   0  0.3111146E-01  0.4940420E+03  0.7818609E-02  0.1015346E+00
       -2   -1    0    0    0  501  0.00000000000E+00  0.00000000000E+00  0.20326727353E+03  0.20326727354E+03  0.25500000920E-02 0. -1.
        2   -1    0    0  501    0  0.00000000000E+00  0.00000000000E+00 -0.30019281041E+03  0.30019281042E+03  0.25500000920E-02 0.  1.
    10030    2    1    2    0    0  0.00000000000E+00  0.00000000000E+00 -0.96925536888E+02  0.50346008397E+03  0.49404199867E+03 0.  0.
        1    1    3    3  502    0  0.24813119219E+02  0.10921902753E+03  0.17590453974E+03  0.20853511452E+03  0.50400001928E-02 0. -1.
       -1    1    3    3    0  502 -0.24813119219E+02 -0.10921902753E+03 -0.27283007663E+03  0.29492496944E+03  0.50400001928E-02 0.  1.
</event>
<event>
 5   0  0.1292375E-01  0.4921852E+03  0.7818609E-02  0.1015839E+00
       -3   -1    0    0    0  501  0.00000000000E+00  0.00000000000E+00  0.15990318687E+03  0.15990321876E+03  0.10100000352E+00 0.  1.
        3   -1    0    0  501    0  0.00000000000E+00  0.00000000000E+00 -0.37873881422E+03  0.37873882769E+03  0.10100000352E+00 0. -1.
    10030    2    1    2    0    0  0.00000000000E+00  0.00000000000E+00 -0.21883562736E+03  0.53864204646E+03  0.49218515054E+03 0.  0.
        5    1    3    3  502    0 -0.20471622872E+03  0.49060296143E+02 -0.24881316356E+03  0.32595356620E+03  0.46999998093E+01 0. -1.
       -5    1    3    3    0  502  0.20471622872E+03 -0.49060296143E+02  0.29977536202E+02  0.21268848026E+03  0.46999998093E+01 0.  1.
</event>
<event>
 5   0  0.1967161E-01  0.5002799E+03  0.7818609E-02  0.1013706E+00
        1   -1    0    0  501    0  0.00000000000E+00  0.00000000000E+00  0.16531120668E+03  0.16531120675E+03  0.50400001928E-02 0. -1.
       -1   -1    0    0    0  501  0.00000000000E+00  0.00000000000E+00 -0.37849825753E+03  0.37849825757E+03  0.50400001928E-02 0.  1.
    10030    2    1    2    0    0  0.00000000000E+00  0.00000000000E+00 -0.21318705086E+03  0.54380946432E+03  0.50027993647E+03 0.  0.
        1    1    3    3  502    0 -0.57167717055E+02  0.55887695161E+02  0.15104953016E+03  0.17090214431E+03  0.50400001928E-02 0. -1.
       -1    1    3    3    0  502  0.57167717055E+02 -0.55887695161E+02 -0.36423658101E+03  0.37290732001E+03  0.50400001928E-02 0.  1.
</event>
<event>
 5   0  0.2000612E-01  0.4844841E+03  0.7818609E-02  0.1017910E+00
       -1   -1    0    0    0  501  0.00000000000E+00  0.00000000000E+00  0.51827027724E+03  0.51827027727E+03  0.50400001928E-02 0.  1.
        1   -1    0    0  501    0  0.00000000000E+00  0.00000000000E+00 -0.11322510246E+03  0.11322510257E+03  0.50400001928E-02 0. -1.
    10030    2    1    2    0    0  0.00000000000E+00  0.00000000000E+00  0.40504517479E+03  0.63149537984E+03  0.48448407728E+03 0.  0.
        2    1    3    3  502    0  0.43013187064E+02  0.23093457126E+03  0.12540685611E+03  0.26628516675E+03  0.25500000920E-02 0.  1.
       -2    1    3    3    0  502 -0.43013187064E+02 -0.23093457126E+03  0.27963831868E+03  0.36521021309E+03  0.25500000920E-02 0. -1.
</event>
<event>
 5   0  0.2013450E-01  0.5044243E+03  0.7818609E-02  0.1012631E+00
        1   -1    0    0  501    0  0.00000000000E+00  0.00000000000E+00  0.65923782052E+03  0.65923782053E+03  0.50400001928E-02 0. -1.
       -1   -1    0    0    0  501  0.00000000000E+00  0.00000000000E+00 -0.96491667373E+02  0.96491667505E+02  0.50400001928E-02 0.  1.
    10030    2    1    2    0    0  0.00000000000E+00  0.00000000000E+00  0.56274615314E+03  0.75572948804E+03  0.50442425221E+03 0.  0.
        4    1    3    3  502    0  0.69919234953E+02 -0.23321314644E+03  0.37998474253E+03  0.45129490197E+03  0.12699999809E+01 0. -1.
       -4    1    3    3    0  502 -0.69919234953E+02  0.23321314644E+03  0.18276141062E+03  0.30443458607E+03  0.12699999809E+01 0.  1.
</event>
<event>
 5   0  0.2000612E-01  0.4862092E+03  0.7818609E-02  0.1017443E+00
        1   -1    0    0  501    0  0.00000000000E+00  0.00000000000E+00  0.33603912313E+03  0.33603912317E+03  0.50400001928E-02 0. -1.
       -1   -1    0    0    0  501  0.00000000000E+00  0.00000000000E+00 -0.17587190179E+03  0.17587190186E+03  0.50400001928E-02 0.  1.
    10030    2    1    2    0    0  0.00000000000E+00  0.00000000000E+00  0.16016722134E+03  0.51191102503E+03  0.48620917182E+03 0.  0.
        2    1    3    3  502    0 -0.10513646565E+03  0.29082152901E+02  0.30882467478E+03  0.32752424000E+03  0.25500000920E-02 0. -1.
       -2    1    3    3    0  502  0.10513646565E+03 -0.29082152901E+02 -0.14865745344E+03  0.18438678503E+03  0.25500000920E-02 0.  1.
</event>
<event>
 5   0  0.2013450E-01  0.5047144E+03  0.7818609E-02  0.1012556E+00
        1   -1    0    0  501    0  0.00000000000E+00  0.00000000000E+00  0.48202242399E+03  0.48202242402E+03  0.50400001928E-02 0. -1.
       -1   -1    0    0    0  501  0.00000000000E+00  0.00000000000E+00 -0.13211866286E+03  0.13211866296E+03  0.50400001928E-02 0.  1.
    10030    2    1    2    0    0  0.00000000000E+00  0.00000000000E+00  0.34990376113E+03  0.61414108698E+03  0.50471440703E+03 0.  0.
        4    1    3    3  502    0 -0.30304866102E+02 -0.17610625776E+03  0.39177192079E+03  0.43060265878E+03  0.12699999809E+01 0. -1.
       -4    1    3    3    0  502  0.30304866102E+02  0.17610625776E+03 -0.41868159659E+02  0.18353842820E+03  0.12699999809E+01 0.  1.
</event>
<event>
 5   0  0.1984297E-01  0.4951704E+03  0.7818609E-02  0.1015047E+00
       -1   -1    0    0    0  501  0.00000000000E+00  0.00000000000E+00  0.15276772325E+03  0.15276772334E+03  0.50400001928E-02 0.  1.
        1   -1    0    0  501    0  0.00000000000E+00  0.00000000000E+00 -0.40125257949E+03  0.40125257952E+03  0.50400001928E-02 0. -1.
    10030    2    1    2    0    0  0.00000000000E+00  0.00000000000E+00 -0.24848485624E+03  0.55402030286E+03  0.49517044763E+03 0.  0.
        3    1    3    3  502    0 -0.96921514201E+02  0.43605861090E+01 -0.37909824143E+03  0.39131608897E+03  0.10100000352E+00 0. -1.
       -3    1    3    3    0  502  0.96921514201E+02 -0.43605861090E+01  0.13061338519E+03  0.16270421390E+03  0.10100000352E+00 0.  1.
</event>
<event>
 5   0  0.2013450E-01  0.4973336E+03  0.7818609E-02  0.1014477E+00
       -1   -1    0    0    0  501  0.00000000000E+00  0.00000000000E+00  0.31787356434E+03  0.31787356438E+03  0.50400001928E-02 0. -1.
        1   -1    0    0  501    0  0.00000000000E+00  0.00000000000E+00 -0.19452756895E+03  0.19452756902E+03  0.50400001928E-02 0.  1.
    10030    2    1    2    0    0  0.00000000000E+00  0.00000000000E+00  0.12334599539E+03  0.51240113340E+03  0.49733357712E+03 0.  0.
        4    1    3    3  502    0 -0.13422178053E+03  0.17963564066E+02 -0.15320100761E+03  0.20447576295E+03  0.12699999809E+01 0.  1.
       -4    1    3    3    0  502  0.13422178053E+03 -0.17963564066E+02  0.27654700300E+03  0.30792537045E+03  0.12699999809E+01 0. -1.
</event>
<event>
 5   0  0.3178149E-01  0.4706230E+03  0.7818609E-02  0.1021745E+00
       -2   -1    0    0    0  501  0.00000000000E+00  0.00000000000E+00  0.36687513608E+03  0.36687513609E+03  0.25500000920E-02 0.  1.
        2   -1    0    0  501    0  0.00000000000E+00  0.00000000000E+00 -0.15092740722E+03  0.15092740724E+03  0.25500000920E-02 0. -1.
    10030    2    1    2    0    0  0.00000000000E+00  0.00000000000E+00  0.21594772885E+03  0.51780254333E+03  0.47062304691E+03 0.  0.
        3    1    3    3  502    0  0.12523634914E+03 -0.87645328768E+02  0.30480978471E+03  0.34099099967E+03  0.10100000352E+00 0.  1.
       -3    1    3    3    0  502 -0.12523634914E+03  0.87645328768E+02 -0.88862055854E+02  0.17681154366E+03  0.10100000352E+00 0. -1.
</event>
<event>
 5   0  0.2000612E-01  0.4927801E+03  0.7818609E-02  0.1015681E+00
        1   -1    0    0  501    0  0.00000000000E+00  0.00000000000E+00  0.11151403484E+03  0.11151403495E+03  0.50400001928E-02 0.  1.
       -1   -1    0    0    0  501  0.00000000000E+00  0.00000000000E+00 -0.54439842869E+03  0.54439842871E+03  0.50400001928E-02 0. -1.
    10030    2    1    2    0    0  0.00000000000E+00  0.00000000000E+00 -0.43288439385E+03  0.65591246366E+03  0.49278013510E+03 0.  0.
        2    1    3    3  502    0 -0.22156376627E+03 -0.67181027205E+02 -0.32863176990E+03  0.40199829992E+03  0.25500000920E-02 0. -1.
       -2    1    3    3    0  502  0.22156376627E+03  0.67181027205E+02 -0.10425262394E+03  0.25391416374E+03  0.25500000920E-02 0.  1.
</event>
<event>
 5   0  0.1984297E-01  0.4740750E+03  0.7818609E-02  0.1020776E+00
       -1   -1    0    0    0  501  0.00000000000E+00  0.00000000000E+00  0.96204178560E+02  0.96204178692E+02  0.50400001928E-02 0.  1.
        1   -1    0    0  501    0  0.00000000000E+00  0.00000000000E+00 -0.58403666055E+03  0.58403666057E+03  0.50400001928E-02 0. -1.
    10030    2    1    2    0    0  0.00000000000E+00  0.00000000000E+00 -0.48783248199E+03  0.68024083927E+03  0.47407496128E+03 0.  0.
        3    1    3    3  502    0 -0.15918935421E+03  0.12116873208E+03 -0.61490829701E+02  0.20929463554E+03  0.10100000352E+00 0.  1.
       -3    1    3    3    0  502  0.15918935421E+03 -0.12116873208E+03 -0.42634165229E+03  0.47094620373E+03  0.10100000352E+00 0. -1.
</event>
<event>
 5   0  0.1292375E-01  0.4937415E+03  0.7818609E-02  0.1015425E+00
       -4   -1    0    0    0  501  0.00000000000E+00  0.00000000000E+00  0.15918053387E+03  0.15918560005E+03  0.12699999809E+01 0. -1.
        4   -1    0    0  501    0  0.00000000000E+00  0.00000000000E+00 -0.38285605937E+03  0.38285816577E+03  0.12699999809E+01 0.  1.
    10030    2    1    2    0    0  0.00000000000E+00  0.00000000000E+00 -0.22367552550E+03  0.54204376581E+03  0.49374153497E+03 0.  0.
        1    1    3    3  502    0  0.20464705598E+03  0.13274630601E+03 -0.15354336717E+03  0.28823179025E+03  0.50400001928E-02 0.  1.
       -1    1    3    3    0  502 -0.20464705598E+03 -0.13274630601E+03 -0.70132158334E+02  0.25381197557E+03  0.50400001928E-02 0. -1.
</event>
<event>
 5   0  0.3111146E-01  0.5012412E+03  0.7818609E-02  0.1013455E+00
       -2   -1    0    0    0  501  0.00000000000E+00  0.00000000000E+00  0.15695773238E+03  0.15695773240E+03  0.25500000920E-02 0.  1.
        2   -1    0    0  501    0  0.00000000000E+00  0.00000000000E+00 -0.40017585935E+03  0.40017585935E+03  0.25500000920E-02 0. -1.
    10030    2    1    2    0    0  0.00000000000E+00  0.00000000000E+00 -0.24321812696E+03  0.55713359176E+03  0.50124124110E+03 0.  0.
        1    1    3    3  502    0 -0.35575369650E+02  0.39163887266E+02  0.15067924077E+03  0.15969862434E+03  0.50400001928E-02 0.  1.
       -1    1    3    3    0  502  0.35575369650E+02 -0.39163887266E+02 -0.39389736773E+03  0.39743496742E+03  0.50400001928E-02 0. -1.
</event>
<event>
 5   0  0.1292375E-01  0.4932290E+03  0.7818609E-02  0.1015562E+00
        3   -1    0    0  501    0  0.00000000000E+00  0.00000000000E+00  0.52232090440E+02  0.52232188091E+02  0.10100000352E+00 0. -1.
       -3   -1    0    0    0  501  0.00000000000E+00  0.00000000000E+00 -0.11643923315E+04  0.11643923359E+04  0.10100000352E+00 0.  1.
    10030    2    1    2    0    0  0.00000000000E+00  0.00000000000E+00 -0.11121602411E+04  0.12166245240E+04  0.49322898387E+03 0.  0.
        4    1    3    3  502    0 -0.85600627625E+02 -0.19495449206E+03 -0.86300121946E+03  0.88887987890E+03  0.12699999809E+01 0.  1.
       -4    1    3    3    0  502  0.85600627625E+02  0.19495449206E+03 -0.24915902159E+03  0.32774464506E+03  0.12699999809E+01 0. -1.
</event>
<event>
 5   0  0.1967161E-01  0.5311720E+03  0.7818609E-02  0.1005948E+00
       -1   -1    0    0    0  501  0.00000000000E+00  0.00000000000E+00  0.30826801037E+03  0.30826801041E+03  0.50400001928E-02 0. -1.
        1   -1    0    0  501    0  0.00000000000E+00  0.00000000000E+00 -0.22881363806E+03  0.22881363812E+03  0.50400001928E-02 0.  1.
    10030    2    1    2    0    0  0.00000000000E+00  0.00000000000E+00  0.79454372310E+02  0.53708164853E+03  0.53117200596E+03 0.  0.
        1    1    3    3  502    0  0.18485012880E+03  0.70692721628E+02  0.21881034143E+03  0.29503389051E+03  0.50400001928E-02 0. -1.
       -1    1    3    3    0  502 -0.18485012880E+03 -0.70692721628E+02 -0.13935596912E+03  0.24204775802E+03  0.50400001928E-02 0.  1.
</event>
<event>
 5   0  0.3329246E-01  0.5049783E+03  0.7818609E-02  0.1012488E+00
       -2   -1    0    0    0  501  0.00000000000E+00  0.00000000000E+00  0.12194988307E+03  0.12194988310E+03  0.25500000920E-02 0.  1.
        2   -1    0    0  501    0  0.00000000000E+00  0.00000000000E+00 -0.52276206988E+03  0.52276206988E+03  0.25500000920E-02 0. -1.
    10030    2    1    2    0    0  0.00000000000E+00  0.00000000000E+00 -0.40081218680E+03  0.64471195298E+03  0.50497830966E+03 0.  0.
        2    1    3    3  502    0  0.76605692787E+02  0.21042559698E+03 -0.51498487904E+02  0.22978132712E+03  0.25500000920E-02 0.  1.
       -2    1    3    3    0  502 -0.76605692787E+02 -0.21042559698E+03 -0.34931369890E+03  0.41493062586E+03  0.25500000920E-02 0. -1.
</event>
<event>
 5   0  0.1984680E-01  0.4987477E+03  0.7818609E-02  0.1014106E+00
        1   -1    0    0  501    0  0.00000000000E+00  0.00000000000E+00  0.11507527368E+03  0.11507527379E+03  0.50400001928E-02 0. -1.
       -1   -1    0    0    0  501  0.00000000000E+00  0.00000000000E+00 -0.54040557926E+03  0.54040557928E+03  0.50400001928E-02 0.  1.
    10030    2    1    2    0    0  0.00000000000E+00  0.00000000000E+00 -0.42533030558E+03  0.65548085307E+03  0.49874771167E+03 0.  0.
        5    1    3    3  502    0  0.19119071344E+03  0.57655466272E+02 -0.16461659663E+02  0.20042733829E+03  0.46999998093E+01 0. -1.
       -5    1    3    3    0  502 -0.19119071344E+03 -0.57655466272E+02 -0.40886864592E+03  0.45505351478E+03  0.46999998093E+01 0.  1.
</event>
<event>
 5   0  0.2013450E-01  0.4878215E+03  0.7818609E-02  0.1017007E+00
       -1   -1    0    0    0  501  0.00000000000E+00  0.00000000000E+00  0.12807178564E+03  0.12807178574E+03  0.50400001928E-02 0.  1.
        1   -1    0    0  501    0  0.00000000000E+00  0.00000000000E+00 -0.46452429916E+03  0.46452429919E+03  0.50400001928E-02 0. -1.
    10030    2    1    2    0    0  0.00000000000E+00  0.00000000000E+00 -0.33645251352E+03  0.59259608493E+03  0.48782151040E+03 0.  0.
        4    1    3    3  502    0 -0.12180409272E+03  0.16863854678E+03 -0.32291723079E+03  0.38412543174E+03  0.12699999809E+01 0. -1.
       -4    1    3    3    0  502  0.12180409272E+03 -0.16863854678E+03 -0.13535282731E+02  0.20847065319E+03  0.12699999809E+01 0.  1.
</event>
<event>
 5   0  0.1984297E-01  0.4927437E+03  0.7818609E-02  0.1015690E+00
       -1   -1    0    0    0  501  0.00000000000E+00  0.00000000000E+00  0.20839605403E+03  0.20839605409E+03  0.50400001928E-02 0.  1.
        1   -1    0    0  501    0  0.00000000000E+00  0.00000000000E+00 -0.29126788559E+03  0.29126788563E+03  0.50400001928E-02 0. -1.
    10030    2    1    2    0    0  0.00000000000E+00  0.00000000000E+00 -0.82871831563E+02  0.49966393972E+03  0.49274365768E+03 0.  0.
        3    1    3    3  502    0 -0.16868464427E+03 -0.10797599819E+02 -0.22319604004E+03  0.27997782031E+03  0.10100000352E+00 0. -1.
       -3    1    3    3    0  502  0.16868464427E+03  0.10797599819E+02  0.14032420848E+03  0.21968611941E+03  0.10100000352E+00 0.  1.
</event>
<event>
 5   0  0.1292375E-01  0.2601694E+03  0.7818609E-02  0.1107042E+00
       -3   -1    0    0    0  501  0.00000000000E+00  0.00000000000E+00  0.14302758378E+03  0.14302761944E+03  0.10100000352E+00 0.  1.
        3   -1    0    0  501    0  0.00000000000E+00  0.00000000000E+00 -0.11831295955E+03  0.11831300267E+03  0.10100000352E+00 0. -1.
    10030    2    1    2    0    0  0.00000000000E+00  0.00000000000E+00  0.24714624221E+02  0.26134062210E+03  0.26016938350E+03 0.  0.
        2    1    3    3  502    0 -0.81818791762E+02  0.96226100414E+02 -0.18899484801E+02  0.12771439863E+03  0.25500000920E-02 0. -1.
       -2    1    3    3    0  502  0.81818791762E+02 -0.96226100414E+02  0.43614109022E+02  0.13362622347E+03  0.25500000920E-02 0.  1.
</event>
<event>
 5   0  0.3178149E-01  0.5012778E+03  0.7818609E-02  0.1013446E+00
        2   -1    0    0  501    0  0.00000000000E+00  0.00000000000E+00  0.34198340473E+03  0.34198340474E+03  0.25500000920E-02 0. -1.
       -2   -1    0    0    0  501  0.00000000000E+00  0.00000000000E+00 -0.18369269008E+03  0.18369269010E+03  0.25500000920E-02 0.  1.
    10030    2    1    2    0    0  0.00000000000E+00  0.00000000000E+00  0.15829071465E+03  0.52567609484E+03  0.50127777363E+03 0.  0.
        3    1    3    3  502    0 -0.10823398520E+03  0.87874503721E+02 -0.13927904622E+03  0.19706645294E+03  0.10100000352E+00 0.  1.
       -3    1    3    3    0  502  0.10823398520E+03 -0.87874503721E+02  0.29756976088E+03  0.32860964189E+03  0.10100000352E+00 0. -1.
</event>
<event>
 5   0  0.3117389E-01  0.4986945E+03  0.7818609E-02  0.1014120E+00
       -2   -1    0    0    0  501  0.00000000000E+00  0.00000000000E+00  0.66150211086E+02  0.66150211135E+02  0.25500000920E-02 0. -1.
        2   -1    0    0  501    0  0.00000000000E+00  0.00000000000E+00 -0.93989210102E+03  0.93989210103E+03  0.25500000920E-02 0.  1.
    10030    2    1    2    0    0  0.00000000000E+00  0.00000000000E+00 -0.87374188994E+03  0.10060423122E+04  0.49869453940E+03 0.  0.
        4    1    3    3  502    0 -0.64612012355E+02 -0.18096728630E+03 -0.75742412413E+03  0.78141972560E+03  0.12699999809E+01 0.  1.
       -4    1    3    3    0  502  0.64612012355E+02  0.18096728630E+03 -0.11631776581E+03  0.22462258656E+03  0.12699999809E+01 0. -1.
</event>
<event>
 5   0  0.2013450E-01  0.5739191E+03  0.7818609E-02  0.9961043E-01
        1   -1    0    0  501    0  0.00000000000E+00  0.00000000000E+00  0.42150822094E+03  0.42150822097E+03  0.50400001928E-02 0.  1.
       -1   -1    0    0    0  501  0.00000000000E+00  0.00000000000E+00 -0.19535987064E+03  0.19535987070E+03  0.50400001928E-02 0. -1.
    10030    2    1    2    0    0  0.00000000000E+00  0.00000000000E+00  0.22614835030E+03  0.61686809167E+03  0.57391912860E+03 0.  0.
        4    1    3    3  502    0  0.62674726926E+02  0.18241102405E+03 -0.11529281614E+03  0.22471303799E+03  0.12699999809E+01 0. -1.
       -4    1    3    3    0  502 -0.62674726926E+02 -0.18241102405E+03  0.34144116644E+03  0.39215505368E+03  0.12699999809E+01 0.  1.
</event>
<event>
 5   0  0.1984680E-01  0.5587318E+03  0.7818609E-02  0.9994928E-01
        1   -1    0    0  501    0  0.00000000000E+00  0.00000000000E+00  0.30017397468E+03  0.30017397472E+03  0.50400001928E-02 0.  1.
       -1   -1    0    0    0  501  0.00000000000E+00  0.00000000000E+00 -0.26000021227E+03  0.26000021232E+03  0.50400001928E-02 0. -1.
    10030    2    1    2    0    0  0.00000000000E+00  0.00000000000E+00  0.40173762412E+02  0.56017418704E+03  0.55873176806E+03 0.  0.
        5    1    3    3  502    0  0.19433752011E+03 -0.14497236959E+03 -0.11897645357E+03  0.27011395034E+03  0.46999998093E+01 0. -1.
       -5    1    3    3    0  502 -0.19433752011E+03  0.14497236959E+03  0.15915021598E+03  0.29006023670E+03  0.46999998093E+01 0.  1.
</event>
<event>
 5   0  0.3178149E-01  0.4985212E+03  0.7818609E-02  0.1014166E+00
       -2   -1    0    0    0  501  0.00000000000E+00  0.00000000000E+00  0.20029389508E+03  0.20029389509E+03  0.25500000920E-02 0. -1.
        2   -1    0    0  501    0  0.00000000000E+00  0.00000000000E+00 -0.31019846578E+03  0.31019846579E+03  0.25500000920E-02 0.  1.
    10030    2    1    2    0    0  0.00000000000E+00  0.00000000000E+00 -0.10990457070E+03  0.51049236088E+03  0.49852124915E+03 0.  0.
        3    1    3    3  502    0  0.18542865157E+03  0.13752286330E+03  0.41296930498E+02  0.23452456038E+03  0.10100000352E+00 0. -1.
       -3    1    3    3    0  502 -0.18542865157E+03 -0.13752286330E+03 -0.15120150120E+03  0.27596780050E+03  0.10100000352E+00 0.  1.
</event>
<event>
 5   0  0.2000612E-01  0.4585870E+03  0.7818609E-02  0.1025192E+00
        1   -1    0    0  501    0  0.00000000000E+00  0.00000000000E+00  0.34304379301E+03  0.34304379305E+03  0.50400001928E-02 0. -1.
       -1   -1    0    0    0  501  0.00000000000E+00  0.00000000000E+00 -0.15326178416E+03  0.15326178424E+03  0.50400001928E-02 0.  1.
    10030    2    1    2    0    0  0.00000000000E+00  0.00000000000E+00  0.18978200885E+03  0.49630557729E+03  0.45858697666E+03 0.  0.
        2    1    3    3  502    0 -0.17069726168E+03 -0.88867377261E+02 -0.40024065231E+02  0.19656269150E+03  0.25500000920E-02 0.  1.
       -2    1    3    3    0  502  0.17069726168E+03  0.88867377261E+02  0.22980607408E+03  0.29974288578E+03  0.25500000920E-02 0. -1.
</event>
<event>
 5   0  0.3178149E-01  0.5388280E+03  0.7818609E-02  0.1004113E+00
       -2   -1    0    0    0  501  0.00000000000E+00  0.00000000000E+00  0.11717153654E+03  0.11717153657E+03  0.25500000920E-02 0.  1.
        2   -1    0    0  501    0  0.00000000000E+00  0.00000000000E+00 -0.61946710581E+03  0.61946710582E+03  0.25500000920E-02 0. -1.
    10030    2    1    2    0    0  0.00000000000E+00  0.00000000000E+00 -0.50229556927E+03  0.73663864239E+03  0.53882803431E+03 0.  0.
        3    1    3    3  502    0  0.96892400688E+02 -0.24784567282E+03 -0.19365931290E+03  0.32911936212E+03  0.10100000352E+00 0.  1.
       -3    1    3    3    0  502 -0.96892400688E+02  0.24784567282E+03 -0.30863625637E+03  0.40751928027E+03  0.10100000352E+00 0. -1.
</event>
<event>
 5   0  0.1984680E-01  0.5190614E+03  0.7818609E-02  0.1008920E+00
        1   -1    0    0  501    0  0.00000000000E+00  0.00000000000E+00  0.15338657386E+04  0.15338657386E+04  0.50400001928E-02 0.  1.
       -1   -1    0    0    0  501  0.00000000000E+00  0.00000000000E+00 -0.43912700467E+02  0.43912700756E+02  0.50400001928E-02 0. -1.
    10030    2    1    2    0    0  0.00000000000E+00  0.00000000000E+00  0.14899530381E+04  0.15777784394E+04  0.51906141051E+03 0.  0.
        5    1    3    3  502    0 -0.11948424591E+03  0.20651622917E+03  0.10550928705E+04  0.10817432659E+04  0.46999998093E+01 0.  1.
       -5    1    3    3    0  502  0.11948424591E+03 -0.20651622917E+03  0.43486016766E+03  0.49603517349E+03  0.46999998093E+01 0. -1.
</event>
<event>
 5   0  0.2000612E-01  0.4976309E+03  0.7818609E-02  0.1014399E+00
       -1   -1    0    0    0  501  0.00000000000E+00  0.00000000000E+00  0.10609122853E+03  0.10609122865E+03  0.50400001928E-02 0. -1.
        1   -1    0    0  501    0  0.00000000000E+00  0.00000000000E+00 -0.58354621454E+03  0.58354621456E+03  0.50400001928E-02 0.  1.
    10030    2    1    2    0    0  0.00000000000E+00  0.00000000000E+00 -0.47745498601E+03  0.68963744320E+03  0.49763092690E+03 0.  0.
        2    1    3    3  502    0 -0.25481663820E+02 -0.46744170239E+02  0.98105487318E+02  0.11161997711E+03  0.25500000920E-02 0. -1.
       -2    1    3    3    0  502  0.25481663820E+02  0.46744170239E+02 -0.57556047333E+03  0.57801746609E+03  0.25500000920E-02 0.  1.
</event>
<event>
 5   0  0.3187123E-01  0.5007796E+03  0.7818609E-02  0.1013576E+00
        2   -1    0    0  501    0  0.00000000000E+00  0.00000000000E+00  0.13774720682E+03  0.13774720685E+03  0.25500000920E-02 0. -1.
       -2   -1    0    0    0  501  0.00000000000E+00  0.00000000000E+00 -0.45514572981E+03  0.45514572981E+03  0.25500000920E-02 0.  1.
    10030    2    1    2    0    0  0.00000000000E+00  0.00000000000E+00 -0.31739852298E+03  0.59289293666E+03  0.50077960417E+03 0.  0.
        5    1    3    3  502    0  0.91775951634E+02  0.15359967913E+03 -0.36599788945E+03  0.40742144250E+03  0.46999998093E+01 0.  1.
       -5    1    3    3    0  502 -0.91775951634E+02 -0.15359967913E+03  0.48599366468E+02  0.18547149416E+03  0.46999998093E+01 0. -1.
</event>
<event>
 5   0  0.1967161E-01  0.4943579E+03  0.7818609E-02  0.1015262E+00
       -1   -1    0    0    0  501  0.00000000000E+00  0.00000000000E+00  0.14912964082E+03  0.14912964091E+03  0.50400001928E-02 0. -1.
        1   -1    0    0  501    0  0.00000000000E+00  0.00000000000E+00 -0.40969344440E+03  0.40969344444E+03  0.50400001928E-02 0.  1.
    10030    2    1    2    0    0  0.00000000000E+00  0.00000000000E+00 -0.26056380358E+03  0.55882308534E+03  0.49435791182E+03 0.  0.
        1    1    3    3  502    0 -0.12447099403E+03  0.88611993377E+02 -0.34991848898E+03  0.38182203011E+03  0.50400001928E-02 0.  1.
       -1    1    3    3    0  502  0.12447099403E+03 -0.88611993377E+02  0.89354685399E+02  0.17700105523E+03  0.50400001928E-02 0. -1.
</event>
<event>
 5   0  0.1967161E-01  0.5115830E+03  0.7818609E-02  0.1010799E+00
       -1   -1    0    0    0  501  0.00000000000E+00  0.00000000000E+00  0.31291963305E+03  0.31291963309E+03  0.50400001928E-02 0. -1.
        1   -1    0    0  501    0  0.00000000000E+00  0.00000000000E+00 -0.20909298459E+03  0.20909298465E+03  0.50400001928E-02 0.  1.
    10030    2    1    2    0    0  0.00000000000E+00  0.00000000000E+00  0.10382664846E+03  0.52201261774E+03  0.51158303349E+03 0.  0.
        1    1    3    3  502    0 -0.17500070003E+03 -0.91757852533E+02 -0.11383140477E+03  0.22804020972E+03  0.50400001928E-02 0.  1.
       -1    1    3    3    0  502  0.17500070003E+03  0.91757852533E+02  0.21765805324E+03  0.29397240802E+03  0.50400001928E-02 0. -1.
</event>
<event>
 5   0  0.3178149E-01  0.5135937E+03  0.7818609E-02  0.1010290E+00
        2   -1    0    0  501    0  0.00000000000E+00  0.00000000000E+00  0.37705327533E+03  0.37705327534E+03  0.25500000920E-02 0.  1.
       -2   -1    0    0    0  501  0.00000000000E+00  0.00000000000E+00 -0.17489473214E+03  0.17489473216E+03  0.25500000920E-02 0. -1.
    10030    2    1    2    0    0  0.00000000000E+00  0.00000000000E+00  0.20215854319E+03  0.55194800750E+03  0.51359373672E+03 0.  0.
        3    1    3    3  502    0  0.16735897727E+03  0.71087331971E+02  0.29595546493E+03  0.34735008775E+03  0.10100000352E+00 0.  1.
       -3    1    3    3    0  502 -0.16735897727E+03 -0.71087331971E+02 -0.93796921734E+02  0.20459791975E+03  0.10100000352E+00 0. -1.
</event>
<event>
 5   0  0.2000612E-01  0.4976842E+03  0.7818609E-02  0.1014385E+00
        1   -1    0    0  501    0  0.00000000000E+00  0.00000000000E+00  0.65030813472E+02  0.65030813667E+02  0.50400001928E-02 0. -1.
       -1   -1    0    0    0  501  0.00000000000E+00  0.00000000000E+00 -0.95220082908E+03  0.95220082909E+03  0.50400001928E-02 0.  1.
    10030    2    1    2    0    0  0.00000000000E+00  0.00000000000E+00 -0.88717001561E+03  0.10172316428E+04  0.49768421558E+03 0.  0.
        2    1    3    3  502    0 -0.19476464099E+03 -0.75793515656E+02 -0.71966291004E+03  0.74939484018E+03  0.25500000920E-02 0.  1.
       -2    1    3    3    0  502  0.19476464099E+03  0.75793515656E+02 -0.16750710556E+03  0.26783680258E+03  0.25500000920E-02 0. -1.
</event>
<event>
 5   0  0.1967161E-01  0.4950209E+03  0.7818609E-02  0.1015087E+00
       -1   -1    0    0    0  501  0.00000000000E+00  0.00000000000E+00  0.11637921092E+03  0.11637921103E+03  0.50400001928E-02 0.  1.
        1   -1    0    0  501    0  0.00000000000E+00  0.00000000000E+00 -0.52639482648E+03  0.52639482651E+03  0.50400001928E-02 0. -1.
    10030    2    1    2    0    0  0.00000000000E+00  0.00000000000E+00 -0.41001561556E+03  0.64277403754E+03  0.49502086656E+03 0.  0.
        1    1    3    3  502    0 -0.17570555881E+03  0.19295553179E+02 -0.42997332346E+03  0.46488904126E+03  0.50400001928E-02 0. -1.
       -1    1    3    3    0  502  0.17570555881E+03 -0.19295553179E+02  0.19957707905E+02  0.17788499628E+03  0.50400001928E-02 0.  1.
</event>
<event>
 5   0  0.3187123E-01  0.4540453E+03  0.7818609E-02  0.1026523E+00
       -2   -1    0    0    0  501  0.00000000000E+00  0.00000000000E+00  0.38121837471E+02  0.38121837557E+02  0.25500000920E-02 0. -1.
        2   -1    0    0  501    0  0.00000000000E+00  0.00000000000E+00 -0.13519624812E+04  0.13519624812E+04  0.25500000920E-02 0.  1.
    10030    2    1    2    0    0  0.00000000000E+00  0.00000000000E+00 -0.13138406438E+04  0.13900843188E+04  0.45404534592E+03 0.  0.
        5    1    3    3  502    0 -0.39724809103E+02  0.13646635587E+03 -0.11513704707E+03  0.18297474238E+03  0.46999998093E+01 0. -1.
       -5    1    3    3    0  502  0.39724809103E+02 -0.13646635587E+03 -0.11987035967E+04  0.12071095764E+04  0.46999998093E+01 0.  1.
</event>
<event>
 5   0  0.1984680E-01  0.5030192E+03  0.7818609E-02  0.1012994E+00
        1   -1    0    0  501    0  0.00000000000E+00  0.00000000000E+00  0.19200811632E+03  0.19200811639E+03  0.50400001928E-02 0. -1.
       -1   -1    0    0    0  501  0.00000000000E+00  0.00000000000E+00 -0.32944996670E+03  0.32944996674E+03  0.50400001928E-02 0.  1.
    10030    2    1    2    0    0  0.00000000000E+00  0.00000000000E+00 -0.13744185038E+03  0.52145808312E+03  0.50301915492E+03 0.  0.
        5    1    3    3  502    0 -0.14244340158E+03 -0.66072706599E+02  0.13489501971E+03  0.20706154049E+03  0.46999998093E+01 0. -1.
       -5    1    3    3    0  502  0.14244340158E+03  0.66072706599E+02 -0.27233687009E+03  0.31439654263E+03  0.46999998093E+01 0.  1.
</event>
<event>
 5   0  0.3178149E-01  0.6463110E+03  0.7818609E-02  0.9813726E-01
        2   -1    0    0  501    0  0.00000000000E+00  0.00000000000E+00  0.64871450286E+03  0.64871450286E+03  0.25500000920E-02 0. -1.
       -2   -1    0    0    0  501  0.00000000000E+00  0.00000000000E+00 -0.16097911378E+03  0.16097911380E+03  0.25500000920E-02 0.  1.
    10030    2    1    2    0    0  0.00000000000E+00  0.00000000000E+00  0.48773538908E+03  0.80969361667E+03  0.64631102661E+03 0.  0.
        3    1    3    3  502    0 -0.12464938324E+03 -0.50221696405E+02 -0.12431220677E+03  0.18306616969E+03  0.10100000352E+00 0.  1.
       -3    1    3    3    0  502  0.12464938324E+03  0.50221696405E+02  0.61204759584E+03  0.62662744698E+03  0.10100000352E+00 0. -1.
</event>
<event>
 5   0  0.2000612E-01  0.4979140E+03  0.7818609E-02  0.1014325E+00
       -1   -1    0    0    0  501  0.00000000000E+00  0.00000000000E+00  0.41128089562E+03  0.41128089565E+03  0.50400001928E-02 0.  1.
        1   -1    0    0  501    0  0.00000000000E+00  0.00000000000E+00 -0.15069892109E+03  0.15069892118E+03  0.50400001928E-02 0. -1.
    10030    2    1    2    0    0  0.00000000000E+00  0.00000000000E+00  0.26058197453E+03  0.56197981683E+03  0.49791399767E+03 0.  0.
        2    1    3    3  502    0 -0.18549734313E+03 -0.87810303599E+02 -0.28765883985E+02  0.20723752028E+03  0.25500000920E-02 0. -1.
       -2    1    3    3    0  502  0.18549734313E+03  0.87810303599E+02  0.28934785852E+03  0.35474229655E+03  0.25500000920E-02 0.  1.
</event>
<event>
 5   0  0.2000612E-01  0.4971188E+03  0.7818609E-02  0.1014534E+00
       -1   -1    0    0    0  501  0.00000000000E+00  0.00000000000E+00  0.51085258084E+03  0.51085258087E+03  0.50400001928E-02 0. -1.
        1   -1    0    0  501    0  0.00000000000E+00  0.00000000000E+00 -0.12093856942E+03  0.12093856953E+03  0.50400001928E-02 0.  1.
    10030    2    1    2    0    0  0.00000000000E+00  0.00000000000E+00  0.38991401142E+03  0.63179115039E+03  0.49711882022E+03 0.  0.
        2    1    3    3  502    0 -0.21450045652E+03  0.67024496830E+02  0.32993085064E+03  0.39919556014E+03  0.25500000920E-02 0. -1.
       -2    1    3    3    0  502  0.21450045652E+03 -0.67024496830E+02  0.59983160788E+02  0.23259559026E+03  0.25500000920E-02 0.  1.
</event>
<event>
 5   0  0.2013450E-01  0.5069278E+03  0.7818609E-02  0.1011986E+00
        1   -1    0    0  501    0  0.00000000000E+00  0.00000000000E+00  0.56194455605E+03  0.56194455607E+03  0.50400001928E-02 0.  1.
       -1   -1    0    0    0  501  0.00000000000E+00  0.00000000000E+00 -0.11432433603E+03  0.11432433614E+03  0.50400001928E-02 0. -1.
    10030    2    1    2    0    0  0.00000000000E+00  0.00000000000E+00  0.44762022002E+03  0.67626889221E+03  0.50692775934E+03 0.  0.
        4    1    3    3  502    0 -0.16607200772E+03  0.67822448863E+02 -0.15065728781E+02  0.18002329128E+03  0.12699999809E+01 0. -1.
       -4    1    3    3    0  502  0.16607200772E+03 -0.67822448863E+02  0.46268594880E+03  0.49624560093E+03  0.12699999809E+01 0.  1.
</event>
<event>
 5   0  0.2013450E-01  0.5036856E+03  0.7818609E-02  0.1012821E+00
        1   -1    0    0  501    0  0.00000000000E+00  0.00000000000E+00  0.43865438872E+03  0.43865438875E+03  0.50400001928E-02 0. -1.
       -1   -1    0    0    0  501  0.00000000000E+00  0.00000000000E+00 -0.14458942893E+03  0.14458942901E+03  0.50400001928E-02 0.  1.
    10030    2    1    2    0    0  0.00000000000E+00  0.00000000000E+00  0.29406495979E+03  0.58324381776E+03  0.50368556698E+03 0.  0.
        4    1    3    3  502    0 -0.15076264666E+03 -0.12714406245E+03  0.32838490065E+03  0.38305775560E+03  0.12699999809E+01 0. -1.
       -4    1    3    3    0  502  0.15076264666E+03  0.12714406245E+03 -0.34319940858E+02  0.20018606217E+03  0.12699999809E+01 0.  1.
</event>
<event>
 5   0  0.3329246E-01  0.4950484E+03  0.7818609E-02  0.1015079E+00
       -2   -1    0    0    0  501  0.00000000000E+00  0.00000000000E+00  0.58063864433E+02  0.58063864489E+02  0.25500000920E-02 0. -1.
        2   -1    0    0  501    0  0.00000000000E+00  0.00000000000E+00 -0.10551870359E+04  0.10551870359E+04  0.25500000920E-02 0.  1.
    10030    2    1    2    0    0  0.00000000000E+00  0.00000000000E+00 -0.99712317142E+03  0.11132509003E+04  0.49504843009E+03 0.  0.
        2    1    3    3  502    0 -0.32904439216E+02 -0.13432254146E+03 -0.36916689236E+02  0.14313661033E+03  0.25500000920E-02 0. -1.
       -2    1    3    3    0  502  0.32904439216E+02  0.13432254146E+03 -0.96020648219E+03  0.97011429002E+03  0.25500000920E-02 0.  1.
</event>
<event>
 5   0  0.3111146E-01  0.4844087E+03  0.7818609E-02  0.1017931E+00
        2   -1    0    0  501    0  0.00000000000E+00  0.00000000000E+00  0.82696185345E+03  0.82696185345E+03  0.25500000920E-02 0.  1.
       -2   -1    0    0    0  501  0.00000000000E+00  0.00000000000E+00 -0.70937924450E+02  0.70937924496E+02  0.25500000920E-02 0. -1.
    10030    2    1    2    0    0  0.00000000000E+00  0.00000000000E+00  0.75602392900E+03  0.89789977795E+03  0.48440874272E+03 0.  0.
        1    1    3    3  502    0  0.63928244178E+02  0.14934034319E+02 -0.54131647449E+02  0.85088665906E+02  0.50400001928E-02 0. -1.
       -1    1    3    3    0  502 -0.63928244178E+02 -0.14934034319E+02  0.81015557645E+03  0.81281111204E+03  0.50400001928E-02 0.  1.
</event>
<event>
 5   0  0.3178149E-01  0.5056042E+03  0.7818609E-02  0.1012326E+00
        2   -1    0    0  501    0  0.00000000000E+00  0.00000000000E+00  0.14878210239E+04  0.14878210239E+04  0.25500000920E-02 0. -1.
       -2   -1    0    0    0  501  0.00000000000E+00  0.00000000000E+00 -0.42954695724E+02  0.42954695800E+02  0.25500000920E-02 0.  1.
    10030    2    1    2    0    0  0.00000000000E+00  0.00000000000E+00  0.14448663282E+04  0.15307757197E+04  0.50560419078E+03 0.  0.
        3    1    3    3  502    0  0.22468591634E+03 -0.75370345009E+02  0.98887099592E+03  0.10168728075E+04  0.10100000352E+00 0. -1.
       -3    1    3    3    0  502 -0.22468591634E+03  0.75370345009E+02  0.45599533229E+03  0.51390291222E+03  0.10100000352E+00 0.  1.
</event>
<event>
 5   0  0.3111146E-01  0.4970226E+03  0.7818609E-02  0.1014559E+00
        2   -1    0    0  501    0  0.00000000000E+00  0.00000000000E+00  0.50782509836E+03  0.50782509837E+03  0.25500000920E-02 0. -1.
       -2   -1    0    0    0  501  0.00000000000E+00  0.00000000000E+00 -0.12161245601E+03  0.12161245604E+03  0.25500000920E-02 0.  1.
    10030    2    1    2    0    0  0.00000000000E+00  0.00000000000E+00  0.38621264235E+03  0.62943755441E+03  0.49702256467E+03 0.  0.
        1    1    3    3  502    0  0.60645325072E+02 -0.24071535465E+03  0.17833097974E+03  0.30565286810E+03  0.50400001928E-02 0. -1.
       -1    1    3    3    0  502 -0.60645325072E+02  0.24071535465E+03  0.20788166261E+03  0.32378468631E+03  0.50400001928E-02 0.  1.
</event>
<event>
 5   0  0.3117389E-01  0.4948202E+03  0.7818609E-02  0.1015140E+00
        2   -1    0    0  501    0  0.00000000000E+00  0.00000000000E+00  0.92795100990E+03  0.92795100991E+03  0.25500000920E-02 0.  1.
       -2   -1    0    0    0  501  0.00000000000E+00  0.00000000000E+00 -0.65964420467E+02  0.65964420516E+02  0.25500000920E-02 0. -1.
    10030    2    1    2    0    0  0.00000000000E+00  0.00000000000E+00  0.86198658944E+03  0.99391543042E+03  0.49482017184E+03 0.  0.
        4    1    3    3  502    0  0.10303849604E+03 -0.22450664176E+03  0.40330801236E+03  0.47294727993E+03  0.12699999809E+01 0.  1.
       -4    1    3    3    0  502 -0.10303849604E+03  0.22450664176E+03  0.45867857707E+03  0.52096815049E+03  0.12699999809E+01 0. -1.
</event>
<event>
 5   0  0.1984297E-01  0.4917473E+03  0.7818609E-02  0.1015956E+00
        1   -1    0    0  501    0  0.00000000000E+00  0.00000000000E+00  0.58977229218E+02  0.58977229433E+02  0.50400001928E-02 0. -1.
       -1   -1    0    0    0  501  0.00000000000E+00  0.00000000000E+00 -0.10250371667E+04  0.10250371667E+04  0.50400001928E-02 0.  1.
    10030    2    1    2    0    0  0.00000000000E+00  0.00000000000E+00 -0.96605993746E+03  0.10840143961E+04  0.49174730120E+03 0.  0.
        3    1    3    3  502    0 -0.11336010186E+03  0.89282477094E+01 -0.24697664772E+01  0.11373801585E+03  0.10100000352E+00 0. -1.
       -3    1    3    3    0  502  0.11336010186E+03 -0.89282477094E+01 -0.96359017098E+03  0.97027638027E+03  0.10100000352E+00 0.  1.
</event>
<event>
 5   0  0.1967161E-01  0.5091913E+03  0.7818609E-02  0.1011407E+00
       -1   -1    0    0    0  501  0.00000000000E+00  0.00000000000E+00  0.81766625568E+02  0.81766625723E+02  0.50400001928E-02 0. -1.
        1   -1    0    0  501    0  0.00000000000E+00  0.00000000000E+00 -0.79273111079E+03  0.79273111081E+03  0.50400001928E-02 0.  1.
    10030    2    1    2    0    0  0.00000000000E+00  0.00000000000E+00 -0.71096448522E+03  0.87449773653E+03  0.50919131174E+03 0.  0.
        1    1    3    3  502    0  0.90860461830E+02  0.13267576376E+03 -0.69447449861E+03  0.71284872943E+03  0.50400001928E-02 0.  1.
       -1    1    3    3    0  502 -0.90860461830E+02 -0.13267576376E+03 -0.16489986618E+02  0.16164900710E+03  0.50400001928E-02 0. -1.
</event>
<event>
 5   0  0.1984680E-01  0.5038680E+03  0.7818609E-02  0.1012774E+00
       -1   -1    0    0    0  501  0.00000000000E+00  0.00000000000E+00  0.23155797729E+03  0.23155797734E+03  0.50400001928E-02 0.  1.
        1   -1    0    0  501    0  0.00000000000E+00  0.00000000000E+00 -0.27410300423E+03  0.27410300427E+03  0.50400001928E-02 0. -1.
    10030    2    1    2    0    0  0.00000000000E+00  0.00000000000E+00 -0.42545026939E+02  0.50566098161E+03  0.50386798768E+03 0.  0.
        5    1    3    3  502    0  0.17131276947E+03 -0.62082334935E+02 -0.19580620623E+03  0.26751531113E+03  0.46999998093E+01 0. -1.
       -5    1    3    3    0  502 -0.17131276947E+03  0.62082334935E+02  0.15326117929E+03  0.23814567048E+03  0.46999998093E+01 0.  1.
</event>
<event>
 5   0  0.2013450E-01  0.4900912E+03  0.7818609E-02  0.1016398E+00
       -1   -1    0    0    0  501  0.00000000000E+00  0.00000000000E+00  0.37408811132E+02  0.37408811471E+02  0.50400001928E-02 0.  1.
        1   -1    0    0  501    0  0.00000000000E+00  0.00000000000E+00 -0.16051659926E+04  0.16051659926E+04  0.50400001928E-02 0. -1.
    10030    2    1    2    0    0  0.00000000000E+00  0.00000000000E+00 -0.15677571814E+04  0.16425748040E+04  0.49009122308E+03 0.  0.
        4    1    3    3  502    0 -0.18177878309E+03 -0.16165759923E+03 -0.88268076049E+03  0.91558923279E+03  0.12699999809E+01 0. -1.
       -4    1    3    3    0  502  0.18177878309E+03  0.16165759923E+03 -0.68507642094E+03  0.72698557124E+03  0.12699999809E+01 0.  1.
</event>
<event>
 5   0  0.2013450E-01  0.4941755E+03  0.7818609E-02  0.1015310E+00
       -1   -1    0    0    0  501  0.00000000000E+00  0.00000000000E+00  0.19773903869E+03  0.19773903876E+03  0.50400001928E-02 0.  1.
        1   -1    0    0  501    0  0.00000000000E+00  0.00000000000E+00 -0.30875219226E+03  0.30875219230E+03  0.50400001928E-02 0. -1.
    10030    2    1    2    0    0  0.00000000000E+00  0.00000000000E+00 -0.11101315356E+03  0.50649123105E+03  0.49417552233E+03 0.  0.
        4    1    3    3  502    0  0.13936568374E+03  0.20153336007E+03 -0.22897635869E+02  0.24609836175E+03  0.12699999809E+01 0. -1.
       -4    1    3    3    0  502 -0.13936568374E+03 -0.20153336007E+03 -0.88115517693E+02  0.26039286931E+03  0.12699999809E+01 0.  1.
</event>
<event>
 5   0  0.1984297E-01  0.4761455E+03  0.7818609E-02  0.1020200E+00
        1   -1    0    0  501    0  0.00000000000E+00  0.00000000000E+00  0.22559429147E+03  0.22559429153E+03  0.50400001928E-02 0. -1.
       -1   -1    0    0    0  501  0.00000000000E+00  0.00000000000E+00 -0.25124148008E+03  0.25124148013E+03  0.50400001928E-02 0.  1.
    10030    2    1    2    0    0  0.00000000000E+00  0.00000000000E+00 -0.25647188605E+02  0.47683577165E+03  0.47614553956E+03 0.  0.
        3    1    3    3  502    0 -0.21402371930E+03 -0.10391980439E+03 -0.21389082740E+02  0.23887859098E+03  0.10100000352E+00 0. -1.
       -3    1    3    3    0  502  0.21402371930E+03  0.10391980439E+03 -0.42581058650E+01  0.23795718067E+03  0.10100000352E+00 0.  1.
</event>
<event>
 5   0  0.3117389E-01  0.5440456E+03  0.7818609E-02  0.1002882E+00
       -2   -1    0    0    0  501  0.00000000000E+00  0.00000000000E+00  0.31551983222E+03  0.31551983223E+03  0.25500000920E-02 0. -1.
        2   -1    0    0  501    0  0.00000000000E+00  0.00000000000E+00 -0.23452215244E+03  0.23452215245E+03  0.25500000920E-02 0.  1.
    10030    2    1    2    0    0  0.00000000000E+00  0.00000000000E+00  0.80997679783E+02  0.55004198468E+03  0.54404555028E+03 0.  0.
        4    1    3    3  502    0 -0.85597564843E+02 -0.25734329653E+03  0.61760655727E+02  0.27815194925E+03  0.12699999809E+01 0.  1.
       -4    1    3    3    0  502  0.85597564843E+02  0.25734329653E+03  0.19237024056E+02  0.27189003543E+03  0.12699999809E+01 0. -1.
</event>
<event>
 5   0  0.2000612E-01  0.5210873E+03  0.7818609E-02  0.1008417E+00
       -1   -1    0    0    0  501  0.00000000000E+00  0.00000000000E+00  0.19333243673E+03  0.19333243680E+03  0.50400001928E-02 0.  1.
        1   -1    0    0  501    0  0.00000000000E+00  0.00000000000E+00 -0.35112060393E+03  0.35112060397E+03  0.50400001928E-02 0. -1.
    10030    2    1    2    0    0  0.00000000000E+00  0.00000000000E+00 -0.15778816720E+03  0.54445304077E+03  0.52108733231E+03 0.  0.
        2    1    3    3  502    0 -0.39288092414E+02 -0.19956915086E+03 -0.24901898874E+03  0.32153049147E+03  0.25500000920E-02 0. -1.
       -2    1    3    3    0  502  0.39288092414E+02  0.19956915086E+03  0.91230821542E+02  0.22292254930E+03  0.25500000920E-02 0.  1.
</event>
<event>
 5   0  0.1984297E-01  0.3620869E+03  0.7818609E-02  0.1057761E+00
       -1   -1    0    0    0  501  0.00000000000E+00  0.00000000000E+00  0.44053223898E+02  0.44053224186E+02  0.50400001928E-02 0.  1.
        1   -1    0    0  501    0  0.00000000000E+00  0.00000000000E+00 -0.74402563977E+03  0.74402563979E+03  0.50400001928E-02 0. -1.
    10030    2    1    2    0    0  0.00000000000E+00  0.00000000000E+00 -0.69997241588E+03  0.78807886398E+03  0.36208688579E+03 0.  0.
        3    1    3    3  502    0 -0.60981242482E+02  0.16250021784E+03 -0.23790885289E+03  0.29449221589E+03  0.10100000352E+00 0.  1.
       -3    1    3    3    0  502  0.60981242482E+02 -0.16250021784E+03 -0.46206356298E+03  0.49358664809E+03  0.10100000352E+00 0. -1.
</event>
<event>
 5   0  0.3187123E-01  0.4705228E+03  0.7818609E-02  0.1021773E+00
       -2   -1    0    0    0  501  0.00000000000E+00  0.00000000000E+00  0.77781782890E+02  0.77781782932E+02  0.25500000920E-02 0.  1.
        2   -1    0    0  501    0  0.00000000000E+00  0.00000000000E+00 -0.71157969934E+03  0.71157969934E+03  0.25500000920E-02 0. -1.
    10030    2    1    2    0    0  0.00000000000E+00  0.00000000000E+00 -0.63379791645E+03  0.78936148228E+03  0.47052284833E+03 0.  0.
        5    1    3    3  502    0  0.87883350021E+02  0.94613671874E+02 -0.64671625834E+03  0.65949923344E+03  0.46999998093E+01 0. -1.
       -5    1    3    3    0  502 -0.87883350021E+02 -0.94613671874E+02  0.12918341888E+02  0.12986224883E+03  0.46999998093E+01 0.  1.
</event>
<event>
 5   0  0.2000612E-01  0.5019897E+03  0.7818609E-02  0.1013261E+00
       -1   -1    0    0    0  501  0.00000000000E+00  0.00000000000E+00  0.13016149991E+03  0.13016150001E+03  0.50400001928E-02 0. -1.
        1   -1    0    0  501    0  0.00000000000E+00  0.00000000000E+00 -0.48400189862E+03  0.48400189865E+03  0.50400001928E-02 0.  1.
    10030    2    1    2    0    0  0.00000000000E+00  0.00000000000E+00 -0.35384039871E+03  0.61416339866E+03  0.50198969361E+03 0.  0.
        2    1    3    3  502    0 -0.50443916576E+02  0.19548382354E+03  0.55347029710E+01  0.20196323162E+03  0.25500000920E-02 0. -1.
       -2    1    3    3    0  502  0.50443916576E+02 -0.19548382354E+03 -0.35937510169E+03  0.41220016703E+03  0.25500000920E-02 0.  1.
</event>
<event>
 5   0  0.1984297E-01  0.4981810E+03  0.7818609E-02  0.1014255E+00
       -1   -1    0    0    0  501  0.00000000000E+00  0.00000000000E+00  0.21272415861E+03  0.21272415867E+03  0.50400001928E-02 0. -1.
        1   -1    0    0  501    0  0.00000000000E+00  0.00000000000E+00 -0.29167381065E+03  0.29167381069E+03  0.50400001928E-02 0.  1.
    10030    2    1    2    0    0  0.00000000000E+00  0.00000000000E+00 -0.78949652038E+02  0.50439796936E+03  0.49818095501E+03 0.  0.
        3    1    3    3  502    0  0.84370354583E+01 -0.23602478334E+03  0.40678598145E+02  0.23965316703E+03  0.10100000352E+00 0.  1.
       -3    1    3    3    0  502 -0.84370354583E+01  0.23602478334E+03 -0.11962825018E+03  0.26474480233E+03  0.10100000352E+00 0. -1.
</event>
<event>
 5   0  0.1984680E-01  0.3364707E+03  0.7818609E-02  0.1068309E+00
        1   -1    0    0  501    0  0.00000000000E+00  0.00000000000E+00  0.81676368219E+03  0.81676368220E+03  0.50400001928E-02 0. -1.
       -1   -1    0    0    0  501  0.00000000000E+00  0.00000000000E+00 -0.34652776788E+02  0.34652777154E+02  0.50400001928E-02 0.  1.
    10030    2    1    2    0    0  0.00000000000E+00  0.00000000000E+00  0.78211090540E+03  0.85141645936E+03  0.33647068062E+03 0.  0.
        5    1    3    3  502    0  0.83293975987E+02 -0.14609238227E+03  0.39001477567E+03  0.42475226407E+03  0.46999998093E+01 0. -1.
       -5    1    3    3    0  502 -0.83293975987E+02  0.14609238227E+03  0.39209612973E+03  0.42666419529E+03  0.46999998093E+01 0.  1.
</event>
<event>
 5   0  0.1292375E-01  0.5051179E+03  0.7818609E-02  0.1012452E+00
       -3   -1    0    0    0  501  0.00000000000E+00  0.00000000000E+00  0.20199290157E+04  0.20199290182E+04  0.10100000352E+00 0. -1.
        3   -1    0    0  501    0  0.00000000000E+00  0.00000000000E+00 -0.31578263331E+02  0.31578424850E+02  0.10100000352E+00 0.  1.
    10030    2    1    2    0    0  0.00000000000E+00  0.00000000000E+00  0.19883507524E+04  0.20515074431E+04  0.50511788183E+03 0.  0.
        5    1    3    3  502    0 -0.10867921276E+03 -0.13193750531E+03  0.17490494963E+04  0.17573886614E+04  0.46999998093E+01 0. -1.
       -5    1    3    3    0  502  0.10867921276E+03  0.13193750531E+03  0.23930125604E+03  0.29411878168E+03  0.46999998093E+01 0.  1.
</event>
<event>
 5   0  0.3329246E-01  0.5160197E+03  0.7818609E-02  0.1009680E+00
       -2   -1    0    0    0  501  0.00000000000E+00  0.00000000000E+00  0.62594394971E+02  0.62594395022E+02  0.25500000920E-02 0.  1.
        2   -1    0    0  501    0  0.00000000000E+00  0.00000000000E+00 -0.10634990112E+04  0.10634990112E+04  0.25500000920E-02 0. -1.
    10030    2    1    2    0    0  0.00000000000E+00  0.00000000000E+00 -0.10009046163E+04  0.11260934062E+04  0.51601967866E+03 0.  0.
        2    1    3    3  502    0  0.18077916023E+03 -0.12462897423E+03 -0.20479246653E+03  0.30025562500E+03  0.25500000920E-02 0.  1.
       -2    1    3    3    0  502 -0.18077916023E+03  0.12462897423E+03 -0.79611214972E+03  0.82583778125E+03  0.25500000920E-02 0. -1.
</event>
<event>
 5   0  0.3329246E-01  0.7251951E+03  0.7818609E-02  0.9675090E-01
        2   -1    0    0  501    0  0.00000000000E+00  0.00000000000E+00  0.15660033133E+04  0.15660033133E+04  0.25500000920E-02 0.  1.
       -2   -1    0    0    0  501  0.00000000000E+00  0.00000000000E+00 -0.83957027889E+02  0.83957027927E+02  0.25500000920E-02 0. -1.
    10030    2    1    2    0    0  0.00000000000E+00  0.00000000000E+00  0.14820462854E+04  0.16499603412E+04  0.72519510170E+03 0.  0.
        2    1    3    3  502    0  0.66029460947E+02  0.35238769249E+03  0.86438841598E+03  0.93579074007E+03  0.25500000920E-02 0.  1.
       -2    1    3    3    0  502 -0.66029460947E+02 -0.35238769249E+03  0.61765786942E+03  0.71416960114E+03  0.25500000920E-02 0. -1.
</event>
<event>
 5   0  0.3187123E-01  0.5892265E+03  0.7818609E-02  0.9928013E-01
        2   -1    0    0  501    0  0.00000000000E+00  0.00000000000E+00  0.19534979587E+03  0.19534979589E+03  0.25500000920E-02 0.  1.
       -2   -1    0    0    0  501  0.00000000000E+00  0.00000000000E+00 -0.44431560953E+03  0.44431560954E+03  0.25500000920E-02 0. -1.
    10030    2    1    2    0    0  0.00000000000E+00  0.00000000000E+00 -0.24896581366E+03  0.63966540542E+03  0.58922648831E+03 0.  0.
        5    1    3    3  502    0 -0.26167754754E+02  0.26049351659E+03 -0.27107233331E+03  0.37688714950E+03  0.46999998093E+01 0. -1.
       -5    1    3    3    0  502  0.26167754754E+02 -0.26049351659E+03  0.22106519651E+02  0.26277825592E+03  0.46999998093E+01 0.  1.
</event>
<event>
 5   0  0.3117389E-01  0.5103060E+03  0.7818609E-02  0.1011123E+00
        2   -1    0    0  501    0  0.00000000000E+00  0.00000000000E+00  0.14381183854E+04  0.14381183854E+04  0.25500000920E-02 0.  1.
       -2   -1    0    0    0  501  0.00000000000E+00  0.00000000000E+00 -0.45269612610E+02  0.45269612682E+02  0.25500000920E-02 0. -1.
    10030    2    1    2    0    0  0.00000000000E+00  0.00000000000E+00  0.13928487728E+04  0.14833879981E+04  0.51030603464E+03 0.  0.
        4    1    3    3  502    0  0.59209233967E+02  0.18741386391E+03  0.22347413394E+03  0.29761046892E+03  0.12699999809E+01 0. -1.
       -4    1    3    3    0  502 -0.59209233967E+02 -0.18741386391E+03  0.11693746388E+04  0.11857775291E+04  0.12699999809E+01 0.  1.
</event>
<event>
 5   0  0.1967161E-01  0.4967531E+03  0.7818609E-02  0.1014630E+00
       -1   -1    0    0    0  501  0.00000000000E+00  0.00000000000E+00  0.47085199297E+02  0.47085199567E+02  0.50400001928E-02 0.  1.
        1   -1    0    0  501    0  0.00000000000E+00  0.00000000000E+00 -0.13101975455E+04  0.13101975455E+04  0.50400001928E-02 0. -1.
    10030    2    1    2    0    0  0.00000000000E+00  0.00000000000E+00 -0.12631123462E+04  0.13572827450E+04  0.49675310864E+03 0.  0.
        1    1    3    3  502    0  0.24203334372E+03  0.38550597508E+02 -0.74168632965E+03  0.78113052664E+03  0.50400001928E-02 0. -1.
       -1    1    3    3    0  502 -0.24203334372E+03 -0.38550597508E+02 -0.52142601652E+03  0.57615221840E+03  0.50400001928E-02 0.  1.
</event>
<event>
 5   0  0.3117389E-01  0.4994662E+03  0.7818609E-02  0.1013918E+00
       -2   -1    0    0    0  501  0.00000000000E+00  0.00000000000E+00  0.53774312956E+02  0.53774313017E+02  0.25500000920E-02 0.  1.
        2   -1    0    0  501    0  0.00000000000E+00  0.00000000000E+00 -0.11597847376E+04  0.11597847376E+04  0.25500000920E-02 0. -1.
    10030    2    1    2    0    0  0.00000000000E+00  0.00000000000E+00 -0.11060104247E+04  0.12135590507E+04  0.49946622501E+03 0.  0.
        4    1    3    3  502    0  0.17446851965E+03 -0.68025147182E+02 -0.95444722779E+03  0.97264474940E+03  0.12699999809E+01 0.  1.
       -4    1    3    3    0  502 -0.17446851965E+03  0.68025147182E+02 -0.15156319689E+03  0.24091430125E+03  0.12699999809E+01 0. -1.
</event>
<event>
 5   0  0.2013450E-01  0.5066633E+03  0.7818609E-02  0.1012054E+00
       -1   -1    0    0    0  501  0.00000000000E+00  0.00000000000E+00  0.20288769661E+03  0.20288769667E+03  0.50400001928E-02 0. -1.
        1   -1    0    0  501    0  0.00000000000E+00  0.00000000000E+00 -0.31631747356E+03  0.31631747360E+03  0.50400001928E-02 0.  1.
    10030    2    1    2    0    0  0.00000000000E+00  0.00000000000E+00 -0.11342977695E+03  0.51920517028E+03  0.50666329504E+03 0.  0.
        4    1    3    3  502    0 -0.10044892878E+03 -0.64247708670E+02  0.17232976286E+03  0.20956363098E+03  0.12699999809E+01 0. -1.
       -4    1    3    3    0  502  0.10044892878E+03  0.64247708670E+02 -0.28575953982E+03  0.30964153930E+03  0.12699999809E+01 0.  1.
</event>
<event>
 5   0  0.3111146E-01  0.5367328E+03  0.7818609E-02  0.1004612E+00
        2   -1    0    0  501    0  0.00000000000E+00  0.00000000000E+00  0.48277233108E+03  0.48277233109E+03  0.25500000920E-02 0.  1.
       -2   -1    0    0    0  501  0.00000000000E+00  0.00000000000E+00 -0.14918113339E+03  0.14918113341E+03  0.25500000920E-02 0. -1.
    10030    2    1    2    0    0  0.00000000000E+00  0.00000000000E+00  0.33359119769E+03  0.63195346449E+03  0.53673279582E+03 0.  0.
        1    1    3    3  502    0  0.19097120000E+03  0.18499284374E+03  0.12388603180E+03  0.29332592856E+03  0.50400001928E-02 0. -1.
       -1    1    3    3    0  502 -0.19097120000E+03 -0.18499284374E+03  0.20970516589E+03  0.33862753593E+03  0.50400001928E-02 0.  1.
</event>
<event>
 5   0  0.1984297E-01  0.5110832E+03  0.7818609E-02  0.1010926E+00
        1   -1    0    0  501    0  0.00000000000E+00  0.00000000000E+00  0.50627774718E+03  0.50627774721E+03  0.50400001928E-02 0.  1.
       -1   -1    0    0    0  501  0.00000000000E+00  0.00000000000E+00 -0.12898356653E+03  0.12898356663E+03  0.50400001928E-02 0. -1.
    10030    2    1    2    0    0  0.00000000000E+00  0.00000000000E+00  0.37729418065E+03  0.63526131383E+03  0.51108320076E+03 0.  0.
        3    1    3    3  502    0  0.71268700921E+02 -0.16098642270E+03 -0.41573194184E+02  0.18089830485E+03  0.10100000352E+00 0. -1.
       -3    1    3    3    0  502 -0.71268700921E+02  0.16098642270E+03  0.41886737484E+03  0.45436300898E+03  0.10100000352E+00 0.  1.
</event>
<event>
 5   0  0.3178149E-01  0.4941496E+03  0.7818609E-02  0.1015317E+00
        2   -1    0    0  501    0  0.00000000000E+00  0.00000000000E+00  0.90503352332E+03  0.90503352332E+03  0.25500000920E-02 0. -1.
       -2   -1    0    0    0  501  0.00000000000E+00  0.00000000000E+00 -0.67451584669E+02  0.67451584717E+02  0.25500000920E-02 0.  1.
    10030    2    1    2    0    0  0.00000000000E+00  0.00000000000E+00  0.83758193865E+03  0.97248510804E+03  0.49414955368E+03 0.  0.
        3    1    3    3  502    0  0.14163526426E+03 -0.16832499508E+03  0.64015424358E+03  0.67689830686E+03  0.10100000352E+00 0. -1.
       -3    1    3    3    0  502 -0.14163526426E+03  0.16832499508E+03  0.19742769507E+03  0.29558680118E+03  0.10100000352E+00 0.  1.
</event>
<event>
 5   0  0.1984680E-01  0.4908514E+03  0.7818609E-02  0.1016195E+00
       -1   -1    0    0    0  501  0.00000000000E+00  0.00000000000E+00  0.15340923539E+03  0.15340923547E+03  0.50400001928E-02 0. -1.
        1   -1    0    0  501    0  0.00000000000E+00  0.00000000000E+00 -0.39263463332E+03  0.39263463336E+03  0.50400001928E-02 0.  1.
    10030    2    1    2    0    0  0.00000000000E+00  0.00000000000E+00 -0.23922539794E+03  0.54604386882E+03  0.49085141913E+03 0.  0.
        5    1    3    3  502    0  0.11487614865E+03 -0.21078865521E+03 -0.63071489651E+02  0.24825086001E+03  0.46999998093E+01 0. -1.
       -5    1    3    3    0  502 -0.11487614865E+03  0.21078865521E+03 -0.17615390829E+03  0.29779300881E+03  0.46999998093E+01 0.  1.
</event>
<event>
 5   0  0.3111146E-01  0.4848366E+03  0.7818609E-02  0.1017814E+00
        2   -1    0    0  501    0  0.00000000000E+00  0.00000000000E+00  0.22904935335E+03  0.22904935336E+03  0.25500000920E-02 0.  1.
       -2   -1    0    0    0  501  0.00000000000E+00  0.00000000000E+00 -0.25656753986E+03  0.25656753988E+03  0.25500000920E-02 0. -1.
    10030    2    1    2    0    0  0.00000000000E+00  0.00000000000E+00 -0.27518186514E+02  0.48561689324E+03  0.48483658733E+03 0.  0.
        1    1    3    3  502    0  0.34095464078E+02 -0.17918362064E+02 -0.25348308901E+03  0.25639275499E+03  0.50400001928E-02 0. -1.
       -1    1    3    3    0  502 -0.34095464078E+02  0.17918362064E+02  0.22596490250E+03  0.22922413825E+03  0.50400001928E-02 0.  1.
</event>
<event>
 5   0  0.3178149E-01  0.5456022E+03  0.7818609E-02  0.1002517E+00
        2   -1    0    0  501    0  0.00000000000E+00  0.00000000000E+00  0.89833492585E+03  0.89833492586E+03  0.25500000920E-02 0. -1.
       -2   -1    0    0    0  501  0.00000000000E+00  0.00000000000E+00 -0.82842640263E+02  0.82842640302E+02  0.25500000920E-02 0.  1.
    10030    2    1    2    0    0  0.00000000000E+00  0.00000000000E+00  0.81549228559E+03  0.98117756616E+03  0.54560218885E+03 0.  0.
        3    1    3    3  502    0  0.11338942870E+03  0.21396095708E+03  0.18181314040E+03  0.30280766489E+03  0.10100000352E+00 0.  1.
       -3    1    3    3    0  502 -0.11338942870E+03 -0.21396095708E+03  0.63367914519E+03  0.67836990126E+03  0.10100000352E+00 0. -1.
</event>
<event>
 5   0  0.1984680E-01  0.4866811E+03  0.7818609E-02  0.1017315E+00
       -1   -1    0    0    0  501  0.00000000000E+00  0.00000000000E+00  0.52366992059E+03  0.52366992061E+03  0.50400001928E-02 0.  1.
        1   -1    0    0  501    0  0.00000000000E+00  0.00000000000E+00 -0.11307625359E+03  0.11307625370E+03  0.50400001928E-02 0. -1.
    10030    2    1    2    0    0  0.00000000000E+00  0.00000000000E+00  0.41059366700E+03  0.63674617431E+03  0.48668113906E+03 0.  0.
        5    1    3    3  502    0  0.15090077420E+03 -0.84506099279E+02 -0.18579911377E+02  0.17401042375E+03  0.46999998093E+01 0. -1.
       -5    1    3    3    0  502 -0.15090077420E+03  0.84506099279E+02  0.42917357838E+03  0.46273575056E+03  0.46999998093E+01 0.  1.
</event>
<event>
 5   0  0.2013450E-01  0.4945810E+03  0.7818609E-02  0.1015203E+00
       -1   -1    0    0    0  501  0.00000000000E+00  0.00000000000E+00  0.39867195996E+02  0.39867196315E+02  0.50400001928E-02 0.  1.
        1   -1    0    0  501    0  0.00000000000E+00  0.00000000000E+00 -0.15339072237E+04  0.15339072237E+04  0.50400001928E-02 0. -1.
    10030    2    1    2    0    0  0.00000000000E+00  0.00000000000E+00 -0.14940400277E+04  0.15737744200E+04  0.49458095468E+03 0.  0.
        4    1    3    3  502    0 -0.13692557215E+03  0.31025290175E+01 -0.91854872394E+02  0.16491564049E+03  0.12699999809E+01 0.  1.
       -4    1    3    3    0  502  0.13692557215E+03 -0.31025290175E+01 -0.14021851553E+04  0.14088587795E+04  0.12699999809E+01 0. -1.
</event>
<event>
 5   0  0.2000612E-01  0.5075887E+03  0.7818609E-02  0.1011817E+00
        1   -1    0    0  501    0  0.00000000000E+00  0.00000000000E+00  0.15350022263E+04  0.15350022263E+04  0.50400001928E-02 0.  1.
       -1   -1    0    0    0  501  0.00000000000E+00  0.00000000000E+00 -0.41961883384E+02  0.41961883687E+02  0.50400001928E-02 0. -1.
    10030    2    1    2    0    0  0.00000000000E+00  0.00000000000E+00  0.14930403429E+04  0.15769641100E+04  0.50758874951E+03 0.  0.
        2    1    3    3  502    0  0.22128538422E+03 -0.93088682336E+01  0.36150926716E+03  0.42396087855E+03  0.25500000920E-02 0. -1.
       -2    1    3    3    0  502 -0.22128538422E+03  0.93088682336E+01  0.11315310757E+04  0.11530032314E+04  0.25500000920E-02 0.  1.
</event>
<event>
 5   0  0.3117389E-01  0.5099632E+03  0.7818609E-02  0.1011211E+00
       -2   -1    0    0    0  501  0.00000000000E+00  0.00000000000E+00  0.14532494618E+03  0.14532494621E+03  0.25500000920E-02 0.  1.
        2   -1    0    0  501    0  0.00000000000E+00  0.00000000000E+00 -0.44738103045E+03  0.44738103046E+03  0.25500000920E-02 0. -1.
    10030    2    1    2    0    0  0.00000000000E+00  0.00000000000E+00 -0.30205608427E+03  0.59270597666E+03  0.50996323076E+03 0.  0.
        4    1    3    3  502    0  0.14689251507E+03 -0.61338432149E+02 -0.38252991863E+03  0.41433146850E+03  0.12699999809E+01 0. -1.
       -4    1    3    3    0  502 -0.14689251507E+03  0.61338432149E+02  0.80473834368E+02  0.17837450816E+03  0.12699999809E+01 0.  1.
</event>
<event>
 5   0  0.3111146E-01  0.5107465E+03  0.7818609E-02  0.1011011E+00
       -2   -1    0    0    0  501  0.00000000000E+00  0.00000000000E+00  0.81545212561E+02  0.81545212601E+02  0.25500000920E-02 0. -1.
        2   -1    0    0  501    0  0.00000000000E+00  0.00000000000E+00 -0.79974661655E+03  0.79974661655E+03  0.25500000920E-02 0.  1.
    10030    2    1    2    0    0  0.00000000000E+00  0.00000000000E+00 -0.71820140399E+03  0.88129182915E+03  0.51074654325E+03 0.  0.
        1    1    3    3  502    0 -0.83854652662E+02 -0.17223598451E+01 -0.77530318707E+03  0.77982664817E+03  0.50400001928E-02 0.  1.
       -1    1    3    3    0  502  0.83854652662E+02  0.17223598451E+01  0.57101783076E+02  0.10146518098E+03  0.50400001928E-02 0. -1.
</event>
<event>
 5   0  0.2013450E-01  0.5124427E+03  0.7818609E-02  0.1010581E+00
        1   -1    0    0  501    0  0.00000000000E+00  0.00000000000E+00  0.13272393876E+04  0.13272393876E+04  0.50400001928E-02 0. -1.
       -1   -1    0    0    0  501  0.00000000000E+00  0.00000000000E+00 -0.49463105765E+02  0.49463106022E+02  0.50400001928E-02 0.  1.
    10030    2    1    2    0    0  0.00000000000E+00  0.00000000000E+00  0.12777762818E+04  0.13767024936E+04  0.51244270855E+03 0.  0.
        4    1    3    3  502    0  0.12235687971E+03 -0.11403987293E+03  0.11745207120E+03  0.20438419841E+03  0.12699999809E+01 0.  1.
       -4    1    3    3    0  502 -0.12235687971E+03  0.11403987293E+03  0.11603242106E+04  0.11723182952E+04  0.12699999809E+01 0. -1.
</event>
<event>
 5   0  0.3187123E-01  0.3717270E+03  0.7818609E-02  0.1054035E+00
        2   -1    0    0  501    0  0.00000000000E+00  0.00000000000E+00  0.25401159784E+03  0.25401159785E+03  0.25500000920E-02 0.  1.
       -2   -1    0    0    0  501  0.00000000000E+00  0.00000000000E+00 -0.13599866963E+03  0.13599866965E+03  0.25500000920E-02 0. -1.
    10030    2    1    2    0    0  0.00000000000E+00  0.00000000000E+00  0.11801292821E+03  0.39001026750E+03  0.37172699328E+03 0.  0.
        5    1    3    3  502    0  0.24014211779E+02 -0.14817590792E+03 -0.55879820759E+02  0.16024177489E+03  0.46999998093E+01 0. -1.
       -5    1    3    3    0  502 -0.24014211779E+02  0.14817590792E+03  0.17389274897E+03  0.22976849261E+03  0.46999998093E+01 0.  1.
</event>
<event>
 5   0  0.2013450E-01  0.5037919E+03  0.7818609E-02  0.1012794E+00
        1   -1    0    0  501    0  0.00000000000E+00  0.00000000000E+00  0.81982626152E+03  0.81982626154E+03  0.50400001928E-02 0.  1.
       -1   -1    0    0    0  501  0.00000000000E+00  0.00000000000E+00 -0.77396367827E+02  0.77396367991E+02  0.50400001928E-02 0. -1.
    10030    2    1    2    0    0  0.00000000000E+00  0.00000000000E+00  0.74242989369E+03  0.89722262953E+03  0.50379192122E+03 0.  0.
        4    1    3    3  502    0 -0.24815328259E+03  0.18705296966E+02  0.44064923641E+03  0.50606649983E+03  0.12699999809E+01 0. -1.
       -4    1    3    3    0  502  0.24815328259E+03 -0.18705296966E+02  0.30178065728E+03  0.39115612970E+03  0.12699999809E+01 0.  1.
</event>
<event>
 5   0  0.1984297E-01  0.4957306E+03  0.7818609E-02  0.1014899E+00
       -1   -1    0    0    0  501  0.00000000000E+00  0.00000000000E+00  0.29335670003E+03  0.29335670007E+03  0.50400001928E-02 0.  1.
        1   -1    0    0  501    0  0.00000000000E+00  0.00000000000E+00 -0.20942833923E+03  0.20942833929E+03  0.50400001928E-02 0. -1.
    10030    2    1    2    0    0  0.00000000000E+00  0.00000000000E+00  0.83928360800E+02  0.50278503936E+03  0.49573059827E+03 0.  0.
        3    1    3    3  502    0 -0.55872975438E+02 -0.18501837625E+03  0.19936152088E+03  0.27766637381E+03  0.10100000352E+00 0.  1.
       -3    1    3    3    0  502  0.55872975438E+02  0.18501837625E+03 -0.11543316008E+03  0.22511866556E+03  0.10100000352E+00 0. -1.
</event>
<event>
 5   0  0.1292375E-01  0.4238432E+03  0.7818609E-02  0.1035823E+00
       -3   -1    0    0    0  501  0.00000000000E+00  0.00000000000E+00  0.31550694992E+03  0.31550696609E+03  0.10100000352E+00 0. -1.
        3   -1    0    0  501    0  0.00000000000E+00  0.00000000000E+00 -0.14234471633E+03  0.14234475216E+03  0.10100000352E+00 0.  1.
    10030    2    1    2    0    0  0.00000000000E+00  0.00000000000E+00  0.17316223359E+03  0.45785171825E+03  0.42384317473E+03 0.  0.
        2    1    3    3  502    0 -0.20893705751E+03 -0.35241350723E+02  0.82523044091E+02  0.22739107198E+03  0.25500000920E-02 0. -1.
       -2    1    3    3    0  502  0.20893705751E+03  0.35241350723E+02  0.90639189502E+02  0.23046064628E+03  0.25500000920E-02 0.  1.
</event>
<event>
 5   0  0.2000612E-01  0.4771276E+03  0.7818609E-02  0.1019928E+00
        1   -1    0    0  501    0  0.00000000000E+00  0.00000000000E+00  0.68264693761E+03  0.68264693763E+03  0.50400001928E-02 0.  1.
       -1   -1    0    0    0  501  0.00000000000E+00  0.00000000000E+00 -0.83370613039E+02  0.83370613191E+02  0.50400001928E-02 0. -1.
    10030    2    1    2    0    0  0.00000000000E+00  0.00000000000E+00  0.59927632457E+03  0.76601755082E+03  0.47712762965E+03 0.  0.
        2    1    3    3  502    0  0.74789769421E+02  0.20551706950E+03  0.45263869689E+03  0.50270524703E+03  0.25500000920E-02 0.  1.
       -2    1    3    3    0  502 -0.74789769421E+02 -0.20551706950E+03  0.14663762769E+03  0.26331230379E+03  0.25500000920E-02 0. -1.
</event>
<event>
 5   0  0.1292375E-01  0.4877362E+03  0.7818609E-02  0.1017030E+00
        3   -1    0    0  501    0  0.00000000000E+00  0.00000000000E+00  0.18837438333E+03  0.18837441040E+03  0.10100000352E+00 0.  1.
       -3   -1    0    0    0  501  0.00000000000E+00  0.00000000000E+00 -0.31570976559E+03  0.31570978175E+03  0.10100000352E+00 0. -1.
    10030    2    1    2    0    0  0.00000000000E+00  0.00000000000E+00 -0.12733538227E+03  0.50408419215E+03  0.48773617172E+03 0.  0.
        4    1    3    3  502    0  0.13933067618E+03  0.35720806164E+02  0.13986197053E+03  0.20062900343E+03  0.12699999809E+01 0.  1.
       -4    1    3    3    0  502 -0.13933067618E+03 -0.35720806164E+02 -0.26719735280E+03  0.30345518872E+03  0.12699999809E+01 0. -1.
</event>
<event>
 5   0  0.3117389E-01  0.5003589E+03  0.7818609E-02  0.1013685E+00
        2   -1    0    0  501    0  0.00000000000E+00  0.00000000000E+00  0.12921091812E+04  0.12921091812E+04  0.25500000920E-02 0.  1.
       -2   -1    0    0    0  501  0.00000000000E+00  0.00000000000E+00 -0.48439989541E+02  0.48439989609E+02  0.25500000920E-02 0. -1.
    10030    2    1    2    0    0  0.00000000000E+00  0.00000000000E+00  0.12436691917E+04  0.13405491708E+04  0.50035889228E+03 0.  0.
        4    1    3    3  502    0 -0.11512776387E+03  0.20039964422E+03  0.36522438345E+03  0.43220930414E+03  0.12699999809E+01 0. -1.
       -4    1    3    3    0  502  0.11512776387E+03 -0.20039964422E+03  0.87844480822E+03  0.90833986669E+03  0.12699999809E+01 0.  1.
</event>
<event>
 5   0  0.1967161E-01  0.4970388E+03  0.7818609E-02  0.1014555E+00
        1   -1    0    0  501    0  0.00000000000E+00  0.00000000000E+00  0.30215972064E+03  0.30215972068E+03  0.50400001928E-02 0. -1.
       -1   -1    0    0    0  501  0.00000000000E+00  0.00000000000E+00 -0.20440143818E+03  0.20440143824E+03  0.50400001928E-02 0.  1.
    10030    2    1    2    0    0  0.00000000000E+00  0.00000000000E+00  0.97758282459E+02  0.50656115892E+03  0.49703875698E+03 0.  0.
        1    1    3    3  502    0 -0.15166420072E+03 -0.42977817273E+02 -0.14692861250E+03  0.21549278353E+03  0.50400001928E-02 0.  1.
       -1    1    3    3    0  502  0.15166420072E+03  0.42977817273E+02  0.24468689496E+03  0.29106837539E+03  0.50400001928E-02 0. -1.
</event>
<event>
 5   0  0.1984297E-01  0.4979165E+03  0.7818609E-02  0.1014324E+00
        1   -1    0    0  501    0  0.00000000000E+00  0.00000000000E+00  0.24333219578E+03  0.24333219583E+03  0.50400001928E-02 0.  1.
       -1   -1    0    0    0  501  0.00000000000E+00  0.00000000000E+00 -0.25471440216E+03  0.25471440221E+03  0.50400001928E-02 0. -1.
    10030    2    1    2    0    0  0.00000000000E+00  0.00000000000E+00 -0.11382206384E+02  0.49804659805E+03  0.49791651831E+03 0.  0.
        3    1    3    3  502    0 -0.16822022831E+03 -0.18349946199E+03 -0.88710592646E+01  0.24909597278E+03  0.10100000352E+00 0.  1.
       -3    1    3    3    0  502  0.16822022831E+03  0.18349946199E+03 -0.25111471197E+01  0.24895062527E+03  0.10100000352E+00 0. -1.
</event>
<event>
 5   0  0.3329246E-01  0.4242887E+03  0.7818609E-02  0.1035679E+00
       -2   -1    0    0    0  501  0.00000000000E+00  0.00000000000E+00  0.26017707250E+03  0.26017707252E+03  0.25500000920E-02 0.  1.
        2   -1    0    0  501    0  0.00000000000E+00  0.00000000000E+00 -0.17297925308E+03  0.17297925310E+03  0.25500000920E-02 0. -1.
    10030    2    1    2    0    0  0.00000000000E+00  0.00000000000E+00  0.87197819422E+02  0.43315632562E+03  0.42428874921E+03 0.  0.
        2    1    3    3  502    0  0.12231695420E+03  0.17301728241E+03  0.32949286006E+02  0.21443430871E+03  0.25500000920E-02 0.  1.
       -2    1    3    3    0  502 -0.12231695420E+03 -0.17301728241E+03  0.54248533416E+02  0.21872201691E+03  0.25500000920E-02 0. -1.
</event>
<event>
 5   0  0.3117389E-01  0.5210013E+03  0.7818609E-02  0.1008438E+00
        2   -1    0    0  501    0  0.00000000000E+00  0.00000000000E+00  0.97569384620E+03  0.97569384620E+03  0.25500000920E-02 0. -1.
       -2   -1    0    0    0  501  0.00000000000E+00  0.00000000000E+00 -0.69551116988E+02  0.69551117035E+02  0.25500000920E-02 0.  1.
    10030    2    1    2    0    0  0.00000000000E+00  0.00000000000E+00  0.90614272921E+03  0.10452449632E+04  0.52100133155E+03 0.  0.
        4    1    3    3  502    0  0.25125950675E+03 -0.17229888585E+02  0.58661374312E+03  0.63839290825E+03  0.12699999809E+01 0. -1.
       -4    1    3    3    0  502 -0.25125950675E+03  0.17229888585E+02  0.31952898609E+03  0.40685205499E+03  0.12699999809E+01 0.  1.
</event>
<event>
 5   0  0.1984680E-01  0.4901719E+03  0.7818609E-02  0.1016376E+00
       -1   -1    0    0    0  501  0.00000000000E+00  0.00000000000E+00  0.54358294946E+02  0.54358295179E+02  0.50400001928E-02 0.  1.
        1   -1    0    0  501    0  0.00000000000E+00  0.00000000000E+00 -0.11050222771E+04  0.11050222771E+04  0.50400001928E-02 0. -1.
    10030    2    1    2    0    0  0.00000000000E+00  0.00000000000E+00 -0.10506639822E+04  0.11593805723E+04  0.49017191679E+03 0.  0.
        5    1    3    3  502    0  0.78589812156E+02 -0.18772699624E+02  0.21835752767E+02  0.83831157233E+02  0.46999998093E+01 0.  1.
       -5    1    3    3    0  502 -0.78589812156E+02  0.18772699624E+02 -0.10724997349E+04  0.10755494151E+04  0.46999998093E+01 0. -1.
</event>
<event>
 5   0  0.3117389E-01  0.5028728E+03  0.7818609E-02  0.1013032E+00
        2   -1    0    0  501    0  0.00000000000E+00  0.00000000000E+00  0.33675281675E+03  0.33675281676E+03  0.25500000920E-02 0.  1.
       -2   -1    0    0    0  501  0.00000000000E+00  0.00000000000E+00 -0.18773489462E+03  0.18773489464E+03  0.25500000920E-02 0. -1.
    10030    2    1    2    0    0  0.00000000000E+00  0.00000000000E+00  0.14901792213E+03  0.52448771140E+03  0.50287276551E+03 0.  0.
        4    1    3    3  502    0  0.19128216020E+03  0.14156492886E+03 -0.10153682556E+02  0.23818942895E+03  0.12699999809E+01 0.  1.
       -4    1    3    3    0  502 -0.19128216020E+03 -0.14156492886E+03  0.15917160468E+03  0.28629828245E+03  0.12699999809E+01 0. -1.
</event>
<event>
 5   0  0.2000612E-01  0.4999096E+03  0.7818609E-02  0.1013803E+00
        1   -1    0    0  501    0  0.00000000000E+00  0.00000000000E+00  0.47725494942E+03  0.47725494945E+03  0.50400001928E-02 0. -1.
       -1   -1    0    0    0  501  0.00000000000E+00  0.00000000000E+00 -0.13090989123E+03  0.13090989133E+03  0.50400001928E-02 0.  1.
    10030    2    1    2    0    0  0.00000000000E+00  0.00000000000E+00  0.34634505819E+03  0.60816484078E+03  0.49990956605E+03 0.  0.
        2    1    3    3  502    0 -0.12665496660E+03  0.20126729903E+03  0.79510941378E+02  0.25074288829E+03  0.25500000920E-02 0. -1.
       -2    1    3    3    0  502  0.12665496660E+03 -0.20126729903E+03  0.26683411681E+03  0.35742195249E+03  0.25500000920E-02 0.  1.
</event>
<event>
 5   0  0.3187123E-01  0.4889276E+03  0.7818609E-02  0.1016710E+00
       -2   -1    0    0    0  501  0.00000000000E+00  0.00000000000E+00  0.77628930711E+02  0.77628930753E+02  0.25500000920E-02 0.  1.
        2   -1    0    0  501    0  0.00000000000E+00  0.00000000000E+00 -0.76984881652E+03  0.76984881653E+03  0.25500000920E-02 0. -1.
    10030    2    1    2    0    0  0.00000000000E+00  0.00000000000E+00 -0.69221988581E+03  0.84747774728E+03  0.48892756296E+03 0.  0.
        5    1    3    3  502    0  0.98920579551E+02  0.83567965631E+02 -0.70542413023E+03  0.71722672806E+03  0.46999998093E+01 0. -1.
       -5    1    3    3    0  502 -0.98920579551E+02 -0.83567965631E+02  0.13204244418E+02  0.13025101922E+03  0.46999998093E+01 0.  1.
</event>
<event>
 5   0  0.2000612E-01  0.5159844E+03  0.7818609E-02  0.1009689E+00
       -1   -1    0    0    0  501  0.00000000000E+00  0.00000000000E+00  0.96105181822E+02  0.96105181954E+02  0.50400001928E-02 0.  1.
        1   -1    0    0  501    0  0.00000000000E+00  0.00000000000E+00 -0.69257427335E+03  0.69257427337E+03  0.50400001928E-02 0. -1.
    10030    2    1    2    0    0  0.00000000000E+00  0.00000000000E+00 -0.59646909153E+03  0.78867945532E+03  0.51598440490E+03 0.  0.
        2    1    3    3  502    0  0.17640996628E+03  0.14386533593E+03 -0.48382091066E+03  0.53469653513E+03  0.25500000920E-02 0. -1.
       -2    1    3    3    0  502 -0.17640996628E+03 -0.14386533593E+03 -0.11264818087E+03  0.25398292019E+03  0.25500000920E-02 0.  1.
</event>
<event>
 5   0  0.3178149E-01  0.4817512E+03  0.7818609E-02  0.1018655E+00
        2   -1    0    0  501    0  0.00000000000E+00  0.00000000000E+00  0.66589809206E+03  0.66589809206E+03  0.25500000920E-02 0. -1.
       -2   -1    0    0    0  501  0.00000000000E+00  0.00000000000E+00 -0.87132039922E+02  0.87132039960E+02  0.25500000920E-02 0.  1.
    10030    2    1    2    0    0  0.00000000000E+00  0.00000000000E+00  0.57876605213E+03  0.75303013202E+03  0.48175121861E+03 0.  0.
        3    1    3    3  502    0 -0.12413410651E+02 -0.70062692928E+02 -0.70329895607E+02  0.10004588008E+03  0.10100000352E+00 0.  1.
       -3    1    3    3    0  502  0.12413410651E+02  0.70062692928E+02  0.64909594774E+03  0.65298425194E+03  0.10100000352E+00 0. -1.
</event>
<event>
 5   0  0.1292375E-01  0.5027391E+03  0.7818609E-02  0.1013066E+00
       -4   -1    0    0    0  501  0.00000000000E+00  0.00000000000E+00  0.70119415876E+03  0.70119530887E+03  0.12699999809E+01 0.  1.
        4   -1    0    0  501    0  0.00000000000E+00  0.00000000000E+00 -0.90107222279E+02  0.90116171727E+02  0.12699999809E+01 0. -1.
    10030    2    1    2    0    0  0.00000000000E+00  0.00000000000E+00  0.61108693648E+03  0.79131148060E+03  0.50273911265E+03 0.  0.
        2    1    3    3  502    0 -0.17360494934E+02  0.15150405107E+03 -0.89880557968E+01  0.15276010418E+03  0.25500000920E-02 0. -1.
       -2    1    3    3    0  502  0.17360494934E+02 -0.15150405107E+03  0.62007499228E+03  0.63855137642E+03  0.25500000920E-02 0.  1.
</event>
<event>
 5   0  0.3329246E-01  0.4747414E+03  0.7818609E-02  0.1020590E+00
        2   -1    0    0  501    0  0.00000000000E+00  0.00000000000E+00  0.80986500815E+02  0.80986500855E+02  0.25500000920E-02 0.  1.
       -2   -1    0    0    0  501  0.00000000000E+00  0.00000000000E+00 -0.69573136102E+03  0.69573136103E+03  0.25500000920E-02 0. -1.
    10030    2    1    2    0    0  0.00000000000E+00  0.00000000000E+00 -0.61474486021E+03  0.77671786188E+03  0.47474139678E+03 0.  0.
        2    1    3    3  502    0  0.14617873586E+03  0.36415176692E+02 -0.60749754602E+03  0.62589740081E+03  0.25500000920E-02 0. -1.
       -2    1    3    3    0  502 -0.14617873586E+03 -0.36415176692E+02 -0.72473141900E+01  0.15082046108E+03  0.25500000920E-02 0.  1.
</event>
<event>
 5   0  0.1984680E-01  0.4891555E+03  0.7818609E-02  0.1016649E+00
        1   -1    0    0  501    0  0.00000000000E+00  0.00000000000E+00  0.87806190288E+03  0.87806190290E+03  0.50400001928E-02 0.  1.
       -1   -1    0    0    0  501  0.00000000000E+00  0.00000000000E+00 -0.68125340672E+02  0.68125340859E+02  0.50400001928E-02 0. -1.
    10030    2    1    2    0    0  0.00000000000E+00  0.00000000000E+00  0.80993656221E+03  0.94618724375E+03  0.48915546142E+03 0.  0.
        5    1    3    3  502    0  0.44068743110E+02  0.90842731104E+02 -0.25834553390E+02  0.10432626736E+03  0.46999998093E+01 0. -1.
       -5    1    3    3    0  502 -0.44068743110E+02 -0.90842731104E+02  0.83577111560E+03  0.84186097640E+03  0.46999998093E+01 0.  1.
</event>
<event>
 5   0  0.3117389E-01  0.4982498E+03  0.7818609E-02  0.1014237E+00
       -2   -1    0    0    0  501  0.00000000000E+00  0.00000000000E+00  0.47512658024E+03  0.47512658025E+03  0.25500000920E-02 0. -1.
        2   -1    0    0  501    0  0.00000000000E+00  0.00000000000E+00 -0.13062461545E+03  0.13062461548E+03  0.25500000920E-02 0.  1.
    10030    2    1    2    0    0  0.00000000000E+00  0.00000000000E+00  0.34450196479E+03  0.60575119572E+03  0.49824984433E+03 0.  0.
        4    1    3    3  502    0  0.12965056592E+03  0.99224763548E+02  0.40101641010E+03  0.43297874892E+03  0.12699999809E+01 0.  1.
       -4    1    3    3    0  502 -0.12965056592E+03 -0.99224763548E+02 -0.56514445313E+02  0.17277244680E+03  0.12699999809E+01 0. -1.
</event>
<event>
 5   0  0.3187123E-01  0.5017875E+03  0.7818609E-02  0.1013313E+00
       -2   -1    0    0    0  501  0.00000000000E+00  0.00000000000E+00  0.43495629343E+02  0.43495629417E+02  0.25500000920E-02 0.  1.
        2   -1    0    0  501    0  0.00000000000E+00  0.00000000000E+00 -0.14472181912E+04  0.14472181912E+04  0.25500000920E-02 0. -1.
    10030    2    1    2    0    0  0.00000000000E+00  0.00000000000E+00 -0.14037225618E+04  0.14907138206E+04  0.50178746927E+03 0.  0.
        5    1    3    3  502    0  0.10700381527E+03 -0.11976628184E+03 -0.12743243199E+04  0.12844136176E+04  0.46999998093E+01 0. -1.
       -5    1    3    3    0  502 -0.10700381527E+03  0.11976628184E+03 -0.12939824194E+03  0.20630020301E+03  0.46999998093E+01 0.  1.
</event>
<event>
 5   0  0.2013450E-01  0.5017986E+03  0.7818609E-02  0.1013311E+00
        1   -1    0    0  501    0  0.00000000000E+00  0.00000000000E+00  0.53503995738E+03  0.53503995740E+03  0.50400001928E-02 0. -1.
       -1   -1    0    0    0  501  0.00000000000E+00  0.00000000000E+00 -0.11765560066E+03  0.11765560076E+03  0.50400001928E-02 0.  1.
    10030    2    1    2    0    0  0.00000000000E+00  0.00000000000E+00  0.41738435672E+03  0.65269555816E+03  0.50179855561E+03 0.  0.
        4    1    3    3  502    0 -0.19547078350E+02 -0.10395136022E+03 -0.87233053655E+02  0.13711014592E+03  0.12699999809E+01 0.  1.
       -4    1    3    3    0  502  0.19547078350E+02  0.10395136022E+03  0.50461741038E+03  0.51558541224E+03  0.12699999809E+01 0. -1.
</event>
<event>
 5   0  0.1292375E-01  0.5048047E+03  0.7818609E-02  0.1012532E+00
        4   -1    0    0  501    0  0.00000000000E+00  0.00000000000E+00  0.29524070526E+03  0.29524343674E+03  0.12699999809E+01 0. -1.
       -4   -1    0    0    0  501  0.00000000000E+00  0.00000000000E+00 -0.21577408440E+03  0.21577782184E+03  0.12699999809E+01 0.  1.
    10030    2    1    2    0    0  0.00000000000E+00  0.00000000000E+00  0.79466620856E+02  0.51102125858E+03  0.50480469777E+03 0.  0.
        4    1    3    3  502    0  0.40401134528E+02 -0.18553448546E+03 -0.12859742809E+03  0.22933427214E+03  0.12699999809E+01 0.  1.
       -4    1    3    3    0  502 -0.40401134528E+02  0.18553448546E+03  0.20806404895E+03  0.28168698644E+03  0.12699999809E+01 0. -1.
</event>
<event>
 5   0  0.3187123E-01  0.3597925E+03  0.7818609E-02  0.1058666E+00
       -2   -1    0    0    0  501  0.00000000000E+00  0.00000000000E+00  0.56663610711E+02  0.56663610768E+02  0.25500000920E-02 0. -1.
        2   -1    0    0  501    0  0.00000000000E+00  0.00000000000E+00 -0.57113657325E+03  0.57113657326E+03  0.25500000920E-02 0.  1.
    10030    2    1    2    0    0  0.00000000000E+00  0.00000000000E+00 -0.51447296254E+03  0.62780018403E+03  0.35979249836E+03 0.  0.
        5    1    3    3  502    0 -0.95780861310E+02 -0.71085723808E+02 -0.22397857483E+02  0.12145331424E+03  0.46999998093E+01 0. -1.
       -5    1    3    3    0  502  0.95780861310E+02  0.71085723808E+02 -0.49207510506E+03  0.50634686978E+03  0.46999998093E+01 0.  1.
</event>
<event>
 5   0  0.1984297E-01  0.4562497E+03  0.7818609E-02  0.1025875E+00
        1   -1    0    0  501    0  0.00000000000E+00  0.00000000000E+00  0.92137891159E+03  0.92137891161E+03  0.50400001928E-02 0. -1.
       -1   -1    0    0    0  501  0.00000000000E+00  0.00000000000E+00 -0.56481599537E+02  0.56481599762E+02  0.50400001928E-02 0.  1.
    10030    2    1    2    0    0  0.00000000000E+00  0.00000000000E+00  0.86489731206E+03  0.97786051137E+03  0.45624973347E+03 0.  0.
        3    1    3    3  502    0 -0.17748335619E+03  0.13468839648E+03  0.32745882952E+03  0.39606893478E+03  0.10100000352E+00 0.  1.
       -3    1    3    3    0  502  0.17748335619E+03 -0.13468839648E+03  0.53743848254E+03  0.58179157659E+03  0.10100000352E+00 0. -1.
</event>
<event>
 5   0  0.3111146E-01  0.4960148E+03  0.7818609E-02  0.1014824E+00
       -2   -1    0    0    0  501  0.00000000000E+00  0.00000000000E+00  0.50981319359E+02  0.50981319423E+02  0.25500000920E-02 0. -1.
        2   -1    0    0  501    0  0.00000000000E+00  0.00000000000E+00 -0.12064744263E+04  0.12064744263E+04  0.25500000920E-02 0.  1.
    10030    2    1    2    0    0  0.00000000000E+00  0.00000000000E+00 -0.11554931070E+04  0.12574557457E+04  0.49601475005E+03 0.  0.
        1    1    3    3  502    0  0.14978591044E+03 -0.19721776228E+03 -0.61147346338E+03  0.65971998694E+03  0.50400001928E-02 0. -1.
       -1    1    3    3    0  502 -0.14978591044E+03  0.19721776228E+03 -0.54401964358E+03  0.59773575880E+03  0.50400001928E-02 0.  1.
</event>
<event>
 5   0  0.1967161E-01  0.5041852E+03  0.7818609E-02  0.1012692E+00
        1   -1    0    0  501    0  0.00000000000E+00  0.00000000000E+00  0.30897263383E+03  0.30897263387E+03  0.50400001928E-02 0.  1.
       -1   -1    0    0    0  501  0.00000000000E+00  0.00000000000E+00 -0.20568381612E+03  0.20568381619E+03  0.50400001928E-02 0. -1.
    10030    2    1    2    0    0  0.00000000000E+00  0.00000000000E+00  0.10328881771E+03  0.51465645006E+03  0.50418516611E+03 0.  0.
        1    1    3    3  502    0 -0.17145238325E+03 -0.13247925179E+03 -0.79888280293E+02  0.23093031250E+03  0.50400001928E-02 0. -1.
       -1    1    3    3    0  502  0.17145238325E+03  0.13247925179E+03  0.18317709800E+03  0.28372613756E+03  0.50400001928E-02 0.  1.
</event>
<event>
 5   0  0.3111146E-01  0.5191830E+03  0.7818609E-02  0.1008890E+00
       -2   -1    0    0    0  501  0.00000000000E+00  0.00000000000E+00  0.25866410254E+03  0.25866410255E+03  0.25500000920E-02 0. -1.
        2   -1    0    0  501    0  0.00000000000E+00  0.00000000000E+00 -0.26052219350E+03  0.26052219351E+03  0.25500000920E-02 0.  1.
    10030    2    1    2    0    0  0.00000000000E+00  0.00000000000E+00 -0.18580909562E+01  0.51918629606E+03  0.51918297113E+03 0.  0.
        1    1    3    3  502    0 -0.95902086128E+02 -0.87050577107E+02 -0.22590320960E+03  0.26039829729E+03  0.50400001928E-02 0.  1.
       -1    1    3    3    0  502  0.95902086128E+02  0.87050577107E+02  0.22404511864E+03  0.25878799878E+03  0.50400001928E-02 0. -1.
</event>
<event>
 5   0  0.3111146E-01  0.4995660E+03  0.7818609E-02  0.1013892E+00
       -2   -1    0    0    0  501  0.00000000000E+00  0.00000000000E+00  0.46433037031E+02  0.46433037101E+02  0.25500000920E-02 0. -1.
        2   -1    0    0  501    0  0.00000000000E+00  0.00000000000E+00 -0.13436885282E+04  0.13436885282E+04  0.25500000920E-02 0.  1.
    10030    2    1    2    0    0  0.00000000000E+00  0.00000000000E+00 -0.12972554912E+04  0.13901215653E+04  0.49956596857E+03 0.  0.
        1    1    3    3  502    0 -0.22086835996E+03  0.60398532631E+02 -0.37090887589E+03  0.43589472286E+03  0.50400001928E-02 0. -1.
       -1    1    3    3    0  502  0.22086835996E+03 -0.60398532631E+02 -0.92634661526E+03  0.95422684243E+03  0.50400001928E-02 0.  1.
</event>
<event>
 5   0  0.3187123E-01  0.4889815E+03  0.7818609E-02  0.1016696E+00
        2   -1    0    0  501    0  0.00000000000E+00  0.00000000000E+00  0.41271671923E+03  0.41271671923E+03  0.25500000920E-02 0. -1.
       -2   -1    0    0    0  501  0.00000000000E+00  0.00000000000E+00 -0.14483477356E+03  0.14483477358E+03  0.25500000920E-02 0.  1.
    10030    2    1    2    0    0  0.00000000000E+00  0.00000000000E+00  0.26788194567E+03  0.55755149281E+03  0.48898152350E+03 0.  0.
        5    1    3    3  502    0 -0.71215313242E+02  0.21910017760E+02  0.39940157845E+03  0.40631930866E+03  0.46999998093E+01 0. -1.
       -5    1    3    3    0  502  0.71215313242E+02 -0.21910017760E+02 -0.13151963279E+03  0.15123218416E+03  0.46999998093E+01 0.  1.
</event>
<event>
 5   0  0.3178149E-01  0.5015653E+03  0.7818609E-02  0.1013371E+00
       -2   -1    0    0    0  501  0.00000000000E+00  0.00000000000E+00  0.79688632615E+03  0.79688632615E+03  0.25500000920E-02 0.  1.
        2   -1    0    0  501    0  0.00000000000E+00  0.00000000000E+00 -0.78922079419E+02  0.78922079460E+02  0.25500000920E-02 0. -1.
    10030    2    1    2    0    0  0.00000000000E+00  0.00000000000E+00  0.71796424673E+03  0.87580840561E+03  0.50156525374E+03 0.  0.
        3    1    3    3  502    0  0.14660712025E+03 -0.20337081087E+03  0.34813610884E+03  0.42901293093E+03  0.10100000352E+00 0. -1.
       -3    1    3    3    0  502 -0.14660712025E+03  0.20337081087E+03  0.36982813789E+03  0.44679547468E+03  0.10100000352E+00 0.  1.
</event>
<event>
 5   0  0.2000612E-01  0.4987604E+03  0.7818609E-02  0.1014103E+00
       -1   -1    0    0    0  501  0.00000000000E+00  0.00000000000E+00  0.30773613581E+03  0.30773613585E+03  0.50400001928E-02 0.  1.
        1   -1    0    0  501    0  0.00000000000E+00  0.00000000000E+00 -0.20209029537E+03  0.20209029543E+03  0.50400001928E-02 0. -1.
    10030    2    1    2    0    0  0.00000000000E+00  0.00000000000E+00  0.10564584044E+03  0.50982643128E+03  0.49876040985E+03 0.  0.
        2    1    3    3  502    0  0.22347439835E+03 -0.34471693930E+01  0.16590192949E+03  0.27834536085E+03  0.25500000920E-02 0.  1.
       -2    1    3    3    0  502 -0.22347439835E+03  0.34471693930E+01 -0.60256089049E+02  0.23148107043E+03  0.25500000920E-02 0. -1.
</event>
<event>
 5   0  0.1984297E-01  0.4229453E+03  0.7818609E-02  0.1036112E+00
        1   -1    0    0  501    0  0.00000000000E+00  0.00000000000E+00  0.11814440845E+04  0.11814440846E+04  0.50400001928E-02 0. -1.
       -1   -1    0    0    0  501  0.00000000000E+00  0.00000000000E+00 -0.37852564670E+02  0.37852565006E+02  0.50400001928E-02 0.  1.
    10030    2    1    2    0    0  0.00000000000E+00  0.00000000000E+00  0.11435915199E+04  0.12192966496E+04  0.42294533371E+03 0.  0.
        3    1    3    3  502    0  0.35676951448E+02  0.62263532652E+02  0.11452702828E+04  0.11475162845E+04  0.10100000352E+00 0. -1.
       -3    1    3    3    0  502 -0.35676951448E+02 -0.62263532652E+02 -0.16787629066E+01  0.71780365065E+02  0.10100000352E+00 0.  1.
</event>
<event>
 5   0  0.1984680E-01  0.5109665E+03  0.7818609E-02  0.1010955E+00
        1   -1    0    0  501    0  0.00000000000E+00  0.00000000000E+00  0.66186884803E+03  0.66186884805E+03  0.50400001928E-02 0. -1.
       -1   -1    0    0    0  501  0.00000000000E+00  0.00000000000E+00 -0.98617276377E+02  0.98617276505E+02  0.50400001928E-02 0.  1.
    10030    2    1    2    0    0  0.00000000000E+00  0.00000000000E+00  0.56325157165E+03  0.76048612455E+03  0.51096654751E+03 0.  0.
        5    1    3    3  502    0 -0.43530527727E+02  0.22276997919E+03  0.10724192024E+03  0.25108622011E+03  0.46999998093E+01 0.  1.
       -5    1    3    3    0  502  0.43530527727E+02 -0.22276997919E+03  0.45600965141E+03  0.50939990445E+03  0.46999998093E+01 0. -1.
</event>
<event>
 5   0  0.1292375E-01  0.5201800E+03  0.7818609E-02  0.1008642E+00
        3   -1    0    0  501    0  0.00000000000E+00  0.00000000000E+00  0.59405635525E+03  0.59405636384E+03  0.10100000352E+00 0. -1.
       -3   -1    0    0    0  501  0.00000000000E+00  0.00000000000E+00 -0.11387268060E+03  0.11387272539E+03  0.10100000352E+00 0.  1.
    10030    2    1    2    0    0  0.00000000000E+00  0.00000000000E+00  0.48018367466E+03  0.70792908923E+03  0.52018000151E+03 0.  0.
        4    1    3    3  502    0 -0.59898076778E+02 -0.21469847429E+03  0.57696713175E+02  0.23024712392E+03  0.12699999809E+01 0.  1.
       -4    1    3    3    0  502  0.59898076778E+02  0.21469847429E+03  0.42248696148E+03  0.47768196531E+03  0.12699999809E+01 0. -1.
</event>
<event>
 5   0  0.2000612E-01  0.5241460E+03  0.7818609E-02  0.1007662E+00
       -1   -1    0    0    0  501  0.00000000000E+00  0.00000000000E+00  0.19794498210E+03  0.19794498217E+03  0.50400001928E-02 0.  1.
        1   -1    0    0  501    0  0.00000000000E+00  0.00000000000E+00 -0.34697646540E+03  0.34697646544E+03  0.50400001928E-02 0. -1.
    10030    2    1    2    0    0  0.00000000000E+00  0.00000000000E+00 -0.14903148330E+03  0.54492144760E+03  0.52414597303E+03 0.  0.
        2    1    3    3  502    0 -0.65463947824E+02  0.29792068276E+02 -0.33651485013E+03  0.34411530068E+03  0.25500000920E-02 0. -1.
       -2    1    3    3    0  502  0.65463947824E+02 -0.29792068276E+02  0.18748336683E+03  0.20080614692E+03  0.25500000920E-02 0.  1.
</event>
<event>
 5   0  0.1967161E-01  0.4985593E+03  0.7818609E-02  0.1014156E+00
       -1   -1    0    0    0  501  0.00000000000E+00  0.00000000000E+00  0.22803135545E+03  0.22803135550E+03  0.50400001928E-02 0. -1.
        1   -1    0    0  501    0  0.00000000000E+00  0.00000000000E+00 -0.27250788869E+03  0.27250788874E+03  0.50400001928E-02 0.  1.
    10030    2    1    2    0    0  0.00000000000E+00  0.00000000000E+00 -0.44476533244E+02  0.50053924424E+03  0.49855929739E+03 0.  0.
        1    1    3    3  502    0 -0.13592836876E+03  0.20888091540E+03 -0.27969261530E+02  0.25077886248E+03  0.50400001928E-02 0.  1.
       -1    1    3    3    0  502  0.13592836876E+03 -0.20888091540E+03 -0.16507271714E+02  0.24976038176E+03  0.50400001928E-02 0. -1.
</event>
<event>
 5   0  0.3111146E-01  0.4948482E+03  0.7818609E-02  0.1015132E+00
        2   -1    0    0  501    0  0.00000000000E+00  0.00000000000E+00  0.16244816042E+04  0.16244816042E+04  0.25500000920E-02 0. -1.
       -2   -1    0    0    0  501  0.00000000000E+00  0.00000000000E+00 -0.37685055090E+02  0.37685055176E+02  0.25500000920E-02 0.  1.
    10030    2    1    2    0    0  0.00000000000E+00  0.00000000000E+00  0.15867965491E+04  0.16621666594E+04  0.49484817397E+03 0.  0.
        1    1    3    3  502    0  0.72548168505E+02 -0.91484620271E+02  0.15261253228E+04  0.15305852389E+04  0.50400001928E-02 0. -1.
       -1    1    3    3    0  502 -0.72548168505E+02  0.91484620271E+02  0.60671226320E+02  0.13158142053E+03  0.50400001928E-02 0.  1.
</event>
<event>
 5   0  0.1984297E-01  0.5616784E+03  0.7818609E-02  0.9988264E-01
       -1   -1    0    0    0  501  0.00000000000E+00  0.00000000000E+00  0.43455557367E+02  0.43455557659E+02  0.50400001928E-02 0.  1.
        1   -1    0    0  501    0  0.00000000000E+00  0.00000000000E+00 -0.18149726992E+04  0.18149726992E+04  0.50400001928E-02 0. -1.
    10030    2    1    2    0    0  0.00000000000E+00  0.00000000000E+00 -0.17715171418E+04  0.18584282569E+04  0.56167837960E+03 0.  0.
        3    1    3    3  502    0 -0.27512784984E+03  0.36888148495E+02 -0.10267020814E+04  0.10635662853E+04  0.10100000352E+00 0.  1.
       -3    1    3    3    0  502  0.27512784984E+03 -0.36888148495E+02 -0.74481506050E+03  0.79486197154E+03  0.10100000352E+00 0. -1.
</event>
<event>
 5   0  0.3329246E-01  0.4990451E+03  0.7818609E-02  0.1014028E+00
       -2   -1    0    0    0  501  0.00000000000E+00  0.00000000000E+00  0.31200083567E+02  0.31200083671E+02  0.25500000920E-02 0.  1.
        2   -1    0    0  501    0  0.00000000000E+00  0.00000000000E+00 -0.19955552481E+04  0.19955552481E+04  0.25500000920E-02 0. -1.
    10030    2    1    2    0    0  0.00000000000E+00  0.00000000000E+00 -0.19643551645E+04  0.20267553318E+04  0.49904505052E+03 0.  0.
        2    1    3    3  502    0  0.10407534924E+03  0.17254594941E+03 -0.15798563319E+04  0.15926549571E+04  0.25500000920E-02 0. -1.
       -2    1    3    3    0  502 -0.10407534924E+03 -0.17254594941E+03 -0.38449883266E+03  0.43410037468E+03  0.25500000920E-02 0.  1.
</event>
<event>
 5   0  0.1984680E-01  0.4727471E+03  0.7818609E-02  0.1021148E+00
       -1   -1    0    0    0  501  0.00000000000E+00  0.00000000000E+00  0.75157104718E+02  0.75157104887E+02  0.50400001928E-02 0. -1.
        1   -1    0    0  501    0  0.00000000000E+00  0.00000000000E+00 -0.74340867480E+03  0.74340867482E+03  0.50400001928E-02 0.  1.
    10030    2    1    2    0    0  0.00000000000E+00  0.00000000000E+00 -0.66825157008E+03  0.81856577970E+03  0.47274705159E+03 0.  0.
        5    1    3    3  502    0 -0.64349637420E+02 -0.21847751451E+02  0.57792983847E+02  0.89332631550E+02  0.46999998093E+01 0. -1.
       -5    1    3    3    0  502  0.64349637420E+02  0.21847751451E+02 -0.72604455393E+03  0.72923314815E+03  0.46999998093E+01 0.  1.
</event>
<event>
 5   0  0.3117389E-01  0.4963196E+03  0.7818609E-02  0.1014744E+00
       -2   -1    0    0    0  501  0.00000000000E+00  0.00000000000E+00  0.34020212398E+02  0.34020212494E+02  0.25500000920E-02 0.  1.
        2   -1    0    0  501    0  0.00000000000E+00  0.00000000000E+00 -0.18101968036E+04  0.18101968036E+04  0.25500000920E-02 0. -1.
    10030    2    1    2    0    0  0.00000000000E+00  0.00000000000E+00 -0.17761765912E+04  0.18442170161E+04  0.49631957379E+03 0.  0.
        4    1    3    3  502    0 -0.15764835983E+03 -0.11852580618E+02 -0.17733151309E+03  0.23757434091E+03  0.12699999809E+01 0.  1.
       -4    1    3    3    0  502  0.15764835983E+03  0.11852580618E+02 -0.15988450781E+04  0.16066426752E+04  0.12699999809E+01 0. -1.
</event>
<event>
 5   0  0.3111146E-01  0.5056407E+03  0.7818609E-02  0.1012317E+00
        2   -1    0    0  501    0  0.00000000000E+00  0.00000000000E+00  0.13080634076E+04  0.13080634076E+04  0.25500000920E-02 0.  1.
       -2   -1    0    0    0  501  0.00000000000E+00  0.00000000000E+00 -0.48864699492E+02  0.48864699559E+02  0.25500000920E-02 0. -1.
    10030    2    1    2    0    0  0.00000000000E+00  0.00000000000E+00  0.12591987081E+04  0.13569281072E+04  0.50564068419E+03 0.  0.
        1    1    3    3  502    0  0.65184662512E+02 -0.21819994192E+03  0.92427899719E+03  0.95192012247E+03  0.50400001928E-02 0.  1.
       -1    1    3    3    0  502 -0.65184662512E+02  0.21819994192E+03  0.33491971092E+03  0.40500798470E+03  0.50400001928E-02 0. -1.
</event>
<event>
 5   0  0.3111146E-01  0.5261599E+03  0.7818609E-02  0.1007168E+00
        2   -1    0    0  501    0  0.00000000000E+00  0.00000000000E+00  0.18506977182E+03  0.18506977184E+03  0.25500000920E-02 0.  1.
       -2   -1    0    0    0  501  0.00000000000E+00  0.00000000000E+00 -0.37397275471E+03  0.37397275471E+03  0.25500000920E-02 0. -1.
    10030    2    1    2    0    0  0.00000000000E+00  0.00000000000E+00 -0.18890298289E+03  0.55904252655E+03  0.52615987071E+03 0.  0.
        1    1    3    3  502    0  0.23968158103E+03  0.29757191690E+02  0.16365835957E+02  0.24207559017E+03  0.50400001928E-02 0.  1.
       -1    1    3    3    0  502 -0.23968158103E+03 -0.29757191690E+02 -0.20526881884E+03  0.31696693638E+03  0.50400001928E-02 0. -1.
</event>
<event>
 5   0  0.2000612E-01  0.4946796E+03  0.7818609E-02  0.1015177E+00
       -1   -1    0    0    0  501  0.00000000000E+00  0.00000000000E+00  0.16878623189E+03  0.16878623197E+03  0.50400001928E-02 0. -1.
        1   -1    0    0  501    0  0.00000000000E+00  0.00000000000E+00 -0.36245245342E+03  0.36245245345E+03  0.50400001928E-02 0.  1.
    10030    2    1    2    0    0  0.00000000000E+00  0.00000000000E+00 -0.19366622153E+03  0.53123868542E+03  0.49467962918E+03 0.  0.
        2    1    3    3  502    0 -0.12969698641E+03  0.20841084957E+03 -0.64249471560E+02  0.25374078330E+03  0.25500000920E-02 0. -1.
       -2    1    3    3    0  502  0.12969698641E+03 -0.20841084957E+03 -0.12941674997E+03  0.27749790212E+03  0.25500000920E-02 0.  1.
</event>
<event>
 5   0  0.3117389E-01  0.4917083E+03  0.7818609E-02  0.1015966E+00
       -2   -1    0    0    0  501  0.00000000000E+00  0.00000000000E+00  0.31571560771E+02  0.31571560874E+02  0.25500000920E-02 0. -1.
        2   -1    0    0  501    0  0.00000000000E+00  0.00000000000E+00 -0.19145160333E+04  0.19145160333E+04  0.25500000920E-02 0.  1.
    10030    2    1    2    0    0  0.00000000000E+00  0.00000000000E+00 -0.18829444725E+04  0.19460875941E+04  0.49170828503E+03 0.  0.
        4    1    3    3  502    0 -0.86429425526E+02  0.20695880644E+03 -0.13400268365E+04  0.13586668203E+04  0.12699999809E+01 0.  1.
       -4    1    3    3    0  502  0.86429425526E+02 -0.20695880644E+03 -0.54291763600E+03  0.58742077384E+03  0.12699999809E+01 0. -1.
</event>
<event>
 5   0  0.3117389E-01  0.5135603E+03  0.7818609E-02  0.1010299E+00
       -2   -1    0    0    0  501  0.00000000000E+00  0.00000000000E+00  0.49828999742E+02  0.49828999807E+02  0.25500000920E-02 0. -1.
        2   -1    0    0  501    0  0.00000000000E+00  0.00000000000E+00 -0.13232463724E+04  0.13232463724E+04  0.25500000920E-02 0.  1.
    10030    2    1    2    0    0  0.00000000000E+00  0.00000000000E+00 -0.12734173727E+04  0.13730753722E+04  0.51356029129E+03 0.  0.
        4    1    3    3  502    0  0.99156721250E+02  0.80437447485E+02 -0.12323498029E+04  0.12389470884E+04  0.12699999809E+01 0.  1.
       -4    1    3    3    0  502 -0.99156721250E+02 -0.80437447485E+02 -0.41067569778E+02  0.13412828380E+03  0.12699999809E+01 0. -1.
</event>
<event>
 5   0  0.1292375E-01  0.4914185E+03  0.7818609E-02  0.1016043E+00
       -4   -1    0    0    0  501  0.00000000000E+00  0.00000000000E+00  0.13911510500E+04  0.13911516297E+04  0.12699999809E+01 0. -1.
        4   -1    0    0  501    0  0.00000000000E+00  0.00000000000E+00 -0.43388024726E+02  0.43406607671E+02  0.12699999809E+01 0.  1.
    10030    2    1    2    0    0  0.00000000000E+00  0.00000000000E+00  0.13477630252E+04  0.14345582373E+04  0.49141852235E+03 0.  0.
        4    1    3    3  502    0 -0.92097617991E+01  0.66903382629E+02 -0.15762224748E+02  0.69360961272E+02  0.12699999809E+01 0.  1.
       -4    1    3    3    0  502  0.92097617991E+01 -0.66903382629E+02  0.13635252500E+04  0.13651972761E+04  0.12699999809E+01 0. -1.
</event>
<event>
 5   0  0.3111146E-01  0.5021953E+03  0.7818609E-02  0.1013207E+00
       -2   -1    0    0    0  501  0.00000000000E+00  0.00000000000E+00  0.30096831905E+03  0.30096831907E+03  0.25500000920E-02 0.  1.
        2   -1    0    0  501    0  0.00000000000E+00  0.00000000000E+00 -0.20949057399E+03  0.20949057400E+03  0.25500000920E-02 0. -1.
    10030    2    1    2    0    0  0.00000000000E+00  0.00000000000E+00  0.91477745068E+02  0.51045889307E+03  0.50219528440E+03 0.  0.
        1    1    3    3  502    0  0.12928231462E+03  0.11873952584E+03 -0.13676230997E+03  0.22252397921E+03  0.50400001928E-02 0. -1.
       -1    1    3    3    0  502 -0.12928231462E+03 -0.11873952584E+03  0.22824005504E+03  0.28793491386E+03  0.50400001928E-02 0.  1.
</event>
<event>
 5   0  0.1984297E-01  0.3063129E+03  0.7818609E-02  0.1082127E+00
       -1   -1    0    0    0  501  0.00000000000E+00  0.00000000000E+00  0.15469962700E+03  0.15469962708E+03  0.50400001928E-02 0. -1.
        1   -1    0    0  501    0  0.00000000000E+00  0.00000000000E+00 -0.15162870787E+03  0.15162870795E+03  0.50400001928E-02 0.  1.
    10030    2    1    2    0    0  0.00000000000E+00  0.00000000000E+00  0.30709191298E+01  0.30632833503E+03  0.30631294178E+03 0.  0.
        3    1    3    3  502    0 -0.12445435009E+03 -0.74119962919E+01  0.90495376186E+02  0.15405598417E+03  0.10100000352E+00 0.  1.
       -3    1    3    3    0  502  0.12445435009E+03  0.74119962919E+01 -0.87424457056E+02  0.15227235087E+03  0.10100000352E+00 0. -1.
</event>
<event>
 5   0  0.1984680E-01  0.4751336E+03  0.7818609E-02  0.1020481E+00
        1   -1    0    0  501    0  0.00000000000E+00  0.00000000000E+00  0.11586927749E+03  0.11586927759E+03  0.50400001928E-02 0. -1.
       -1   -1    0    0    0  501  0.00000000000E+00  0.00000000000E+00 -0.48708332839E+03  0.48708332842E+03  0.50400001928E-02 0.  1.
    10030    2    1    2    0    0  0.00000000000E+00  0.00000000000E+00 -0.37121405091E+03  0.60295260601E+03  0.47513363752E+03 0.  0.
        5    1    3    3  502    0 -0.18264209929E+03 -0.15964378462E+01 -0.37829384945E+03  0.42010595280E+03  0.46999998093E+01 0. -1.
       -5    1    3    3    0  502  0.18264209929E+03  0.15964378462E+01  0.70797985481E+01  0.18284665321E+03  0.46999998093E+01 0.  1.
</event>
<event>
 5   0  0.1984297E-01  0.4826848E+03  0.7818609E-02  0.1018400E+00
        1   -1    0    0  501    0  0.00000000000E+00  0.00000000000E+00  0.16951710895E+04  0.16951710895E+04  0.50400001928E-02 0.  1.
       -1   -1    0    0    0  501  0.00000000000E+00  0.00000000000E+00 -0.34360041667E+02  0.34360042036E+02  0.50400001928E-02 0. -1.
    10030    2    1    2    0    0  0.00000000000E+00  0.00000000000E+00  0.16608110478E+04  0.17295311315E+04  0.48268478158E+03 0.  0.
        3    1    3    3  502    0 -0.99014673240E+02 -0.12698186745E+03  0.14745539284E+04  0.14833197895E+04  0.10100000352E+00 0.  1.
       -3    1    3    3    0  502  0.99014673240E+02  0.12698186745E+03  0.18625711947E+03  0.24621134201E+03  0.10100000352E+00 0. -1.
</event>
<event>
 5   0  0.1292375E-01  0.5096776E+03  0.7818609E-02  0.1011283E+00
       -4   -1    0    0    0  501  0.00000000000E+00  0.00000000000E+00  0.78448142055E+02  0.78458421421E+02  0.12699999809E+01 0. -1.
        4   -1    0    0  501    0  0.00000000000E+00  0.00000000000E+00 -0.82777897806E+03  0.82777995230E+03  0.12699999809E+01 0.  1.
    10030    2    1    2    0    0  0.00000000000E+00  0.00000000000E+00 -0.74933083601E+03  0.90623837372E+03  0.50967763165E+03 0.  0.
        3    1    3    3  502    0  0.11646699240E+03 -0.21472629999E+03 -0.50375402921E+03  0.55985719284E+03  0.10100000352E+00 0.  1.
       -3    1    3    3    0  502 -0.11646699240E+03  0.21472629999E+03 -0.24557680680E+03  0.34638118088E+03  0.10100000352E+00 0. -1.
</event>
<event>
 5   0  0.3178149E-01  0.5287141E+03  0.7818609E-02  0.1006544E+00
       -2   -1    0    0    0  501  0.00000000000E+00  0.00000000000E+00  0.12767565671E+03  0.12767565674E+03  0.25500000920E-02 0. -1.
        2   -1    0    0  501    0  0.00000000000E+00  0.00000000000E+00 -0.54736086266E+03  0.54736086267E+03  0.25500000920E-02 0.  1.
    10030    2    1    2    0    0  0.00000000000E+00  0.00000000000E+00 -0.41968520595E+03  0.67503651941E+03  0.52871412922E+03 0.  0.
        3    1    3    3  502    0 -0.65093475722E+02 -0.19918990633E+03 -0.41559721796E+03  0.46544047647E+03  0.10100000352E+00 0.  1.
       -3    1    3    3    0  502  0.65093475722E+02  0.19918990633E+03 -0.40879879952E+01  0.20959604293E+03  0.10100000352E+00 0. -1.
</event>
<event>
 5   0  0.3187123E-01  0.4925728E+03  0.7818609E-02  0.1015736E+00
       -2   -1    0    0    0  501  0.00000000000E+00  0.00000000000E+00  0.12543375410E+03  0.12543375412E+03  0.25500000920E-02 0.  1.
        2   -1    0    0  501    0  0.00000000000E+00  0.00000000000E+00 -0.48357786552E+03  0.48357786552E+03  0.25500000920E-02 0. -1.
    10030    2    1    2    0    0  0.00000000000E+00  0.00000000000E+00 -0.35814411142E+03  0.60901161965E+03  0.49257278480E+03 0.  0.
        5    1    3    3  502    0 -0.17462949104E+03 -0.13454065975E+03 -0.43416737758E+02  0.22473039711E+03  0.46999998093E+01 0. -1.
       -5    1    3    3    0  502  0.17462949104E+03  0.13454065975E+03 -0.31472737366E+03  0.38428122254E+03  0.46999998093E+01 0.  1.
</event>
<event>
 5   0  0.3329246E-01  0.5162675E+03  0.7818609E-02  0.1009618E+00
       -2   -1    0    0    0  501  0.00000000000E+00  0.00000000000E+00  0.10388955689E+03  0.10388955692E+03  0.25500000920E-02 0.  1.
        2   -1    0    0  501    0  0.00000000000E+00  0.00000000000E+00 -0.64138332090E+03  0.64138332091E+03  0.25500000920E-02 0. -1.
    10030    2    1    2    0    0  0.00000000000E+00  0.00000000000E+00 -0.53749376401E+03  0.74527287783E+03  0.51626748500E+03 0.  0.
        2    1    3    3  502    0 -0.82157932353E+02 -0.10279914957E+03 -0.58932360882E+03  0.60383764947E+03  0.25500000920E-02 0. -1.
       -2    1    3    3    0  502  0.82157932353E+02  0.10279914957E+03  0.51829844805E+02  0.14143522836E+03  0.25500000920E-02 0.  1.
</event>
<event>
 5   0  0.2000612E-01  0.4725536E+03  0.7818609E-02  0.1021202E+00
       -1   -1    0    0    0  501  0.00000000000E+00  0.00000000000E+00  0.10493753763E+03  0.10493753775E+03  0.50400001928E-02 0. -1.
        1   -1    0    0  501    0  0.00000000000E+00  0.00000000000E+00 -0.53199968154E+03  0.53199968157E+03  0.50400001928E-02 0.  1.
    10030    2    1    2    0    0  0.00000000000E+00  0.00000000000E+00 -0.42706214392E+03  0.63693721931E+03  0.47255364413E+03 0.  0.
        2    1    3    3  502    0  0.22226847160E+03  0.49691052385E+02 -0.29828859536E+03  0.37529796200E+03  0.25500000920E-02 0. -1.
       -2    1    3    3    0  502 -0.22226847160E+03 -0.49691052385E+02 -0.12877354855E+03  0.26163925731E+03  0.25500000920E-02 0.  1.
</event>
<event>
 5   0  0.3111146E-01  0.4988646E+03  0.7818609E-02  0.1014076E+00
       -2   -1    0    0    0  501  0.00000000000E+00  0.00000000000E+00  0.57012254600E+02  0.57012254657E+02  0.25500000920E-02 0.  1.
        2   -1    0    0  501    0  0.00000000000E+00  0.00000000000E+00 -0.10912824041E+04  0.10912824041E+04  0.25500000920E-02 0. -1.
    10030    2    1    2    0    0  0.00000000000E+00  0.00000000000E+00 -0.10342701495E+04  0.11482946588E+04  0.49886459204E+03 0.  0.
        1    1    3    3  502    0  0.10332499791E+03 -0.54425260881E+02 -0.98035517321E+01  0.11719331836E+03  0.50400001928E-02 0.  1.
       -1    1    3    3    0  502 -0.10332499791E+03  0.54425260881E+02 -0.10244665978E+04  0.10311013404E+04  0.50400001928E-02 0. -1.
</event>
<event>
 5   0  0.1292375E-01  0.4913719E+03  0.7818609E-02  0.1016056E+00
        3   -1    0    0  501    0  0.00000000000E+00  0.00000000000E+00  0.13105359483E+04  0.13105359522E+04  0.10100000352E+00 0. -1.
       -3   -1    0    0    0  501  0.00000000000E+00  0.00000000000E+00 -0.46058649241E+02  0.46058759980E+02  0.10100000352E+00 0.  1.
    10030    2    1    2    0    0  0.00000000000E+00  0.00000000000E+00  0.12644772991E+04  0.13565947122E+04  0.49137192967E+03 0.  0.
        2    1    3    3  502    0 -0.11117582959E+03  0.21070400545E+03  0.79801154052E+03  0.83281370174E+03  0.25500000920E-02 0. -1.
       -2    1    3    3    0  502  0.11117582959E+03 -0.21070400545E+03  0.46646575858E+03  0.52378101047E+03  0.25500000920E-02 0.  1.
</event>
<event>
 5   0  0.1292375E-01  0.4742450E+03  0.7818609E-02  0.1020729E+00
        4   -1    0    0  501    0  0.00000000000E+00  0.00000000000E+00  0.27602394980E+03  0.27602687145E+03  0.12699999809E+01 0. -1.
       -4   -1    0    0    0  501  0.00000000000E+00  0.00000000000E+00 -0.20369761425E+03  0.20370157326E+03  0.12699999809E+01 0.  1.
    10030    2    1    2    0    0  0.00000000000E+00  0.00000000000E+00  0.72326335550E+02  0.47972844471E+03  0.47424495975E+03 0.  0.
        4    1    3    3  502    0  0.21525579803E+03 -0.98169828505E+02  0.20070617453E+02  0.23743802644E+03  0.12699999809E+01 0. -1.
       -4    1    3    3    0  502 -0.21525579803E+03  0.98169828505E+02  0.52255718097E+02  0.24229041827E+03  0.12699999809E+01 0.  1.
</event>
<event>
 5   0  0.1967161E-01  0.5037631E+03  0.7818609E-02  0.1012801E+00
        1   -1    0    0  501    0  0.00000000000E+00  0.00000000000E+00  0.15474971650E+04  0.15474971650E+04  0.50400001928E-02 0.  1.
       -1   -1    0    0    0  501  0.00000000000E+00  0.00000000000E+00 -0.40998009491E+02  0.40998009801E+02  0.50400001928E-02 0. -1.
    10030    2    1    2    0    0  0.00000000000E+00  0.00000000000E+00  0.15064991555E+04  0.15884951748E+04  0.50376305427E+03 0.  0.
        1    1    3    3  502    0  0.81843954086E+02  0.23179002029E+03  0.92651410321E+03  0.95856842729E+03  0.50400001928E-02 0.  1.
       -1    1    3    3    0  502 -0.81843954086E+02 -0.23179002029E+03  0.57998505233E+03  0.62992674755E+03  0.50400001928E-02 0. -1.
</event>
<event>
 5   0  0.1292375E-01  0.5051553E+03  0.7818609E-02  0.1012442E+00
       -3   -1    0    0    0  501  0.00000000000E+00  0.00000000000E+00  0.64443368137E+02  0.64443447284E+02  0.10100000352E+00 0.  1.
        3   -1    0    0  501    0  0.00000000000E+00  0.00000000000E+00 -0.98994540219E+03  0.98994540735E+03  0.10100000352E+00 0. -1.
    10030    2    1    2    0    0  0.00000000000E+00  0.00000000000E+00 -0.92550203406E+03  0.10543888546E+04  0.50515526497E+03 0.  0.
        1    1    3    3  502    0 -0.80669141795E+02 -0.35458063090E+02  0.31319402292E+02  0.93518392102E+02  0.50400001928E-02 0.  1.
       -1    1    3    3    0  502  0.80669141795E+02  0.35458063090E+02 -0.95682143635E+03  0.96087046253E+03  0.50400001928E-02 0. -1.
</event>
<event>
 5   0  0.1984297E-01  0.4893430E+03  0.7818609E-02  0.1016599E+00
       -1   -1    0    0    0  501  0.00000000000E+00  0.00000000000E+00  0.11974075425E+03  0.11974075435E+03  0.50400001928E-02 0. -1.
        1   -1    0    0  501    0  0.00000000000E+00  0.00000000000E+00 -0.49994791060E+03  0.49994791062E+03  0.50400001928E-02 0.  1.
    10030    2    1    2    0    0  0.00000000000E+00  0.00000000000E+00 -0.38020715635E+03  0.61968866498E+03  0.48934298785E+03 0.  0.
        3    1    3    3  502    0 -0.91608825560E+02  0.37016056895E+02  0.93353099744E+02  0.13593077952E+03  0.10100000352E+00 0. -1.
       -3    1    3    3    0  502  0.91608825560E+02 -0.37016056895E+02 -0.47356025609E+03  0.48375788546E+03  0.10100000352E+00 0.  1.
</event>
<event>
 5   0  0.2000612E-01  0.5035346E+03  0.7818609E-02  0.1012860E+00
       -1   -1    0    0    0  501  0.00000000000E+00  0.00000000000E+00  0.18992771910E+02  0.18992772579E+02  0.50400001928E-02 0. -1.
        1   -1    0    0  501    0  0.00000000000E+00  0.00000000000E+00 -0.33374154547E+04  0.33374154547E+04  0.50400001928E-02 0.  1.
    10030    2    1    2    0    0  0.00000000000E+00  0.00000000000E+00 -0.33184226828E+04  0.33564082273E+04  0.50353459317E+03 0.  0.
        2    1    3    3  502    0  0.17595081726E+03  0.53861744758E+02 -0.28046058127E+04  0.28106357897E+04  0.25500000920E-02 0.  1.
       -2    1    3    3    0  502 -0.17595081726E+03 -0.53861744758E+02 -0.51381687008E+03  0.54577243758E+03  0.25500000920E-02 0. -1.
</event>
<event>
 5   0  0.1984297E-01  0.4932985E+03  0.7818609E-02  0.1015543E+00
       -1   -1    0    0    0  501  0.00000000000E+00  0.00000000000E+00  0.12942539266E+03  0.12942539275E+03  0.50400001928E-02 0.  1.
        1   -1    0    0  501    0  0.00000000000E+00  0.00000000000E+00 -0.47004564618E+03  0.47004564621E+03  0.50400001928E-02 0. -1.
    10030    2    1    2    0    0  0.00000000000E+00  0.00000000000E+00 -0.34062025353E+03  0.59947103896E+03  0.49329845879E+03 0.  0.
        3    1    3    3  502    0 -0.59349038759E+02 -0.68772593436E+02 -0.44897655780E+03  0.45807416175E+03  0.10100000352E+00 0. -1.
       -3    1    3    3    0  502  0.59349038759E+02  0.68772593436E+02  0.10835630427E+03  0.14139687721E+03  0.10100000352E+00 0.  1.
</event>
<event>
 5   0  0.2013450E-01  0.4821597E+03  0.7818609E-02  0.1018543E+00
       -1   -1    0    0    0  501  0.00000000000E+00  0.00000000000E+00  0.37066524404E+03  0.37066524408E+03  0.50400001928E-02 0.  1.
        1   -1    0    0  501    0  0.00000000000E+00  0.00000000000E+00 -0.15679783010E+03  0.15679783018E+03  0.50400001928E-02 0. -1.
    10030    2    1    2    0    0  0.00000000000E+00  0.00000000000E+00  0.21386741395E+03  0.52746307426E+03  0.48215974942E+03 0.  0.
        4    1    3    3  502    0 -0.61428463303E+02 -0.34627558429E+01  0.36192816322E+03  0.36712267025E+03  0.12699999809E+01 0.  1.
       -4    1    3    3    0  502  0.61428463303E+02  0.34627558429E+01 -0.14806074927E+03  0.16034040401E+03  0.12699999809E+01 0. -1.
</event>
<event>
 5   0  0.1292375E-01  0.4748742E+03  0.7818609E-02  0.1020553E+00
        4   -1    0    0  501    0  0.00000000000E+00  0.00000000000E+00  0.97017132189E+02  0.97025444282E+02  0.12699999809E+01 0.  1.
       -4   -1    0    0    0  501  0.00000000000E+00  0.00000000000E+00 -0.58106318549E+03  0.58106457338E+03  0.12699999809E+01 0. -1.
    10030    2    1    2    0    0  0.00000000000E+00  0.00000000000E+00 -0.48404605330E+03  0.67809001766E+03  0.47487418368E+03 0.  0.
        3    1    3    3  502    0  0.16076814300E+03 -0.85816737306E+02 -0.24688262246E+02  0.18390331345E+03  0.10100000352E+00 0.  1.
       -3    1    3    3    0  502 -0.16076814300E+03  0.85816737306E+02 -0.45935779106E+03  0.49418670421E+03  0.10100000352E+00 0. -1.
</event>
<event>
 5   0  0.3329246E-01  0.4869484E+03  0.7818609E-02  0.1017243E+00
       -2   -1    0    0    0  501  0.00000000000E+00  0.00000000000E+00  0.37098357628E+02  0.37098357716E+02  0.25500000920E-02 0.  1.
        2   -1    0    0  501    0  0.00000000000E+00  0.00000000000E+00 -0.15979061489E+04  0.15979061489E+04  0.25500000920E-02 0. -1.
    10030    2    1    2    0    0  0.00000000000E+00  0.00000000000E+00 -0.15608077913E+04  0.16350045067E+04  0.48694843194E+03 0.  0.
        2    1    3    3  502    0 -0.12865282325E+02  0.49782323920E+02 -0.15794684754E+04  0.15803051794E+04  0.25500000920E-02 0. -1.
       -2    1    3    3    0  502  0.12865282325E+02 -0.49782323920E+02  0.18660684093E+02  0.54699327249E+02  0.25500000920E-02 0.  1.
</event>
<event>
 5   0  0.2000612E-01  0.5077176E+03  0.7818609E-02  0.1011784E+00
       -1   -1    0    0    0  501  0.00000000000E+00  0.00000000000E+00  0.40041607709E+02  0.40041608026E+02  0.50400001928E-02 0. -1.
        1   -1    0    0  501    0  0.00000000000E+00  0.00000000000E+00 -0.16094330067E+04  0.16094330067E+04  0.50400001928E-02 0.  1.
    10030    2    1    2    0    0  0.00000000000E+00  0.00000000000E+00 -0.15693913990E+04  0.16494746148E+04  0.50771758038E+03 0.  0.
        2    1    3    3  502    0 -0.19070787821E+03 -0.16417763706E+03 -0.89344543459E+03  0.92820716217E+03  0.25500000920E-02 0.  1.
       -2    1    3    3    0  502  0.19070787821E+03  0.16417763706E+03 -0.67594596442E+03  0.72126745258E+03  0.25500000920E-02 0. -1.
</event>
<event>
 5   0  0.1984680E-01  0.4049348E+03  0.7818609E-02  0.1042084E+00
       -1   -1    0    0    0  501  0.00000000000E+00  0.00000000000E+00  0.49976043648E+03  0.49976043651E+03  0.50400001928E-02 0.  1.
        1   -1    0    0  501    0  0.00000000000E+00  0.00000000000E+00 -0.82025400569E+02  0.82025400724E+02  0.50400001928E-02 0. -1.
    10030    2    1    2    0    0  0.00000000000E+00  0.00000000000E+00  0.41773503591E+03  0.58178583723E+03  0.40493480978E+03 0.  0.
        5    1    3    3  502    0  0.74258221638E+02 -0.17040530612E+03  0.93760487676E+02  0.20824353743E+03  0.46999998093E+01 0. -1.
       -5    1    3    3    0  502 -0.74258221638E+02  0.17040530612E+03  0.32397454824E+03  0.37354229980E+03  0.46999998093E+01 0.  1.
</event>
<event>
 5   0  0.1984680E-01  0.4759656E+03  0.7818609E-02  0.1020250E+00
        1   -1    0    0  501    0  0.00000000000E+00  0.00000000000E+00  0.29632831286E+03  0.29632831291E+03  0.50400001928E-02 0.  1.
       -1   -1    0    0    0  501  0.00000000000E+00  0.00000000000E+00 -0.19112523485E+03  0.19112523492E+03  0.50400001928E-02 0. -1.
    10030    2    1    2    0    0  0.00000000000E+00  0.00000000000E+00  0.10520307801E+03  0.48745354782E+03  0.47596562235E+03 0.  0.
        5    1    3    3  502    0 -0.23373371473E+03 -0.25764824759E+02  0.89788436474E+02  0.25175251522E+03  0.46999998093E+01 0. -1.
       -5    1    3    3    0  502  0.23373371473E+03  0.25764824759E+02  0.15414641536E+02  0.23570103260E+03  0.46999998093E+01 0.  1.
</event>
<event>
 5   0  0.3178149E-01  0.5336495E+03  0.7818609E-02  0.1005351E+00
        2   -1    0    0  501    0  0.00000000000E+00  0.00000000000E+00  0.17275950436E+03  0.17275950437E+03  0.25500000920E-02 0. -1.
       -2   -1    0    0    0  501  0.00000000000E+00  0.00000000000E+00 -0.41210728460E+03  0.41210728461E+03  0.25500000920E-02 0.  1.
    10030    2    1    2    0    0  0.00000000000E+00  0.00000000000E+00 -0.23934778024E+03  0.58486678898E+03  0.53364951133E+03 0.  0.
        3    1    3    3  502    0 -0.16066709589E+03 -0.84954356707E+02 -0.33378016277E+03  0.38005310903E+03  0.10100000352E+00 0. -1.
       -3    1    3    3    0  502  0.16066709589E+03  0.84954356707E+02  0.94432382524E+02  0.20481367995E+03  0.10100000352E+00 0.  1.
</event>
<event>
 5   0  0.3178149E-01  0.5165919E+03  0.7818609E-02  0.1009537E+00
       -2   -1    0    0    0  501  0.00000000000E+00  0.00000000000E+00  0.26881048748E+03  0.26881048750E+03  0.25500000920E-02 0. -1.
        2   -1    0    0  501    0  0.00000000000E+00  0.00000000000E+00 -0.24819267732E+03  0.24819267734E+03  0.25500000920E-02 0.  1.
    10030    2    1    2    0    0  0.00000000000E+00  0.00000000000E+00  0.20617810158E+02  0.51700316483E+03  0.51659188762E+03 0.  0.
        3    1    3    3  502    0  0.16216262775E+03  0.15548593317E+03  0.13786307627E+03  0.26358837466E+03  0.10100000352E+00 0.  1.
       -3    1    3    3    0  502 -0.16216262775E+03 -0.15548593317E+03 -0.11724526612E+03  0.25341479018E+03  0.10100000352E+00 0. -1.
</event>
<event>
 5   0  0.3117389E-01  0.4938306E+03  0.7818609E-02  0.1015402E+00
        2   -1    0    0  501    0  0.00000000000E+00  0.00000000000E+00  0.64194045425E+03  0.64194045425E+03  0.25500000920E-02 0.  1.
       -2   -1    0    0    0  501  0.00000000000E+00  0.00000000000E+00 -0.94973231023E+02  0.94973231057E+02  0.25500000920E-02 0. -1.
    10030    2    1    2    0    0  0.00000000000E+00  0.00000000000E+00  0.54696722322E+03  0.73691368531E+03  0.49383057450E+03 0.  0.
        4    1    3    3  502    0 -0.20729823830E+03  0.12928975587E+03  0.32681204837E+03  0.40803937119E+03  0.12699999809E+01 0. -1.
       -4    1    3    3    0  502  0.20729823830E+03 -0.12928975587E+03  0.22015517485E+03  0.32887431412E+03  0.12699999809E+01 0.  1.
</event>
<event>
 5   0  0.3178149E-01  0.4988423E+03  0.7818609E-02  0.1014082E+00
       -2   -1    0    0    0  501  0.00000000000E+00  0.00000000000E+00  0.73146648959E+02  0.73146649004E+02  0.25500000920E-02 0. -1.
        2   -1    0    0  501    0  0.00000000000E+00  0.00000000000E+00 -0.85049582851E+03  0.85049582851E+03  0.25500000920E-02 0.  1.
    10030    2    1    2    0    0  0.00000000000E+00  0.00000000000E+00 -0.77734917955E+03  0.92364247752E+03  0.49884233915E+03 0.  0.
        3    1    3    3  502    0  0.27283608939E+02  0.23922679572E+03 -0.26815084510E+03  0.36038693239E+03  0.10100000352E+00 0. -1.
       -3    1    3    3    0  502 -0.27283608939E+02 -0.23922679572E+03 -0.50919833445E+03  0.56325554512E+03  0.10100000352E+00 0.  1.
</event>
<event>
 5   0  0.3111146E-01  0.5050926E+03  0.7818609E-02  0.1012458E+00
        2   -1    0    0  501    0  0.00000000000E+00  0.00000000000E+00  0.29894373268E+03  0.29894373269E+03  0.25500000920E-02 0.  1.
       -2   -1    0    0    0  501  0.00000000000E+00  0.00000000000E+00 -0.21334993114E+03  0.21334993115E+03  0.25500000920E-02 0. -1.
    10030    2    1    2    0    0  0.00000000000E+00  0.00000000000E+00  0.85593801539E+02  0.51229366384E+03  0.50509256493E+03 0.  0.
        1    1    3    3  502    0  0.15359310814E+03 -0.19969994618E+03  0.24976160415E+02  0.25316935041E+03  0.50400001928E-02 0. -1.
       -1    1    3    3    0  502 -0.15359310814E+03  0.19969994618E+03  0.60617641124E+02  0.25912431343E+03  0.50400001928E-02 0.  1.
</event>
<event>
 5   0  0.3178149E-01  0.4592441E+03  0.7818609E-02  0.1025001E+00
       -2   -1    0    0    0  501  0.00000000000E+00  0.00000000000E+00  0.80914094361E+02  0.80914094401E+02  0.25500000920E-02 0. -1.
        2   -1    0    0  501    0  0.00000000000E+00  0.00000000000E+00 -0.65163292020E+03  0.65163292021E+03  0.25500000920E-02 0.  1.
    10030    2    1    2    0    0  0.00000000000E+00  0.00000000000E+00 -0.57071882584E+03  0.73254701461E+03  0.45924410768E+03 0.  0.
        3    1    3    3  502    0 -0.42421464184E+02  0.18805767566E+03 -0.48434002606E+03  0.52129697970E+03  0.10100000352E+00 0.  1.
       -3    1    3    3    0  502  0.42421464184E+02 -0.18805767566E+03 -0.86378799779E+02  0.21125003491E+03  0.10100000352E+00 0. -1.
</event>
<event>
 5   0  0.3187123E-01  0.5140217E+03  0.7818609E-02  0.1010182E+00
        2   -1    0    0  501    0  0.00000000000E+00  0.00000000000E+00  0.28391678741E+03  0.28391678742E+03  0.25500000920E-02 0. -1.
       -2   -1    0    0    0  501  0.00000000000E+00  0.00000000000E+00 -0.23265474378E+03  0.23265474380E+03  0.25500000920E-02 0.  1.
    10030    2    1    2    0    0  0.00000000000E+00  0.00000000000E+00  0.51262043630E+02  0.51657153122E+03  0.51402174054E+03 0.  0.
        5    1    3    3  502    0 -0.84576751974E+01 -0.45614365706E+02 -0.22836822927E+03  0.23308011663E+03  0.46999998093E+01 0.  1.
       -5    1    3    3    0  502  0.84576751974E+01  0.45614365706E+02  0.27963027290E+03  0.28349141459E+03  0.46999998093E+01 0. -1.
</event>
<event>
 5   0  0.1984297E-01  0.5063470E+03  0.7818609E-02  0.1012135E+00
        1   -1    0    0  501    0  0.00000000000E+00  0.00000000000E+00  0.20826573469E+03  0.20826573475E+03  0.50400001928E-02 0. -1.
       -1   -1    0    0    0  501  0.00000000000E+00  0.00000000000E+00 -0.30776460100E+03  0.30776460104E+03  0.50400001928E-02 0.  1.
    10030    2    1    2    0    0  0.00000000000E+00  0.00000000000E+00 -0.99498866307E+02  0.51603033579E+03  0.50634699866E+03 0.  0.
        3    1    3    3  502    0 -0.47514025134E+02  0.20544439700E+03  0.93043712251E+02  0.23048237554E+03  0.10100000352E+00 0. -1.
       -3    1    3    3    0  502  0.47514025134E+02 -0.20544439700E+03 -0.19254257856E+03  0.28554796025E+03  0.10100000352E+00 0.  1.
</event>
<event>
 5   0  0.1292375E-01  0.4872418E+03  0.7818609E-02  0.1017164E+00
        3   -1    0    0  501    0  0.00000000000E+00  0.00000000000E+00  0.60934987610E+03  0.60934988447E+03  0.10100000352E+00 0. -1.
       -3   -1    0    0    0  501  0.00000000000E+00  0.00000000000E+00 -0.97400742763E+02  0.97400795129E+02  0.10100000352E+00 0.  1.
    10030    2    1    2    0    0  0.00000000000E+00  0.00000000000E+00  0.51194913334E+03  0.70675067960E+03  0.48724183727E+03 0.  0.
        1    1    3    3  502    0  0.94072083805E+02  0.50912792948E+02  0.57346628598E+03  0.58335688101E+03  0.50400001928E-02 0. -1.
       -1    1    3    3    0  502 -0.94072083805E+02 -0.50912792948E+02 -0.61517152640E+02  0.12339379859E+03  0.50400001928E-02 0.  1.
</event>
<event>
 5   0  0.1967161E-01  0.5249398E+03  0.7818609E-02  0.1007467E+00
       -1   -1    0    0    0  501  0.00000000000E+00  0.00000000000E+00  0.11121697283E+03  0.11121697294E+03  0.50400001928E-02 0.  1.
        1   -1    0    0  501    0  0.00000000000E+00  0.00000000000E+00 -0.61942390018E+03  0.61942390020E+03  0.50400001928E-02 0. -1.
    10030    2    1    2    0    0  0.00000000000E+00  0.00000000000E+00 -0.50820692735E+03  0.73064087314E+03  0.52493981035E+03 0.  0.
        1    1    3    3  502    0 -0.21713753612E+03 -0.28449969221E+02 -0.52729484613E+02  0.22525210080E+03  0.50400001928E-02 0. -1.
       -1    1    3    3    0  502  0.21713753612E+03  0.28449969221E+02 -0.45547744274E+03  0.50538877234E+03  0.50400001928E-02 0.  1.
</event>
<event>
 5   0  0.1984297E-01  0.5215659E+03  0.7818609E-02  0.1008298E+00
        1   -1    0    0  501    0  0.00000000000E+00  0.00000000000E+00  0.60318811447E+03  0.60318811449E+03  0.50400001928E-02 0. -1.
       -1   -1    0    0    0  501  0.00000000000E+00  0.00000000000E+00 -0.11274717578E+03  0.11274717589E+03  0.50400001928E-02 0.  1.
    10030    2    1    2    0    0  0.00000000000E+00  0.00000000000E+00  0.49044093869E+03  0.71593529038E+03  0.52156593608E+03 0.  0.
        3    1    3    3  502    0  0.10427326834E+03 -0.14524158498E+03 -0.15368013406E+02  0.17945533855E+03  0.10100000352E+00 0.  1.
       -3    1    3    3    0  502 -0.10427326834E+03  0.14524158498E+03  0.50580895209E+03  0.53647995183E+03  0.10100000352E+00 0. -1.
</event>
<event>
 5   0  0.2013450E-01  0.4904404E+03  0.7818609E-02  0.1016305E+00
        1   -1    0    0  501    0  0.00000000000E+00  0.00000000000E+00  0.10141281805E+04  0.10141281806E+04  0.50400001928E-02 0. -1.
       -1   -1    0    0    0  501  0.00000000000E+00  0.00000000000E+00 -0.59295223547E+02  0.59295223762E+02  0.50400001928E-02 0.  1.
    10030    2    1    2    0    0  0.00000000000E+00  0.00000000000E+00  0.95483295700E+03  0.10734234043E+04  0.49044044406E+03 0.  0.
        4    1    3    3  502    0 -0.12392878829E+03  0.21050715591E+03  0.52434529219E+03  0.57845588042E+03  0.12699999809E+01 0.  1.
       -4    1    3    3    0  502  0.12392878829E+03 -0.21050715591E+03  0.43048766481E+03  0.49496752390E+03  0.12699999809E+01 0. -1.
</event>
<event>
 5   0  0.2013450E-01  0.6389637E+03  0.7818609E-02  0.9827711E-01
        1   -1    0    0  501    0  0.00000000000E+00  0.00000000000E+00  0.98812888994E+03  0.98812888996E+03  0.50400001928E-02 0. -1.
       -1   -1    0    0    0  501  0.00000000000E+00  0.00000000000E+00 -0.10329489157E+03  0.10329489170E+03  0.50400001928E-02 0.  1.
    10030    2    1    2    0    0  0.00000000000E+00  0.00000000000E+00  0.88483399837E+03  0.10914237817E+04  0.63896374427E+03 0.  0.
        4    1    3    3  502    0  0.16435903354E+03 -0.27371074768E+03  0.46230671114E+03  0.56183678535E+03  0.12699999809E+01 0.  1.
       -4    1    3    3    0  502 -0.16435903354E+03  0.27371074768E+03  0.42252728723E+03  0.52958699631E+03  0.12699999809E+01 0. -1.
</event>
<event>
 5   0  0.3117389E-01  0.5064928E+03  0.7818609E-02  0.1012098E+00
       -2   -1    0    0    0  501  0.00000000000E+00  0.00000000000E+00  0.79659171925E+02  0.79659171965E+02  0.25500000920E-02 0. -1.
        2   -1    0    0  501    0  0.00000000000E+00  0.00000000000E+00 -0.80510185031E+03  0.80510185032E+03  0.25500000920E-02 0.  1.
    10030    2    1    2    0    0  0.00000000000E+00  0.00000000000E+00 -0.72544267839E+03  0.88476102228E+03  0.50649283008E+03 0.  0.
        4    1    3    3  502    0 -0.25136293704E+03  0.83215994637E+01 -0.31091473894E+03  0.39990269182E+03  0.12699999809E+01 0. -1.
       -4    1    3    3    0  502  0.25136293704E+03 -0.83215994637E+01 -0.41452793945E+03  0.48485833046E+03  0.12699999809E+01 0.  1.
</event>
<event>
 5   0  0.3187123E-01  0.4907466E+03  0.7818609E-02  0.1016223E+00
       -2   -1    0    0    0  501  0.00000000000E+00  0.00000000000E+00  0.37907443888E+02  0.37907443974E+02  0.25500000920E-02 0.  1.
        2   -1    0    0  501    0  0.00000000000E+00  0.00000000000E+00 -0.15882910177E+04  0.15882910177E+04  0.25500000920E-02 0. -1.
    10030    2    1    2    0    0  0.00000000000E+00  0.00000000000E+00 -0.15503835738E+04  0.16261984617E+04  0.49074658513E+03 0.  0.
        5    1    3    3  502    0 -0.87727168525E+01  0.20676545915E+03 -0.12117620797E+04  0.12293162097E+04  0.46999998093E+01 0.  1.
       -5    1    3    3    0  502  0.87727168525E+01 -0.20676545915E+03 -0.33862149415E+03  0.39688225201E+03  0.46999998093E+01 0. -1.
</event>
<event>
 5   0  0.2013450E-01  0.5027006E+03  0.7818609E-02  0.1013076E+00
        1   -1    0    0  501    0  0.00000000000E+00  0.00000000000E+00  0.79655328091E+03  0.79655328093E+03  0.50400001928E-02 0. -1.
       -1   -1    0    0    0  501  0.00000000000E+00  0.00000000000E+00 -0.79312921213E+02  0.79312921373E+02  0.50400001928E-02 0.  1.
    10030    2    1    2    0    0  0.00000000000E+00  0.00000000000E+00  0.71724035970E+03  0.87586620230E+03  0.50270057763E+03 0.  0.
        4    1    3    3  502    0  0.16887628050E+03 -0.67505351207E+02  0.66089762755E+03  0.68546586900E+03  0.12699999809E+01 0. -1.
       -4    1    3    3    0  502 -0.16887628050E+03  0.67505351207E+02  0.56342732151E+02  0.19040033331E+03  0.12699999809E+01 0.  1.
</event>
<event>
 5   0  0.3178149E-01  0.4066020E+03  0.7818609E-02  0.1041517E+00
       -2   -1    0    0    0  501  0.00000000000E+00  0.00000000000E+00  0.19316477854E+03  0.19316477856E+03  0.25500000920E-02 0.  1.
        2   -1    0    0  501    0  0.00000000000E+00  0.00000000000E+00 -0.21396908905E+03  0.21396908907E+03  0.25500000920E-02 0. -1.
    10030    2    1    2    0    0  0.00000000000E+00  0.00000000000E+00 -0.20804310513E+02  0.40713386763E+03  0.40660197593E+03 0.  0.
        3    1    3    3  502    0  0.35469553487E+02  0.14992215535E+03  0.12242332103E+03  0.19677962705E+03  0.10100000352E+00 0.  1.
       -3    1    3    3    0  502 -0.35469553487E+02 -0.14992215535E+03 -0.14322763154E+03  0.21035424058E+03  0.10100000352E+00 0. -1.
</event>
<event>
 5   0  0.3111146E-01  0.5081480E+03  0.7818609E-02  0.1011674E+00
       -2   -1    0    0    0  501  0.00000000000E+00  0.00000000000E+00  0.30901451537E+03  0.30901451538E+03  0.25500000920E-02 0. -1.
        2   -1    0    0  501    0  0.00000000000E+00  0.00000000000E+00 -0.20890147651E+03  0.20890147653E+03  0.25500000920E-02 0.  1.
    10030    2    1    2    0    0  0.00000000000E+00  0.00000000000E+00  0.10011303886E+03  0.51791599191E+03  0.50814796480E+03 0.  0.
        1    1    3    3  502    0 -0.14216102341E+03  0.19242993633E+02 -0.16367316316E+03  0.21764409881E+03  0.50400001928E-02 0.  1.
       -1    1    3    3    0  502  0.14216102341E+03 -0.19242993633E+02  0.26378620203E+03  0.30027189310E+03  0.50400001928E-02 0. -1.
</event>
<event>
 5   0  0.1292375E-01  0.4940859E+03  0.7818609E-02  0.1015334E+00
       -3   -1    0    0    0  501  0.00000000000E+00  0.00000000000E+00  0.61100776286E+02  0.61100859763E+02  0.10100000352E+00 0. -1.
        3   -1    0    0  501    0  0.00000000000E+00  0.00000000000E+00 -0.99884443828E+03  0.99884444339E+03  0.10100000352E+00 0.  1.
    10030    2    1    2    0    0  0.00000000000E+00  0.00000000000E+00 -0.93774366200E+03  0.10599453032E+04  0.49408589340E+03 0.  0.
        3    1    3    3  502    0  0.17321985229E+03 -0.11976510259E+03 -0.74594685675E+03  0.77510355458E+03  0.10100000352E+00 0. -1.
       -3    1    3    3    0  502 -0.17321985229E+03  0.11976510259E+03 -0.19179680524E+03  0.28484174857E+03  0.10100000352E+00 0.  1.
</event>
<event>
 5   0  0.3329246E-01  0.5202698E+03  0.7818609E-02  0.1008620E+00
        2   -1    0    0  501    0  0.00000000000E+00  0.00000000000E+00  0.12118560649E+04  0.12118560649E+04  0.25500000920E-02 0. -1.
       -2   -1    0    0    0  501  0.00000000000E+00  0.00000000000E+00 -0.55840102289E+02  0.55840102347E+02  0.25500000920E-02 0.  1.
    10030    2    1    2    0    0  0.00000000000E+00  0.00000000000E+00  0.11560159626E+04  0.12676961673E+04  0.52026980179E+03 0.  0.
        2    1    3    3  502    0  0.19991878709E+03  0.63563098221E+02  0.95282193485E+03  0.97564205958E+03  0.25500000920E-02 0. -1.
       -2    1    3    3    0  502 -0.19991878709E+03 -0.63563098221E+02  0.20319402779E+03  0.29205410770E+03  0.25500000920E-02 0.  1.
</event>
<event>
 5   0  0.1292375E-01  0.4958878E+03  0.7818609E-02  0.1014858E+00
       -4   -1    0    0    0  501  0.00000000000E+00  0.00000000000E+00  0.44540795602E+03  0.44540976660E+03  0.12699999809E+01 0.  1.
        4   -1    0    0  501    0  0.00000000000E+00  0.00000000000E+00 -0.13801715134E+03  0.13802299433E+03  0.12699999809E+01 0. -1.
    10030    2    1    2    0    0  0.00000000000E+00  0.00000000000E+00  0.30739080468E+03  0.58343276093E+03  0.49588776928E+03 0.  0.
        4    1    3    3  502    0  0.45048757866E+02  0.44332481027E+02  0.43577068377E+03  0.44033221685E+03  0.12699999809E+01 0.  1.
       -4    1    3    3    0  502 -0.45048757866E+02 -0.44332481027E+02 -0.12837987909E+03  0.14310054408E+03  0.12699999809E+01 0. -1.
</event>
<event>
 5   0  0.2013450E-01  0.4982027E+03  0.7818609E-02  0.1014249E+00
       -1   -1    0    0    0  501  0.00000000000E+00  0.00000000000E+00  0.82139687114E+02  0.82139687269E+02  0.50400001928E-02 0.  1.
        1   -1    0    0  501    0  0.00000000000E+00  0.00000000000E+00 -0.75543858732E+03  0.75543858734E+03  0.50400001928E-02 0. -1.
    10030    2    1    2    0    0  0.00000000000E+00  0.00000000000E+00 -0.67329890020E+03  0.83757827460E+03  0.49820272688E+03 0.  0.
        4    1    3    3  502    0 -0.11409710090E+03 -0.12686712496E+03 -0.64176038100E+03  0.66405678624E+03  0.12699999809E+01 0. -1.
       -4    1    3    3    0  502  0.11409710090E+03  0.12686712496E+03 -0.31538519204E+02  0.17352148836E+03  0.12699999809E+01 0.  1.
</event>
<event>
 5   0  0.3187123E-01  0.4999743E+03  0.7818609E-02  0.1013786E+00
       -2   -1    0    0    0  501  0.00000000000E+00  0.00000000000E+00  0.20161432068E+03  0.20161432069E+03  0.25500000920E-02 0.  1.
        2   -1    0    0  501    0  0.00000000000E+00  0.00000000000E+00 -0.30996592213E+03  0.30996592214E+03  0.25500000920E-02 0. -1.
    10030    2    1    2    0    0  0.00000000000E+00  0.00000000000E+00 -0.10835160146E+03  0.51158024284E+03  0.49997427466E+03 0.  0.
        5    1    3    3  502    0  0.23341775735E+03 -0.88165993162E+02 -0.69157647999E+02  0.25896324463E+03  0.46999998093E+01 0.  1.
       -5    1    3    3    0  502 -0.23341775735E+03  0.88165993162E+02 -0.39193953456E+02  0.25261699820E+03  0.46999998093E+01 0. -1.
</event>
<event>
 5   0  0.1292375E-01  0.5326006E+03  0.7818609E-02  0.1005603E+00
        4   -1    0    0  501    0  0.00000000000E+00  0.00000000000E+00  0.13093340850E+04  0.13093347010E+04  0.12699999809E+01 0. -1.
       -4   -1    0    0    0  501  0.00000000000E+00  0.00000000000E+00 -0.54153703785E+02  0.54168593609E+02  0.12699999809E+01 0.  1.
    10030    2    1    2    0    0  0.00000000000E+00  0.00000000000E+00  0.12551803812E+04  0.13635032946E+04  0.53260064290E+03 0.  0.
        2    1    3    3  502    0 -0.10011818553E+03  0.13232139427E+03  0.94358943666E+02  0.19088271978E+03  0.25500000920E-02 0.  1.
       -2    1    3    3    0  502  0.10011818553E+03 -0.13232139427E+03  0.11608214376E+04  0.11726205748E+04  0.25500000920E-02 0. -1.
</event>
<event>
 5   0  0.1984680E-01  0.4933905E+03  0.7818609E-02  0.1015519E+00
       -1   -1    0    0    0  501  0.00000000000E+00  0.00000000000E+00  0.38303366735E+03  0.38303366738E+03  0.50400001928E-02 0. -1.
        1   -1    0    0  501    0  0.00000000000E+00  0.00000000000E+00 -0.15888566403E+03  0.15888566411E+03  0.50400001928E-02 0.  1.
    10030    2    1    2    0    0  0.00000000000E+00  0.00000000000E+00  0.22414800332E+03  0.54191933149E+03  0.49339054962E+03 0.  0.
        5    1    3    3  502    0  0.12452303639E+03 -0.27387026373E+02  0.34398212262E+03  0.36688121577E+03  0.46999998093E+01 0. -1.
       -5    1    3    3    0  502 -0.12452303639E+03  0.27387026373E+02 -0.11983411930E+03  0.17503811572E+03  0.46999998093E+01 0.  1.
</event>
<event>
 5   0  0.2013450E-01  0.4471685E+03  0.7818609E-02  0.1028570E+00
       -1   -1    0    0    0  501  0.00000000000E+00  0.00000000000E+00  0.26332891298E+03  0.26332891302E+03  0.50400001928E-02 0.  1.
        1   -1    0    0  501    0  0.00000000000E+00  0.00000000000E+00 -0.18983831129E+03  0.18983831136E+03  0.50400001928E-02 0. -1.
    10030    2    1    2    0    0  0.00000000000E+00  0.00000000000E+00  0.73490601686E+02  0.45316722438E+03  0.44716849701E+03 0.  0.
        4    1    3    3  502    0  0.15586238497E+03  0.10230506982E+03 -0.88315572808E+02  0.20630235980E+03  0.12699999809E+01 0. -1.
       -4    1    3    3    0  502 -0.15586238497E+03 -0.10230506982E+03  0.16180617449E+03  0.24686486458E+03  0.12699999809E+01 0.  1.
</event>
<event>
 5   0  0.1984297E-01  0.5039219E+03  0.7818609E-02  0.1012760E+00
       -1   -1    0    0    0  501  0.00000000000E+00  0.00000000000E+00  0.33974335440E+03  0.33974335443E+03  0.50400001928E-02 0. -1.
        1   -1    0    0  501    0  0.00000000000E+00  0.00000000000E+00 -0.18685966499E+03  0.18685966506E+03  0.50400001928E-02 0.  1.
    10030    2    1    2    0    0  0.00000000000E+00  0.00000000000E+00  0.15288368941E+03  0.52660301949E+03  0.50392193607E+03 0.  0.
        3    1    3    3  502    0 -0.78653435698E+02 -0.66147355944E+02 -0.16396132496E+03  0.19350752422E+03  0.10100000352E+00 0.  1.
       -3    1    3    3    0  502  0.78653435698E+02  0.66147355944E+02  0.31684501436E+03  0.33309549528E+03  0.10100000352E+00 0. -1.
</event>
<event>
 5   0  0.1292375E-01  0.4494336E+03  0.7818609E-02  0.1027891E+00
        3   -1    0    0  501    0  0.00000000000E+00  0.00000000000E+00  0.26162739613E+03  0.26162741563E+03  0.10100000352E+00 0.  1.
       -3   -1    0    0    0  501  0.00000000000E+00  0.00000000000E+00 -0.19301354425E+03  0.19301357068E+03  0.10100000352E+00 0. -1.
    10030    2    1    2    0    0  0.00000000000E+00  0.00000000000E+00  0.68613851883E+02  0.45464098630E+03  0.44943360551E+03 0.  0.
        3    1    3    3  502    0 -0.19570754204E+03 -0.10841904049E+02 -0.76869345081E+02  0.21054190868E+03  0.10100000352E+00 0. -1.
       -3    1    3    3    0  502  0.19570754204E+03  0.10841904049E+02  0.14548319696E+03  0.24409907762E+03  0.10100000352E+00 0.  1.
</event>
<event>
 5   0  0.1292375E-01  0.5039855E+03  0.7818609E-02  0.1012744E+00
        3   -1    0    0  501    0  0.00000000000E+00  0.00000000000E+00  0.11817351959E+03  0.11817356275E+03  0.10100000352E+00 0.  1.
       -3   -1    0    0    0  501  0.00000000000E+00  0.00000000000E+00 -0.53734817315E+03  0.53734818264E+03  0.10100000352E+00 0. -1.
    10030    2    1    2    0    0  0.00000000000E+00  0.00000000000E+00 -0.41917465356E+03  0.65552174539E+03  0.50398548440E+03 0.  0.
        4    1    3    3  502    0 -0.14526925889E+03 -0.19024318920E+03 -0.31202825082E+03  0.39326692058E+03  0.12699999809E+01 0.  1.
       -4    1    3    3    0  502  0.14526925889E+03  0.19024318920E+03 -0.10714640274E+03  0.26225482481E+03  0.12699999809E+01 0. -1.
</event>
<event>
 5   0  0.1984680E-01  0.4878405E+03  0.7818609E-02  0.1017002E+00
       -1   -1    0    0    0  501  0.00000000000E+00  0.00000000000E+00  0.43416698049E+02  0.43416698342E+02  0.50400001928E-02 0. -1.
        1   -1    0    0  501    0  0.00000000000E+00  0.00000000000E+00 -0.13703733840E+04  0.13703733840E+04  0.50400001928E-02 0.  1.
    10030    2    1    2    0    0  0.00000000000E+00  0.00000000000E+00 -0.13269566859E+04  0.14137900823E+04  0.48784049705E+03 0.  0.
        5    1    3    3  502    0 -0.45197224499E+02  0.11773862767E+02  0.30203103962E+02  0.55818728345E+02  0.46999998093E+01 0. -1.
       -5    1    3    3    0  502  0.45197224499E+02 -0.11773862767E+02 -0.13571597899E+04  0.13579713540E+04  0.46999998093E+01 0.  1.
</event>
<event>
 5   0  0.2013450E-01  0.4920539E+03  0.7818609E-02  0.1015874E+00
       -1   -1    0    0    0  501  0.00000000000E+00  0.00000000000E+00  0.52842240121E+03  0.52842240124E+03  0.50400001928E-02 0.  1.
        1   -1    0    0  501    0  0.00000000000E+00  0.00000000000E+00 -0.11454712585E+03  0.11454712596E+03  0.50400001928E-02 0. -1.
    10030    2    1    2    0    0  0.00000000000E+00  0.00000000000E+00  0.41387527536E+03  0.64296952720E+03  0.49205392931E+03 0.  0.
        4    1    3    3  502    0 -0.18888062652E+03  0.13933933853E+03  0.11059248325E+03  0.25946801843E+03  0.12699999809E+01 0. -1.
       -4    1    3    3    0  502  0.18888062652E+03 -0.13933933853E+03  0.30328279211E+03  0.38350150877E+03  0.12699999809E+01 0.  1.
</event>
<event>
 5   0  0.1984680E-01  0.4913065E+03  0.7818609E-02  0.1016073E+00
        1   -1    0    0  501    0  0.00000000000E+00  0.00000000000E+00  0.11656145781E+04  0.11656145782E+04  0.50400001928E-02 0.  1.
       -1   -1    0    0    0  501  0.00000000000E+00  0.00000000000E+00 -0.51771408762E+02  0.51771409007E+02  0.50400001928E-02 0. -1.
    10030    2    1    2    0    0  0.00000000000E+00  0.00000000000E+00  0.11138431694E+04  0.12173859872E+04  0.49130645809E+03 0.  0.
        5    1    3    3  502    0 -0.12022501179E+03 -0.97613251883E+02  0.84560215035E+02  0.17650756462E+03  0.46999998093E+01 0. -1.
       -5    1    3    3    0  502  0.12022501179E+03  0.97613251883E+02  0.10292829543E+04  0.10408784225E+04  0.46999998093E+01 0.  1.
</event>
<event>
 5   0  0.3111146E-01  0.4873039E+03  0.7818609E-02  0.1017147E+00
        2   -1    0    0  501    0  0.00000000000E+00  0.00000000000E+00  0.10973899702E+04  0.10973899702E+04  0.25500000920E-02 0.  1.
       -2   -1    0    0    0  501  0.00000000000E+00  0.00000000000E+00 -0.54097704961E+02  0.54097705021E+02  0.25500000920E-02 0. -1.
    10030    2    1    2    0    0  0.00000000000E+00  0.00000000000E+00  0.10432922653E+04  0.11514876753E+04  0.48730392518E+03 0.  0.
        1    1    3    3  502    0 -0.18557482941E+03  0.40046494789E+02  0.88252871865E+03  0.90271738563E+03  0.50400001928E-02 0.  1.
       -1    1    3    3    0  502  0.18557482941E+03 -0.40046494789E+02  0.16076354664E+03  0.24877028964E+03  0.50400001928E-02 0. -1.
</event>
<event>
 5   0  0.1967161E-01  0.4410297E+03  0.7818609E-02  0.1030431E+00
        1   -1    0    0  501    0  0.00000000000E+00  0.00000000000E+00  0.15014708515E+03  0.15014708524E+03  0.50400001928E-02 0.  1.
       -1   -1    0    0    0  501  0.00000000000E+00  0.00000000000E+00 -0.32386102787E+03  0.32386102791E+03  0.50400001928E-02 0. -1.
    10030    2    1    2    0    0  0.00000000000E+00  0.00000000000E+00 -0.17371394271E+03  0.47400811314E+03  0.44102965596E+03 0.  0.
        1    1    3    3  502    0 -0.15620567227E+03 -0.13518261649E+03 -0.16977674481E+03  0.26739239883E+03  0.50400001928E-02 0. -1.
       -1    1    3    3    0  502  0.15620567227E+03  0.13518261649E+03 -0.39371979072E+01  0.20661571432E+03  0.50400001928E-02 0.  1.
</event>
<event>
 5   0  0.3117389E-01  0.5059005E+03  0.7818609E-02  0.1012250E+00
        2   -1    0    0  501    0  0.00000000000E+00  0.00000000000E+00  0.80335503601E+03  0.80335503602E+03  0.25500000920E-02 0. -1.
       -2   -1    0    0    0  501  0.00000000000E+00  0.00000000000E+00 -0.79645777306E+02  0.79645777346E+02  0.25500000920E-02 0.  1.
    10030    2    1    2    0    0  0.00000000000E+00  0.00000000000E+00  0.72370925871E+03  0.88300081336E+03  0.50590052902E+03 0.  0.
        4    1    3    3  502    0 -0.60663482350E+02  0.30971910411E+02 -0.63332759984E+02  0.93015959451E+02  0.12699999809E+01 0.  1.
       -4    1    3    3    0  502  0.60663482350E+02 -0.30971910411E+02  0.78704201869E+03  0.78998485391E+03  0.12699999809E+01 0. -1.
</event>
<event>
 5   0  0.3187123E-01  0.4948812E+03  0.7818609E-02  0.1015124E+00
        2   -1    0    0  501    0  0.00000000000E+00  0.00000000000E+00  0.74151307420E+03  0.74151307420E+03  0.25500000920E-02 0.  1.
       -2   -1    0    0    0  501  0.00000000000E+00  0.00000000000E+00 -0.82570170985E+02  0.82570171024E+02  0.25500000920E-02 0. -1.
    10030    2    1    2    0    0  0.00000000000E+00  0.00000000000E+00  0.65894290321E+03  0.82408324523E+03  0.49488124370E+03 0.  0.
        5    1    3    3  502    0  0.16093136905E+03  0.12142487401E+03  0.90689580974E+02  0.22110991762E+03  0.46999998093E+01 0. -1.
       -5    1    3    3    0  502 -0.16093136905E+03 -0.12142487401E+03  0.56825332224E+03  0.60297332761E+03  0.46999998093E+01 0.  1.
</event>
<event>
 5   0  0.1292375E-01  0.4229778E+03  0.7818609E-02  0.1036101E+00
        4   -1    0    0  501    0  0.00000000000E+00  0.00000000000E+00  0.35077150328E+03  0.35077380235E+03  0.12699999809E+01 0.  1.
       -4   -1    0    0    0  501  0.00000000000E+00  0.00000000000E+00 -0.12750605525E+03  0.12751237989E+03  0.12699999809E+01 0. -1.
    10030    2    1    2    0    0  0.00000000000E+00  0.00000000000E+00  0.22326544803E+03  0.47828618224E+03  0.42297779118E+03 0.  0.
        1    1    3    3  502    0  0.11543235291E+03  0.16359816387E+03  0.18864538353E+03  0.27509283537E+03  0.50400001928E-02 0.  1.
       -1    1    3    3    0  502 -0.11543235291E+03 -0.16359816387E+03  0.34620064500E+02  0.20319334687E+03  0.50400001928E-02 0. -1.
</event>
<event>
 5   0  0.1967161E-01  0.4981004E+03  0.7818609E-02  0.1014276E+00
       -1   -1    0    0    0  501  0.00000000000E+00  0.00000000000E+00  0.43799027550E+02  0.43799027840E+02  0.50400001928E-02 0.  1.
        1   -1    0    0  501    0  0.00000000000E+00  0.00000000000E+00 -0.14161502381E+04  0.14161502382E+04  0.50400001928E-02 0. -1.
    10030    2    1    2    0    0  0.00000000000E+00  0.00000000000E+00 -0.13723512106E+04  0.14599492660E+04  0.49810040559E+03 0.  0.
        1    1    3    3  502    0  0.15816763102E+01  0.17563303721E+03 -0.16864646011E+03  0.24349762625E+03  0.50400001928E-02 0.  1.
       -1    1    3    3    0  502 -0.15816763102E+01 -0.17563303721E+03 -0.12037047505E+04  0.12164516397E+04  0.50400001928E-02 0. -1.
</event>
<event>
 5   0  0.3329246E-01  0.4991944E+03  0.7818609E-02  0.1013989E+00
       -2   -1    0    0    0  501  0.00000000000E+00  0.00000000000E+00  0.61124748266E+02  0.61124748319E+02  0.25500000920E-02 0. -1.
        2   -1    0    0  501    0  0.00000000000E+00  0.00000000000E+00 -0.10192066951E+04  0.10192066951E+04  0.25500000920E-02 0.  1.
    10030    2    1    2    0    0  0.00000000000E+00  0.00000000000E+00 -0.95808194687E+03  0.10803314435E+04  0.49919436175E+03 0.  0.
        2    1    3    3  502    0 -0.79659711077E+02 -0.22849885792E+03 -0.34666724312E+03  0.42277130354E+03  0.25500000920E-02 0. -1.
       -2    1    3    3    0  502  0.79659711077E+02  0.22849885792E+03 -0.61141470374E+03  0.65756013991E+03  0.25500000920E-02 0.  1.
</event>
<event>
 5   0  0.1984297E-01  0.4699438E+03  0.7818609E-02  0.1021936E+00
        1   -1    0    0  501    0  0.00000000000E+00  0.00000000000E+00  0.71736505664E+03  0.71736505665E+03  0.50400001928E-02 0.  1.
       -1   -1    0    0    0  501  0.00000000000E+00  0.00000000000E+00 -0.76964710566E+02  0.76964710731E+02  0.50400001928E-02 0. -1.
    10030    2    1    2    0    0  0.00000000000E+00  0.00000000000E+00  0.64040034607E+03  0.79432976738E+03  0.46994380101E+03 0.  0.
        3    1    3    3  502    0 -0.12839534873E+03 -0.18318997799E+03  0.44170957166E+03  0.49512754872E+03  0.10100000352E+00 0.  1.
       -3    1    3    3    0  502  0.12839534873E+03  0.18318997799E+03  0.19869077441E+03  0.29920221866E+03  0.10100000352E+00 0. -1.
</event>
<event>
 5   0  0.1984297E-01  0.5191859E+03  0.7818609E-02  0.1008889E+00
        1   -1    0    0  501    0  0.00000000000E+00  0.00000000000E+00  0.34809246732E+03  0.34809246735E+03  0.50400001928E-02 0. -1.
       -1   -1    0    0    0  501  0.00000000000E+00  0.00000000000E+00 -0.19359369398E+03  0.19359369404E+03  0.50400001928E-02 0.  1.
    10030    2    1    2    0    0  0.00000000000E+00  0.00000000000E+00  0.15449877334E+03  0.54168616140E+03  0.51918592670E+03 0.  0.
        3    1    3    3  502    0 -0.19670999976E+03 -0.16939162550E+03  0.76845804065E+02  0.27072797158E+03  0.10100000352E+00 0.  1.
       -3    1    3    3    0  502  0.19670999976E+03  0.16939162550E+03  0.77652969273E+02  0.27095818982E+03  0.10100000352E+00 0. -1.
</event>
<event>
 5   0  0.3329246E-01  0.4846598E+03  0.7818609E-02  0.1017862E+00
       -2   -1    0    0    0  501  0.00000000000E+00  0.00000000000E+00  0.41663639279E+02  0.41663639357E+02  0.25500000920E-02 0.  1.
        2   -1    0    0  501    0  0.00000000000E+00  0.00000000000E+00 -0.14094731493E+04  0.14094731494E+04  0.25500000920E-02 0. -1.
    10030    2    1    2    0    0  0.00000000000E+00  0.00000000000E+00 -0.13678095101E+04  0.14511367887E+04  0.48465980203E+03 0.  0.
        2    1    3    3  502    0 -0.55818573890E+00 -0.92797331256E+02 -0.13541639182E+04  0.13573398887E+04  0.25500000920E-02 0. -1.
       -2    1    3    3    0  502  0.55818573890E+00  0.92797331256E+02 -0.13645591894E+02  0.93796899971E+02  0.25500000920E-02 0.  1.
</event>
<event>
 5   0  0.1984297E-01  0.5077209E+03  0.7818609E-02  0.1011783E+00
        1   -1    0    0  501    0  0.00000000000E+00  0.00000000000E+00  0.24651546942E+03  0.24651546947E+03  0.50400001928E-02 0. -1.
       -1   -1    0    0    0  501  0.00000000000E+00  0.00000000000E+00 -0.26142426188E+03  0.26142426193E+03  0.50400001928E-02 0.  1.
    10030    2    1    2    0    0  0.00000000000E+00  0.00000000000E+00 -0.14908792468E+02  0.50793973140E+03  0.50772088655E+03 0.  0.
        3    1    3    3  502    0  0.20919666526E+02  0.25241703217E+03 -0.24582636928E+02  0.25447260524E+03  0.10100000352E+00 0.  1.
       -3    1    3    3    0  502 -0.20919666526E+02 -0.25241703217E+03  0.96738444598E+01  0.25346712616E+03  0.10100000352E+00 0. -1.
</event>
<event>
 5   0  0.3178149E-01  0.4168923E+03  0.7818609E-02  0.1038083E+00
       -2   -1    0    0    0  501  0.00000000000E+00  0.00000000000E+00  0.13524884769E+03  0.13524884771E+03  0.25500000920E-02 0. -1.
        2   -1    0    0  501    0  0.00000000000E+00  0.00000000000E+00 -0.32125817401E+03  0.32125817402E+03  0.25500000920E-02 0.  1.
    10030    2    1    2    0    0  0.00000000000E+00  0.00000000000E+00 -0.18600932633E+03  0.45650702174E+03  0.41689230194E+03 0.  0.
        3    1    3    3  502    0  0.24964223053E+01 -0.10596879333E+03 -0.28954290278E+03  0.30833540185E+03  0.10100000352E+00 0.  1.
       -3    1    3    3    0  502 -0.24964223053E+01  0.10596879333E+03  0.10353357646E+03  0.14817161988E+03  0.10100000352E+00 0. -1.
</event>
<event>
 5   0  0.3178149E-01  0.5076413E+03  0.7818609E-02  0.1011803E+00
       -2   -1    0    0    0  501  0.00000000000E+00  0.00000000000E+00  0.55852035592E+02  0.55852035650E+02  0.25500000920E-02 0. -1.
        2   -1    0    0  501    0  0.00000000000E+00  0.00000000000E+00 -0.11534929128E+04  0.11534929128E+04  0.25500000920E-02 0.  1.
    10030    2    1    2    0    0  0.00000000000E+00  0.00000000000E+00 -0.10976408772E+04  0.12093449485E+04  0.50764131927E+03 0.  0.
        3    1    3    3  502    0 -0.87785570266E+02 -0.23785254917E+03 -0.52015617007E+03  0.57865585018E+03  0.10100000352E+00 0. -1.
       -3    1    3    3    0  502  0.87785570266E+02  0.23785254917E+03 -0.57748470715E+03  0.63068909828E+03  0.10100000352E+00 0.  1.
</event>
<event>
 5   0  0.3329246E-01  0.4950739E+03  0.7818609E-02  0.1015073E+00
        2   -1    0    0  501    0  0.00000000000E+00  0.00000000000E+00  0.73668422446E+03  0.73668422447E+03  0.25500000920E-02 0. -1.
       -2   -1    0    0    0  501  0.00000000000E+00  0.00000000000E+00 -0.83176140230E+02  0.83176140269E+02  0.25500000920E-02 0.  1.
    10030    2    1    2    0    0  0.00000000000E+00  0.00000000000E+00  0.65350808423E+03  0.81986036474E+03  0.49507393540E+03 0.  0.
        2    1    3    3  502    0  0.17707876610E+03 -0.96628992700E+02  0.56432742220E+03  0.59929916660E+03  0.25500000920E-02 0. -1.
       -2    1    3    3    0  502 -0.17707876610E+03  0.96628992700E+02  0.89180662029E+02  0.22056119813E+03  0.25500000920E-02 0.  1.
</event>
<event>
 5   0  0.2013450E-01  0.5025567E+03  0.7818609E-02  0.1013114E+00
        1   -1    0    0  501    0  0.00000000000E+00  0.00000000000E+00  0.12909620588E+04  0.12909620588E+04  0.50400001928E-02 0.  1.
       -1   -1    0    0    0  501  0.00000000000E+00  0.00000000000E+00 -0.48909893630E+02  0.48909893889E+02  0.50400001928E-02 0. -1.
    10030    2    1    2    0    0  0.00000000000E+00  0.00000000000E+00  0.12420521652E+04  0.13398719527E+04  0.50255673175E+03 0.  0.
        4    1    3    3  502    0  0.51340443644E+02 -0.17523053993E+03  0.16080236385E+03  0.24331172679E+03  0.12699999809E+01 0. -1.
       -4    1    3    3    0  502 -0.51340443644E+02  0.17523053993E+03  0.10812498014E+04  0.10965602259E+04  0.12699999809E+01 0.  1.
</event>
<event>
 5   0  0.3111146E-01  0.5186685E+03  0.7818609E-02  0.1009018E+00
        2   -1    0    0  501    0  0.00000000000E+00  0.00000000000E+00  0.49940533228E+03  0.49940533228E+03  0.25500000920E-02 0.  1.
       -2   -1    0    0    0  501  0.00000000000E+00  0.00000000000E+00 -0.13466867455E+03  0.13466867458E+03  0.25500000920E-02 0. -1.
    10030    2    1    2    0    0  0.00000000000E+00  0.00000000000E+00  0.36473665772E+03  0.63407400686E+03  0.51866850366E+03 0.  0.
        1    1    3    3  502    0 -0.25580986128E+03  0.16411365395E+02  0.13429679510E+03  0.28938494647E+03  0.50400001928E-02 0.  1.
       -1    1    3    3    0  502  0.25580986128E+03 -0.16411365395E+02  0.23043986262E+03  0.34468906039E+03  0.50400001928E-02 0. -1.
</event>
<event>
 5   0  0.3329246E-01  0.4756599E+03  0.7818609E-02  0.1020335E+00
        2   -1    0    0  501    0  0.00000000000E+00  0.00000000000E+00  0.14420934622E+03  0.14420934624E+03  0.25500000920E-02 0.  1.
       -2   -1    0    0    0  501  0.00000000000E+00  0.00000000000E+00 -0.39222901250E+03  0.39222901251E+03  0.25500000920E-02 0. -1.
    10030    2    1    2    0    0  0.00000000000E+00  0.00000000000E+00 -0.24801966628E+03  0.53643835875E+03  0.47565991830E+03 0.  0.
        2    1    3    3  502    0  0.16260780154E+03  0.10582926036E+03  0.31123930229E+02  0.19649383835E+03  0.25500000920E-02 0.  1.
       -2    1    3    3    0  502 -0.16260780154E+03 -0.10582926036E+03 -0.27914359651E+03  0.33994452040E+03  0.25500000920E-02 0. -1.
</event>
<event>
 5   0  0.3111146E-01  0.5207993E+03  0.7818609E-02  0.1008488E+00
       -2   -1    0    0    0  501  0.00000000000E+00  0.00000000000E+00  0.68310145080E+02  0.68310145128E+02  0.25500000920E-02 0.  1.
        2   -1    0    0  501    0  0.00000000000E+00  0.00000000000E+00 -0.99264870674E+03  0.99264870674E+03  0.25500000920E-02 0. -1.
    10030    2    1    2    0    0  0.00000000000E+00  0.00000000000E+00 -0.92433856166E+03  0.10609588519E+04  0.52079929800E+03 0.  0.
        1    1    3    3  502    0 -0.86083123796E+02  0.13138683768E+03 -0.88527014929E+03  0.89909734877E+03  0.50400001928E-02 0. -1.
       -1    1    3    3    0  502  0.86083123796E+02 -0.13138683768E+03 -0.39068412375E+02  0.16186150311E+03  0.50400001928E-02 0.  1.
</event>
<event>
 5   0  0.3178149E-01  0.4833529E+03  0.7818609E-02  0.1018218E+00
       -2   -1    0    0    0  501  0.00000000000E+00  0.00000000000E+00  0.10949534970E+03  0.10949534973E+03  0.25500000920E-02 0.  1.
        2   -1    0    0  501    0  0.00000000000E+00  0.00000000000E+00 -0.53342458255E+03  0.53342458256E+03  0.25500000920E-02 0. -1.
    10030    2    1    2    0    0  0.00000000000E+00  0.00000000000E+00 -0.42392923285E+03  0.64291993229E+03  0.48335291958E+03 0.  0.
        3    1    3    3  502    0 -0.62697736350E+02  0.74389965994E+02 -0.50622797400E+03  0.51549165372E+03  0.10100000352E+00 0. -1.
       -3    1    3    3    0  502  0.62697736350E+02 -0.74389965994E+02  0.82298741154E+02  0.12742827857E+03  0.10100000352E+00 0.  1.
</event>
<event>
 5   0  0.1292375E-01  0.5091614E+03  0.7818609E-02  0.1011415E+00
        4   -1    0    0  501    0  0.00000000000E+00  0.00000000000E+00  0.52151144572E+03  0.52151299209E+03  0.12699999809E+01 0. -1.
       -4   -1    0    0    0  501  0.00000000000E+00  0.00000000000E+00 -0.12427098205E+03  0.12427747132E+03  0.12699999809E+01 0.  1.
    10030    2    1    2    0    0  0.00000000000E+00  0.00000000000E+00  0.39724046367E+03  0.64579046341E+03  0.50916140531E+03 0.  0.
        1    1    3    3  502    0  0.24854216856E+03 -0.22142617059E+02  0.13459940229E+03  0.28351455724E+03  0.50400001928E-02 0.  1.
       -1    1    3    3    0  502 -0.24854216856E+03  0.22142617059E+02  0.26264106138E+03  0.36227590617E+03  0.50400001928E-02 0. -1.
</event>
<event>
 5   0  0.3111146E-01  0.5091052E+03  0.7818609E-02  0.1011429E+00
        2   -1    0    0  501    0  0.00000000000E+00  0.00000000000E+00  0.10196302885E+04  0.10196302885E+04  0.25500000920E-02 0.  1.
       -2   -1    0    0    0  501  0.00000000000E+00  0.00000000000E+00 -0.63549519912E+02  0.63549519963E+02  0.25500000920E-02 0. -1.
    10030    2    1    2    0    0  0.00000000000E+00  0.00000000000E+00  0.95608076861E+03  0.10831798085E+04  0.50910515752E+03 0.  0.
        1    1    3    3  502    0  0.11675301708E+03  0.40413089080E+02  0.45203950258E+01  0.12363219145E+03  0.50400001928E-02 0. -1.
       -1    1    3    3    0  502 -0.11675301708E+03 -0.40413089080E+02  0.95156037358E+03  0.95954761704E+03  0.50400001928E-02 0.  1.
</event>
<event>
 5   0  0.3117389E-01  0.4957607E+03  0.7818609E-02  0.1014891E+00
        2   -1    0    0  501    0  0.00000000000E+00  0.00000000000E+00  0.95020737675E+03  0.95020737676E+03  0.25500000920E-02 0.  1.
       -2   -1    0    0    0  501  0.00000000000E+00  0.00000000000E+00 -0.64664470106E+02  0.64664470156E+02  0.25500000920E-02 0. -1.
    10030    2    1    2    0    0  0.00000000000E+00  0.00000000000E+00  0.88554290665E+03  0.10148718469E+04  0.49576065409E+03 0.  0.
        4    1    3    3  502    0 -0.14885863688E+03 -0.12685387897E+03  0.13101853492E+03  0.23541085314E+03  0.12699999809E+01 0. -1.
       -4    1    3    3    0  502  0.14885863688E+03  0.12685387897E+03  0.75452437172E+03  0.77946099377E+03  0.12699999809E+01 0.  1.
</event>
<event>
 5   0  0.1967161E-01  0.4945199E+03  0.7818609E-02  0.1015219E+00
       -1   -1    0    0    0  501  0.00000000000E+00  0.00000000000E+00  0.46562896595E+03  0.46562896598E+03  0.50400001928E-02 0. -1.
        1   -1    0    0  501    0  0.00000000000E+00  0.00000000000E+00 -0.13130088022E+03  0.13130088032E+03  0.50400001928E-02 0.  1.
    10030    2    1    2    0    0  0.00000000000E+00  0.00000000000E+00  0.33432808573E+03  0.59692984630E+03  0.49451994145E+03 0.  0.
        1    1    3    3  502    0 -0.21613043337E+03 -0.68678875794E+02  0.48228408444E+02  0.23185152925E+03  0.50400001928E-02 0.  1.
       -1    1    3    3    0  502  0.21613043337E+03  0.68678875794E+02  0.28609967729E+03  0.36507831705E+03  0.50400001928E-02 0. -1.
</event>
<event>
 5   0  0.1292375E-01  0.5364213E+03  0.7818609E-02  0.1004687E+00
        4   -1    0    0  501    0  0.00000000000E+00  0.00000000000E+00  0.19133110007E+03  0.19133531497E+03  0.12699999809E+01 0. -1.
       -4   -1    0    0    0  501  0.00000000000E+00  0.00000000000E+00 -0.37597208844E+03  0.37597423340E+03  0.12699999809E+01 0.  1.
    10030    2    1    2    0    0  0.00000000000E+00  0.00000000000E+00 -0.18464098837E+03  0.56730954837E+03  0.53642131677E+03 0.  0.
        5    1    3    3  502    0 -0.11192137784E+03 -0.12950176226E+03  0.12600749038E+03  0.21259604624E+03  0.46999998093E+01 0. -1.
       -5    1    3    3    0  502  0.11192137784E+03  0.12950176226E+03 -0.31064847875E+03  0.35471350213E+03  0.46999998093E+01 0.  1.
</event>
<event>
 5   0  0.1984680E-01  0.5083378E+03  0.7818609E-02  0.1011625E+00
        1   -1    0    0  501    0  0.00000000000E+00  0.00000000000E+00  0.71246638570E+03  0.71246638572E+03  0.50400001928E-02 0. -1.
       -1   -1    0    0    0  501  0.00000000000E+00  0.00000000000E+00 -0.90673523019E+02  0.90673523159E+02  0.50400001928E-02 0.  1.
    10030    2    1    2    0    0  0.00000000000E+00  0.00000000000E+00  0.62179286269E+03  0.80313990888E+03  0.50833782975E+03 0.  0.
        5    1    3    3  502    0 -0.18293327902E+03 -0.49577807840E+02  0.43438376480E+02  0.19450328057E+03  0.46999998093E+01 0.  1.
       -5    1    3    3    0  502  0.18293327902E+03  0.49577807840E+02  0.57835448621E+03  0.60863662831E+03  0.46999998093E+01 0. -1.
</event>
<event>
 5   0  0.1984680E-01  0.4953970E+03  0.7818609E-02  0.1014987E+00
        1   -1    0    0  501    0  0.00000000000E+00  0.00000000000E+00  0.53048550914E+03  0.53048550917E+03  0.50400001928E-02 0.  1.
       -1   -1    0    0    0  501  0.00000000000E+00  0.00000000000E+00 -0.11565733761E+03  0.11565733772E+03  0.50400001928E-02 0. -1.
    10030    2    1    2    0    0  0.00000000000E+00  0.00000000000E+00  0.41482817153E+03  0.64614284689E+03  0.49539697889E+03 0.  0.
        5    1    3    3  502    0  0.23358737894E+03 -0.59037363483E+02  0.28215790621E+03  0.37105747253E+03  0.46999998093E+01 0.  1.
       -5    1    3    3    0  502 -0.23358737894E+03  0.59037363483E+02  0.13267026532E+03  0.27508537436E+03  0.46999998093E+01 0. -1.
</event>
<event>
 5   0  0.1967161E-01  0.5006048E+03  0.7818609E-02  0.1013621E+00
       -1   -1    0    0    0  501  0.00000000000E+00  0.00000000000E+00  0.28562963320E+03  0.28562963325E+03  0.50400001928E-02 0. -1.
        1   -1    0    0  501    0  0.00000000000E+00  0.00000000000E+00 -0.21934447389E+03  0.21934447395E+03  0.50400001928E-02 0.  1.
    10030    2    1    2    0    0  0.00000000000E+00  0.00000000000E+00  0.66285159310E+02  0.50497410719E+03  0.50060476086E+03 0.  0.
        1    1    3    3  502    0  0.55246045118E+02 -0.20564257991E+03 -0.99574326562E+02  0.23506603904E+03  0.50400001928E-02 0.  1.
       -1    1    3    3    0  502 -0.55246045118E+02  0.20564257991E+03  0.16585948587E+03  0.26990806815E+03  0.50400001928E-02 0. -1.
</event>
<event>
 5   0  0.3117389E-01  0.4953451E+03  0.7818609E-02  0.1015001E+00
       -2   -1    0    0    0  501  0.00000000000E+00  0.00000000000E+00  0.14630305672E+03  0.14630305674E+03  0.25500000920E-02 0. -1.
        2   -1    0    0  501    0  0.00000000000E+00  0.00000000000E+00 -0.41927820060E+03  0.41927820061E+03  0.25500000920E-02 0.  1.
    10030    2    1    2    0    0  0.00000000000E+00  0.00000000000E+00 -0.27297514388E+03  0.56558125735E+03  0.49534506103E+03 0.  0.
        4    1    3    3  502    0 -0.38375635180E+02 -0.11878175624E+03  0.10775535259E+03  0.16490792553E+03  0.12699999809E+01 0. -1.
       -4    1    3    3    0  502  0.38375635180E+02  0.11878175624E+03 -0.38073049647E+03  0.40067333182E+03  0.12699999809E+01 0.  1.
</event>
<event>
 5   0  0.1967161E-01  0.5127156E+03  0.7818609E-02  0.1010512E+00
        1   -1    0    0  501    0  0.00000000000E+00  0.00000000000E+00  0.11592397060E+03  0.11592397070E+03  0.50400001928E-02 0.  1.
       -1   -1    0    0    0  501  0.00000000000E+00  0.00000000000E+00 -0.56691741401E+03  0.56691741403E+03  0.50400001928E-02 0. -1.
    10030    2    1    2    0    0  0.00000000000E+00  0.00000000000E+00 -0.45099344341E+03  0.68284138473E+03  0.51271558461E+03 0.  0.
        1    1    3    3  502    0  0.34810537212E+02 -0.25391947790E+03 -0.21791089183E+03  0.33641051048E+03  0.50400001928E-02 0. -1.
       -1    1    3    3    0  502 -0.34810537212E+02  0.25391947790E+03 -0.23308255158E+03  0.34643087425E+03  0.50400001928E-02 0.  1.
</event>
<event>
 5   0  0.3187123E-01  0.4889416E+03  0.7818609E-02  0.1016706E+00
        2   -1    0    0  501    0  0.00000000000E+00  0.00000000000E+00  0.11784297235E+03  0.11784297237E+03  0.25500000920E-02 0.  1.
       -2   -1    0    0    0  501  0.00000000000E+00  0.00000000000E+00 -0.50716617509E+03  0.50716617510E+03  0.25500000920E-02 0. -1.
    10030    2    1    2    0    0  0.00000000000E+00  0.00000000000E+00 -0.38932320274E+03  0.62500914747E+03  0.48894158979E+03 0.  0.
        5    1    3    3  502    0 -0.13077957161E+03  0.10362916699E+03  0.33653944168E+02  0.17028499217E+03  0.46999998093E+01 0.  1.
       -5    1    3    3    0  502  0.13077957161E+03 -0.10362916699E+03 -0.42297714691E+03  0.45472415530E+03  0.46999998093E+01 0. -1.
</event>
<event>
 5   0  0.3187123E-01  0.5001972E+03  0.7818609E-02  0.1013727E+00
       -2   -1    0    0    0  501  0.00000000000E+00  0.00000000000E+00  0.55328003191E+03  0.55328003192E+03  0.25500000920E-02 0.  1.
        2   -1    0    0  501    0  0.00000000000E+00  0.00000000000E+00 -0.11305180048E+03  0.11305180051E+03  0.25500000920E-02 0. -1.
    10030    2    1    2    0    0  0.00000000000E+00  0.00000000000E+00  0.44022823144E+03  0.66633183242E+03  0.50019717627E+03 0.  0.
        5    1    3    3  502    0 -0.23763037848E+03 -0.36382946425E+02  0.12844501032E+03  0.27260250594E+03  0.46999998093E+01 0. -1.
       -5    1    3    3    0  502  0.23763037848E+03  0.36382946425E+02  0.31178322112E+03  0.39372932649E+03  0.46999998093E+01 0.  1.
</event>
<event>
 5   0  0.3187123E-01  0.5206345E+03  0.7818609E-02  0.1008529E+00
       -2   -1    0    0    0  501  0.00000000000E+00  0.00000000000E+00  0.19480158278E+03  0.19480158279E+03  0.25500000920E-02 0.  1.
        2   -1    0    0  501    0  0.00000000000E+00  0.00000000000E+00 -0.34786719730E+03  0.34786719731E+03  0.25500000920E-02 0. -1.
    10030    2    1    2    0    0  0.00000000000E+00  0.00000000000E+00 -0.15306561452E+03  0.54266878010E+03  0.52063453837E+03 0.  0.
        5    1    3    3  502    0  0.49601353012E+02 -0.70640765144E+02 -0.33247022942E+03  0.34352431554E+03  0.46999998093E+01 0. -1.
       -5    1    3    3    0  502 -0.49601353012E+02  0.70640765144E+02  0.17940461490E+03  0.19914446456E+03  0.46999998093E+01 0.  1.
</event>
<event>
 5   0  0.1292375E-01  0.3737192E+03  0.7818609E-02  0.1053280E+00
        3   -1    0    0  501    0  0.00000000000E+00  0.00000000000E+00  0.28224219110E+03  0.28224220917E+03  0.10100000352E+00 0.  1.
       -3   -1    0    0    0  501  0.00000000000E+00  0.00000000000E+00 -0.12371114180E+03  0.12371118303E+03  0.10100000352E+00 0. -1.
    10030    2    1    2    0    0  0.00000000000E+00  0.00000000000E+00  0.15853104930E+03  0.40595339220E+03  0.37371923023E+03 0.  0.
        5    1    3    3  502    0 -0.45441508191E+02  0.90894279689E+02 -0.90994699325E+02  0.13648745748E+03  0.46999998093E+01 0. -1.
       -5    1    3    3    0  502  0.45441508191E+02 -0.90894279689E+02  0.24952574862E+03  0.26946593471E+03  0.46999998093E+01 0.  1.
</event>
<event>
 5   0  0.3329246E-01  0.4925061E+03  0.7818609E-02  0.1015754E+00
        2   -1    0    0  501    0  0.00000000000E+00  0.00000000000E+00  0.17900186179E+04  0.17900186179E+04  0.25500000920E-02 0. -1.
       -2   -1    0    0    0  501  0.00000000000E+00  0.00000000000E+00 -0.33877059005E+02  0.33877059101E+02  0.25500000920E-02 0.  1.
    10030    2    1    2    0    0  0.00000000000E+00  0.00000000000E+00  0.17561415589E+04  0.18238956770E+04  0.49250610727E+03 0.  0.
        2    1    3    3  502    0  0.29198886236E+02 -0.20314614701E+03  0.37410090300E+03  0.42669944649E+03  0.25500000920E-02 0.  1.
       -2    1    3    3    0  502 -0.29198886236E+02  0.20314614701E+03  0.13820406559E+04  0.13971962305E+04  0.25500000920E-02 0. -1.
</event>
<event>
 5   0  0.2013450E-01  0.4966811E+03  0.7818609E-02  0.1014649E+00
        1   -1    0    0  501    0  0.00000000000E+00  0.00000000000E+00  0.50810381791E+03  0.50810381793E+03  0.50400001928E-02 0.  1.
       -1   -1    0    0    0  501  0.00000000000E+00  0.00000000000E+00 -0.12137878438E+03  0.12137878449E+03  0.50400001928E-02 0. -1.
    10030    2    1    2    0    0  0.00000000000E+00  0.00000000000E+00  0.38672503353E+03  0.62948260242E+03  0.49668107996E+03 0.  0.
        4    1    3    3  502    0  0.53447848888E+02 -0.24251339210E+03  0.19157331377E+03  0.31364209754E+03  0.12699999809E+01 0.  1.
       -4    1    3    3    0  502 -0.53447848888E+02  0.24251339210E+03  0.19515171975E+03  0.31584050488E+03  0.12699999809E+01 0. -1.
</event>
<event>
 5   0  0.3111146E-01  0.5421705E+03  0.7818609E-02  0.1003323E+00
       -2   -1    0    0    0  501  0.00000000000E+00  0.00000000000E+00  0.14311876624E+03  0.14311876626E+03  0.25500000920E-02 0.  1.
        2   -1    0    0  501    0  0.00000000000E+00  0.00000000000E+00 -0.51347020274E+03  0.51347020275E+03  0.25500000920E-02 0. -1.
    10030    2    1    2    0    0  0.00000000000E+00  0.00000000000E+00 -0.37035143650E+03  0.65658896901E+03  0.54217053379E+03 0.  0.
        1    1    3    3  502    0 -0.23823196694E+03  0.12916331539E+03 -0.19370384799E+03  0.33310480763E+03  0.50400001928E-02 0.  1.
       -1    1    3    3    0  502  0.23823196694E+03 -0.12916331539E+03 -0.17664758850E+03  0.32348416138E+03  0.50400001928E-02 0. -1.
</event>
<event>
 5   0  0.3187123E-01  0.4969790E+03  0.7818609E-02  0.1014570E+00
        2   -1    0    0  501    0  0.00000000000E+00  0.00000000000E+00  0.64041810957E+03  0.64041810958E+03  0.25500000920E-02 0. -1.
       -2   -1    0    0    0  501  0.00000000000E+00  0.00000000000E+00 -0.96416740481E+02  0.96416740514E+02  0.25500000920E-02 0.  1.
    10030    2    1    2    0    0  0.00000000000E+00  0.00000000000E+00  0.54400136909E+03  0.73683485009E+03  0.49697898018E+03 0.  0.
        5    1    3    3  502    0  0.79089124145E+02 -0.20488335741E+03  0.44421961104E+03  0.49556577014E+03  0.46999998093E+01 0. -1.
       -5    1    3    3    0  502 -0.79089124145E+02  0.20488335741E+03  0.99781758051E+02  0.24126907995E+03  0.46999998093E+01 0.  1.
</event>
<event>
 5   0  0.3117389E-01  0.4966223E+03  0.7818609E-02  0.1014664E+00
       -2   -1    0    0    0  501  0.00000000000E+00  0.00000000000E+00  0.37358117474E+02  0.37358117561E+02  0.25500000920E-02 0. -1.
        2   -1    0    0  501    0  0.00000000000E+00  0.00000000000E+00 -0.16504695553E+04  0.16504695553E+04  0.25500000920E-02 0.  1.
    10030    2    1    2    0    0  0.00000000000E+00  0.00000000000E+00 -0.16131114378E+04  0.16878276728E+04  0.49662233381E+03 0.  0.
        4    1    3    3  502    0 -0.19545556545E+02  0.74390725783E+02 -0.16089512649E+04  0.16107891837E+04  0.12699999809E+01 0.  1.
       -4    1    3    3    0  502  0.19545556545E+02 -0.74390725783E+02 -0.41601729384E+01  0.77038489095E+02  0.12699999809E+01 0. -1.
</event>
<event>
 5   0  0.3178149E-01  0.5062247E+03  0.7818609E-02  0.1012167E+00
       -2   -1    0    0    0  501  0.00000000000E+00  0.00000000000E+00  0.67063909584E+02  0.67063909633E+02  0.25500000920E-02 0.  1.
        2   -1    0    0  501    0  0.00000000000E+00  0.00000000000E+00 -0.95529556878E+03  0.95529556878E+03  0.25500000920E-02 0. -1.
    10030    2    1    2    0    0  0.00000000000E+00  0.00000000000E+00 -0.88823165919E+03  0.10223594784E+04  0.50622467612E+03 0.  0.
        3    1    3    3  502    0 -0.21668897174E+03 -0.11295305496E+03 -0.57736721371E+03  0.62694929043E+03  0.10100000352E+00 0. -1.
       -3    1    3    3    0  502  0.21668897174E+03  0.11295305496E+03 -0.31086444548E+03  0.39541018798E+03  0.10100000352E+00 0.  1.
</event>
<event>
 5   0  0.3187123E-01  0.5008081E+03  0.7818609E-02  0.1013568E+00
       -2   -1    0    0    0  501  0.00000000000E+00  0.00000000000E+00  0.37652939560E+02  0.37652939647E+02  0.25500000920E-02 0.  1.
        2   -1    0    0  501    0  0.00000000000E+00  0.00000000000E+00 -0.16652665948E+04  0.16652665948E+04  0.25500000920E-02 0. -1.
    10030    2    1    2    0    0  0.00000000000E+00  0.00000000000E+00 -0.16276136553E+04  0.17029195345E+04  0.50080807710E+03 0.  0.
        5    1    3    3  502    0  0.13776896617E+03  0.46709085521E+02 -0.15066602384E+04  0.15136740702E+04  0.46999998093E+01 0. -1.
       -5    1    3    3    0  502 -0.13776896617E+03 -0.46709085521E+02 -0.12095341685E+03  0.18924546430E+03  0.46999998093E+01 0.  1.
</event>
<event>
 5   0  0.2013450E-01  0.4964139E+03  0.7818609E-02  0.1014719E+00
        1   -1    0    0  501    0  0.00000000000E+00  0.00000000000E+00  0.10202212520E+04  0.10202212520E+04  0.50400001928E-02 0.  1.
       -1   -1    0    0    0  501  0.00000000000E+00  0.00000000000E+00 -0.60385608735E+02  0.60385608946E+02  0.50400001928E-02 0. -1.
    10030    2    1    2    0    0  0.00000000000E+00  0.00000000000E+00  0.95983564322E+03  0.10806068609E+04  0.49641386550E+03 0.  0.
        4    1    3    3  502    0 -0.77745270443E+02 -0.23433833704E+03  0.42457822991E+03  0.49114872442E+03  0.12699999809E+01 0. -1.
       -4    1    3    3    0  502  0.77745270443E+02  0.23433833704E+03  0.53525741331E+03  0.58945813650E+03  0.12699999809E+01 0.  1.
</event>
<event>
 5   0  0.1984297E-01  0.4894196E+03  0.7818609E-02  0.1016578E+00
        1   -1    0    0  501    0  0.00000000000E+00  0.00000000000E+00  0.23614023193E+03  0.23614023198E+03  0.50400001928E-02 0. -1.
       -1   -1    0    0    0  501  0.00000000000E+00  0.00000000000E+00 -0.25359037061E+03  0.25359037066E+03  0.50400001928E-02 0.  1.
    10030    2    1    2    0    0  0.00000000000E+00  0.00000000000E+00 -0.17450138680E+02  0.48973060264E+03  0.48941961120E+03 0.  0.
        3    1    3    3  502    0  0.79580724456E+02 -0.93172792508E+02  0.20323166575E+03  0.23731283390E+03  0.10100000352E+00 0. -1.
       -3    1    3    3    0  502 -0.79580724456E+02  0.93172792508E+02 -0.22068180443E+03  0.25241776874E+03  0.10100000352E+00 0.  1.
</event>
<event>
 5   0  0.1984680E-01  0.4948863E+03  0.7818609E-02  0.1015122E+00
       -1   -1    0    0    0  501  0.00000000000E+00  0.00000000000E+00  0.44514613989E+02  0.44514614274E+02  0.50400001928E-02 0. -1.
        1   -1    0    0  501    0  0.00000000000E+00  0.00000000000E+00 -0.13754608562E+04  0.13754608562E+04  0.50400001928E-02 0.  1.
    10030    2    1    2    0    0  0.00000000000E+00  0.00000000000E+00 -0.13309462422E+04  0.14199754705E+04  0.49488628706E+03 0.  0.
        5    1    3    3  502    0 -0.60313426210E+02  0.19146406954E+03 -0.10803799368E+04  0.10988808385E+04  0.46999998093E+01 0.  1.
       -5    1    3    3    0  502  0.60313426210E+02 -0.19146406954E+03 -0.25056630541E+03  0.32109463202E+03  0.46999998093E+01 0. -1.
</event>
<event>
 5   0  0.3111146E-01  0.5050261E+03  0.7818609E-02  0.1012475E+00
        2   -1    0    0  501    0  0.00000000000E+00  0.00000000000E+00  0.89066316179E+03  0.89066316179E+03  0.25500000920E-02 0. -1.
       -2   -1    0    0    0  501  0.00000000000E+00  0.00000000000E+00 -0.71590303771E+02  0.71590303816E+02  0.25500000920E-02 0.  1.
    10030    2    1    2    0    0  0.00000000000E+00  0.00000000000E+00  0.81907285802E+03  0.96225346561E+03  0.50502612342E+03 0.  0.
        1    1    3    3  502    0  0.13258925055E+03 -0.21384097871E+03  0.45017779935E+03  0.51572078161E+03  0.50400001928E-02 0. -1.
       -1    1    3    3    0  502 -0.13258925055E+03  0.21384097871E+03  0.36889505867E+03  0.44653268400E+03  0.50400001928E-02 0.  1.
</event>
<event>
 5   0  0.3187123E-01  0.5045221E+03  0.7818609E-02  0.1012605E+00
        2   -1    0    0  501    0  0.00000000000E+00  0.00000000000E+00  0.83563475188E+03  0.83563475189E+03  0.25500000920E-02 0.  1.
       -2   -1    0    0    0  501  0.00000000000E+00  0.00000000000E+00 -0.76152445901E+02  0.76152445943E+02  0.25500000920E-02 0. -1.
    10030    2    1    2    0    0  0.00000000000E+00  0.00000000000E+00  0.75948230598E+03  0.91178719783E+03  0.50452207189E+03 0.  0.
        5    1    3    3  502    0  0.23256277590E+03  0.35978063980E+02  0.21575387207E+03  0.31929874590E+03  0.46999998093E+01 0. -1.
       -5    1    3    3    0  502 -0.23256277590E+03 -0.35978063980E+02  0.54372843392E+03  0.59248845193E+03  0.46999998093E+01 0.  1.
</event>
<event>
 5   0  0.1984680E-01  0.4947421E+03  0.7818609E-02  0.1015160E+00
       -1   -1    0    0    0  501  0.00000000000E+00  0.00000000000E+00  0.20266121645E+03  0.20266121651E+03  0.50400001928E-02 0.  1.
        1   -1    0    0  501    0  0.00000000000E+00  0.00000000000E+00 -0.30194447056E+03  0.30194447060E+03  0.50400001928E-02 0. -1.
    10030    2    1    2    0    0  0.00000000000E+00  0.00000000000E+00 -0.99283254110E+02  0.50460568711E+03  0.49474208929E+03 0.  0.
        5    1    3    3  502    0  0.12757069576E+02  0.19349622292E+03  0.10693383663E+03  0.22149597406E+03  0.46999998093E+01 0.  1.
       -5    1    3    3    0  502 -0.12757069576E+02 -0.19349622292E+03 -0.20621709074E+03  0.28310971305E+03  0.46999998093E+01 0. -1.
</event>
<event>
 5   0  0.1967161E-01  0.4909940E+03  0.7818609E-02  0.1016157E+00
       -1   -1    0    0    0  501  0.00000000000E+00  0.00000000000E+00  0.60702714835E+02  0.60702715044E+02  0.50400001928E-02 0. -1.
        1   -1    0    0  501    0  0.00000000000E+00  0.00000000000E+00 -0.99285139133E+03  0.99285139135E+03  0.50400001928E-02 0.  1.
    10030    2    1    2    0    0  0.00000000000E+00  0.00000000000E+00 -0.93214867650E+03  0.10535541064E+04  0.49099399181E+03 0.  0.
        1    1    3    3  502    0  0.11581170989E+03  0.95326947312E+02 -0.49061393809E+02  0.15781824806E+03  0.50400001928E-02 0. -1.
       -1    1    3    3    0  502 -0.11581170989E+03 -0.95326947312E+02 -0.88308728269E+03  0.89573585833E+03  0.50400001928E-02 0.  1.
</event>
<event>
 5   0  0.1292375E-01  0.4743402E+03  0.7818609E-02  0.1020702E+00
        3   -1    0    0  501    0  0.00000000000E+00  0.00000000000E+00  0.20897658070E+03  0.20897660511E+03  0.10100000352E+00 0.  1.
       -3   -1    0    0    0  501  0.00000000000E+00  0.00000000000E+00 -0.26916722902E+03  0.26916724796E+03  0.10100000352E+00 0. -1.
    10030    2    1    2    0    0  0.00000000000E+00  0.00000000000E+00 -0.60190648316E+02  0.47814385307E+03  0.47434020501E+03 0.  0.
        5    1    3    3  502    0 -0.21713871263E+03 -0.80483159157E+02  0.21311739029E+02  0.23260060114E+03  0.46999998093E+01 0.  1.
       -5    1    3    3    0  502  0.21713871263E+03  0.80483159157E+02 -0.81502387345E+02  0.24554325194E+03  0.46999998093E+01 0. -1.
</event>
<event>
 5   0  0.3117389E-01  0.5036226E+03  0.7818609E-02  0.1012838E+00
        2   -1    0    0  501    0  0.00000000000E+00  0.00000000000E+00  0.52746217683E+03  0.52746217684E+03  0.25500000920E-02 0.  1.
       -2   -1    0    0    0  501  0.00000000000E+00  0.00000000000E+00 -0.12021511131E+03  0.12021511134E+03  0.25500000920E-02 0. -1.
    10030    2    1    2    0    0  0.00000000000E+00  0.00000000000E+00  0.40724706552E+03  0.64767728818E+03  0.50362257420E+03 0.  0.
        4    1    3    3  502    0  0.11332742478E+03 -0.21062691354E+03  0.30489035174E+03  0.38751327900E+03  0.12699999809E+01 0.  1.
       -4    1    3    3    0  502 -0.11332742478E+03  0.21062691354E+03  0.10235671378E+03  0.26016400918E+03  0.12699999809E+01 0. -1.
</event>
<event>
 5   0  0.2013450E-01  0.4930732E+03  0.7818609E-02  0.1015603E+00
       -1   -1    0    0    0  501  0.00000000000E+00  0.00000000000E+00  0.30710042136E+02  0.30710042549E+02  0.50400001928E-02 0.  1.
        1   -1    0    0  501    0  0.00000000000E+00  0.00000000000E+00 -0.19791670847E+04  0.19791670847E+04  0.50400001928E-02 0. -1.
    10030    2    1    2    0    0  0.00000000000E+00  0.00000000000E+00 -0.19484570426E+04  0.20098771273E+04  0.49307323994E+03 0.  0.
        4    1    3    3  502    0 -0.20801434333E+03  0.23351549083E+02 -0.15051311955E+04  0.15196173171E+04  0.12699999809E+01 0. -1.
       -4    1    3    3    0  502  0.20801434333E+03 -0.23351549083E+02 -0.44332584707E+03  0.49025981015E+03  0.12699999809E+01 0.  1.
</event>
<event>
 5   0  0.3117389E-01  0.4980969E+03  0.7818609E-02  0.1014277E+00
       -2   -1    0    0    0  501  0.00000000000E+00  0.00000000000E+00  0.13946906342E+03  0.13946906344E+03  0.25500000920E-02 0. -1.
        2   -1    0    0  501    0  0.00000000000E+00  0.00000000000E+00 -0.44472325381E+03  0.44472325382E+03  0.25500000920E-02 0.  1.
    10030    2    1    2    0    0  0.00000000000E+00  0.00000000000E+00 -0.30525419039E+03  0.58419231725E+03  0.49809692108E+03 0.  0.
        4    1    3    3  502    0 -0.40597131189E+02 -0.28845970526E+02  0.13356554102E+03  0.14255379238E+03  0.12699999809E+01 0. -1.
       -4    1    3    3    0  502  0.40597131189E+02  0.28845970526E+02 -0.43881973141E+03  0.44163852487E+03  0.12699999809E+01 0.  1.
</event>
<event>
 5   0  0.3111146E-01  0.5075260E+03  0.7818609E-02  0.1011833E+00
        2   -1    0    0  501    0  0.00000000000E+00  0.00000000000E+00  0.19307231180E+04  0.19307231180E+04  0.25500000920E-02 0.  1.
       -2   -1    0    0    0  501  0.00000000000E+00  0.00000000000E+00 -0.33353130712E+02  0.33353130809E+02  0.25500000920E-02 0. -1.
    10030    2    1    2    0    0  0.00000000000E+00  0.00000000000E+00  0.18973699873E+04  0.19640762488E+04  0.50752600178E+03 0.  0.
        1    1    3    3  502    0 -0.25963579523E+02 -0.17359576696E+03  0.16579027409E+04  0.16671685866E+04  0.50400001928E-02 0.  1.
       -1    1    3    3    0  502  0.25963579523E+02  0.17359576696E+03  0.23946724634E+03  0.29690766218E+03  0.50400001928E-02 0. -1.
</event>
<event>
 5   0  0.1292375E-01  0.4969961E+03  0.7818609E-02  0.1014566E+00
       -4   -1    0    0    0  501  0.00000000000E+00  0.00000000000E+00  0.28954247219E+03  0.28954525744E+03  0.12699999809E+01 0. -1.
        4   -1    0    0  501    0  0.00000000000E+00  0.00000000000E+00 -0.21326624373E+03  0.21327002512E+03  0.12699999809E+01 0.  1.
    10030    2    1    2    0    0  0.00000000000E+00  0.00000000000E+00  0.76276228464E+02  0.50281528255E+03  0.49699612206E+03 0.  0.
        2    1    3    3  502    0 -0.16873177851E+03 -0.44722612032E+02 -0.14079640290E+03  0.22426357748E+03  0.25500000920E-02 0.  1.
       -2    1    3    3    0  502  0.16873177851E+03  0.44722612032E+02  0.21707263137E+03  0.27855170508E+03  0.25500000920E-02 0. -1.
</event>
<event>
 5   0  0.1967161E-01  0.5023049E+03  0.7818609E-02  0.1013179E+00
       -1   -1    0    0    0  501  0.00000000000E+00  0.00000000000E+00  0.15875391241E+03  0.15875391249E+03  0.50400001928E-02 0. -1.
        1   -1    0    0  501    0  0.00000000000E+00  0.00000000000E+00 -0.39732906832E+03  0.39732906835E+03  0.50400001928E-02 0.  1.
    10030    2    1    2    0    0  0.00000000000E+00  0.00000000000E+00 -0.23857515591E+03  0.55608298085E+03  0.50230486417E+03 0.  0.
        1    1    3    3  502    0 -0.24359527294E+03 -0.11699380920E+02 -0.52845260245E+02  0.24953587732E+03  0.50400001928E-02 0. -1.
       -1    1    3    3    0  502  0.24359527294E+03  0.11699380920E+02 -0.18572989566E+03  0.30654710353E+03  0.50400001928E-02 0.  1.
</event>
<event>
 5   0  0.1984680E-01  0.4983863E+03  0.7818609E-02  0.1014201E+00
        1   -1    0    0  501    0  0.00000000000E+00  0.00000000000E+00  0.52875507079E+03  0.52875507081E+03  0.50400001928E-02 0. -1.
       -1   -1    0    0    0  501  0.00000000000E+00  0.00000000000E+00 -0.11744044095E+03  0.11744044106E+03  0.50400001928E-02 0.  1.
    10030    2    1    2    0    0  0.00000000000E+00  0.00000000000E+00  0.41131462984E+03  0.64619551187E+03  0.49838631085E+03 0.  0.
        5    1    3    3  502    0 -0.18105125954E+03 -0.14290094269E+03  0.83511220913E+02  0.24534965258E+03  0.46999998093E+01 0.  1.
       -5    1    3    3    0  502  0.18105125954E+03  0.14290094269E+03  0.32780340892E+03  0.40084585929E+03  0.46999998093E+01 0. -1.
</event>
<event>
 5   0  0.3117389E-01  0.4950670E+03  0.7818609E-02  0.1015075E+00
       -2   -1    0    0    0  501  0.00000000000E+00  0.00000000000E+00  0.22395647916E+03  0.22395647917E+03  0.25500000920E-02 0. -1.
        2   -1    0    0  501    0  0.00000000000E+00  0.00000000000E+00 -0.27359259295E+03  0.27359259296E+03  0.25500000920E-02 0.  1.
    10030    2    1    2    0    0  0.00000000000E+00  0.00000000000E+00 -0.49636113787E+02  0.49754907213E+03  0.49506700091E+03 0.  0.
        4    1    3    3  502    0 -0.14931033474E+03 -0.19015894244E+03 -0.78161671227E+02  0.25409616133E+03  0.12699999809E+01 0.  1.
       -4    1    3    3    0  502  0.14931033474E+03  0.19015894244E+03  0.28525557439E+02  0.24345291081E+03  0.12699999809E+01 0. -1.
</event>
<event>
 5   0  0.1292375E-01  0.4939949E+03  0.7818609E-02  0.1015358E+00
       -3   -1    0    0    0  501  0.00000000000E+00  0.00000000000E+00  0.42225092791E+03  0.42225093999E+03  0.10100000352E+00 0.  1.
        3   -1    0    0  501    0  0.00000000000E+00  0.00000000000E+00 -0.14448217517E+03  0.14448221047E+03  0.10100000352E+00 0. -1.
    10030    2    1    2    0    0  0.00000000000E+00  0.00000000000E+00  0.27776875274E+03  0.56673315045E+03  0.49399492287E+03 0.  0.
        1    1    3    3  502    0 -0.19936443060E+03 -0.14409955082E+03  0.11331112733E+03  0.27083254667E+03  0.50400001928E-02 0. -1.
       -1    1    3    3    0  502  0.19936443060E+03  0.14409955082E+03  0.16445762541E+03  0.29590060378E+03  0.50400001928E-02 0.  1.
</event>
<event>
 5   0  0.2013450E-01  0.5055375E+03  0.7818609E-02  0.1012344E+00
        1   -1    0    0  501    0  0.00000000000E+00  0.00000000000E+00  0.14991570056E+04  0.14991570056E+04  0.50400001928E-02 0.  1.
       -1   -1    0    0    0  501  0.00000000000E+00  0.00000000000E+00 -0.42618641333E+02  0.42618641631E+02  0.50400001928E-02 0. -1.
    10030    2    1    2    0    0  0.00000000000E+00  0.00000000000E+00  0.14565383642E+04  0.15417756472E+04  0.50553747619E+03 0.  0.
        4    1    3    3  502    0 -0.84435406643E+02  0.14489115885E+03  0.13050528384E+04  0.13157839145E+04  0.12699999809E+01 0.  1.
       -4    1    3    3    0  502  0.84435406643E+02 -0.14489115885E+03  0.15148552585E+03  0.22599173270E+03  0.12699999809E+01 0. -1.
</event>
<event>
 5   0  0.3117389E-01  0.4532051E+03  0.7818609E-02  0.1026771E+00
       -2   -1    0    0    0  501  0.00000000000E+00  0.00000000000E+00  0.99941063039E+02  0.99941063072E+02  0.25500000920E-02 0.  1.
        2   -1    0    0  501    0  0.00000000000E+00  0.00000000000E+00 -0.51378986305E+03  0.51378986306E+03  0.25500000920E-02 0. -1.
    10030    2    1    2    0    0  0.00000000000E+00  0.00000000000E+00 -0.41384880001E+03  0.61373092613E+03  0.45320505339E+03 0.  0.
        4    1    3    3  502    0  0.16613991347E+02  0.19828442678E+02 -0.51177887255E+03  0.51243381928E+03  0.12699999809E+01 0. -1.
       -4    1    3    3    0  502 -0.16613991347E+02 -0.19828442678E+02  0.97930072544E+02  0.10129710685E+03  0.12699999809E+01 0.  1.
</event>
<event>
 5   0  0.1292375E-01  0.4959593E+03  0.7818609E-02  0.1014839E+00
        4   -1    0    0  501    0  0.00000000000E+00  0.00000000000E+00  0.34070860374E+03  0.34071097071E+03  0.12699999809E+01 0.  1.
       -4   -1    0    0    0  501  0.00000000000E+00  0.00000000000E+00 -0.18048306290E+03  0.18048753113E+03  0.12699999809E+01 0. -1.
    10030    2    1    2    0    0  0.00000000000E+00  0.00000000000E+00  0.16022554084E+03  0.52119850184E+03  0.49595932735E+03 0.  0.
        1    1    3    3  502    0  0.15889897997E+02  0.11393373397E+03 -0.15074959189E+03  0.18962812048E+03  0.50400001928E-02 0. -1.
       -1    1    3    3    0  502 -0.15889897997E+02 -0.11393373397E+03  0.31097513273E+03  0.33157038136E+03  0.50400001928E-02 0.  1.
</event>
<event>
 5   0  0.3111146E-01  0.5262865E+03  0.7818609E-02  0.1007137E+00
        2   -1    0    0  501    0  0.00000000000E+00  0.00000000000E+00  0.90298687072E+03  0.90298687072E+03  0.25500000920E-02 0. -1.
       -2   -1    0    0    0  501  0.00000000000E+00  0.00000000000E+00 -0.76683706684E+02  0.76683706726E+02  0.25500000920E-02 0.  1.
    10030    2    1    2    0    0  0.00000000000E+00  0.00000000000E+00  0.82630316403E+03  0.97967057745E+03  0.52628653928E+03 0.  0.
        1    1    3    3  502    0  0.70720813909E+02  0.13175832439E+03  0.10096809957E+02  0.14987873486E+03  0.50400001928E-02 0.  1.
       -1    1    3    3    0  502 -0.70720813909E+02 -0.13175832439E+03  0.81620635408E+03  0.82979184259E+03  0.50400001928E-02 0. -1.
</event>
<event>
 5   0  0.1967161E-01  0.5088036E+03  0.7818609E-02  0.1011506E+00
       -1   -1    0    0    0  501  0.00000000000E+00  0.00000000000E+00  0.87782524288E+02  0.87782524433E+02  0.50400001928E-02 0.  1.
        1   -1    0    0  501    0  0.00000000000E+00  0.00000000000E+00 -0.73727962786E+03  0.73727962788E+03  0.50400001928E-02 0. -1.
    10030    2    1    2    0    0  0.00000000000E+00  0.00000000000E+00 -0.64949710358E+03  0.82506215231E+03  0.50880356487E+03 0.  0.
        1    1    3    3  502    0  0.19605769333E+03  0.11686846233E+02 -0.62549337404E+02  0.20612525591E+03  0.50400001928E-02 0.  1.
       -1    1    3    3    0  502 -0.19605769333E+03 -0.11686846233E+02 -0.58694776617E+03  0.61893689640E+03  0.50400001928E-02 0. -1.
</event>
<event>
 5   0  0.2013450E-01  0.5024567E+03  0.7818609E-02  0.1013140E+00
        1   -1    0    0  501    0  0.00000000000E+00  0.00000000000E+00  0.29213943639E+03  0.29213943644E+03  0.50400001928E-02 0. -1.
       -1   -1    0    0    0  501  0.00000000000E+00  0.00000000000E+00 -0.21604643205E+03  0.21604643211E+03  0.50400001928E-02 0.  1.
    10030    2    1    2    0    0  0.00000000000E+00  0.00000000000E+00  0.76093004344E+02  0.50818586854E+03  0.50245669632E+03 0.  0.
        4    1    3    3  502    0  0.23268461716E+03  0.56408772645E+02  0.11500610669E+03  0.26561644935E+03  0.12699999809E+01 0.  1.
       -4    1    3    3    0  502 -0.23268461716E+03 -0.56408772645E+02 -0.38913102346E+02  0.24256941919E+03  0.12699999809E+01 0. -1.
</event>
<event>
 5   0  0.1984297E-01  0.4794669E+03  0.7818609E-02  0.1019282E+00
        1   -1    0    0  501    0  0.00000000000E+00  0.00000000000E+00  0.56549949903E+03  0.56549949905E+03  0.50400001928E-02 0.  1.
       -1   -1    0    0    0  501  0.00000000000E+00  0.00000000000E+00 -0.10163073742E+03  0.10163073754E+03  0.50400001928E-02 0. -1.
    10030    2    1    2    0    0  0.00000000000E+00  0.00000000000E+00  0.46386876161E+03  0.66713023659E+03  0.47946691708E+03 0.  0.
        3    1    3    3  502    0 -0.19711460255E+03 -0.75494208844E+02  0.73787966972E+02  0.22360280942E+03  0.10100000352E+00 0. -1.
       -3    1    3    3    0  502  0.19711460255E+03  0.75494208844E+02  0.39008079464E+03  0.44352742717E+03  0.10100000352E+00 0.  1.
</event>
<event>
 5   0  0.3178149E-01  0.5222695E+03  0.7818609E-02  0.1008124E+00
       -2   -1    0    0    0  501  0.00000000000E+00  0.00000000000E+00  0.11280096930E+03  0.11280096933E+03  0.25500000920E-02 0.  1.
        2   -1    0    0  501    0  0.00000000000E+00  0.00000000000E+00 -0.60452807438E+03  0.60452807438E+03  0.25500000920E-02 0. -1.
    10030    2    1    2    0    0  0.00000000000E+00  0.00000000000E+00 -0.49172710508E+03  0.71732904371E+03  0.52226948129E+03 0.  0.
        3    1    3    3  502    0 -0.14078393919E+03 -0.48804627582E+02  0.48681901095E+02  0.15675441589E+03  0.10100000352E+00 0.  1.
       -3    1    3    3    0  502  0.14078393919E+03  0.48804627582E+02 -0.54040900617E+03  0.56057462782E+03  0.10100000352E+00 0. -1.
</event>
<event>
 5   0  0.3329246E-01  0.4894640E+03  0.7818609E-02  0.1016566E+00
       -2   -1    0    0    0  501  0.00000000000E+00  0.00000000000E+00  0.12909613637E+03  0.12909613640E+03  0.25500000920E-02 0. -1.
        2   -1    0    0  501    0  0.00000000000E+00  0.00000000000E+00 -0.46394693285E+03  0.46394693286E+03  0.25500000920E-02 0.  1.
    10030    2    1    2    0    0  0.00000000000E+00  0.00000000000E+00 -0.33485079648E+03  0.59304306925E+03  0.48946401919E+03 0.  0.
        2    1    3    3  502    0  0.13055903716E+03  0.19839542892E+03 -0.23897597081E+03  0.33692124159E+03  0.25500000920E-02 0. -1.
       -2    1    3    3    0  502 -0.13055903716E+03 -0.19839542892E+03 -0.95874825669E+02  0.25612182766E+03  0.25500000920E-02 0.  1.
</event>
<event>
 5   0  0.2000612E-01  0.5056202E+03  0.7818609E-02  0.1012322E+00
       -1   -1    0    0    0  501  0.00000000000E+00  0.00000000000E+00  0.27064901989E+03  0.27064901994E+03  0.50400001928E-02 0. -1.
        1   -1    0    0  501    0  0.00000000000E+00  0.00000000000E+00 -0.23614694194E+03  0.23614694199E+03  0.50400001928E-02 0.  1.
    10030    2    1    2    0    0  0.00000000000E+00  0.00000000000E+00  0.34502077952E+02  0.50679596193E+03  0.50562016736E+03 0.  0.
        2    1    3    3  502    0  0.43480866430E+02  0.44528341271E+02 -0.22834851777E+03  0.23667784961E+03  0.25500000920E-02 0.  1.
       -2    1    3    3    0  502 -0.43480866430E+02 -0.44528341271E+02  0.26285059572E+03  0.27011811231E+03  0.25500000920E-02 0. -1.
</event>
<event>
 5   0  0.3111146E-01  0.4977629E+03  0.7818609E-02  0.1014364E+00
        2   -1    0    0  501    0  0.00000000000E+00  0.00000000000E+00  0.37094072904E+03  0.37094072905E+03  0.25500000920E-02 0. -1.
       -2   -1    0    0    0  501  0.00000000000E+00  0.00000000000E+00 -0.16698621331E+03  0.16698621332E+03  0.25500000920E-02 0.  1.
    10030    2    1    2    0    0  0.00000000000E+00  0.00000000000E+00  0.20395451574E+03  0.53792694238E+03  0.49776294644E+03 0.  0.
        1    1    3    3  502    0 -0.20780947928E+03  0.61884857728E+02  0.23401371739E+03  0.31902497590E+03  0.50400001928E-02 0.  1.
       -1    1    3    3    0  502  0.20780947928E+03 -0.61884857728E+02 -0.30059201656E+02  0.21890196647E+03  0.50400001928E-02 0. -1.
</event>
<event>
 5   0  0.3187123E-01  0.5172283E+03  0.7818609E-02  0.1009377E+00
        2   -1    0    0  501    0  0.00000000000E+00  0.00000000000E+00  0.14896978016E+04  0.14896978016E+04  0.25500000920E-02 0.  1.
       -2   -1    0    0    0  501  0.00000000000E+00  0.00000000000E+00 -0.44895863895E+02  0.44895863968E+02  0.25500000920E-02 0. -1.
    10030    2    1    2    0    0  0.00000000000E+00  0.00000000000E+00  0.14448019377E+04  0.15345936655E+04  0.51722826606E+03 0.  0.
        5    1    3    3  502    0 -0.18890518286E+03  0.61163550146E+01  0.19886471933E+03  0.27439359413E+03  0.46999998093E+01 0. -1.
       -5    1    3    3    0  502  0.18890518286E+03 -0.61163550146E+01  0.12459372184E+04  0.12602000714E+04  0.46999998093E+01 0.  1.
</event>
<event>
 5   0  0.2013450E-01  0.5119330E+03  0.7818609E-02  0.1010710E+00
       -1   -1    0    0    0  501  0.00000000000E+00  0.00000000000E+00  0.15463807520E+03  0.15463807528E+03  0.50400001928E-02 0.  1.
        1   -1    0    0  501    0  0.00000000000E+00  0.00000000000E+00 -0.42369151649E+03  0.42369151652E+03  0.50400001928E-02 0. -1.
    10030    2    1    2    0    0  0.00000000000E+00  0.00000000000E+00 -0.26905344130E+03  0.57832959180E+03  0.51193296678E+03 0.  0.
        4    1    3    3  502    0  0.17307011464E+03  0.70102865761E+02 -0.33230307991E+03  0.38117532212E+03  0.12699999809E+01 0. -1.
       -4    1    3    3    0  502 -0.17307011464E+03 -0.70102865761E+02  0.63249638616E+02  0.19715426969E+03  0.12699999809E+01 0.  1.
</event>
<event>
 5   0  0.3111146E-01  0.4956264E+03  0.7818609E-02  0.1014927E+00
        2   -1    0    0  501    0  0.00000000000E+00  0.00000000000E+00  0.77605536927E+03  0.77605536928E+03  0.25500000920E-02 0.  1.
       -2   -1    0    0    0  501  0.00000000000E+00  0.00000000000E+00 -0.79132733976E+02  0.79132734017E+02  0.25500000920E-02 0. -1.
    10030    2    1    2    0    0  0.00000000000E+00  0.00000000000E+00  0.69692263530E+03  0.85518810330E+03  0.49562640409E+03 0.  0.
        1    1    3    3  502    0  0.12236432462E+03  0.11786903367E+03  0.65974115816E+03  0.68126685875E+03  0.50400001928E-02 0.  1.
       -1    1    3    3    0  502 -0.12236432462E+03 -0.11786903367E+03  0.37181477143E+02  0.17392124455E+03  0.50400001928E-02 0. -1.
</event>
<event>
 5   0  0.1967161E-01  0.4893158E+03  0.7818609E-02  0.1016606E+00
        1   -1    0    0  501    0  0.00000000000E+00  0.00000000000E+00  0.58222133841E+03  0.58222133843E+03  0.50400001928E-02 0.  1.
       -1   -1    0    0    0  501  0.00000000000E+00  0.00000000000E+00 -0.10280882631E+03  0.10280882644E+03  0.50400001928E-02 0. -1.
    10030    2    1    2    0    0  0.00000000000E+00  0.00000000000E+00  0.47941251209E+03  0.68503016486E+03  0.48931581829E+03 0.  0.
        1    1    3    3  502    0 -0.19467959531E+02 -0.14533674102E+03 -0.34473588295E+02  0.15063265932E+03  0.50400001928E-02 0. -1.
       -1    1    3    3    0  502  0.19467959531E+02  0.14533674102E+03  0.51388610039E+03  0.53439750555E+03  0.50400001928E-02 0.  1.
</event>
<event>
 5   0  0.3111146E-01  0.4934346E+03  0.7818609E-02  0.1015507E+00
        2   -1    0    0  501    0  0.00000000000E+00  0.00000000000E+00  0.35877812046E+03  0.35877812047E+03  0.25500000920E-02 0. -1.
       -2   -1    0    0    0  501  0.00000000000E+00  0.00000000000E+00 -0.16965759395E+03  0.16965759397E+03  0.25500000920E-02 0.  1.
    10030    2    1    2    0    0  0.00000000000E+00  0.00000000000E+00  0.18912052651E+03  0.52843571444E+03  0.49343462662E+03 0.  0.
        1    1    3    3  502    0 -0.87902737417E+02 -0.20232676320E+03  0.21287987469E+03  0.30656296487E+03  0.50400001928E-02 0. -1.
       -1    1    3    3    0  502  0.87902737417E+02  0.20232676320E+03 -0.23759348187E+02  0.22187274958E+03  0.50400001928E-02 0.  1.
</event>
<event>
 5   0  0.2000612E-01  0.5136642E+03  0.7818609E-02  0.1010273E+00
       -1   -1    0    0    0  501  0.00000000000E+00  0.00000000000E+00  0.20566223945E+03  0.20566223951E+03  0.50400001928E-02 0. -1.
        1   -1    0    0  501    0  0.00000000000E+00  0.00000000000E+00 -0.32073326352E+03  0.32073326356E+03  0.50400001928E-02 0.  1.
    10030    2    1    2    0    0  0.00000000000E+00  0.00000000000E+00 -0.11507102407E+03  0.52639550307E+03  0.51366417539E+03 0.  0.
        2    1    3    3  502    0  0.19362942629E+03  0.13249162078E+03  0.49535364792E+02  0.23979186115E+03  0.25500000920E-02 0. -1.
       -2    1    3    3    0  502 -0.19362942629E+03 -0.13249162078E+03 -0.16460638887E+03  0.28660364192E+03  0.25500000920E-02 0.  1.
</event>
<event>
 5   0  0.3329246E-01  0.5477792E+03  0.7818609E-02  0.1002009E+00
       -2   -1    0    0    0  501  0.00000000000E+00  0.00000000000E+00  0.10132651364E+03  0.10132651368E+03  0.25500000920E-02 0.  1.
        2   -1    0    0  501    0  0.00000000000E+00  0.00000000000E+00 -0.74033448850E+03  0.74033448850E+03  0.25500000920E-02 0. -1.
    10030    2    1    2    0    0  0.00000000000E+00  0.00000000000E+00 -0.63900797486E+03  0.84166100218E+03  0.54777919882E+03 0.  0.
        2    1    3    3  502    0 -0.18018598630E+03  0.13168147535E+02 -0.63579522007E+03  0.66096592320E+03  0.25500000920E-02 0. -1.
       -2    1    3    3    0  502  0.18018598630E+03 -0.13168147535E+02 -0.32127547904E+01  0.18069507898E+03  0.25500000920E-02 0.  1.
</event>
<event>
 5   0  0.3329246E-01  0.4974505E+03  0.7818609E-02  0.1014447E+00
       -2   -1    0    0    0  501  0.00000000000E+00  0.00000000000E+00  0.23632339430E+03  0.23632339431E+03  0.25500000920E-02 0.  1.
        2   -1    0    0  501    0  0.00000000000E+00  0.00000000000E+00 -0.26177790248E+03  0.26177790249E+03  0.25500000920E-02 0. -1.
    10030    2    1    2    0    0  0.00000000000E+00  0.00000000000E+00 -0.25454508179E+02  0.49810129680E+03  0.49745046978E+03 0.  0.
        2    1    3    3  502    0  0.13093398408E+02 -0.91758909762E+02 -0.24383890710E+03  0.26086116465E+03  0.25500000920E-02 0. -1.
       -2    1    3    3    0  502 -0.13093398408E+02  0.91758909762E+02  0.21838439892E+03  0.23724013215E+03  0.25500000920E-02 0.  1.
</event>
<event>
 5   0  0.2013450E-01  0.3441859E+03  0.7818609E-02  0.1065027E+00
       -1   -1    0    0    0  501  0.00000000000E+00  0.00000000000E+00  0.26363040653E+03  0.26363040657E+03  0.50400001928E-02 0. -1.
        1   -1    0    0  501    0  0.00000000000E+00  0.00000000000E+00 -0.11233904281E+03  0.11233904293E+03  0.50400001928E-02 0.  1.
    10030    2    1    2    0    0  0.00000000000E+00  0.00000000000E+00  0.15129136371E+03  0.37596944950E+03  0.34418592392E+03 0.  0.
        4    1    3    3  502    0  0.11863653076E+03 -0.17068867197E+01  0.21180291730E+03  0.24277485160E+03  0.12699999809E+01 0. -1.
       -4    1    3    3    0  502 -0.11863653076E+03  0.17068867197E+01 -0.60511553589E+02  0.13319459790E+03  0.12699999809E+01 0.  1.
</event>
<event>
 5   0  0.1984680E-01  0.4963713E+03  0.7818609E-02  0.1014730E+00
        1   -1    0    0  501    0  0.00000000000E+00  0.00000000000E+00  0.51979078401E+03  0.51979078404E+03  0.50400001928E-02 0.  1.
       -1   -1    0    0    0  501  0.00000000000E+00  0.00000000000E+00 -0.11850175383E+03  0.11850175394E+03  0.50400001928E-02 0. -1.
    10030    2    1    2    0    0  0.00000000000E+00  0.00000000000E+00  0.40128903018E+03  0.63829253797E+03  0.49637131090E+03 0.  0.
        5    1    3    3  502    0 -0.24053113428E+03 -0.44666584054E+02  0.25403253890E+03  0.35271086049E+03  0.46999998093E+01 0.  1.
       -5    1    3    3    0  502  0.24053113428E+03  0.44666584054E+02  0.14725649129E+03  0.28558167748E+03  0.46999998093E+01 0. -1.
</event>
<event>
 5   0  0.1292375E-01  0.5008537E+03  0.7818609E-02  0.1013556E+00
       -4   -1    0    0    0  501  0.00000000000E+00  0.00000000000E+00  0.19722209046E+03  0.19722617946E+03  0.12699999809E+01 0.  1.
        4   -1    0    0  501    0  0.00000000000E+00  0.00000000000E+00 -0.31797604150E+03  0.31797857769E+03  0.12699999809E+01 0. -1.
    10030    2    1    2    0    0  0.00000000000E+00  0.00000000000E+00 -0.12075395104E+03  0.51520475715E+03  0.50085369630E+03 0.  0.
        1    1    3    3  502    0  0.14449499281E+03  0.19546492369E+03  0.15840497064E+01  0.24307992221E+03  0.50400001928E-02 0.  1.
       -1    1    3    3    0  502 -0.14449499281E+03 -0.19546492369E+03 -0.12233800075E+03  0.27212483494E+03  0.50400001928E-02 0. -1.
</event>
<event>
 5   0  0.3178149E-01  0.5393994E+03  0.7818609E-02  0.1003978E+00
       -2   -1    0    0    0  501  0.00000000000E+00  0.00000000000E+00  0.89393384878E+02  0.89393384915E+02  0.25500000920E-02 0. -1.
        2   -1    0    0  501    0  0.00000000000E+00  0.00000000000E+00 -0.81368344575E+03  0.81368344575E+03  0.25500000920E-02 0.  1.
    10030    2    1    2    0    0  0.00000000000E+00  0.00000000000E+00 -0.72429006087E+03  0.90307683066E+03  0.53939936023E+03 0.  0.
        3    1    3    3  502    0  0.22941184894E+03 -0.13728353972E+03 -0.30268427120E+03  0.40384940875E+03  0.10100000352E+00 0.  1.
       -3    1    3    3    0  502 -0.22941184894E+03  0.13728353972E+03 -0.42160578967E+03  0.49922742192E+03  0.10100000352E+00 0. -1.
</event>
<event>
 5   0  0.1292375E-01  0.4966321E+03  0.7818609E-02  0.1014662E+00
       -4   -1    0    0    0  501  0.00000000000E+00  0.00000000000E+00  0.17217746394E+03  0.17218214771E+03  0.12699999809E+01 0.  1.
        4   -1    0    0  501    0  0.00000000000E+00  0.00000000000E+00 -0.35811326398E+03  0.35811551592E+03  0.12699999809E+01 0. -1.
    10030    2    1    2    0    0  0.00000000000E+00  0.00000000000E+00 -0.18593580004E+03  0.53029766363E+03  0.49663214788E+03 0.  0.
        3    1    3    3  502    0  0.81273126323E+02 -0.22047908010E+03 -0.17868748442E+03  0.29520429047E+03  0.10100000352E+00 0.  1.
       -3    1    3    3    0  502 -0.81273126323E+02  0.22047908010E+03 -0.72483156187E+01  0.23509337316E+03  0.10100000352E+00 0. -1.
</event>
<event>
 5   0  0.1967161E-01  0.4262160E+03  0.7818609E-02  0.1035062E+00
       -1   -1    0    0    0  501  0.00000000000E+00  0.00000000000E+00  0.14172781521E+03  0.14172781530E+03  0.50400001928E-02 0. -1.
        1   -1    0    0  501    0  0.00000000000E+00  0.00000000000E+00 -0.32043830764E+03  0.32043830768E+03  0.50400001928E-02 0.  1.
    10030    2    1    2    0    0  0.00000000000E+00  0.00000000000E+00 -0.17871049243E+03  0.46216612298E+03  0.42621600759E+03 0.  0.
        1    1    3    3  502    0  0.19005071703E+03 -0.96276167571E+02 -0.94952596453E+02  0.23324744604E+03  0.50400001928E-02 0. -1.
       -1    1    3    3    0  502 -0.19005071703E+03  0.96276167571E+02 -0.83757895982E+02  0.22891867694E+03  0.50400001928E-02 0.  1.
</event>
<event>
 5   0  0.3111146E-01  0.5015319E+03  0.7818609E-02  0.1013380E+00
       -2   -1    0    0    0  501  0.00000000000E+00  0.00000000000E+00  0.30089940313E+02  0.30089940421E+02  0.25500000920E-02 0.  1.
        2   -1    0    0  501    0  0.00000000000E+00  0.00000000000E+00 -0.20898534832E+04  0.20898534832E+04  0.25500000920E-02 0. -1.
    10030    2    1    2    0    0  0.00000000000E+00  0.00000000000E+00 -0.20597635429E+04  0.21199434236E+04  0.50153191997E+03 0.  0.
        1    1    3    3  502    0 -0.34148859279E+01  0.24674668571E+03 -0.12183471202E+04  0.12430870016E+04  0.50400001928E-02 0. -1.
       -1    1    3    3    0  502  0.34148859279E+01 -0.24674668571E+03 -0.84141642270E+03  0.87685642198E+03  0.50400001928E-02 0.  1.
</event>
<event>
 5   0  0.1984680E-01  0.4890274E+03  0.7818609E-02  0.1016683E+00
        1   -1    0    0  501    0  0.00000000000E+00  0.00000000000E+00  0.44377233047E+03  0.44377233050E+03  0.50400001928E-02 0.  1.
       -1   -1    0    0    0  501  0.00000000000E+00  0.00000000000E+00 -0.13472435630E+03  0.13472435639E+03  0.50400001928E-02 0. -1.
    10030    2    1    2    0    0  0.00000000000E+00  0.00000000000E+00  0.30904797417E+03  0.57849668689E+03  0.48902736775E+03 0.  0.
        5    1    3    3  502    0 -0.19766957866E+03 -0.12011289549E+03  0.60895009476E+02  0.23922930875E+03  0.46999998093E+01 0. -1.
       -5    1    3    3    0  502  0.19766957866E+03  0.12011289549E+03  0.24815296469E+03  0.33926737814E+03  0.46999998093E+01 0.  1.
</event>
<event>
 5   0  0.1984680E-01  0.4922010E+03  0.7818609E-02  0.1015835E+00
        1   -1    0    0  501    0  0.00000000000E+00  0.00000000000E+00  0.56460662240E+03  0.56460662243E+03  0.50400001928E-02 0.  1.
       -1   -1    0    0    0  501  0.00000000000E+00  0.00000000000E+00 -0.10727019173E+03  0.10727019185E+03  0.50400001928E-02 0. -1.
    10030    2    1    2    0    0  0.00000000000E+00  0.00000000000E+00  0.45733643067E+03  0.67187681428E+03  0.49220101864E+03 0.  0.
        5    1    3    3  502    0  0.73908359077E+02  0.16519273923E+03  0.11012248646E+01  0.18103698332E+03  0.46999998093E+01 0. -1.
       -5    1    3    3    0  502 -0.73908359077E+02 -0.16519273923E+03  0.45623520581E+03  0.49083983095E+03  0.46999998093E+01 0.  1.
</event>
<event>
 5   0  0.3329246E-01  0.4950083E+03  0.7818609E-02  0.1015090E+00
        2   -1    0    0  501    0  0.00000000000E+00  0.00000000000E+00  0.55206723061E+03  0.55206723062E+03  0.25500000920E-02 0.  1.
       -2   -1    0    0    0  501  0.00000000000E+00  0.00000000000E+00 -0.11096165937E+03  0.11096165940E+03  0.25500000920E-02 0. -1.
    10030    2    1    2    0    0  0.00000000000E+00  0.00000000000E+00  0.44110557124E+03  0.66302889002E+03  0.49500826662E+03 0.  0.
        2    1    3    3  502    0  0.29290031463E+02 -0.19661029348E+03  0.23038944441E+02  0.20011073538E+03  0.25500000920E-02 0. -1.
       -2    1    3    3    0  502 -0.29290031463E+02  0.19661029348E+03  0.41806662680E+03  0.46291815464E+03  0.25500000920E-02 0.  1.
</event>
<event>
 5   0  0.3329246E-01  0.5479170E+03  0.7818609E-02  0.1001977E+00
        2   -1    0    0  501    0  0.00000000000E+00  0.00000000000E+00  0.75031472128E+03  0.75031472128E+03  0.25500000920E-02 0. -1.
       -2   -1    0    0    0  501  0.00000000000E+00  0.00000000000E+00 -0.10002902158E+03  0.10002902161E+03  0.25500000920E-02 0.  1.
    10030    2    1    2    0    0  0.00000000000E+00  0.00000000000E+00  0.65028569970E+03  0.85034374290E+03  0.54791695525E+03 0.  0.
        2    1    3    3  502    0  0.42344543751E+02 -0.51669129708E+02  0.73748038735E+03  0.74049988594E+03  0.25500000920E-02 0. -1.
       -2    1    3    3    0  502 -0.42344543751E+02  0.51669129708E+02 -0.87194687647E+02  0.10984385695E+03  0.25500000920E-02 0.  1.
</event>
<event>
 5   0  0.1967161E-01  0.4905585E+03  0.7818609E-02  0.1016273E+00
       -1   -1    0    0    0  501  0.00000000000E+00  0.00000000000E+00  0.24769657682E+03  0.24769657687E+03  0.50400001928E-02 0. -1.
        1   -1    0    0  501    0  0.00000000000E+00  0.00000000000E+00 -0.24288547189E+03  0.24288547194E+03  0.50400001928E-02 0.  1.
    10030    2    1    2    0    0  0.00000000000E+00  0.00000000000E+00  0.48111049275E+01  0.49058204881E+03  0.49055845715E+03 0.  0.
        1    1    3    3  502    0 -0.21231147567E+03 -0.94075217645E+02 -0.76564001418E+02  0.24451657534E+03  0.50400001928E-02 0.  1.
       -1    1    3    3    0  502  0.21231147567E+03  0.94075217645E+02  0.81375106346E+02  0.24606547347E+03  0.50400001928E-02 0. -1.
</event>
<event>
 5   0  0.3187123E-01  0.5019627E+03  0.7818609E-02  0.1013268E+00
       -2   -1    0    0    0  501  0.00000000000E+00  0.00000000000E+00  0.76605577879E+02  0.76605577921E+02  0.25500000920E-02 0. -1.
        2   -1    0    0  501    0  0.00000000000E+00  0.00000000000E+00 -0.82228516465E+03  0.82228516466E+03  0.25500000920E-02 0.  1.
    10030    2    1    2    0    0  0.00000000000E+00  0.00000000000E+00 -0.74567958677E+03  0.89889074258E+03  0.50196266889E+03 0.  0.
        5    1    3    3  502    0  0.24372414966E+03 -0.56913088132E+02 -0.34035950218E+03  0.42250117331E+03  0.46999998093E+01 0.  1.
       -5    1    3    3    0  502 -0.24372414966E+03  0.56913088132E+02 -0.40532008460E+03  0.47638956927E+03  0.46999998093E+01 0. -1.
</event>
<event>
 5   0  0.2013450E-01  0.4871818E+03  0.7818609E-02  0.1017180E+00
        1   -1    0    0  501    0  0.00000000000E+00  0.00000000000E+00  0.47522403659E+03  0.47522403662E+03  0.50400001928E-02 0. -1.
       -1   -1    0    0    0  501  0.00000000000E+00  0.00000000000E+00 -0.12486009459E+03  0.12486009470E+03  0.50400001928E-02 0.  1.
    10030    2    1    2    0    0  0.00000000000E+00  0.00000000000E+00  0.35036394200E+03  0.60008413131E+03  0.48718176567E+03 0.  0.
        4    1    3    3  502    0  0.23761505212E+03  0.45805936101E+02  0.14087373481E+03  0.28001092628E+03  0.12699999809E+01 0. -1.
       -4    1    3    3    0  502 -0.23761505212E+03 -0.45805936101E+02  0.20949020718E+03  0.32007320504E+03  0.12699999809E+01 0.  1.
</event>
<event>
 5   0  0.3329246E-01  0.4959494E+03  0.7818609E-02  0.1014842E+00
        2   -1    0    0  501    0  0.00000000000E+00  0.00000000000E+00  0.16610026145E+04  0.16610026145E+04  0.25500000920E-02 0.  1.
       -2   -1    0    0    0  501  0.00000000000E+00  0.00000000000E+00 -0.37020680010E+02  0.37020680098E+02  0.25500000920E-02 0. -1.
    10030    2    1    2    0    0  0.00000000000E+00  0.00000000000E+00  0.16239819345E+04  0.16980232946E+04  0.49594937791E+03 0.  0.
        2    1    3    3  502    0 -0.22692387215E+03 -0.37829473553E+02  0.49511183199E+03  0.54594985026E+03  0.25500000920E-02 0. -1.
       -2    1    3    3    0  502  0.22692387215E+03  0.37829473553E+02  0.11288701025E+04  0.11520734443E+04  0.25500000920E-02 0.  1.
</event>
<event>
 5   0  0.1984297E-01  0.5054425E+03  0.7818609E-02  0.1012368E+00
       -1   -1    0    0    0  501  0.00000000000E+00  0.00000000000E+00  0.57234954346E+02  0.57234954568E+02  0.50400001928E-02 0. -1.
        1   -1    0    0  501    0  0.00000000000E+00  0.00000000000E+00 -0.11158919295E+04  0.11158919295E+04  0.50400001928E-02 0.  1.
    10030    2    1    2    0    0  0.00000000000E+00  0.00000000000E+00 -0.10586569751E+04  0.11731268841E+04  0.50544247458E+03 0.  0.
        3    1    3    3  502    0 -0.16577269648E+03  0.59609015174E+02 -0.10876029963E+03  0.20703293111E+03  0.10100000352E+00 0. -1.
       -3    1    3    3    0  502  0.16577269648E+03 -0.59609015174E+02 -0.94989667552E+03  0.96609395297E+03  0.10100000352E+00 0.  1.
</event>
<event>
 5   0  0.1984680E-01  0.4988770E+03  0.7818609E-02  0.1014072E+00
        1   -1    0    0  501    0  0.00000000000E+00  0.00000000000E+00  0.27861620173E+03  0.27861620177E+03  0.50400001928E-02 0. -1.
       -1   -1    0    0    0  501  0.00000000000E+00  0.00000000000E+00 -0.22331639452E+03  0.22331639458E+03  0.50400001928E-02 0.  1.
    10030    2    1    2    0    0  0.00000000000E+00  0.00000000000E+00  0.55299807206E+02  0.50193259635E+03  0.49887700148E+03 0.  0.
        5    1    3    3  502    0  0.11743603723E+03  0.16989126200E+03 -0.11300338402E+03  0.23546999500E+03  0.46999998093E+01 0.  1.
       -5    1    3    3    0  502 -0.11743603723E+03 -0.16989126200E+03  0.16830319123E+03  0.26646260136E+03  0.46999998093E+01 0. -1.
</event>
<event>
 5   0  0.1292375E-01  0.4990604E+03  0.7818609E-02  0.1014024E+00
        4   -1    0    0  501    0  0.00000000000E+00  0.00000000000E+00  0.89361652742E+02  0.89370676851E+02  0.12699999809E+01 0.  1.
       -4   -1    0    0    0  501  0.00000000000E+00  0.00000000000E+00 -0.69673429865E+03  0.69673545612E+03  0.12699999809E+01 0. -1.
    10030    2    1    2    0    0  0.00000000000E+00  0.00000000000E+00 -0.60737264591E+03  0.78610613297E+03  0.49906043852E+03 0.  0.
        3    1    3    3  502    0  0.12851550669E+03 -0.23197315297E+02 -0.63861316099E+03  0.65182906539E+03  0.10100000352E+00 0. -1.
       -3    1    3    3    0  502 -0.12851550669E+03  0.23197315297E+02  0.31240515078E+02  0.13427706759E+03  0.10100000352E+00 0.  1.
</event>
<event>
 5   0  0.1984680E-01  0.4937288E+03  0.7818609E-02  0.1015429E+00
        1   -1    0    0  501    0  0.00000000000E+00  0.00000000000E+00  0.29292025897E+03  0.29292025901E+03  0.50400001928E-02 0.  1.
       -1   -1    0    0    0  501  0.00000000000E+00  0.00000000000E+00 -0.20804993683E+03  0.20804993689E+03  0.50400001928E-02 0. -1.
    10030    2    1    2    0    0  0.00000000000E+00  0.00000000000E+00  0.84870322135E+02  0.50097019590E+03  0.49372883813E+03 0.  0.
        5    1    3    3  502    0  0.12475761080E+03  0.93437597823E+02 -0.15174803713E+03  0.21758814975E+03  0.46999998093E+01 0. -1.
       -5    1    3    3    0  502 -0.12475761080E+03 -0.93437597823E+02  0.23661835927E+03  0.28338204615E+03  0.46999998093E+01 0.  1.
</event>
<event>
 5   0  0.3329246E-01  0.3959351E+03  0.7818609E-02  0.1045196E+00
       -2   -1    0    0    0  501  0.00000000000E+00  0.00000000000E+00  0.21768289250E+03  0.21768289251E+03  0.25500000920E-02 0.  1.
        2   -1    0    0  501    0  0.00000000000E+00  0.00000000000E+00 -0.18003779458E+03  0.18003779459E+03  0.25500000920E-02 0. -1.
    10030    2    1    2    0    0  0.00000000000E+00  0.00000000000E+00  0.37645097923E+02  0.39772068711E+03  0.39593508503E+03 0.  0.
        2    1    3    3  502    0 -0.19105997837E+03 -0.51479175099E+02  0.24943227668E+02  0.19943967864E+03  0.25500000920E-02 0.  1.
       -2    1    3    3    0  502  0.19105997837E+03  0.51479175099E+02  0.12701870256E+02  0.19828100847E+03  0.25500000920E-02 0. -1.
</event>
<event>
 5   0  0.3329246E-01  0.4745415E+03  0.7818609E-02  0.1020646E+00
       -2   -1    0    0    0  501  0.00000000000E+00  0.00000000000E+00  0.53291839433E+02  0.53291839494E+02  0.25500000920E-02 0.  1.
        2   -1    0    0  501    0  0.00000000000E+00  0.00000000000E+00 -0.10563981224E+04  0.10563981224E+04  0.25500000920E-02 0. -1.
    10030    2    1    2    0    0  0.00000000000E+00  0.00000000000E+00 -0.10031062829E+04  0.11096899619E+04  0.47454145930E+03 0.  0.
        2    1    3    3  502    0  0.11661062104E+03 -0.80300099427E+01 -0.98440068280E+03  0.99131590439E+03  0.25500000920E-02 0. -1.
       -2    1    3    3    0  502 -0.11661062104E+03  0.80300099427E+01 -0.18705600129E+02  0.11837405747E+03  0.25500000920E-02 0.  1.
</event>
<event>
 5   0  0.2000612E-01  0.4691537E+03  0.7818609E-02  0.1022159E+00
        1   -1    0    0  501    0  0.00000000000E+00  0.00000000000E+00  0.10427241197E+04  0.10427241197E+04  0.50400001928E-02 0.  1.
       -1   -1    0    0    0  501  0.00000000000E+00  0.00000000000E+00 -0.52771681733E+02  0.52771681974E+02  0.50400001928E-02 0. -1.
    10030    2    1    2    0    0  0.00000000000E+00  0.00000000000E+00  0.98995243794E+03  0.10954958017E+04  0.46915372968E+03 0.  0.
        2    1    3    3  502    0  0.12980052280E+03 -0.98519748037E+02  0.88898368215E+03  0.90379549877E+03  0.25500000920E-02 0.  1.
       -2    1    3    3    0  502 -0.12980052280E+03  0.98519748037E+02  0.10096875579E+03  0.19170030289E+03  0.25500000920E-02 0. -1.
</event>
<event>
 5   0  0.3117389E-01  0.3581197E+03  0.7818609E-02  0.1059331E+00
       -2   -1    0    0    0  501  0.00000000000E+00  0.00000000000E+00  0.63479508225E+02  0.63479508276E+02  0.25500000920E-02 0.  1.
        2   -1    0    0  501    0  0.00000000000E+00  0.00000000000E+00 -0.50508323925E+03  0.50508323926E+03  0.25500000920E-02 0. -1.
    10030    2    1    2    0    0  0.00000000000E+00  0.00000000000E+00 -0.44160373103E+03  0.56856274753E+03  0.35811973225E+03 0.  0.
        4    1    3    3  502    0 -0.18113635690E+01 -0.17569854303E+03 -0.16609036743E+03  0.24178685265E+03  0.12699999809E+01 0.  1.
       -4    1    3    3    0  502  0.18113635690E+01  0.17569854303E+03 -0.27551336359E+03  0.32677589489E+03  0.12699999809E+01 0. -1.
</event>
<event>
 5   0  0.1984680E-01  0.5596914E+03  0.7818609E-02  0.9992753E-01
        1   -1    0    0  501    0  0.00000000000E+00  0.00000000000E+00  0.99285351495E+03  0.99285351496E+03  0.50400001928E-02 0.  1.
       -1   -1    0    0    0  501  0.00000000000E+00  0.00000000000E+00 -0.78877322519E+02  0.78877322680E+02  0.50400001928E-02 0. -1.
    10030    2    1    2    0    0  0.00000000000E+00  0.00000000000E+00  0.91397619243E+03  0.10717308376E+04  0.55969144001E+03 0.  0.
        5    1    3    3  502    0 -0.19999039348E+03 -0.25097558194E+02  0.85359705034E+02  0.21893929330E+03  0.46999998093E+01 0. -1.
       -5    1    3    3    0  502  0.19999039348E+03  0.25097558194E+02  0.82861648740E+03  0.85279154434E+03  0.46999998093E+01 0.  1.
</event>
<event>
 5   0  0.1984680E-01  0.5058131E+03  0.7818609E-02  0.1012273E+00
        1   -1    0    0  501    0  0.00000000000E+00  0.00000000000E+00  0.31934409501E+03  0.31934409505E+03  0.50400001928E-02 0.  1.
       -1   -1    0    0    0  501  0.00000000000E+00  0.00000000000E+00 -0.20029093256E+03  0.20029093262E+03  0.50400001928E-02 0. -1.
    10030    2    1    2    0    0  0.00000000000E+00  0.00000000000E+00  0.11905316246E+03  0.51963502767E+03  0.50581311420E+03 0.  0.
        5    1    3    3  502    0 -0.21532842769E+01 -0.25246432125E+03  0.45115920273E+02  0.25651589892E+03  0.46999998093E+01 0. -1.
       -5    1    3    3    0  502  0.21532842769E+01  0.25246432125E+03  0.73937242184E+02  0.26311912876E+03  0.46999998093E+01 0.  1.
</event>
<event>
 5   0  0.1984297E-01  0.5045518E+03  0.7818609E-02  0.1012598E+00
        1   -1    0    0  501    0  0.00000000000E+00  0.00000000000E+00  0.29447996273E+03  0.29447996277E+03  0.50400001928E-02 0. -1.
       -1   -1    0    0    0  501  0.00000000000E+00  0.00000000000E+00 -0.21612039946E+03  0.21612039952E+03  0.50400001928E-02 0.  1.
    10030    2    1    2    0    0  0.00000000000E+00  0.00000000000E+00  0.78359563270E+02  0.51060036229E+03  0.50455179002E+03 0.  0.
        3    1    3    3  502    0 -0.62584677976E+02 -0.28734158334E+02 -0.20642414868E+03  0.21760843994E+03  0.10100000352E+00 0.  1.
       -3    1    3    3    0  502  0.62584677976E+02  0.28734158334E+02  0.28478371195E+03  0.29299192235E+03  0.10100000352E+00 0. -1.
</event>
<event>
 5   0  0.3329246E-01  0.5012711E+03  0.7818609E-02  0.1013448E+00
       -2   -1    0    0    0  501  0.00000000000E+00  0.00000000000E+00  0.10313557348E+03  0.10313557351E+03  0.25500000920E-02 0. -1.
        2   -1    0    0  501    0  0.00000000000E+00  0.00000000000E+00 -0.60908359793E+03  0.60908359794E+03  0.25500000920E-02 0.  1.
    10030    2    1    2    0    0  0.00000000000E+00  0.00000000000E+00 -0.50594802445E+03  0.71221917145E+03  0.50127112897E+03 0.  0.
        2    1    3    3  502    0 -0.27737445789E+02 -0.21449169080E+03 -0.73015642832E+02  0.22827031219E+03  0.25500000920E-02 0.  1.
       -2    1    3    3    0  502  0.27737445789E+02  0.21449169080E+03 -0.43293238162E+03  0.48394885926E+03  0.25500000920E-02 0. -1.
</event>
<event>
 5   0  0.2013450E-01  0.5033252E+03  0.7818609E-02  0.1012915E+00
        1   -1    0    0  501    0  0.00000000000E+00  0.00000000000E+00  0.95473092524E+03  0.95473092526E+03  0.50400001928E-02 0.  1.
       -1   -1    0    0    0  501  0.00000000000E+00  0.00000000000E+00 -0.66337093342E+02  0.66337093534E+02  0.50400001928E-02 0. -1.
    10030    2    1    2    0    0  0.00000000000E+00  0.00000000000E+00  0.88839383190E+03  0.10210680188E+04  0.50332524121E+03 0.  0.
        4    1    3    3  502    0  0.68330487159E+02  0.12601854665E+03  0.86380149713E+03  0.87561656501E+03  0.12699999809E+01 0.  1.
       -4    1    3    3    0  502 -0.68330487159E+02 -0.12601854665E+03  0.24592334767E+02  0.14545145378E+03  0.12699999809E+01 0. -1.
</event>
<event>
 5   0  0.3329246E-01  0.4935774E+03  0.7818609E-02  0.1015469E+00
        2   -1    0    0  501    0  0.00000000000E+00  0.00000000000E+00  0.66699146590E+03  0.66699146591E+03  0.25500000920E-02 0.  1.
       -2   -1    0    0    0  501  0.00000000000E+00  0.00000000000E+00 -0.91312512040E+02  0.91312512075E+02  0.25500000920E-02 0. -1.
    10030    2    1    2    0    0  0.00000000000E+00  0.00000000000E+00  0.57567895386E+03  0.75830397798E+03  0.49357741551E+03 0.  0.
        2    1    3    3  502    0  0.51541661824E+02 -0.24076074431E+03  0.31365676882E+03  0.39875161133E+03  0.25500000920E-02 0.  1.
       -2    1    3    3    0  502 -0.51541661824E+02  0.24076074431E+03  0.26202218504E+03  0.35955236665E+03  0.25500000920E-02 0. -1.
</event>
<event>
 5   0  0.3329246E-01  0.4992803E+03  0.7818609E-02  0.1013967E+00
        2   -1    0    0  501    0  0.00000000000E+00  0.00000000000E+00  0.55974930542E+03  0.55974930542E+03  0.25500000920E-02 0. -1.
       -2   -1    0    0    0  501  0.00000000000E+00  0.00000000000E+00 -0.11133590444E+03  0.11133590447E+03  0.25500000920E-02 0.  1.
    10030    2    1    2    0    0  0.00000000000E+00  0.00000000000E+00  0.44841340098E+03  0.67108520989E+03  0.49928026274E+03 0.  0.
        2    1    3    3  502    0 -0.19179223319E+03  0.49224926257E+02  0.19863619973E+02  0.19900230522E+03  0.25500000920E-02 0.  1.
       -2    1    3    3    0  502  0.19179223319E+03 -0.49224926257E+02  0.42854978101E+03  0.47208290467E+03  0.25500000920E-02 0. -1.
</event>
<event>
 5   0  0.1984297E-01  0.4928580E+03  0.7818609E-02  0.1015660E+00
        1   -1    0    0  501    0  0.00000000000E+00  0.00000000000E+00  0.31942041346E+03  0.31942041350E+03  0.50400001928E-02 0.  1.
       -1   -1    0    0    0  501  0.00000000000E+00  0.00000000000E+00 -0.19011700261E+03  0.19011700268E+03  0.50400001928E-02 0. -1.
    10030    2    1    2    0    0  0.00000000000E+00  0.00000000000E+00  0.12930341085E+03  0.50953741618E+03  0.49285799824E+03 0.  0.
        3    1    3    3  502    0  0.12144200192E+02 -0.10290896627E+03 -0.16649818268E+03  0.19611066257E+03  0.10100000352E+00 0. -1.
       -3    1    3    3    0  502 -0.12144200192E+02  0.10290896627E+03  0.29580159353E+03  0.31342675361E+03  0.10100000352E+00 0.  1.
</event>
<event>
 5   0  0.1967161E-01  0.5049048E+03  0.7818609E-02  0.1012507E+00
        1   -1    0    0  501    0  0.00000000000E+00  0.00000000000E+00  0.10038285594E+04  0.10038285594E+04  0.50400001928E-02 0. -1.
       -1   -1    0    0    0  501  0.00000000000E+00  0.00000000000E+00 -0.63489148684E+02  0.63489148884E+02  0.50400001928E-02 0.  1.
    10030    2    1    2    0    0  0.00000000000E+00  0.00000000000E+00  0.94033941074E+03  0.10673177083E+04  0.50490482579E+03 0.  0.
        1    1    3    3  502    0  0.38151566790E+02 -0.21382602832E+03  0.74215799541E+03  0.77328882225E+03  0.50400001928E-02 0. -1.
       -1    1    3    3    0  502 -0.38151566790E+02  0.21382602832E+03  0.19818141533E+03  0.29402888607E+03  0.50400001928E-02 0.  1.
</event>
<event>
 5   0  0.1984297E-01  0.4673471E+03  0.7818609E-02  0.1022672E+00
        1   -1    0    0  501    0  0.00000000000E+00  0.00000000000E+00  0.40720700557E+03  0.40720700561E+03  0.50400001928E-02 0.  1.
       -1   -1    0    0    0  501  0.00000000000E+00  0.00000000000E+00 -0.13409228562E+03  0.13409228571E+03  0.50400001928E-02 0. -1.
    10030    2    1    2    0    0  0.00000000000E+00  0.00000000000E+00  0.27311471996E+03  0.54129929132E+03  0.46734705789E+03 0.  0.
        3    1    3    3  502    0  0.24152558294E+02 -0.11734163475E+03 -0.95815689493E+02  0.15340489520E+03  0.10100000352E+00 0. -1.
       -3    1    3    3    0  502 -0.24152558294E+02  0.11734163475E+03  0.36893040945E+03  0.38789439611E+03  0.10100000352E+00 0.  1.
</event>
<event>
 5   0  0.1984680E-01  0.5547839E+03  0.7818609E-02  0.1000393E+00
        1   -1    0    0  501    0  0.00000000000E+00  0.00000000000E+00  0.12193948400E+03  0.12193948410E+03  0.50400001928E-02 0.  1.
       -1   -1    0    0    0  501  0.00000000000E+00  0.00000000000E+00 -0.63102035803E+03  0.63102035805E+03  0.50400001928E-02 0. -1.
    10030    2    1    2    0    0  0.00000000000E+00  0.00000000000E+00 -0.50908087403E+03  0.75295984215E+03  0.55478391072E+03 0.  0.
        5    1    3    3  502    0 -0.18749849561E+03 -0.43281461348E+02 -0.52562730307E+03  0.55976345226E+03  0.46999998093E+01 0. -1.
       -5    1    3    3    0  502  0.18749849561E+03  0.43281461348E+02  0.16546429045E+02  0.19319638989E+03  0.46999998093E+01 0.  1.
</event>
<event>
 5   0  0.2013450E-01  0.5148670E+03  0.7818609E-02  0.1009970E+00
       -1   -1    0    0    0  501  0.00000000000E+00  0.00000000000E+00  0.97277124707E+02  0.97277124838E+02  0.50400001928E-02 0.  1.
        1   -1    0    0  501    0  0.00000000000E+00  0.00000000000E+00 -0.68127008550E+03  0.68127008552E+03  0.50400001928E-02 0. -1.
    10030    2    1    2    0    0  0.00000000000E+00  0.00000000000E+00 -0.58399296079E+03  0.77854721036E+03  0.51486695417E+03 0.  0.
        4    1    3    3  502    0 -0.95218609018E+02  0.65789445392E+02 -0.63970663465E+03  0.65009309021E+03  0.12699999809E+01 0. -1.
       -4    1    3    3    0  502  0.95218609018E+02 -0.65789445392E+02  0.55713673854E+02  0.12845412015E+03  0.12699999809E+01 0.  1.
</event>
<event>
 5   0  0.2013450E-01  0.4656552E+03  0.7818609E-02  0.1023154E+00
        1   -1    0    0  501    0  0.00000000000E+00  0.00000000000E+00  0.14194361042E+04  0.14194361042E+04  0.50400001928E-02 0.  1.
       -1   -1    0    0    0  501  0.00000000000E+00  0.00000000000E+00 -0.38190295728E+02  0.38190296061E+02  0.50400001928E-02 0. -1.
    10030    2    1    2    0    0  0.00000000000E+00  0.00000000000E+00  0.13812458085E+04  0.14576264002E+04  0.46565517214E+03 0.  0.
        4    1    3    3  502    0 -0.52706680892E+02 -0.17235096081E+03  0.22924803952E+03  0.29161468486E+03  0.12699999809E+01 0. -1.
       -4    1    3    3    0  502  0.52706680892E+02  0.17235096081E+03  0.11519977689E+04  0.11660117154E+04  0.12699999809E+01 0.  1.
</event>
<event>
 5   0  0.3111146E-01  0.4949378E+03  0.7818609E-02  0.1015109E+00
        2   -1    0    0  501    0  0.00000000000E+00  0.00000000000E+00  0.30625413854E+03  0.30625413855E+03  0.25500000920E-02 0. -1.
       -2   -1    0    0    0  501  0.00000000000E+00  0.00000000000E+00 -0.19996742672E+03  0.19996742674E+03  0.25500000920E-02 0.  1.
    10030    2    1    2    0    0  0.00000000000E+00  0.00000000000E+00  0.10628671182E+03  0.50622156529E+03  0.49493778200E+03 0.  0.
        1    1    3    3  502    0  0.19268281956E+03  0.12150567159E+03 -0.45759475454E+02  0.23234505977E+03  0.50400001928E-02 0. -1.
       -1    1    3    3    0  502 -0.19268281956E+03 -0.12150567159E+03  0.15204618727E+03  0.27387650551E+03  0.50400001928E-02 0.  1.
</event>
<event>
 5   0  0.3178149E-01  0.4959600E+03  0.7818609E-02  0.1014839E+00
       -2   -1    0    0    0  501  0.00000000000E+00  0.00000000000E+00  0.13325891270E+03  0.13325891272E+03  0.25500000920E-02 0.  1.
        2   -1    0    0  501    0  0.00000000000E+00  0.00000000000E+00 -0.46146322875E+03  0.46146322875E+03  0.25500000920E-02 0. -1.
    10030    2    1    2    0    0  0.00000000000E+00  0.00000000000E+00 -0.32820431605E+03  0.59472214147E+03  0.49596003114E+03 0.  0.
        3    1    3    3  502    0  0.23592356109E+03  0.71904265402E+02 -0.19499998067E+03  0.31441239276E+03  0.10100000352E+00 0. -1.
       -3    1    3    3    0  502 -0.23592356109E+03 -0.71904265402E+02 -0.13320433538E+03  0.28030974872E+03  0.10100000352E+00 0.  1.
</event>
<event>
 5   0  0.1984680E-01  0.5033686E+03  0.7818609E-02  0.1012903E+00
       -1   -1    0    0    0  501  0.00000000000E+00  0.00000000000E+00  0.94417815971E+02  0.94417816106E+02  0.50400001928E-02 0.  1.
        1   -1    0    0  501    0  0.00000000000E+00  0.00000000000E+00 -0.67090073348E+03  0.67090073350E+03  0.50400001928E-02 0. -1.
    10030    2    1    2    0    0  0.00000000000E+00  0.00000000000E+00 -0.57648291751E+03  0.76531854961E+03  0.50336858085E+03 0.  0.
        5    1    3    3  502    0  0.53877521919E+02 -0.19440582084E+03 -0.59542257452E+02  0.21038959329E+03  0.46999998093E+01 0.  1.
       -5    1    3    3    0  502 -0.53877521919E+02  0.19440582084E+03 -0.51694066006E+03  0.55492895632E+03  0.46999998093E+01 0. -1.
</event>
<event>
 5   0  0.3329246E-01  0.5038352E+03  0.7818609E-02  0.1012783E+00
       -2   -1    0    0    0  501  0.00000000000E+00  0.00000000000E+00  0.12711472997E+03  0.12711472999E+03  0.25500000920E-02 0. -1.
        2   -1    0    0  501    0  0.00000000000E+00  0.00000000000E+00 -0.49925362300E+03  0.49925362301E+03  0.25500000920E-02 0.  1.
    10030    2    1    2    0    0  0.00000000000E+00  0.00000000000E+00 -0.37213889304E+03  0.62636835300E+03  0.50383524880E+03 0.  0.
        2    1    3    3  502    0 -0.25423904950E+02 -0.14592152505E+03 -0.43939893223E+03  0.46369266553E+03  0.25500000920E-02 0.  1.
       -2    1    3    3    0  502  0.25423904950E+02  0.14592152505E+03  0.67260039194E+02  0.16267568747E+03  0.25500000920E-02 0. -1.
</event>
<event>
 5   0  0.3117389E-01  0.4031694E+03  0.7818609E-02  0.1042688E+00
       -2   -1    0    0    0  501  0.00000000000E+00  0.00000000000E+00  0.44148335305E+02  0.44148335379E+02  0.25500000920E-02 0. -1.
        2   -1    0    0  501    0  0.00000000000E+00  0.00000000000E+00 -0.92045132807E+03  0.92045132808E+03  0.25500000920E-02 0.  1.
    10030    2    1    2    0    0  0.00000000000E+00  0.00000000000E+00 -0.87630299277E+03  0.96459966346E+03  0.40316941303E+03 0.  0.
        4    1    3    3  502    0 -0.11472585053E+03 -0.47963696122E+02 -0.81774650815E+03  0.82714781110E+03  0.12699999809E+01 0.  1.
       -4    1    3    3    0  502  0.11472585053E+03  0.47963696122E+02 -0.58556484623E+02  0.13745185236E+03  0.12699999809E+01 0. -1.
</event>
<event>
 5   0  0.2013450E-01  0.4539441E+03  0.7818609E-02  0.1026552E+00
        1   -1    0    0  501    0  0.00000000000E+00  0.00000000000E+00  0.79063732167E+03  0.79063732169E+03  0.50400001928E-02 0.  1.
       -1   -1    0    0    0  501  0.00000000000E+00  0.00000000000E+00 -0.65157943872E+02  0.65157944067E+02  0.50400001928E-02 0. -1.
    10030    2    1    2    0    0  0.00000000000E+00  0.00000000000E+00  0.72547937780E+03  0.85579526576E+03  0.45394405963E+03 0.  0.
        4    1    3    3  502    0  0.20336222859E+03 -0.19716747378E+02  0.17639839010E+03  0.26993138216E+03  0.12699999809E+01 0. -1.
       -4    1    3    3    0  502 -0.20336222859E+03  0.19716747378E+02  0.54908098770E+03  0.58586388360E+03  0.12699999809E+01 0.  1.
</event>
<event>
 5   0  0.3187123E-01  0.5123467E+03  0.7818609E-02  0.1010606E+00
        2   -1    0    0  501    0  0.00000000000E+00  0.00000000000E+00  0.69224955040E+03  0.69224955041E+03  0.25500000920E-02 0. -1.
       -2   -1    0    0    0  501  0.00000000000E+00  0.00000000000E+00 -0.94799328839E+02  0.94799328873E+02  0.25500000920E-02 0.  1.
    10030    2    1    2    0    0  0.00000000000E+00  0.00000000000E+00  0.59745022156E+03  0.78704887928E+03  0.51234672940E+03 0.  0.
        5    1    3    3  502    0  0.10591000422E+03 -0.22012774749E+03  0.18043496902E+03  0.30373018002E+03  0.46999998093E+01 0.  1.
       -5    1    3    3    0  502 -0.10591000422E+03  0.22012774749E+03  0.41701525254E+03  0.48331869926E+03  0.46999998093E+01 0. -1.
</event>
<event>
 5   0  0.3178149E-01  0.4976512E+03  0.7818609E-02  0.1014394E+00
       -2   -1    0    0    0  501  0.00000000000E+00  0.00000000000E+00  0.33437188748E+03  0.33437188749E+03  0.25500000920E-02 0.  1.
        2   -1    0    0  501    0  0.00000000000E+00  0.00000000000E+00 -0.18516564986E+03  0.18516564988E+03  0.25500000920E-02 0. -1.
    10030    2    1    2    0    0  0.00000000000E+00  0.00000000000E+00  0.14920623762E+03  0.51953753737E+03  0.49765123470E+03 0.  0.
        3    1    3    3  502    0  0.15451636370E+03  0.11348025988E+03 -0.90995485199E+02  0.21221042519E+03  0.10100000352E+00 0. -1.
       -3    1    3    3    0  502 -0.15451636370E+03 -0.11348025988E+03  0.24020172282E+03  0.30732711218E+03  0.10100000352E+00 0.  1.
</event>
<event>
 5   0  0.2013450E-01  0.4970459E+03  0.7818609E-02  0.1014553E+00
        1   -1    0    0  501    0  0.00000000000E+00  0.00000000000E+00  0.97479612338E+02  0.97479612469E+02  0.50400001928E-02 0.  1.
       -1   -1    0    0    0  501  0.00000000000E+00  0.00000000000E+00 -0.63360598813E+03  0.63360598815E+03  0.50400001928E-02 0. -1.
    10030    2    1    2    0    0  0.00000000000E+00  0.00000000000E+00 -0.53612637579E+03  0.73108560061E+03  0.49704593813E+03 0.  0.
        4    1    3    3  502    0 -0.13092049810E+03  0.17713785165E+03 -0.98792313692E+02  0.24141153547E+03  0.12699999809E+01 0.  1.
       -4    1    3    3    0  502  0.13092049810E+03 -0.17713785165E+03 -0.43733406209E+03  0.48967406515E+03  0.12699999809E+01 0. -1.
</event>
<event>
 5   0  0.1292375E-01  0.4888452E+03  0.7818609E-02  0.1016732E+00
        3   -1    0    0  501    0  0.00000000000E+00  0.00000000000E+00  0.65056155453E+02  0.65056233855E+02  0.10100000352E+00 0.  1.
       -3   -1    0    0    0  501  0.00000000000E+00  0.00000000000E+00 -0.91831978723E+03  0.91831979279E+03  0.10100000352E+00 0. -1.
    10030    2    1    2    0    0  0.00000000000E+00  0.00000000000E+00 -0.85326363178E+03  0.98337602664E+03  0.48884515386E+03 0.  0.
        4    1    3    3  502    0  0.83953974608E+01 -0.13013536133E+03 -0.84248554943E+03  0.85251933049E+03  0.12699999809E+01 0. -1.
       -4    1    3    3    0  502 -0.83953974608E+01  0.13013536133E+03 -0.10778082347E+02  0.13085669615E+03  0.12699999809E+01 0.  1.
</event>
<event>
 5   0  0.1967161E-01  0.4867646E+03  0.7818609E-02  0.1017292E+00
       -1   -1    0    0    0  501  0.00000000000E+00  0.00000000000E+00  0.17969367645E+03  0.17969367652E+03  0.50400001928E-02 0. -1.
        1   -1    0    0  501    0  0.00000000000E+00  0.00000000000E+00 -0.32964401283E+03  0.32964401286E+03  0.50400001928E-02 0.  1.
    10030    2    1    2    0    0  0.00000000000E+00  0.00000000000E+00 -0.14995033637E+03  0.50933768939E+03  0.48676460271E+03 0.  0.
        1    1    3    3  502    0  0.23393063000E+03  0.58362649683E+02 -0.40188850964E+02  0.24442766271E+03  0.50400001928E-02 0. -1.
       -1    1    3    3    0  502 -0.23393063000E+03 -0.58362649683E+02 -0.10976148541E+03  0.26491002668E+03  0.50400001928E-02 0.  1.
</event>
<event>
 5   0  0.3117389E-01  0.3147163E+03  0.7818609E-02  0.1078107E+00
       -2   -1    0    0    0  501  0.00000000000E+00  0.00000000000E+00  0.20750436348E+03  0.20750436350E+03  0.25500000920E-02 0.  1.
        2   -1    0    0  501    0  0.00000000000E+00  0.00000000000E+00 -0.11933040914E+03  0.11933040917E+03  0.25500000920E-02 0. -1.
    10030    2    1    2    0    0  0.00000000000E+00  0.00000000000E+00  0.88173954341E+02  0.32683477267E+03  0.31471625697E+03 0.  0.
        4    1    3    3  502    0  0.11108121666E+03 -0.37584062374E+02 -0.64873895520E+02  0.13402176562E+03  0.12699999809E+01 0. -1.
       -4    1    3    3    0  502 -0.11108121666E+03  0.37584062374E+02  0.15304784986E+03  0.19281300705E+03  0.12699999809E+01 0.  1.
</event>
<event>
 5   0  0.3178149E-01  0.5052433E+03  0.7818609E-02  0.1012419E+00
        2   -1    0    0  501    0  0.00000000000E+00  0.00000000000E+00  0.47912921750E+03  0.47912921751E+03  0.25500000920E-02 0.  1.
       -2   -1    0    0    0  501  0.00000000000E+00  0.00000000000E+00 -0.13319518873E+03  0.13319518875E+03  0.25500000920E-02 0. -1.
    10030    2    1    2    0    0  0.00000000000E+00  0.00000000000E+00  0.34593402877E+03  0.61232440626E+03  0.50524333369E+03 0.  0.
        3    1    3    3  502    0 -0.24612757605E+03 -0.54430586259E+01  0.24162406987E+03  0.34495015861E+03  0.10100000352E+00 0. -1.
       -3    1    3    3    0  502  0.24612757605E+03  0.54430586259E+01  0.10430995890E+03  0.26737424765E+03  0.10100000352E+00 0.  1.
</event>
<event>
 5   0  0.3329246E-01  0.5190851E+03  0.7818609E-02  0.1008914E+00
       -2   -1    0    0    0  501  0.00000000000E+00  0.00000000000E+00  0.25033660167E+03  0.25033660169E+03  0.25500000920E-02 0. -1.
        2   -1    0    0  501    0  0.00000000000E+00  0.00000000000E+00 -0.26908701184E+03  0.26908701185E+03  0.25500000920E-02 0.  1.
    10030    2    1    2    0    0  0.00000000000E+00  0.00000000000E+00 -0.18750410169E+02  0.51942361354E+03  0.51908507243E+03 0.  0.
        2    1    3    3  502    0  0.19872282742E+02 -0.11739740311E+03  0.22139452093E+03  0.25138136721E+03  0.25500000920E-02 0. -1.
       -2    1    3    3    0  502 -0.19872282742E+02  0.11739740311E+03 -0.24014493110E+03  0.26804224633E+03  0.25500000920E-02 0.  1.
</event>
<event>
 5   0  0.3329246E-01  0.5201822E+03  0.7818609E-02  0.1008641E+00
        2   -1    0    0  501    0  0.00000000000E+00  0.00000000000E+00  0.52650875634E+03  0.52650875634E+03  0.25500000920E-02 0.  1.
       -2   -1    0    0    0  501  0.00000000000E+00  0.00000000000E+00 -0.12848291406E+03  0.12848291409E+03  0.25500000920E-02 0. -1.
    10030    2    1    2    0    0  0.00000000000E+00  0.00000000000E+00  0.39802584227E+03  0.65499167043E+03  0.52018219617E+03 0.  0.
        2    1    3    3  502    0  0.22391879389E+03 -0.18426207413E+02  0.36399737682E+03  0.42775371619E+03  0.25500000920E-02 0. -1.
       -2    1    3    3    0  502 -0.22391879389E+03  0.18426207413E+02  0.34028465454E+02  0.22723795424E+03  0.25500000920E-02 0.  1.
</event>
<event>
 5   0  0.3117389E-01  0.4905796E+03  0.7818609E-02  0.1016267E+00
        2   -1    0    0  501    0  0.00000000000E+00  0.00000000000E+00  0.11149216346E+04  0.11149216346E+04  0.25500000920E-02 0. -1.
       -2   -1    0    0    0  501  0.00000000000E+00  0.00000000000E+00 -0.53965315274E+02  0.53965315335E+02  0.25500000920E-02 0.  1.
    10030    2    1    2    0    0  0.00000000000E+00  0.00000000000E+00  0.10609563193E+04  0.11688869499E+04  0.49057964717E+03 0.  0.
        4    1    3    3  502    0  0.56960513669E+02  0.22518992799E+03  0.34270842281E+03  0.41401169036E+03  0.12699999809E+01 0. -1.
       -4    1    3    3    0  502 -0.56960513669E+02 -0.22518992799E+03  0.71824789651E+03  0.75487525958E+03  0.12699999809E+01 0.  1.
</event>
<event>
 5   0  0.3187123E-01  0.4250564E+03  0.7818609E-02  0.1035433E+00
        2   -1    0    0  501    0  0.00000000000E+00  0.00000000000E+00  0.12948121688E+03  0.12948121690E+03  0.25500000920E-02 0.  1.
       -2   -1    0    0    0  501  0.00000000000E+00  0.00000000000E+00 -0.34884006121E+03  0.34884006122E+03  0.25500000920E-02 0. -1.
    10030    2    1    2    0    0  0.00000000000E+00  0.00000000000E+00 -0.21935884433E+03  0.47832127812E+03  0.42505639922E+03 0.  0.
        5    1    3    3  502    0  0.13570477936E+02 -0.83228583411E+02 -0.32914418448E+03  0.33980750307E+03  0.46999998093E+01 0. -1.
       -5    1    3    3    0  502 -0.13570477936E+02  0.83228583411E+02  0.10978534015E+03  0.13851377505E+03  0.46999998093E+01 0.  1.
</event>
<event>
 5   0  0.3187123E-01  0.5010283E+03  0.7818609E-02  0.1013511E+00
        2   -1    0    0  501    0  0.00000000000E+00  0.00000000000E+00  0.93415075592E+02  0.93415075627E+02  0.25500000920E-02 0.  1.
       -2   -1    0    0    0  501  0.00000000000E+00  0.00000000000E+00 -0.67181181702E+03  0.67181181702E+03  0.25500000920E-02 0. -1.
    10030    2    1    2    0    0  0.00000000000E+00  0.00000000000E+00 -0.57839674142E+03  0.76522689265E+03  0.50102834924E+03 0.  0.
        5    1    3    3  502    0 -0.88298523749E+02 -0.14240250538E+03 -0.57354180122E+03  0.59753442628E+03  0.46999998093E+01 0. -1.
       -5    1    3    3    0  502  0.88298523749E+02  0.14240250538E+03 -0.48549401995E+01  0.16769246637E+03  0.46999998093E+01 0.  1.
</event>
<event>
 5   0  0.3178149E-01  0.5119526E+03  0.7818609E-02  0.1010705E+00
        2   -1    0    0  501    0  0.00000000000E+00  0.00000000000E+00  0.39426502019E+03  0.39426502020E+03  0.25500000920E-02 0.  1.
       -2   -1    0    0    0  501  0.00000000000E+00  0.00000000000E+00 -0.16619245135E+03  0.16619245137E+03  0.25500000920E-02 0. -1.
    10030    2    1    2    0    0  0.00000000000E+00  0.00000000000E+00  0.22807256884E+03  0.56045747158E+03  0.51195261577E+03 0.  0.
        3    1    3    3  502    0  0.20032209475E+03  0.67471828177E+02  0.27208373592E+03  0.34454456721E+03  0.10100000352E+00 0.  1.
       -3    1    3    3    0  502 -0.20032209475E+03 -0.67471828177E+02 -0.44011167076E+02  0.21591290437E+03  0.10100000352E+00 0. -1.
</event>
<event>
 5   0  0.2013450E-01  0.4779954E+03  0.7818609E-02  0.1019688E+00
        1   -1    0    0  501    0  0.00000000000E+00  0.00000000000E+00  0.58882969136E+03  0.58882969138E+03  0.50400001928E-02 0.  1.
       -1   -1    0    0    0  501  0.00000000000E+00  0.00000000000E+00 -0.97005807509E+02  0.97005807640E+02  0.50400001928E-02 0. -1.
    10030    2    1    2    0    0  0.00000000000E+00  0.00000000000E+00  0.49182388385E+03  0.68583549902E+03  0.47799539641E+03 0.  0.
        4    1    3    3  502    0  0.15949563453E+03  0.56373384744E+01  0.50116266376E+03  0.52596222818E+03  0.12699999809E+01 0.  1.
       -4    1    3    3    0  502 -0.15949563453E+03 -0.56373384744E+01 -0.93387799113E+01  0.15987327084E+03  0.12699999809E+01 0. -1.
</event>
<event>
 5   0  0.1967161E-01  0.4677003E+03  0.7818609E-02  0.1022571E+00
        1   -1    0    0  501    0  0.00000000000E+00  0.00000000000E+00  0.25388899110E+03  0.25388899115E+03  0.50400001928E-02 0.  1.
       -1   -1    0    0    0  501  0.00000000000E+00  0.00000000000E+00 -0.21539294128E+03  0.21539294134E+03  0.50400001928E-02 0. -1.
    10030    2    1    2    0    0  0.00000000000E+00  0.00000000000E+00  0.38496049818E+02  0.46928193249E+03  0.46770031677E+03 0.  0.
        1    1    3    3  502    0  0.91972945104E+02 -0.19041926121E+02  0.23413171593E+03  0.25226826596E+03  0.50400001928E-02 0.  1.
       -1    1    3    3    0  502 -0.91972945104E+02  0.19041926121E+02 -0.19563566611E+03  0.21701366653E+03  0.50400001928E-02 0. -1.
</event>
<event>
 5   0  0.3329246E-01  0.5041517E+03  0.7818609E-02  0.1012701E+00
        2   -1    0    0  501    0  0.00000000000E+00  0.00000000000E+00  0.58566627864E+03  0.58566627865E+03  0.25500000920E-02 0.  1.
       -2   -1    0    0    0  501  0.00000000000E+00  0.00000000000E+00 -0.10849562550E+03  0.10849562553E+03  0.25500000920E-02 0. -1.
    10030    2    1    2    0    0  0.00000000000E+00  0.00000000000E+00  0.47717065314E+03  0.69416190418E+03  0.50415168055E+03 0.  0.
        2    1    3    3  502    0 -0.10292424615E+02  0.18864888289E+02 -0.10723205212E+03  0.10936421272E+03  0.25500000920E-02 0. -1.
       -2    1    3    3    0  502  0.10292424615E+02 -0.18864888289E+02  0.58440270526E+03  0.58479769146E+03  0.25500000920E-02 0.  1.
</event>
<event>
 5   0  0.3117389E-01  0.4936253E+03  0.7818609E-02  0.1015456E+00
        2   -1    0    0  501    0  0.00000000000E+00  0.00000000000E+00  0.75756524474E+03  0.75756524474E+03  0.25500000920E-02 0. -1.
       -2   -1    0    0    0  501  0.00000000000E+00  0.00000000000E+00 -0.80410890683E+02  0.80410890723E+02  0.25500000920E-02 0.  1.
    10030    2    1    2    0    0  0.00000000000E+00  0.00000000000E+00  0.67715435406E+03  0.83797613547E+03  0.49362534821E+03 0.  0.
        4    1    3    3  502    0  0.14033800379E+03  0.18691525909E+03  0.20401862894E+03  0.31025357893E+03  0.12699999809E+01 0.  1.
       -4    1    3    3    0  502 -0.14033800379E+03 -0.18691525909E+03  0.47313572512E+03  0.52772255653E+03  0.12699999809E+01 0. -1.
</event>
<event>
 5   0  0.1984680E-01  0.4982965E+03  0.7818609E-02  0.1014225E+00
        1   -1    0    0  501    0  0.00000000000E+00  0.00000000000E+00  0.75418735412E+03  0.75418735414E+03  0.50400001928E-02 0.  1.
       -1   -1    0    0    0  501  0.00000000000E+00  0.00000000000E+00 -0.82306945776E+02  0.82306945930E+02  0.50400001928E-02 0. -1.
    10030    2    1    2    0    0  0.00000000000E+00  0.00000000000E+00  0.67188040835E+03  0.83649430007E+03  0.49829652912E+03 0.  0.
        5    1    3    3  502    0 -0.74684231464E+02 -0.32356070447E+02 -0.59280957510E+02  0.10080164505E+03  0.46999998093E+01 0. -1.
       -5    1    3    3    0  502  0.74684231464E+02  0.32356070447E+02  0.73116136586E+03  0.73569265502E+03  0.46999998093E+01 0.  1.
</event>
<event>
 5   0  0.1292375E-01  0.5076638E+03  0.7818609E-02  0.1011798E+00
        3   -1    0    0  501    0  0.00000000000E+00  0.00000000000E+00  0.65532674665E+02  0.65532752496E+02  0.10100000352E+00 0. -1.
       -3   -1    0    0    0  501  0.00000000000E+00  0.00000000000E+00 -0.98318262472E+03  0.98318262991E+03  0.10100000352E+00 0.  1.
    10030    2    1    2    0    0  0.00000000000E+00  0.00000000000E+00 -0.91764995006E+03  0.10487153824E+04  0.50766378880E+03 0.  0.
        2    1    3    3  502    0 -0.24243330106E+03  0.31674840725E+02 -0.31790647038E+03  0.40105077598E+03  0.25500000920E-02 0. -1.
       -2    1    3    3    0  502  0.24243330106E+03 -0.31674840725E+02 -0.59974347967E+03  0.64766460643E+03  0.25500000920E-02 0.  1.
</event>
<event>
 5   0  0.3111146E-01  0.5005670E+03  0.7818609E-02  0.1013631E+00
       -2   -1    0    0    0  501  0.00000000000E+00  0.00000000000E+00  0.31642494921E+03  0.31642494922E+03  0.25500000920E-02 0. -1.
        2   -1    0    0  501    0  0.00000000000E+00  0.00000000000E+00 -0.19796743960E+03  0.19796743961E+03  0.25500000920E-02 0.  1.
    10030    2    1    2    0    0  0.00000000000E+00  0.00000000000E+00  0.11845750962E+03  0.51439238884E+03  0.50056702659E+03 0.  0.
        1    1    3    3  502    0 -0.13608929766E+03  0.18409930767E+03 -0.44703073236E+02  0.23326212038E+03  0.50400001928E-02 0. -1.
       -1    1    3    3    0  502  0.13608929766E+03 -0.18409930767E+03  0.16316058285E+03  0.28113026846E+03  0.50400001928E-02 0.  1.
</event>
<event>
 5   0  0.1292375E-01  0.5205544E+03  0.7818609E-02  0.1008549E+00
        3   -1    0    0  501    0  0.00000000000E+00  0.00000000000E+00  0.84442003152E+02  0.84442063555E+02  0.10100000352E+00 0.  1.
       -3   -1    0    0    0  501  0.00000000000E+00  0.00000000000E+00 -0.80225711520E+03  0.80225712156E+03  0.10100000352E+00 0. -1.
    10030    2    1    2    0    0  0.00000000000E+00  0.00000000000E+00 -0.71781511205E+03  0.88669918512E+03  0.52055442539E+03 0.  0.
        5    1    3    3  502    0  0.23940071867E+03  0.85662994160E+02 -0.45330716830E+03  0.51976949843E+03  0.46999998093E+01 0.  1.
       -5    1    3    3    0  502 -0.23940071867E+03 -0.85662994160E+02 -0.26450794375E+03  0.36692968669E+03  0.46999998093E+01 0. -1.
</event>
<event>
 5   0  0.1984680E-01  0.5107295E+03  0.7818609E-02  0.1011016E+00
       -1   -1    0    0    0  501  0.00000000000E+00  0.00000000000E+00  0.11430654418E+03  0.11430654429E+03  0.50400001928E-02 0.  1.
        1   -1    0    0  501    0  0.00000000000E+00  0.00000000000E+00 -0.57049353295E+03  0.57049353298E+03  0.50400001928E-02 0. -1.
    10030    2    1    2    0    0  0.00000000000E+00  0.00000000000E+00 -0.45618698877E+03  0.68480007727E+03  0.51072945588E+03 0.  0.
        5    1    3    3  502    0 -0.42341071971E+02  0.12072840189E+03  0.68168516973E+02  0.14504189085E+03  0.46999998093E+01 0.  1.
       -5    1    3    3    0  502  0.42341071971E+02 -0.12072840189E+03 -0.52435550574E+03  0.53975818641E+03  0.46999998093E+01 0. -1.
</event>
<event>
 5   0  0.2013450E-01  0.4882143E+03  0.7818609E-02  0.1016902E+00
       -1   -1    0    0    0  501  0.00000000000E+00  0.00000000000E+00  0.86906729075E+02  0.86906729222E+02  0.50400001928E-02 0. -1.
        1   -1    0    0  501    0  0.00000000000E+00  0.00000000000E+00 -0.68565815949E+03  0.68565815950E+03  0.50400001928E-02 0.  1.
    10030    2    1    2    0    0  0.00000000000E+00  0.00000000000E+00 -0.59875143041E+03  0.77256488873E+03  0.48821432985E+03 0.  0.
        4    1    3    3  502    0 -0.30952829849E+02  0.14498574766E+03  0.75004240885E+01  0.14844801771E+03  0.12699999809E+01 0. -1.
       -4    1    3    3    0  502  0.30952829849E+02 -0.14498574766E+03 -0.60625185450E+03  0.62411687101E+03  0.12699999809E+01 0.  1.
</event>
<event>
 5   0  0.2013450E-01  0.5571550E+03  0.7818609E-02  0.9998513E-01
       -1   -1    0    0    0  501  0.00000000000E+00  0.00000000000E+00  0.14914986248E+03  0.14914986256E+03  0.50400001928E-02 0. -1.
        1   -1    0    0  501    0  0.00000000000E+00  0.00000000000E+00 -0.52031851611E+03  0.52031851614E+03  0.50400001928E-02 0.  1.
    10030    2    1    2    0    0  0.00000000000E+00  0.00000000000E+00 -0.37116865363E+03  0.66946837870E+03  0.55715504183E+03 0.  0.
        4    1    3    3  502    0  0.20283334048E+03 -0.41690459164E+02 -0.40949312190E+03  0.45887437080E+03  0.12699999809E+01 0.  1.
       -4    1    3    3    0  502 -0.20283334048E+03  0.41690459164E+02  0.38324468268E+02  0.21059400790E+03  0.12699999809E+01 0. -1.
</event>
<event>
 5   0  0.1967161E-01  0.4312708E+03  0.7818609E-02  0.1033459E+00
        1   -1    0    0  501    0  0.00000000000E+00  0.00000000000E+00  0.41636344002E+03  0.41636344005E+03  0.50400001928E-02 0.  1.
       -1   -1    0    0    0  501  0.00000000000E+00  0.00000000000E+00 -0.11167797641E+03  0.11167797652E+03  0.50400001928E-02 0. -1.
    10030    2    1    2    0    0  0.00000000000E+00  0.00000000000E+00  0.30468546361E+03  0.52804141657E+03  0.43127080342E+03 0.  0.
        1    1    3    3  502    0 -0.73204572551E+02  0.14688247045E+03  0.32360461166E+03  0.36284061828E+03  0.50400001928E-02 0.  1.
       -1    1    3    3    0  502  0.73204572551E+02 -0.14688247045E+03 -0.18919148050E+02  0.16520079829E+03  0.50400001928E-02 0. -1.
</event>
<event>
 5   0  0.1967161E-01  0.5472674E+03  0.7818609E-02  0.1002128E+00
        1   -1    0    0  501    0  0.00000000000E+00  0.00000000000E+00  0.19755160706E+03  0.19755160712E+03  0.50400001928E-02 0. -1.
       -1   -1    0    0    0  501  0.00000000000E+00  0.00000000000E+00 -0.37901692086E+03  0.37901692089E+03  0.50400001928E-02 0.  1.
    10030    2    1    2    0    0  0.00000000000E+00  0.00000000000E+00 -0.18146531380E+03  0.57656852801E+03  0.54726740026E+03 0.  0.
        1    1    3    3  502    0 -0.24500940972E+03 -0.11966709378E+03 -0.66579728595E+02  0.28068253325E+03  0.50400001928E-02 0. -1.
       -1    1    3    3    0  502  0.24500940972E+03  0.11966709378E+03 -0.11488558520E+03  0.29588599477E+03  0.50400001928E-02 0.  1.
</event>
<event>
 5   0  0.1292375E-01  0.5653997E+03  0.7818609E-02  0.9979910E-01
       -4   -1    0    0    0  501  0.00000000000E+00  0.00000000000E+00  0.99993018171E+03  0.99993098821E+03  0.12699999809E+01 0.  1.
        4   -1    0    0  501    0  0.00000000000E+00  0.00000000000E+00 -0.79918899316E+02  0.79928989534E+02  0.12699999809E+01 0. -1.
    10030    2    1    2    0    0  0.00000000000E+00  0.00000000000E+00  0.92001128239E+03  0.10798599777E+04  0.56539969209E+03 0.  0.
        4    1    3    3  502    0 -0.70387948887E+02  0.18457244501E+03  0.73769389934E+02  0.21086722504E+03  0.12699999809E+01 0. -1.
       -4    1    3    3    0  502  0.70387948887E+02 -0.18457244501E+03  0.84624189245E+03  0.86899275270E+03  0.12699999809E+01 0.  1.
</event>
<event>
 5   0  0.1984680E-01  0.5079308E+03  0.7818609E-02  0.1011729E+00
        1   -1    0    0  501    0  0.00000000000E+00  0.00000000000E+00  0.65855901217E+03  0.65855901219E+03  0.50400001928E-02 0. -1.
       -1   -1    0    0    0  501  0.00000000000E+00  0.00000000000E+00 -0.97938698629E+02  0.97938698759E+02  0.50400001928E-02 0.  1.
    10030    2    1    2    0    0  0.00000000000E+00  0.00000000000E+00  0.56062031354E+03  0.75649771095E+03  0.50793075386E+03 0.  0.
        5    1    3    3  502    0 -0.21548879871E+03 -0.12882866286E+03  0.33690777106E+03  0.42019184064E+03  0.46999998093E+01 0. -1.
       -5    1    3    3    0  502  0.21548879871E+03  0.12882866286E+03  0.22371254248E+03  0.33630587031E+03  0.46999998093E+01 0.  1.
</event>
<event>
 5   0  0.3178149E-01  0.4945627E+03  0.7818609E-02  0.1015208E+00
        2   -1    0    0  501    0  0.00000000000E+00  0.00000000000E+00  0.50483916912E+03  0.50483916912E+03  0.25500000920E-02 0. -1.
       -2   -1    0    0    0  501  0.00000000000E+00  0.00000000000E+00 -0.12112383052E+03  0.12112383055E+03  0.25500000920E-02 0.  1.
    10030    2    1    2    0    0  0.00000000000E+00  0.00000000000E+00  0.38371533859E+03  0.62596299967E+03  0.49456265112E+03 0.  0.
        3    1    3    3  502    0 -0.17754119546E+03 -0.63037461972E+02 -0.10864014008E+02  0.18871310156E+03  0.10100000352E+00 0.  1.
       -3    1    3    3    0  502  0.17754119546E+03  0.63037461972E+02  0.39457935260E+03  0.43724989811E+03  0.10100000352E+00 0. -1.
</event>
<event>
 5   0  0.1984297E-01  0.4903458E+03  0.7818609E-02  0.1016330E+00
        1   -1    0    0  501    0  0.00000000000E+00  0.00000000000E+00  0.23826662039E+03  0.23826662045E+03  0.50400001928E-02 0.  1.
       -1   -1    0    0    0  501  0.00000000000E+00  0.00000000000E+00 -0.25227933584E+03  0.25227933589E+03  0.50400001928E-02 0. -1.
    10030    2    1    2    0    0  0.00000000000E+00  0.00000000000E+00 -0.14012715446E+02  0.49054595633E+03  0.49034577502E+03 0.  0.
        3    1    3    3  502    0 -0.82555883610E+02  0.19591524745E+03  0.11515605069E+03  0.24178334168E+03  0.10100000352E+00 0.  1.
       -3    1    3    3    0  502  0.82555883610E+02 -0.19591524745E+03 -0.12916876613E+03  0.24876261465E+03  0.10100000352E+00 0. -1.
</event>
<event>
 5   0  0.1292375E-01  0.4907538E+03  0.7818609E-02  0.1016221E+00
       -3   -1    0    0    0  501  0.00000000000E+00  0.00000000000E+00  0.53831707343E+03  0.53831708291E+03  0.10100000352E+00 0. -1.
        3   -1    0    0  501    0  0.00000000000E+00  0.00000000000E+00 -0.11184823081E+03  0.11184827641E+03  0.10100000352E+00 0.  1.
    10030    2    1    2    0    0  0.00000000000E+00  0.00000000000E+00  0.42646884262E+03  0.65016535932E+03  0.49075382905E+03 0.  0.
        3    1    3    3  502    0 -0.23935297125E+03  0.24039230134E+02  0.14911907821E+03  0.28302692296E+03  0.10100000352E+00 0.  1.
       -3    1    3    3    0  502  0.23935297125E+03 -0.24039230134E+02  0.27734976441E+03  0.36713843636E+03  0.10100000352E+00 0. -1.
</event>
<event>
 5   0  0.1292375E-01  0.4944018E+03  0.7818609E-02  0.1015251E+00
        4   -1    0    0  501    0  0.00000000000E+00  0.00000000000E+00  0.15748667974E+03  0.15749180041E+03  0.12699999809E+01 0. -1.
       -4   -1    0    0    0  501  0.00000000000E+00  0.00000000000E+00 -0.38800939008E+03  0.38801146850E+03  0.12699999809E+01 0.  1.
    10030    2    1    2    0    0  0.00000000000E+00  0.00000000000E+00 -0.23052271033E+03  0.54550326891E+03  0.49440175608E+03 0.  0.
        3    1    3    3  502    0 -0.19644371164E+03 -0.66468740597E+02  0.33180749418E+02  0.21002189803E+03  0.10100000352E+00 0. -1.
       -3    1    3    3    0  502  0.19644371164E+03  0.66468740597E+02 -0.26370345975E+03  0.33548137088E+03  0.10100000352E+00 0.  1.
</event>
<event>
 5   0  0.3187123E-01  0.5183634E+03  0.7818609E-02  0.1009094E+00
        2   -1    0    0  501    0  0.00000000000E+00  0.00000000000E+00  0.25565097265E+03  0.25565097267E+03  0.25500000920E-02 0. -1.
       -2   -1    0    0    0  501  0.00000000000E+00  0.00000000000E+00 -0.26276118920E+03  0.26276118921E+03  0.25500000920E-02 0.  1.
    10030    2    1    2    0    0  0.00000000000E+00  0.00000000000E+00 -0.71102165428E+01  0.51841216187E+03  0.51836339994E+03 0.  0.
        5    1    3    3  502    0  0.85933347672E+02 -0.24311805156E+03  0.22179322856E+02  0.25885312360E+03  0.46999998093E+01 0.  1.
       -5    1    3    3    0  502 -0.85933347672E+02  0.24311805156E+03 -0.29289539399E+02  0.25955903828E+03  0.46999998093E+01 0. -1.
</event>
<event>
 5   0  0.3178149E-01  0.5086222E+03  0.7818609E-02  0.1011553E+00
        2   -1    0    0  501    0  0.00000000000E+00  0.00000000000E+00  0.10908555634E+04  0.10908555634E+04  0.25500000920E-02 0. -1.
       -2   -1    0    0    0  501  0.00000000000E+00  0.00000000000E+00 -0.59287523310E+02  0.59287523364E+02  0.25500000920E-02 0.  1.
    10030    2    1    2    0    0  0.00000000000E+00  0.00000000000E+00  0.10315680401E+04  0.11501430868E+04  0.50862215712E+03 0.  0.
        3    1    3    3  502    0  0.21263308649E+03 -0.13144302068E+03  0.41010600746E+03  0.48028850154E+03  0.10100000352E+00 0.  1.
       -3    1    3    3    0  502 -0.21263308649E+03  0.13144302068E+03  0.62146203267E+03  0.66985458527E+03  0.10100000352E+00 0. -1.
</event>
<event>
 5   0  0.1967161E-01  0.4953090E+03  0.7818609E-02  0.1015011E+00
       -1   -1    0    0    0  501  0.00000000000E+00  0.00000000000E+00  0.11035262413E+03  0.11035262425E+03  0.50400001928E-02 0.  1.
        1   -1    0    0  501    0  0.00000000000E+00  0.00000000000E+00 -0.55578884090E+03  0.55578884092E+03  0.50400001928E-02 0. -1.
    10030    2    1    2    0    0  0.00000000000E+00  0.00000000000E+00 -0.44543621676E+03  0.66614146517E+03  0.49530902315E+03 0.  0.
        1    1    3    3  502    0 -0.22825353513E+02 -0.20848856792E+03 -0.39983840596E+03  0.45150773042E+03  0.50400001928E-02 0. -1.
       -1    1    3    3    0  502  0.22825353513E+02  0.20848856792E+03 -0.45597810801E+02  0.21463373475E+03  0.50400001928E-02 0.  1.
</event>
<event>
 5   0  0.3117389E-01  0.4963975E+03  0.7818609E-02  0.1014724E+00
        2   -1    0    0  501    0  0.00000000000E+00  0.00000000000E+00  0.29240383197E+03  0.29240383198E+03  0.25500000920E-02 0. -1.
       -2   -1    0    0    0  501  0.00000000000E+00  0.00000000000E+00 -0.21067650766E+03  0.21067650767E+03  0.25500000920E-02 0.  1.
    10030    2    1    2    0    0  0.00000000000E+00  0.00000000000E+00  0.81727324316E+02  0.50308033966E+03  0.49639749456E+03 0.  0.
        4    1    3    3  502    0  0.12611751420E+03  0.28907671118E+01  0.25748647293E+03  0.28673137353E+03  0.12699999809E+01 0. -1.
       -4    1    3    3    0  502 -0.12611751420E+03 -0.28907671118E+01 -0.17575914862E+03  0.21634896613E+03  0.12699999809E+01 0.  1.
</event>
<event>
 5   0  0.3111146E-01  0.4571896E+03  0.7818609E-02  0.1025599E+00
       -2   -1    0    0    0  501  0.00000000000E+00  0.00000000000E+00  0.12880872249E+03  0.12880872251E+03  0.25500000920E-02 0. -1.
        2   -1    0    0  501    0  0.00000000000E+00  0.00000000000E+00 -0.40568353521E+03  0.40568353522E+03  0.25500000920E-02 0.  1.
    10030    2    1    2    0    0  0.00000000000E+00  0.00000000000E+00 -0.27687481272E+03  0.53449225773E+03  0.45718957956E+03 0.  0.
        1    1    3    3  502    0  0.17162316732E+03  0.13873900292E+03 -0.68756221803E+02  0.23115025536E+03  0.50400001928E-02 0. -1.
       -1    1    3    3    0  502 -0.17162316732E+03 -0.13873900292E+03 -0.20811859092E+03  0.30334200237E+03  0.50400001928E-02 0.  1.
</event>
<event>
 5   0  0.3178149E-01  0.5303902E+03  0.7818609E-02  0.1006138E+00
        2   -1    0    0  501    0  0.00000000000E+00  0.00000000000E+00  0.10702334606E+03  0.10702334610E+03  0.25500000920E-02 0.  1.
       -2   -1    0    0    0  501  0.00000000000E+00  0.00000000000E+00 -0.65713178828E+03  0.65713178828E+03  0.25500000920E-02 0. -1.
    10030    2    1    2    0    0  0.00000000000E+00  0.00000000000E+00 -0.55010844221E+03  0.76415513438E+03  0.53039020655E+03 0.  0.
        3    1    3    3  502    0 -0.18570026128E+03 -0.18896438629E+03 -0.29187491692E+03  0.39418663556E+03  0.10100000352E+00 0. -1.
       -3    1    3    3    0  502  0.18570026128E+03  0.18896438629E+03 -0.25823352529E+03  0.36996849881E+03  0.10100000352E+00 0.  1.
</event>
<event>
 5   0  0.1984680E-01  0.5020848E+03  0.7818609E-02  0.1013236E+00
       -1   -1    0    0    0  501  0.00000000000E+00  0.00000000000E+00  0.76183258983E+03  0.76183258984E+03  0.50400001928E-02 0.  1.
        1   -1    0    0  501    0  0.00000000000E+00  0.00000000000E+00 -0.82724593398E+02  0.82724593552E+02  0.50400001928E-02 0. -1.
    10030    2    1    2    0    0  0.00000000000E+00  0.00000000000E+00  0.67910799643E+03  0.84455718340E+03  0.50208481874E+03 0.  0.
        5    1    3    3  502    0 -0.31378518101E+02 -0.95162448025E+02 -0.47547383670E+02  0.11101056979E+03  0.46999998093E+01 0. -1.
       -5    1    3    3    0  502  0.31378518101E+02  0.95162448025E+02  0.72665538010E+03  0.73354661361E+03  0.46999998093E+01 0.  1.
</event>
<event>
 5   0  0.2000612E-01  0.5000873E+03  0.7818609E-02  0.1013756E+00
       -1   -1    0    0    0  501  0.00000000000E+00  0.00000000000E+00  0.39205165037E+03  0.39205165040E+03  0.50400001928E-02 0.  1.
        1   -1    0    0  501    0  0.00000000000E+00  0.00000000000E+00 -0.15947343472E+03  0.15947343480E+03  0.50400001928E-02 0. -1.
    10030    2    1    2    0    0  0.00000000000E+00  0.00000000000E+00  0.23257821565E+03  0.55152508521E+03  0.50008728560E+03 0.  0.
        2    1    3    3  502    0 -0.56034722217E+02 -0.14903866595E+03 -0.96334893484E+02  0.18609896763E+03  0.25500000920E-02 0. -1.
       -2    1    3    3    0  502  0.56034722217E+02  0.14903866595E+03  0.32891310914E+03  0.36542611758E+03  0.25500000920E-02 0.  1.
</event>
<event>
 5   0  0.1967161E-01  0.4884845E+03  0.7818609E-02  0.1016829E+00
       -1   -1    0    0    0  501  0.00000000000E+00  0.00000000000E+00  0.93805223658E+02  0.93805223794E+02  0.50400001928E-02 0.  1.
        1   -1    0    0  501    0  0.00000000000E+00  0.00000000000E+00 -0.63593775543E+03  0.63593775545E+03  0.50400001928E-02 0. -1.
    10030    2    1    2    0    0  0.00000000000E+00  0.00000000000E+00 -0.54213253177E+03  0.72974297924E+03  0.48848452765E+03 0.  0.
        1    1    3    3  502    0 -0.23100479938E+02 -0.86333722914E+01 -0.63407308317E+03  0.63455247389E+03  0.50400001928E-02 0. -1.
       -1    1    3    3    0  502  0.23100479938E+02  0.86333722914E+01  0.91940551405E+02  0.95190505349E+02  0.50400001928E-02 0.  1.
</event>
<event>
 5   0  0.3329246E-01  0.4765066E+03  0.7818609E-02  0.1020100E+00
       -2   -1    0    0    0  501  0.00000000000E+00  0.00000000000E+00  0.14594665639E+03  0.14594665642E+03  0.25500000920E-02 0.  1.
        2   -1    0    0  501    0  0.00000000000E+00  0.00000000000E+00 -0.38894103896E+03  0.38894103897E+03  0.25500000920E-02 0. -1.
    10030    2    1    2    0    0  0.00000000000E+00  0.00000000000E+00 -0.24299438257E+03  0.53488769539E+03  0.47650663869E+03 0.  0.
        2    1    3    3  502    0  0.22039168775E+03  0.83946201271E+02 -0.83510525095E+02  0.25018686725E+03  0.25500000920E-02 0.  1.
       -2    1    3    3    0  502 -0.22039168775E+03 -0.83946201271E+02 -0.15948385747E+03  0.28470082813E+03  0.25500000920E-02 0. -1.
</event>
<event>
 5   0  0.3117389E-01  0.5026268E+03  0.7818609E-02  0.1013096E+00
       -2   -1    0    0    0  501  0.00000000000E+00  0.00000000000E+00  0.28943766569E+03  0.28943766571E+03  0.25500000920E-02 0. -1.
        2   -1    0    0  501    0  0.00000000000E+00  0.00000000000E+00 -0.21821079373E+03  0.21821079375E+03  0.25500000920E-02 0.  1.
    10030    2    1    2    0    0  0.00000000000E+00  0.00000000000E+00  0.71226871962E+02  0.50764845945E+03  0.50262679107E+03 0.  0.
        4    1    3    3  502    0 -0.21813765993E+03  0.32847031787E+02  0.15720661852E+03  0.27088466177E+03  0.12699999809E+01 0.  1.
       -4    1    3    3    0  502  0.21813765993E+03 -0.32847031787E+02 -0.85979746558E+02  0.23676379768E+03  0.12699999809E+01 0. -1.
</event>
<event>
 5   0  0.2000612E-01  0.4961952E+03  0.7818609E-02  0.1014777E+00
       -1   -1    0    0    0  501  0.00000000000E+00  0.00000000000E+00  0.10395055794E+03  0.10395055806E+03  0.50400001928E-02 0.  1.
        1   -1    0    0  501    0  0.00000000000E+00  0.00000000000E+00 -0.59213167874E+03  0.59213167876E+03  0.50400001928E-02 0. -1.
    10030    2    1    2    0    0  0.00000000000E+00  0.00000000000E+00 -0.48818112080E+03  0.69608223683E+03  0.49619519719E+03 0.  0.
        2    1    3    3  502    0 -0.50291833580E+02  0.24149995201E+03 -0.20695045134E+03  0.32199376494E+03  0.25500000920E-02 0.  1.
       -2    1    3    3    0  502  0.50291833580E+02 -0.24149995201E+03 -0.28123066946E+03  0.37408847188E+03  0.25500000920E-02 0. -1.
</event>
<event>
 5   0  0.1292375E-01  0.4881614E+03  0.7818609E-02  0.1016916E+00
        3   -1    0    0  501    0  0.00000000000E+00  0.00000000000E+00  0.98197269122E+02  0.98197321064E+02  0.10100000352E+00 0.  1.
       -3   -1    0    0    0  501  0.00000000000E+00  0.00000000000E+00 -0.60669063132E+03  0.60669063973E+03  0.10100000352E+00 0. -1.
    10030    2    1    2    0    0  0.00000000000E+00  0.00000000000E+00 -0.50849336220E+03  0.70488796079E+03  0.48816138506E+03 0.  0.
        1    1    3    3  502    0  0.24138348694E+03  0.29257458779E+02 -0.22350013304E+03  0.33026397951E+03  0.50400001928E-02 0.  1.
       -1    1    3    3    0  502 -0.24138348694E+03 -0.29257458779E+02 -0.28499322915E+03  0.37462398128E+03  0.50400001928E-02 0. -1.
</event>
<event>
 5   0  0.1984297E-01  0.5315265E+03  0.7818609E-02  0.1005863E+00
        1   -1    0    0  501    0  0.00000000000E+00  0.00000000000E+00  0.24871752565E+03  0.24871752570E+03  0.50400001928E-02 0.  1.
       -1   -1    0    0    0  501  0.00000000000E+00  0.00000000000E+00 -0.28397720707E+03  0.28397720711E+03  0.50400001928E-02 0. -1.
    10030    2    1    2    0    0  0.00000000000E+00  0.00000000000E+00 -0.35259681422E+02  0.53269473281E+03  0.53152651226E+03 0.  0.
        3    1    3    3  502    0 -0.10572172723E+03 -0.24242670296E+03  0.85485992656E+01  0.26461458514E+03  0.10100000352E+00 0.  1.
       -3    1    3    3    0  502  0.10572172723E+03  0.24242670296E+03 -0.43808280687E+02  0.26808014767E+03  0.10100000352E+00 0. -1.
</event>
<event>
 5   0  0.1292375E-01  0.5391747E+03  0.7818609E-02  0.1004031E+00
        4   -1    0    0  501    0  0.00000000000E+00  0.00000000000E+00  0.10406895127E+04  0.10406902876E+04  0.12699999809E+01 0.  1.
       -4   -1    0    0    0  501  0.00000000000E+00  0.00000000000E+00 -0.69829190215E+02  0.69840738155E+02  0.12699999809E+01 0. -1.
    10030    2    1    2    0    0  0.00000000000E+00  0.00000000000E+00  0.97086032251E+03  0.11105310258E+04  0.53917473368E+03 0.  0.
        5    1    3    3  502    0 -0.44423947771E+02 -0.19211118328E+03  0.86395924823E+03  0.88618726378E+03  0.46999998093E+01 0.  1.
       -5    1    3    3    0  502  0.44423947771E+02  0.19211118328E+03  0.10690107428E+03  0.22434376202E+03  0.46999998093E+01 0. -1.
</event>
<event>
 5   0  0.1984680E-01  0.4909659E+03  0.7818609E-02  0.1016164E+00
       -1   -1    0    0    0  501  0.00000000000E+00  0.00000000000E+00  0.87253544268E+02  0.87253544413E+02  0.50400001928E-02 0.  1.
        1   -1    0    0  501    0  0.00000000000E+00  0.00000000000E+00 -0.69065244477E+03  0.69065244479E+03  0.50400001928E-02 0. -1.
    10030    2    1    2    0    0  0.00000000000E+00  0.00000000000E+00 -0.60339890050E+03  0.77790598920E+03  0.49096587958E+03 0.  0.
        5    1    3    3  502    0  0.52204304887E+02 -0.87373375170E+01 -0.68143043704E+03  0.68349920339E+03  0.46999998093E+01 0. -1.
       -5    1    3    3    0  502 -0.52204304887E+02  0.87373375170E+01  0.78031536534E+02  0.94406785813E+02  0.46999998093E+01 0.  1.
</event>
<event>
 5   0  0.3329246E-01  0.4977845E+03  0.7818609E-02  0.1014359E+00
        2   -1    0    0  501    0  0.00000000000E+00  0.00000000000E+00  0.52166635848E+03  0.52166635848E+03  0.25500000920E-02 0. -1.
       -2   -1    0    0    0  501  0.00000000000E+00  0.00000000000E+00 -0.11874899787E+03  0.11874899789E+03  0.25500000920E-02 0.  1.
    10030    2    1    2    0    0  0.00000000000E+00  0.00000000000E+00  0.40291736061E+03  0.64041535637E+03  0.49778452085E+03 0.  0.
        2    1    3    3  502    0 -0.37054425049E+01  0.12079600163E+03 -0.78467446105E+02  0.14409213865E+03  0.25500000920E-02 0.  1.
       -2    1    3    3    0  502  0.37054425049E+01 -0.12079600163E+03  0.48138480671E+03  0.49632321773E+03  0.25500000920E-02 0. -1.
</event>
<event>
 5   0  0.3178149E-01  0.5078562E+03  0.7818609E-02  0.1011748E+00
        2   -1    0    0  501    0  0.00000000000E+00  0.00000000000E+00  0.86678721935E+03  0.86678721935E+03  0.25500000920E-02 0. -1.
       -2   -1    0    0    0  501  0.00000000000E+00  0.00000000000E+00 -0.74389056808E+02  0.74389056851E+02  0.25500000920E-02 0.  1.
    10030    2    1    2    0    0  0.00000000000E+00  0.00000000000E+00  0.79239816254E+03  0.94117627621E+03  0.50785621478E+03 0.  0.
        3    1    3    3  502    0 -0.95228066084E+02  0.51738929359E+02 -0.29376074167E+02  0.11228653221E+03  0.10100000352E+00 0.  1.
       -3    1    3    3    0  502  0.95228066084E+02 -0.51738929359E+02  0.82177423671E+03  0.82888974400E+03  0.10100000352E+00 0. -1.
</event>
<event>
 5   0  0.3329246E-01  0.5421150E+03  0.7818609E-02  0.1003336E+00
        2   -1    0    0  501    0  0.00000000000E+00  0.00000000000E+00  0.12277703776E+04  0.12277703776E+04  0.25500000920E-02 0.  1.
       -2   -1    0    0    0  501  0.00000000000E+00  0.00000000000E+00 -0.59841952719E+02  0.59841952773E+02  0.25500000920E-02 0. -1.
    10030    2    1    2    0    0  0.00000000000E+00  0.00000000000E+00  0.11679284249E+04  0.12876123303E+04  0.54211503178E+03 0.  0.
        2    1    3    3  502    0  0.14038190492E+03  0.15417247256E+03  0.99532696155E+03  0.10169326383E+04  0.25500000920E-02 0.  1.
       -2    1    3    3    0  502 -0.14038190492E+03 -0.15417247256E+03  0.17260146330E+03  0.27067969201E+03  0.25500000920E-02 0. -1.
</event>
<event>
 5   0  0.1984297E-01  0.5252005E+03  0.7818609E-02  0.1007403E+00
        1   -1    0    0  501    0  0.00000000000E+00  0.00000000000E+00  0.14420220651E+04  0.14420220651E+04  0.50400001928E-02 0.  1.
       -1   -1    0    0    0  501  0.00000000000E+00  0.00000000000E+00 -0.47820975884E+02  0.47820976149E+02  0.50400001928E-02 0. -1.
    10030    2    1    2    0    0  0.00000000000E+00  0.00000000000E+00  0.13942010892E+04  0.14898430412E+04  0.52520054304E+03 0.  0.
        3    1    3    3  502    0  0.54813965089E+02  0.19144636058E+03  0.11826891894E+04  0.11993373206E+04  0.10100000352E+00 0.  1.
       -3    1    3    3    0  502 -0.54813965089E+02 -0.19144636058E+03  0.21151189983E+03  0.29050572063E+03  0.10100000352E+00 0. -1.
</event>
<event>
 5   0  0.1984680E-01  0.5256015E+03  0.7818609E-02  0.1007304E+00
       -1   -1    0    0    0  501  0.00000000000E+00  0.00000000000E+00  0.73824984462E+03  0.73824984464E+03  0.50400001928E-02 0.  1.
        1   -1    0    0  501    0  0.00000000000E+00  0.00000000000E+00 -0.93551312950E+02  0.93551313085E+02  0.50400001928E-02 0. -1.
    10030    2    1    2    0    0  0.00000000000E+00  0.00000000000E+00  0.64469853167E+03  0.83180115773E+03  0.52560153087E+03 0.  0.
        5    1    3    3  502    0  0.41727634504E+02 -0.13319830012E+02 -0.87666278577E+02  0.98112587116E+02  0.46999998093E+01 0. -1.
       -5    1    3    3    0  502 -0.41727634504E+02  0.13319830012E+02  0.73236481025E+03  0.73368857061E+03  0.46999998093E+01 0.  1.
</event>
<event>
 5   0  0.3187123E-01  0.4980372E+03  0.7818609E-02  0.1014293E+00
        2   -1    0    0  501    0  0.00000000000E+00  0.00000000000E+00  0.39698851367E+03  0.39698851368E+03  0.25500000920E-02 0. -1.
       -2   -1    0    0    0  501  0.00000000000E+00  0.00000000000E+00 -0.15620164577E+03  0.15620164580E+03  0.25500000920E-02 0.  1.
    10030    2    1    2    0    0  0.00000000000E+00  0.00000000000E+00  0.24078686789E+03  0.55319015947E+03  0.49803718414E+03 0.  0.
        5    1    3    3  502    0 -0.77784453327E+02  0.15035816321E+03  0.32317638849E+03  0.36486033835E+03  0.46999998093E+01 0. -1.
       -5    1    3    3    0  502  0.77784453327E+02 -0.15035816321E+03 -0.82389520597E+02  0.18832982113E+03  0.46999998093E+01 0.  1.
</event>
<event>
 5   0  0.1984680E-01  0.5013535E+03  0.7818609E-02  0.1013426E+00
       -1   -1    0    0    0  501  0.00000000000E+00  0.00000000000E+00  0.68596301855E+02  0.68596302041E+02  0.50400001928E-02 0.  1.
        1   -1    0    0  501    0  0.00000000000E+00  0.00000000000E+00 -0.91606745347E+03  0.91606745348E+03  0.50400001928E-02 0. -1.
    10030    2    1    2    0    0  0.00000000000E+00  0.00000000000E+00 -0.84747115161E+03  0.98466375552E+03  0.50135352659E+03 0.  0.
        5    1    3    3  502    0 -0.95731292590E+02  0.21249439813E+03 -0.60479138484E+03  0.64816129073E+03  0.46999998093E+01 0. -1.
       -5    1    3    3    0  502  0.95731292590E+02 -0.21249439813E+03 -0.24267976677E+03  0.33650246480E+03  0.46999998093E+01 0.  1.
</event>
<event>
 5   0  0.2000612E-01  0.5457671E+03  0.7818609E-02  0.1002478E+00
       -1   -1    0    0    0  501  0.00000000000E+00  0.00000000000E+00  0.78930028218E+02  0.78930028379E+02  0.50400001928E-02 0.  1.
        1   -1    0    0  501    0  0.00000000000E+00  0.00000000000E+00 -0.94343617455E+03  0.94343617456E+03  0.50400001928E-02 0. -1.
    10030    2    1    2    0    0  0.00000000000E+00  0.00000000000E+00 -0.86450614633E+03  0.10223662029E+04  0.54576714437E+03 0.  0.
        2    1    3    3  502    0  0.53757067880E+02  0.23015509798E+03 -0.68776148911E+03  0.72723933982E+03  0.25500000920E-02 0. -1.
       -2    1    3    3    0  502 -0.53757067880E+02 -0.23015509798E+03 -0.17674465722E+03  0.29512686312E+03  0.25500000920E-02 0.  1.
</event>
<event>
 5   0  0.3187123E-01  0.5489844E+03  0.7818609E-02  0.1001729E+00
       -2   -1    0    0    0  501  0.00000000000E+00  0.00000000000E+00  0.19894881068E+03  0.19894881070E+03  0.25500000920E-02 0. -1.
        2   -1    0    0  501    0  0.00000000000E+00  0.00000000000E+00 -0.37872042860E+03  0.37872042861E+03  0.25500000920E-02 0.  1.
    10030    2    1    2    0    0  0.00000000000E+00  0.00000000000E+00 -0.17977161792E+03  0.57766923931E+03  0.54898444006E+03 0.  0.
        5    1    3    3  502    0 -0.90744775905E+02 -0.15995238386E+03 -0.30425721138E+03  0.35554735287E+03  0.46999998093E+01 0.  1.
       -5    1    3    3    0  502  0.90744775905E+02  0.15995238386E+03  0.12448559346E+03  0.22212188644E+03  0.46999998093E+01 0. -1.
</event>
<event>
 5   0  0.1967161E-01  0.5074560E+03  0.7818609E-02  0.1011851E+00
        1   -1    0    0  501    0  0.00000000000E+00  0.00000000000E+00  0.25616515531E+03  0.25616515536E+03  0.50400001928E-02 0. -1.
       -1   -1    0    0    0  501  0.00000000000E+00  0.00000000000E+00 -0.25131404357E+03  0.25131404362E+03  0.50400001928E-02 0.  1.
    10030    2    1    2    0    0  0.00000000000E+00  0.00000000000E+00  0.48511117394E+01  0.50747919897E+03  0.50745601199E+03 0.  0.
        1    1    3    3  502    0  0.78969568157E+02 -0.42845860445E+02 -0.23487401471E+03  0.25147119768E+03  0.50400001928E-02 0.  1.
       -1    1    3    3    0  502 -0.78969568157E+02  0.42845860445E+02  0.23972512645E+03  0.25600800129E+03  0.50400001928E-02 0. -1.
</event>
<event>
 5   0  0.3178149E-01  0.5049140E+03  0.7818609E-02  0.1012504E+00
        2   -1    0    0  501    0  0.00000000000E+00  0.00000000000E+00  0.32988441718E+03  0.32988441719E+03  0.25500000920E-02 0.  1.
       -2   -1    0    0    0  501  0.00000000000E+00  0.00000000000E+00 -0.19320265122E+03  0.19320265123E+03  0.25500000920E-02 0. -1.
    10030    2    1    2    0    0  0.00000000000E+00  0.00000000000E+00  0.13668176596E+03  0.52308706842E+03  0.50491402833E+03 0.  0.
        3    1    3    3  502    0 -0.25059197678E+02  0.14312624461E+03 -0.14553935036E+03  0.20565699110E+03  0.10100000352E+00 0. -1.
       -3    1    3    3    0  502  0.25059197678E+02 -0.14312624461E+03  0.28222111633E+03  0.31743007732E+03  0.10100000352E+00 0.  1.
</event>
<event>
 5   0  0.3111146E-01  0.5312445E+03  0.7818609E-02  0.1005931E+00
       -2   -1    0    0    0  501  0.00000000000E+00  0.00000000000E+00  0.87684599525E+02  0.87684599562E+02  0.25500000920E-02 0.  1.
        2   -1    0    0  501    0  0.00000000000E+00  0.00000000000E+00 -0.80464743777E+03  0.80464743777E+03  0.25500000920E-02 0. -1.
    10030    2    1    2    0    0  0.00000000000E+00  0.00000000000E+00 -0.71696283825E+03  0.89233203734E+03  0.53124453261E+03 0.  0.
        1    1    3    3  502    0 -0.96151543083E+02 -0.10406951179E+03  0.18908234635E+02  0.14294440837E+03  0.50400001928E-02 0.  1.
       -1    1    3    3    0  502  0.96151543083E+02  0.10406951179E+03 -0.73587107288E+03  0.74938762897E+03  0.50400001928E-02 0. -1.
</event>
<event>
 5   0  0.3178149E-01  0.4919152E+03  0.7818609E-02  0.1015911E+00
       -2   -1    0    0    0  501  0.00000000000E+00  0.00000000000E+00  0.12151881522E+03  0.12151881525E+03  0.25500000920E-02 0. -1.
        2   -1    0    0  501    0  0.00000000000E+00  0.00000000000E+00 -0.49782535144E+03  0.49782535145E+03  0.25500000920E-02 0.  1.
    10030    2    1    2    0    0  0.00000000000E+00  0.00000000000E+00 -0.37630653622E+03  0.61934416669E+03  0.49191522401E+03 0.  0.
        3    1    3    3  502    0 -0.12057728967E+03 -0.63300209377E+02  0.69718822281E+02  0.15299190721E+03  0.10100000352E+00 0. -1.
       -3    1    3    3    0  502  0.12057728967E+03  0.63300209377E+02 -0.44602535850E+03  0.46635225948E+03  0.10100000352E+00 0.  1.
</event>
<event>
 5   0  0.1292375E-01  0.4916064E+03  0.7818609E-02  0.1015993E+00
       -4   -1    0    0    0  501  0.00000000000E+00  0.00000000000E+00  0.55044914739E+03  0.55045061246E+03  0.12699999809E+01 0. -1.
        4   -1    0    0  501    0  0.00000000000E+00  0.00000000000E+00 -0.10975821355E+03  0.10976556081E+03  0.12699999809E+01 0.  1.
    10030    2    1    2    0    0  0.00000000000E+00  0.00000000000E+00  0.44069093384E+03  0.66021617327E+03  0.49160644451E+03 0.  0.
        1    1    3    3  502    0 -0.61173121536E+02 -0.21668857561E+03  0.35277100220E+03  0.41850145712E+03  0.50400001928E-02 0. -1.
       -1    1    3    3    0  502  0.61173121536E+02  0.21668857561E+03  0.87919931643E+02  0.24171471615E+03  0.50400001928E-02 0.  1.
</event>
<event>
 5   0  0.3117389E-01  0.5013644E+03  0.7818609E-02  0.1013423E+00
        2   -1    0    0  501    0  0.00000000000E+00  0.00000000000E+00  0.55665280482E+03  0.55665280483E+03  0.25500000920E-02 0.  1.
       -2   -1    0    0    0  501  0.00000000000E+00  0.00000000000E+00 -0.11289183174E+03  0.11289183177E+03  0.25500000920E-02 0. -1.
    10030    2    1    2    0    0  0.00000000000E+00  0.00000000000E+00  0.44376097308E+03  0.66954463660E+03  0.50136435770E+03 0.  0.
        4    1    3    3  502    0  0.15044373516E+02  0.16921988808E+03 -0.24284628373E+02  0.17161893769E+03  0.12699999809E+01 0. -1.
       -4    1    3    3    0  502 -0.15044373516E+02 -0.16921988808E+03  0.46804560146E+03  0.49792569892E+03  0.12699999809E+01 0.  1.
</event>
<event>
 5   0  0.1984680E-01  0.5120710E+03  0.7818609E-02  0.1010675E+00
        1   -1    0    0  501    0  0.00000000000E+00  0.00000000000E+00  0.29047080677E+03  0.29047080682E+03  0.50400001928E-02 0.  1.
       -1   -1    0    0    0  501  0.00000000000E+00  0.00000000000E+00 -0.22568252209E+03  0.22568252214E+03  0.50400001928E-02 0. -1.
    10030    2    1    2    0    0  0.00000000000E+00  0.00000000000E+00  0.64788284684E+02  0.51615332896E+03  0.51207102746E+03 0.  0.
        5    1    3    3  502    0 -0.20064316633E+03 -0.30540633527E+02 -0.12486787284E+03  0.23833691732E+03  0.46999998093E+01 0.  1.
       -5    1    3    3    0  502  0.20064316633E+03  0.30540633527E+02  0.18965615752E+03  0.27781641164E+03  0.46999998093E+01 0. -1.
</event>
<event>
 5   0  0.1292375E-01  0.3660670E+03  0.7818609E-02  0.1056207E+00
        4   -1    0    0  501    0  0.00000000000E+00  0.00000000000E+00  0.11065706081E+03  0.11066434840E+03  0.12699999809E+01 0.  1.
       -4   -1    0    0    0  501  0.00000000000E+00  0.00000000000E+00 -0.30272986725E+03  0.30273253116E+03  0.12699999809E+01 0. -1.
    10030    2    1    2    0    0  0.00000000000E+00  0.00000000000E+00 -0.19207280643E+03  0.41339687957E+03  0.36606695708E+03 0.  0.
        2    1    3    3  502    0  0.14620616034E+03 -0.57706694986E+02  0.98702781762E+01  0.15749198826E+03  0.25500000920E-02 0.  1.
       -2    1    3    3    0  502 -0.14620616034E+03  0.57706694986E+02 -0.20194308461E+03  0.25590489131E+03  0.25500000920E-02 0. -1.
</event>
<event>
 5   0  0.1292375E-01  0.3129476E+03  0.7818609E-02  0.1078942E+00
        3   -1    0    0  501    0  0.00000000000E+00  0.00000000000E+00  0.98398795870E+02  0.98398847705E+02  0.10100000352E+00 0. -1.
       -3   -1    0    0    0  501  0.00000000000E+00  0.00000000000E+00 -0.24882449863E+03  0.24882451913E+03  0.10100000352E+00 0.  1.
    10030    2    1    2    0    0  0.00000000000E+00  0.00000000000E+00 -0.15042570276E+03  0.34722336684E+03  0.31294755859E+03 0.  0.
        4    1    3    3  502    0 -0.13181145417E+03 -0.27659774517E+01  0.18280875628E+02  0.13310790132E+03  0.12699999809E+01 0. -1.
       -4    1    3    3    0  502  0.13181145417E+03  0.27659774517E+01 -0.16870657839E+03  0.21411546551E+03  0.12699999809E+01 0.  1.
</event>
<event>
 5   0  0.1292375E-01  0.4888113E+03  0.7818609E-02  0.1016741E+00
       -3   -1    0    0    0  501  0.00000000000E+00  0.00000000000E+00  0.85067813216E+03  0.85067813816E+03  0.10100000352E+00 0. -1.
        3   -1    0    0  501    0  0.00000000000E+00  0.00000000000E+00 -0.70219385735E+02  0.70219458372E+02  0.10100000352E+00 0.  1.
    10030    2    1    2    0    0  0.00000000000E+00  0.00000000000E+00  0.78045874643E+03  0.92089759653E+03  0.48881134236E+03 0.  0.
        4    1    3    3  502    0 -0.14906098696E+03 -0.15276183734E+03  0.61454768215E+03  0.65055808605E+03  0.12699999809E+01 0. -1.
       -4    1    3    3    0  502  0.14906098696E+03  0.15276183734E+03  0.16591106427E+03  0.27033951048E+03  0.12699999809E+01 0.  1.
</event>
<event>
 5   0  0.1984680E-01  0.4560428E+03  0.7818609E-02  0.1025935E+00
       -1   -1    0    0    0  501  0.00000000000E+00  0.00000000000E+00  0.11830031481E+03  0.11830031492E+03  0.50400001928E-02 0.  1.
        1   -1    0    0  501    0  0.00000000000E+00  0.00000000000E+00 -0.43950644723E+03  0.43950644726E+03  0.50400001928E-02 0. -1.
    10030    2    1    2    0    0  0.00000000000E+00  0.00000000000E+00 -0.32120613242E+03  0.55780676218E+03  0.45604276601E+03 0.  0.
        5    1    3    3  502    0 -0.27879328114E+02  0.49048814169E+02 -0.43077327717E+03  0.43447755918E+03  0.46999998093E+01 0. -1.
       -5    1    3    3    0  502  0.27879328114E+02 -0.49048814169E+02  0.10956714474E+03  0.12332920300E+03  0.46999998093E+01 0.  1.
</event>
<event>
 5   0  0.1292375E-01  0.5029276E+03  0.7818609E-02  0.1013018E+00
       -4   -1    0    0    0  501  0.00000000000E+00  0.00000000000E+00  0.13113511420E+03  0.13114126382E+03  0.12699999809E+01 0.  1.
        4   -1    0    0  501    0  0.00000000000E+00  0.00000000000E+00 -0.48218688911E+03  0.48218856159E+03  0.12699999809E+01 0. -1.
    10030    2    1    2    0    0  0.00000000000E+00  0.00000000000E+00 -0.35105177490E+03  0.61332982541E+03  0.50292755550E+03 0.  0.
        3    1    3    3  502    0  0.40559698113E+02 -0.24791930641E+03 -0.16189399060E+03  0.29886241984E+03  0.10100000352E+00 0. -1.
       -3    1    3    3    0  502 -0.40559698113E+02  0.24791930641E+03 -0.18915778430E+03  0.31446740557E+03  0.10100000352E+00 0.  1.
</event>
<event>
 5   0  0.1984297E-01  0.5077548E+03  0.7818609E-02  0.1011774E+00
        1   -1    0    0  501    0  0.00000000000E+00  0.00000000000E+00  0.66651748913E+03  0.66651748915E+03  0.50400001928E-02 0. -1.
       -1   -1    0    0    0  501  0.00000000000E+00  0.00000000000E+00 -0.96702257725E+02  0.96702257856E+02  0.50400001928E-02 0.  1.
    10030    2    1    2    0    0  0.00000000000E+00  0.00000000000E+00  0.56981523141E+03  0.76321974701E+03  0.50775484663E+03 0.  0.
        3    1    3    3  502    0  0.16623463253E+03  0.13270412195E+03  0.49323790059E+03  0.53714799992E+03  0.10100000352E+00 0. -1.
       -3    1    3    3    0  502 -0.16623463253E+03 -0.13270412195E+03  0.76577330816E+02  0.22607174709E+03  0.10100000352E+00 0.  1.
</event>
<event>
 5   0  0.1984680E-01  0.4992962E+03  0.7818609E-02  0.1013963E+00
        1   -1    0    0  501    0  0.00000000000E+00  0.00000000000E+00  0.56224684254E+03  0.56224684256E+03  0.50400001928E-02 0. -1.
       -1   -1    0    0    0  501  0.00000000000E+00  0.00000000000E+00 -0.11084839832E+03  0.11084839844E+03  0.50400001928E-02 0.  1.
    10030    2    1    2    0    0  0.00000000000E+00  0.00000000000E+00  0.45139844421E+03  0.67309524100E+03  0.49929615261E+03 0.  0.
        5    1    3    3  502    0 -0.12442950248E+03  0.21484777873E+03  0.26032706255E+03  0.35977011912E+03  0.46999998093E+01 0.  1.
       -5    1    3    3    0  502  0.12442950248E+03 -0.21484777873E+03  0.19107138166E+03  0.31332512188E+03  0.46999998093E+01 0. -1.
</event>
<event>
 5   0  0.3187123E-01  0.4964688E+03  0.7818609E-02  0.1014705E+00
        2   -1    0    0  501    0  0.00000000000E+00  0.00000000000E+00  0.63754263251E+03  0.63754263251E+03  0.25500000920E-02 0. -1.
       -2   -1    0    0    0  501  0.00000000000E+00  0.00000000000E+00 -0.96652859166E+02  0.96652859199E+02  0.25500000920E-02 0.  1.
    10030    2    1    2    0    0  0.00000000000E+00  0.00000000000E+00  0.54088977334E+03  0.73419549171E+03  0.49646880380E+03 0.  0.
        5    1    3    3  502    0  0.69044405042E+02  0.17318026912E+03  0.28169932798E+02  0.18861116242E+03  0.46999998093E+01 0.  1.
       -5    1    3    3    0  502 -0.69044405042E+02 -0.17318026912E+03  0.51271984054E+03  0.54558432929E+03  0.46999998093E+01 0. -1.
</event>
<event>
 5   0  0.1967161E-01  0.5124958E+03  0.7818609E-02  0.1010568E+00
        1   -1    0    0  501    0  0.00000000000E+00  0.00000000000E+00  0.26898689380E+03  0.26898689385E+03  0.50400001928E-02 0. -1.
       -1   -1    0    0    0  501  0.00000000000E+00  0.00000000000E+00 -0.24411224694E+03  0.24411224699E+03  0.50400001928E-02 0.  1.
    10030    2    1    2    0    0  0.00000000000E+00  0.00000000000E+00  0.24874646866E+02  0.51309914084E+03  0.51249583440E+03 0.  0.
        1    1    3    3  502    0 -0.15523520001E+03 -0.19508816331E+03  0.71715436888E+02  0.25942332721E+03  0.50400001928E-02 0. -1.
       -1    1    3    3    0  502  0.15523520001E+03  0.19508816331E+03 -0.46840790022E+02  0.25367581363E+03  0.50400001928E-02 0.  1.
</event>
<event>
 5   0  0.1984680E-01  0.5183890E+03  0.7818609E-02  0.1009088E+00
       -1   -1    0    0    0  501  0.00000000000E+00  0.00000000000E+00  0.23002305335E+03  0.23002305340E+03  0.50400001928E-02 0. -1.
        1   -1    0    0  501    0  0.00000000000E+00  0.00000000000E+00 -0.29206541496E+03  0.29206541500E+03  0.50400001928E-02 0.  1.
    10030    2    1    2    0    0  0.00000000000E+00  0.00000000000E+00 -0.62042361610E+02  0.52208846840E+03  0.51838896034E+03 0.  0.
        5    1    3    3  502    0 -0.56298042767E+02  0.48994461942E+02 -0.28096512469E+03  0.29074631247E+03  0.46999998093E+01 0.  1.
       -5    1    3    3    0  502  0.56298042767E+02 -0.48994461942E+02  0.21892276308E+03  0.23134215594E+03  0.46999998093E+01 0. -1.
</event>
<event>
 5   0  0.2013450E-01  0.2945487E+03  0.7818609E-02  0.1087998E+00
        1   -1    0    0  501    0  0.00000000000E+00  0.00000000000E+00  0.31704600602E+03  0.31704600606E+03  0.50400001928E-02 0. -1.
       -1   -1    0    0    0  501  0.00000000000E+00  0.00000000000E+00 -0.68411922425E+02  0.68411922611E+02  0.50400001928E-02 0.  1.
    10030    2    1    2    0    0  0.00000000000E+00  0.00000000000E+00  0.24863408360E+03  0.38545792867E+03  0.29454865006E+03 0.  0.
        4    1    3    3  502    0  0.81765541787E+02  0.11312245369E+03  0.62855275504E+02  0.15308393747E+03  0.12699999809E+01 0.  1.
       -4    1    3    3    0  502 -0.81765541787E+02 -0.11312245369E+03  0.18577880809E+03  0.23237399121E+03  0.12699999809E+01 0. -1.
</event>
<event>
 5   0  0.2000612E-01  0.4944741E+03  0.7818609E-02  0.1015231E+00
        1   -1    0    0  501    0  0.00000000000E+00  0.00000000000E+00  0.45721491096E+03  0.45721491099E+03  0.50400001928E-02 0. -1.
       -1   -1    0    0    0  501  0.00000000000E+00  0.00000000000E+00 -0.13369240485E+03  0.13369240495E+03  0.50400001928E-02 0.  1.
    10030    2    1    2    0    0  0.00000000000E+00  0.00000000000E+00  0.32352250610E+03  0.59090731594E+03  0.49447410860E+03 0.  0.
        2    1    3    3  502    0  0.93650794731E+02 -0.12856549062E+03  0.38795397881E+03  0.41929446265E+03  0.25500000920E-02 0. -1.
       -2    1    3    3    0  502 -0.93650794731E+02  0.12856549062E+03 -0.64431472704E+02  0.17161285328E+03  0.25500000920E-02 0.  1.
</event>
<event>
 5   0  0.3329246E-01  0.4817405E+03  0.7818609E-02  0.1018658E+00
       -2   -1    0    0    0  501  0.00000000000E+00  0.00000000000E+00  0.83451118765E+02  0.83451118804E+02  0.25500000920E-02 0. -1.
        2   -1    0    0  501    0  0.00000000000E+00  0.00000000000E+00 -0.69523897333E+03  0.69523897333E+03  0.25500000920E-02 0.  1.
    10030    2    1    2    0    0  0.00000000000E+00  0.00000000000E+00 -0.61178785456E+03  0.77869009214E+03  0.48174047017E+03 0.  0.
        2    1    3    3  502    0 -0.17272505008E+03  0.47138096940E+02 -0.45443545971E+02  0.18471886473E+03  0.25500000920E-02 0. -1.
       -2    1    3    3    0  502  0.17272505008E+03 -0.47138096940E+02 -0.56634430859E+03  0.59397122741E+03  0.25500000920E-02 0.  1.
</event>
<event>
 5   0  0.3178149E-01  0.4990417E+03  0.7818609E-02  0.1014029E+00
        2   -1    0    0  501    0  0.00000000000E+00  0.00000000000E+00  0.32835327575E+03  0.32835327576E+03  0.25500000920E-02 0.  1.
       -2   -1    0    0    0  501  0.00000000000E+00  0.00000000000E+00 -0.18961481334E+03  0.18961481335E+03  0.25500000920E-02 0. -1.
    10030    2    1    2    0    0  0.00000000000E+00  0.00000000000E+00  0.13873846242E+03  0.51796808911E+03  0.49904166198E+03 0.  0.
        3    1    3    3  502    0  0.51365108171E+02  0.13342192915E+03 -0.14288806385E+03  0.20213063723E+03  0.10100000352E+00 0. -1.
       -3    1    3    3    0  502 -0.51365108171E+02 -0.13342192915E+03  0.28162652626E+03  0.31583745188E+03  0.10100000352E+00 0.  1.
</event>
<event>
 5   0  0.3117389E-01  0.5111007E+03  0.7818609E-02  0.1010921E+00
       -2   -1    0    0    0  501  0.00000000000E+00  0.00000000000E+00  0.10563625981E+04  0.10563625981E+04  0.25500000920E-02 0. -1.
        2   -1    0    0  501    0  0.00000000000E+00  0.00000000000E+00 -0.61821546412E+02  0.61821546464E+02  0.25500000920E-02 0.  1.
    10030    2    1    2    0    0  0.00000000000E+00  0.00000000000E+00  0.99454105168E+03  0.11181841446E+04  0.51110065317E+03 0.  0.
        4    1    3    3  502    0  0.69493444892E+01 -0.25311558547E+03  0.57269600754E+03  0.62617738936E+03  0.12699999809E+01 0.  1.
       -4    1    3    3    0  502 -0.69493444892E+01  0.25311558547E+03  0.42184504414E+03  0.49200675520E+03  0.12699999809E+01 0. -1.
</event>
<event>
 5   0  0.1984297E-01  0.5324675E+03  0.7818609E-02  0.1005635E+00
        1   -1    0    0  501    0  0.00000000000E+00  0.00000000000E+00  0.49760660693E+03  0.49760660695E+03  0.50400001928E-02 0. -1.
       -1   -1    0    0    0  501  0.00000000000E+00  0.00000000000E+00 -0.14244266528E+03  0.14244266537E+03  0.50400001928E-02 0.  1.
    10030    2    1    2    0    0  0.00000000000E+00  0.00000000000E+00  0.35516394164E+03  0.64004927232E+03  0.53246750657E+03 0.  0.
        3    1    3    3  502    0  0.16090798626E+03  0.11267243734E+03 -0.38431499976E+02  0.20015855857E+03  0.10100000352E+00 0.  1.
       -3    1    3    3    0  502 -0.16090798626E+03 -0.11267243734E+03  0.39359544162E+03  0.43989071375E+03  0.10100000352E+00 0. -1.
</event>
<event>
 5   0  0.3111146E-01  0.4948497E+03  0.7818609E-02  0.1015132E+00
       -2   -1    0    0    0  501  0.00000000000E+00  0.00000000000E+00  0.14830263918E+03  0.14830263921E+03  0.25500000920E-02 0. -1.
        2   -1    0    0  501    0  0.00000000000E+00  0.00000000000E+00 -0.41279813356E+03  0.41279813357E+03  0.25500000920E-02 0.  1.
    10030    2    1    2    0    0  0.00000000000E+00  0.00000000000E+00 -0.26449549438E+03  0.56110077278E+03  0.49484968492E+03 0.  0.
        1    1    3    3  502    0  0.11841811305E+03  0.41732493618E+02  0.10949669545E+03  0.16659524861E+03  0.50400001928E-02 0. -1.
       -1    1    3    3    0  502 -0.11841811305E+03 -0.41732493618E+02 -0.37399218982E+03  0.39450552416E+03  0.50400001928E-02 0.  1.
</event>
<event>
 5   0  0.3187123E-01  0.4302155E+03  0.7818609E-02  0.1033792E+00
       -2   -1    0    0    0  501  0.00000000000E+00  0.00000000000E+00  0.13163806451E+03  0.13163806454E+03  0.25500000920E-02 0. -1.
        2   -1    0    0  501    0  0.00000000000E+00  0.00000000000E+00 -0.35150436549E+03  0.35150436550E+03  0.25500000920E-02 0.  1.
    10030    2    1    2    0    0  0.00000000000E+00  0.00000000000E+00 -0.21986630098E+03  0.48314243004E+03  0.43021554760E+03 0.  0.
        5    1    3    3  502    0  0.17368256051E+03 -0.80953027081E+02 -0.30022699437E+00  0.19167995344E+03  0.46999998093E+01 0. -1.
       -5    1    3    3    0  502 -0.17368256051E+03  0.80953027081E+02 -0.21956607398E+03  0.29146247659E+03  0.46999998093E+01 0.  1.
</event>
<event>
 5   0  0.2013450E-01  0.4765590E+03  0.7818609E-02  0.1020085E+00
        1   -1    0    0  501    0  0.00000000000E+00  0.00000000000E+00  0.98909225153E+02  0.98909225282E+02  0.50400001928E-02 0.  1.
       -1   -1    0    0    0  501  0.00000000000E+00  0.00000000000E+00 -0.57403248509E+03  0.57403248511E+03  0.50400001928E-02 0. -1.
    10030    2    1    2    0    0  0.00000000000E+00  0.00000000000E+00 -0.47512325994E+03  0.67294171039E+03  0.47655895066E+03 0.  0.
        4    1    3    3  502    0  0.11364245404E+03 -0.26936810972E+02 -0.53083809283E+03  0.54353554883E+03  0.12699999809E+01 0. -1.
       -4    1    3    3    0  502 -0.11364245404E+03  0.26936810972E+02  0.55714832894E+02  0.12940616156E+03  0.12699999809E+01 0.  1.
</event>
<event>
 5   0  0.2000612E-01  0.4958147E+03  0.7818609E-02  0.1014877E+00
        1   -1    0    0  501    0  0.00000000000E+00  0.00000000000E+00  0.92074117233E+02  0.92074117371E+02  0.50400001928E-02 0. -1.
       -1   -1    0    0    0  501  0.00000000000E+00  0.00000000000E+00 -0.66748447229E+03  0.66748447231E+03  0.50400001928E-02 0.  1.
    10030    2    1    2    0    0  0.00000000000E+00  0.00000000000E+00 -0.57541035506E+03  0.75955858968E+03  0.49581465736E+03 0.  0.
        2    1    3    3  502    0 -0.14536121815E+03  0.17830887482E+03 -0.42922618440E+03  0.48698979041E+03  0.25500000920E-02 0.  1.
       -2    1    3    3    0  502  0.14536121815E+03 -0.17830887482E+03 -0.14618417066E+03  0.27256879927E+03  0.25500000920E-02 0. -1.
</event>
<event>
 5   0  0.1292375E-01  0.5020190E+03  0.7818609E-02  0.1013253E+00
       -4   -1    0    0    0  501  0.00000000000E+00  0.00000000000E+00  0.59994054583E+02  0.60007495242E+02  0.12699999809E+01 0. -1.
        4   -1    0    0  501    0  0.00000000000E+00  0.00000000000E+00 -0.10500687647E+04  0.10500695327E+04  0.12699999809E+01 0.  1.
    10030    2    1    2    0    0  0.00000000000E+00  0.00000000000E+00 -0.99007471010E+03  0.11100770279E+04  0.50201899998E+03 0.  0.
        5    1    3    3  502    0  0.11992897311E+03  0.14959747345E+03 -0.13697372773E+03  0.23568252956E+03  0.46999998093E+01 0. -1.
       -5    1    3    3    0  502 -0.11992897311E+03 -0.14959747345E+03 -0.85310098237E+03  0.87439449837E+03  0.46999998093E+01 0.  1.
</event>
<event>
 5   0  0.1984297E-01  0.5081259E+03  0.7818609E-02  0.1011679E+00
       -1   -1    0    0    0  501  0.00000000000E+00  0.00000000000E+00  0.54101563114E+02  0.54101563349E+02  0.50400001928E-02 0.  1.
        1   -1    0    0  501    0  0.00000000000E+00  0.00000000000E+00 -0.11930889496E+04  0.11930889496E+04  0.50400001928E-02 0. -1.
    10030    2    1    2    0    0  0.00000000000E+00  0.00000000000E+00 -0.11389873865E+04  0.12471905129E+04  0.50812587912E+03 0.  0.
        3    1    3    3  502    0  0.12885696456E+03 -0.21501906521E+03 -0.67101150199E+03  0.71630563430E+03  0.10100000352E+00 0. -1.
       -3    1    3    3    0  502 -0.12885696456E+03  0.21501906521E+03 -0.46797588446E+03  0.53088487863E+03  0.10100000352E+00 0.  1.
</event>
<event>
 5   0  0.2000612E-01  0.5336510E+03  0.7818609E-02  0.1005351E+00
       -1   -1    0    0    0  501  0.00000000000E+00  0.00000000000E+00  0.16307490430E+04  0.16307490430E+04  0.50400001928E-02 0.  1.
        1   -1    0    0  501    0  0.00000000000E+00  0.00000000000E+00 -0.43658375427E+02  0.43658375718E+02  0.50400001928E-02 0. -1.
    10030    2    1    2    0    0  0.00000000000E+00  0.00000000000E+00  0.15870906676E+04  0.16744074187E+04  0.53365102528E+03 0.  0.
        2    1    3    3  502    0 -0.12095369479E+03 -0.20915346105E+03  0.43827181421E+03  0.50045694089E+03  0.25500000920E-02 0. -1.
       -2    1    3    3    0  502  0.12095369479E+03  0.20915346105E+03  0.11488188533E+04  0.11739504778E+04  0.25500000920E-02 0.  1.
</event>
<event>
 5   0  0.3329246E-01  0.5069266E+03  0.7818609E-02  0.1011987E+00
       -2   -1    0    0    0  501  0.00000000000E+00  0.00000000000E+00  0.50247775564E+02  0.50247775629E+02  0.25500000920E-02 0. -1.
        2   -1    0    0  501    0  0.00000000000E+00  0.00000000000E+00 -0.12785369621E+04  0.12785369621E+04  0.25500000920E-02 0.  1.
    10030    2    1    2    0    0  0.00000000000E+00  0.00000000000E+00 -0.12282891866E+04  0.13287847377E+04  0.50692657601E+03 0.  0.
        2    1    3    3  502    0  0.16279058356E+03 -0.14923542778E+03 -0.28809932166E+03  0.36300579355E+03  0.25500000920E-02 0. -1.
       -2    1    3    3    0  502 -0.16279058356E+03  0.14923542778E+03 -0.94018986490E+03  0.96577894420E+03  0.25500000920E-02 0.  1.
</event>
<event>
 5   0  0.3329246E-01  0.5058007E+03  0.7818609E-02  0.1012276E+00
        2   -1    0    0  501    0  0.00000000000E+00  0.00000000000E+00  0.16977189770E+04  0.16977189770E+04  0.25500000920E-02 0. -1.
       -2   -1    0    0    0  501  0.00000000000E+00  0.00000000000E+00 -0.37673244827E+02  0.37673244914E+02  0.25500000920E-02 0.  1.
    10030    2    1    2    0    0  0.00000000000E+00  0.00000000000E+00  0.16600457322E+04  0.17353922219E+04  0.50580068306E+03 0.  0.
        2    1    3    3  502    0  0.82765883351E+02 -0.23892277463E+03  0.81311016654E+03  0.85151771950E+03  0.25500000920E-02 0.  1.
       -2    1    3    3    0  502 -0.82765883351E+02  0.23892277463E+03  0.84693556565E+03  0.88387450244E+03  0.25500000920E-02 0. -1.
</event>
<event>
 5   0  0.3178149E-01  0.4845829E+03  0.7818609E-02  0.1017883E+00
       -2   -1    0    0    0  501  0.00000000000E+00  0.00000000000E+00  0.99134222701E+02  0.99134222734E+02  0.25500000920E-02 0. -1.
        2   -1    0    0  501    0  0.00000000000E+00  0.00000000000E+00 -0.59217838154E+03  0.59217838155E+03  0.25500000920E-02 0.  1.
    10030    2    1    2    0    0  0.00000000000E+00  0.00000000000E+00 -0.49304415884E+03  0.69131260428E+03  0.48458288689E+03 0.  0.
        3    1    3    3  502    0 -0.10881743466E+03  0.10485777758E+02 -0.55499393494E+03  0.56565843372E+03  0.10100000352E+00 0.  1.
       -3    1    3    3    0  502  0.10881743466E+03 -0.10485777758E+02  0.61949776096E+02  0.12565417056E+03  0.10100000352E+00 0. -1.
</event>
<event>
 5   0  0.1292375E-01  0.4561815E+03  0.7818609E-02  0.1025895E+00
       -3   -1    0    0    0  501  0.00000000000E+00  0.00000000000E+00  0.43525222650E+03  0.43525223822E+03  0.10100000352E+00 0. -1.
        3   -1    0    0  501    0  0.00000000000E+00  0.00000000000E+00 -0.11952925480E+03  0.11952929747E+03  0.10100000352E+00 0.  1.
    10030    2    1    2    0    0  0.00000000000E+00  0.00000000000E+00  0.31572297170E+03  0.55478153569E+03  0.45618149621E+03 0.  0.
        4    1    3    3  502    0  0.14688341758E+03  0.16819156001E+03  0.10133197040E+03  0.24522014670E+03  0.12699999809E+01 0.  1.
       -4    1    3    3    0  502 -0.14688341758E+03 -0.16819156001E+03  0.21439100130E+03  0.30956138900E+03  0.12699999809E+01 0. -1.
</event>
<event>
 5   0  0.2013450E-01  0.4974006E+03  0.7818609E-02  0.1014460E+00
        1   -1    0    0  501    0  0.00000000000E+00  0.00000000000E+00  0.14011231149E+03  0.14011231158E+03  0.50400001928E-02 0. -1.
       -1   -1    0    0    0  501  0.00000000000E+00  0.00000000000E+00 -0.44144470093E+03  0.44144470096E+03  0.50400001928E-02 0.  1.
    10030    2    1    2    0    0  0.00000000000E+00  0.00000000000E+00 -0.30133238944E+03  0.58155701254E+03  0.49740059299E+03 0.  0.
        4    1    3    3  502    0  0.81562894721E+02  0.92769038082E+01  0.12381192877E+03  0.14855831631E+03  0.12699999809E+01 0. -1.
       -4    1    3    3    0  502 -0.81562894721E+02 -0.92769038082E+01 -0.42514431820E+03  0.43299869623E+03  0.12699999809E+01 0.  1.
</event>
<event>
 5   0  0.2000612E-01  0.4943769E+03  0.7818609E-02  0.1015257E+00
       -1   -1    0    0    0  501  0.00000000000E+00  0.00000000000E+00  0.18817642677E+03  0.18817642683E+03  0.50400001928E-02 0.  1.
        1   -1    0    0  501    0  0.00000000000E+00  0.00000000000E+00 -0.32470661654E+03  0.32470661658E+03  0.50400001928E-02 0. -1.
    10030    2    1    2    0    0  0.00000000000E+00  0.00000000000E+00 -0.13653018977E+03  0.51288304341E+03  0.49437690429E+03 0.  0.
        2    1    3    3  502    0 -0.18253772270E+03  0.10549033480E+03  0.65615656932E+02  0.22080227668E+03  0.25500000920E-02 0.  1.
       -2    1    3    3    0  502  0.18253772270E+03 -0.10549033480E+03 -0.20214584670E+03  0.29208076673E+03  0.25500000920E-02 0. -1.
</event>
<event>
 5   0  0.1292375E-01  0.4819092E+03  0.7818609E-02  0.1018612E+00
        3   -1    0    0  501    0  0.00000000000E+00  0.00000000000E+00  0.42474758862E+03  0.42474760063E+03  0.10100000352E+00 0.  1.
       -3   -1    0    0    0  501  0.00000000000E+00  0.00000000000E+00 -0.13669084778E+03  0.13669088509E+03  0.10100000352E+00 0. -1.
    10030    2    1    2    0    0  0.00000000000E+00  0.00000000000E+00  0.28805674084E+03  0.56143848572E+03  0.48190921064E+03 0.  0.
        3    1    3    3  502    0  0.23757965607E+03  0.17576060093E+02  0.10192418271E+03  0.25911688499E+03  0.10100000352E+00 0. -1.
       -3    1    3    3    0  502 -0.23757965607E+03 -0.17576060093E+02  0.18613255813E+03  0.30232160073E+03  0.10100000352E+00 0.  1.
</event>
<event>
 5   0  0.2000612E-01  0.4177540E+03  0.7818609E-02  0.1037800E+00
        1   -1    0    0  501    0  0.00000000000E+00  0.00000000000E+00  0.74869128739E+03  0.74869128740E+03  0.50400001928E-02 0. -1.
       -1   -1    0    0    0  501  0.00000000000E+00  0.00000000000E+00 -0.58274483281E+02  0.58274483499E+02  0.50400001928E-02 0.  1.
    10030    2    1    2    0    0  0.00000000000E+00  0.00000000000E+00  0.69041680410E+03  0.80696577090E+03  0.41775398504E+03 0.  0.
        2    1    3    3  502    0 -0.13283479450E+03 -0.15751648931E+02  0.35317790592E+02  0.13834935278E+03  0.25500000920E-02 0.  1.
       -2    1    3    3    0  502  0.13283479450E+03  0.15751648931E+02  0.65509901351E+03  0.66861641813E+03  0.25500000920E-02 0. -1.
</event>
<event>
 5   0  0.3178149E-01  0.5008533E+03  0.7818609E-02  0.1013556E+00
       -2   -1    0    0    0  501  0.00000000000E+00  0.00000000000E+00  0.20443031906E+03  0.20443031908E+03  0.25500000920E-02 0.  1.
        2   -1    0    0  501    0  0.00000000000E+00  0.00000000000E+00 -0.30677200076E+03  0.30677200077E+03  0.25500000920E-02 0. -1.
    10030    2    1    2    0    0  0.00000000000E+00  0.00000000000E+00 -0.10234168170E+03  0.51120231985E+03  0.50085326395E+03 0.  0.
        3    1    3    3  502    0  0.21257257469E+02 -0.13036420278E+01 -0.30584599488E+03  0.30658661625E+03  0.10100000352E+00 0. -1.
       -3    1    3    3    0  502 -0.21257257469E+02  0.13036420278E+01  0.20350431318E+03  0.20461570361E+03  0.10100000352E+00 0.  1.
</event>
<event>
 5   0  0.3329246E-01  0.4992521E+03  0.7818609E-02  0.1013974E+00
       -2   -1    0    0    0  501  0.00000000000E+00  0.00000000000E+00  0.55283414241E+03  0.55283414242E+03  0.25500000920E-02 0. -1.
        2   -1    0    0  501    0  0.00000000000E+00  0.00000000000E+00 -0.11271584948E+03  0.11271584951E+03  0.25500000920E-02 0.  1.
    10030    2    1    2    0    0  0.00000000000E+00  0.00000000000E+00  0.44011829293E+03  0.66554999193E+03  0.49925212066E+03 0.  0.
        2    1    3    3  502    0 -0.20559483929E+03  0.38434747262E+02  0.38412179530E+02  0.21265456328E+03  0.25500000920E-02 0.  1.
       -2    1    3    3    0  502  0.20559483929E+03 -0.38434747262E+02  0.40170611340E+03  0.45289542865E+03  0.25500000920E-02 0. -1.
</event>
<event>
 5   0  0.3329246E-01  0.4977788E+03  0.7818609E-02  0.1014360E+00
       -2   -1    0    0    0  501  0.00000000000E+00  0.00000000000E+00  0.31498210497E+02  0.31498210600E+02  0.25500000920E-02 0. -1.
        2   -1    0    0  501    0  0.00000000000E+00  0.00000000000E+00 -0.19666493799E+04  0.19666493799E+04  0.25500000920E-02 0.  1.
    10030    2    1    2    0    0  0.00000000000E+00  0.00000000000E+00 -0.19351511694E+04  0.19981475905E+04  0.49777881131E+03 0.  0.
        2    1    3    3  502    0 -0.13012309473E+03 -0.98642550255E+01 -0.18183112835E+04  0.18229879997E+04  0.25500000920E-02 0.  1.
       -2    1    3    3    0  502  0.13012309473E+03  0.98642550255E+01 -0.11683988590E+03  0.17515959081E+03  0.25500000920E-02 0. -1.
</event>
<event>
 5   0  0.2000612E-01  0.4955195E+03  0.7818609E-02  0.1014955E+00
       -1   -1    0    0    0  501  0.00000000000E+00  0.00000000000E+00  0.38101040481E+03  0.38101040484E+03  0.50400001928E-02 0.  1.
        1   -1    0    0  501    0  0.00000000000E+00  0.00000000000E+00 -0.16111082825E+03  0.16111082832E+03  0.50400001928E-02 0. -1.
    10030    2    1    2    0    0  0.00000000000E+00  0.00000000000E+00  0.21989957656E+03  0.54212123317E+03  0.49551953309E+03 0.  0.
        2    1    3    3  502    0  0.66378273246E+02 -0.82063611517E+02 -0.13528350452E+03  0.17158711518E+03  0.25500000920E-02 0. -1.
       -2    1    3    3    0  502 -0.66378273246E+02  0.82063611517E+02  0.35518308109E+03  0.37053411799E+03  0.25500000920E-02 0.  1.
</event>
<event>
 5   0  0.1984680E-01  0.4894049E+03  0.7818609E-02  0.1016582E+00
       -1   -1    0    0    0  501  0.00000000000E+00  0.00000000000E+00  0.35460545197E+03  0.35460545201E+03  0.50400001928E-02 0.  1.
        1   -1    0    0  501    0  0.00000000000E+00  0.00000000000E+00 -0.16886174491E+03  0.16886174498E+03  0.50400001928E-02 0. -1.
    10030    2    1    2    0    0  0.00000000000E+00  0.00000000000E+00  0.18574370706E+03  0.52346719699E+03  0.48940492602E+03 0.  0.
        5    1    3    3  502    0 -0.68942471998E+02 -0.18272731729E+03 -0.64743941558E+02  0.20580623143E+03  0.46999998093E+01 0. -1.
       -5    1    3    3    0  502  0.68942471998E+02  0.18272731729E+03  0.25048764862E+03  0.31766096556E+03  0.46999998093E+01 0.  1.
</event>
<event>
 5   0  0.1292375E-01  0.3820439E+03  0.7818609E-02  0.1050181E+00
        3   -1    0    0  501    0  0.00000000000E+00  0.00000000000E+00  0.20240335712E+02  0.20240587708E+02  0.10100000352E+00 0. -1.
       -3   -1    0    0    0  501  0.00000000000E+00  0.00000000000E+00 -0.18027940774E+04  0.18027940802E+04  0.10100000352E+00 0.  1.
    10030    2    1    2    0    0  0.00000000000E+00  0.00000000000E+00 -0.17825537417E+04  0.18230346679E+04  0.38204392220E+03 0.  0.
        5    1    3    3  502    0 -0.13274369853E+03 -0.11119560888E+03 -0.12754565239E+04  0.12871661848E+04  0.46999998093E+01 0.  1.
       -5    1    3    3    0  502  0.13274369853E+03  0.11119560888E+03 -0.50709721778E+03  0.53586848313E+03  0.46999998093E+01 0. -1.
</event>
<event>
 5   0  0.3111146E-01  0.4673724E+03  0.7818609E-02  0.1022664E+00
       -2   -1    0    0    0  501  0.00000000000E+00  0.00000000000E+00  0.29475977953E+03  0.29475977954E+03  0.25500000920E-02 0. -1.
        2   -1    0    0  501    0  0.00000000000E+00  0.00000000000E+00 -0.18526694152E+03  0.18526694154E+03  0.25500000920E-02 0.  1.
    10030    2    1    2    0    0  0.00000000000E+00  0.00000000000E+00  0.10949283801E+03  0.48002672108E+03  0.46737241187E+03 0.  0.
        1    1    3    3  502    0  0.85222169762E+00  0.44553249573E+02 -0.18086281434E+03  0.18627151141E+03  0.50400001928E-02 0.  1.
       -1    1    3    3    0  502 -0.85222169762E+00 -0.44553249573E+02  0.29035565235E+03  0.29375520967E+03  0.50400001928E-02 0. -1.
</event>
<event>
 5   0  0.3178149E-01  0.5150366E+03  0.7818609E-02  0.1009927E+00
       -2   -1    0    0    0  501  0.00000000000E+00  0.00000000000E+00  0.34453338355E+02  0.34453338450E+02  0.25500000920E-02 0.  1.
        2   -1    0    0  501    0  0.00000000000E+00  0.00000000000E+00 -0.19247965542E+04  0.19247965542E+04  0.25500000920E-02 0. -1.
    10030    2    1    2    0    0  0.00000000000E+00  0.00000000000E+00 -0.18903432159E+04  0.19592498927E+04  0.51503656974E+03 0.  0.
        3    1    3    3  502    0 -0.24072142143E+03  0.53106764573E+02 -0.12285329262E+04  0.12530204675E+04  0.10100000352E+00 0. -1.
       -3    1    3    3    0  502  0.24072142143E+03 -0.53106764573E+02 -0.66181028970E+03  0.70622942514E+03  0.10100000352E+00 0.  1.
</event>
<event>
 5   0  0.1292375E-01  0.4971703E+03  0.7818609E-02  0.1014520E+00
        4   -1    0    0  501    0  0.00000000000E+00  0.00000000000E+00  0.46386910324E+02  0.46404292360E+02  0.12699999809E+01 0. -1.
       -4   -1    0    0    0  501  0.00000000000E+00  0.00000000000E+00 -0.13318883080E+04  0.13318889135E+04  0.12699999809E+01 0.  1.
    10030    2    1    2    0    0  0.00000000000E+00  0.00000000000E+00 -0.12855013977E+04  0.13782932059E+04  0.49717031073E+03 0.  0.
        4    1    3    3  502    0  0.18849818179E+03  0.76365427356E+01 -0.10915091537E+04  0.11076929750E+04  0.12699999809E+01 0.  1.
       -4    1    3    3    0  502 -0.18849818179E+03 -0.76365427356E+01 -0.19399224399E+03  0.27060023088E+03  0.12699999809E+01 0. -1.
</event>
<event>
 5   0  0.3178149E-01  0.5794080E+03  0.7818609E-02  0.9949074E-01
        2   -1    0    0  501    0  0.00000000000E+00  0.00000000000E+00  0.63826123422E+03  0.63826123422E+03  0.25500000920E-02 0.  1.
       -2   -1    0    0    0  501  0.00000000000E+00  0.00000000000E+00 -0.13149538737E+03  0.13149538739E+03  0.25500000920E-02 0. -1.
    10030    2    1    2    0    0  0.00000000000E+00  0.00000000000E+00  0.50676584685E+03  0.76975662162E+03  0.57940800218E+03 0.  0.
        3    1    3    3  502    0 -0.22576739637E+03  0.16805073232E+03  0.16214492693E+03  0.32481218178E+03  0.10100000352E+00 0. -1.
       -3    1    3    3    0  502  0.22576739637E+03 -0.16805073232E+03  0.34462091992E+03  0.44494443984E+03  0.10100000352E+00 0.  1.
</event>
<event>
 5   0  0.3329246E-01  0.4813846E+03  0.7818609E-02  0.1018755E+00
        2   -1    0    0  501    0  0.00000000000E+00  0.00000000000E+00  0.45772194675E+03  0.45772194676E+03  0.25500000920E-02 0.  1.
       -2   -1    0    0    0  501  0.00000000000E+00  0.00000000000E+00 -0.12656762930E+03  0.12656762932E+03  0.25500000920E-02 0. -1.
    10030    2    1    2    0    0  0.00000000000E+00  0.00000000000E+00  0.33115431745E+03  0.58428957608E+03  0.48138459339E+03 0.  0.
        2    1    3    3  502    0  0.17480884646E+03 -0.76474849165E+01 -0.35029717036E+02  0.17844802579E+03  0.25500000920E-02 0. -1.
       -2    1    3    3    0  502 -0.17480884646E+03  0.76474849165E+01  0.36618403449E+03  0.40584155030E+03  0.25500000920E-02 0.  1.
</event>
<event>
 5   0  0.3187123E-01  0.5352256E+03  0.7818609E-02  0.1004973E+00
        2   -1    0    0  501    0  0.00000000000E+00  0.00000000000E+00  0.31942932388E+03  0.31942932389E+03  0.25500000920E-02 0.  1.
       -2   -1    0    0    0  501  0.00000000000E+00  0.00000000000E+00 -0.22420170399E+03  0.22420170401E+03  0.25500000920E-02 0. -1.
    10030    2    1    2    0    0  0.00000000000E+00  0.00000000000E+00  0.95227619888E+02  0.54363102790E+03  0.53522555516E+03 0.  0.
        5    1    3    3  502    0 -0.22318240822E+03  0.11264032877E+03 -0.49258409663E+02  0.25484644774E+03  0.46999998093E+01 0. -1.
       -5    1    3    3    0  502  0.22318240822E+03 -0.11264032877E+03  0.14448602955E+03  0.28878458016E+03  0.46999998093E+01 0.  1.
</event>
<event>
 5   0  0.1984297E-01  0.3928383E+03  0.7818609E-02  0.1046288E+00
        1   -1    0    0  501    0  0.00000000000E+00  0.00000000000E+00  0.92323422759E+03  0.92323422760E+03  0.50400001928E-02 0.  1.
       -1   -1    0    0    0  501  0.00000000000E+00  0.00000000000E+00 -0.41788398133E+02  0.41788398437E+02  0.50400001928E-02 0. -1.
    10030    2    1    2    0    0  0.00000000000E+00  0.00000000000E+00  0.88144582945E+03  0.96502262604E+03  0.39283828543E+03 0.  0.
        3    1    3    3  502    0  0.12678647211E+03  0.51687599505E+02  0.94760107394E+02  0.16651097744E+03  0.10100000352E+00 0. -1.
       -3    1    3    3    0  502 -0.12678647211E+03 -0.51687599505E+02  0.78668572206E+03  0.79851164860E+03  0.10100000352E+00 0.  1.
</event>
<event>
 5   0  0.1984680E-01  0.5245909E+03  0.7818609E-02  0.1007552E+00
       -1   -1    0    0    0  501  0.00000000000E+00  0.00000000000E+00  0.13810462163E+03  0.13810462172E+03  0.50400001928E-02 0.  1.
        1   -1    0    0  501    0  0.00000000000E+00  0.00000000000E+00 -0.49816501077E+03  0.49816501080E+03  0.50400001928E-02 0. -1.
    10030    2    1    2    0    0  0.00000000000E+00  0.00000000000E+00 -0.36006038914E+03  0.63626963252E+03  0.52459085146E+03 0.  0.
        5    1    3    3  502    0  0.24375428236E+03  0.68352428668E+02 -0.26308062265E+03  0.36513245362E+03  0.46999998093E+01 0.  1.
       -5    1    3    3    0  502 -0.24375428236E+03 -0.68352428668E+02 -0.96979766492E+02  0.27113717890E+03  0.46999998093E+01 0. -1.
</event>
<event>
 5   0  0.3111146E-01  0.5007907E+03  0.7818609E-02  0.1013573E+00
        2   -1    0    0  501    0  0.00000000000E+00  0.00000000000E+00  0.12810653709E+03  0.12810653712E+03  0.25500000920E-02 0. -1.
       -2   -1    0    0    0  501  0.00000000000E+00  0.00000000000E+00 -0.48941950648E+03  0.48941950649E+03  0.25500000920E-02 0.  1.
    10030    2    1    2    0    0  0.00000000000E+00  0.00000000000E+00 -0.36131296939E+03  0.61752604360E+03  0.50079072743E+03 0.  0.
        1    1    3    3  502    0 -0.13057207782E+03  0.10515643683E+03  0.48683561321E+02  0.17457672491E+03  0.50400001928E-02 0. -1.
       -1    1    3    3    0  502  0.13057207782E+03 -0.10515643683E+03 -0.40999653071E+03  0.44294931869E+03  0.50400001928E-02 0.  1.
</event>
<event>
 5   0  0.2000612E-01  0.5114024E+03  0.7818609E-02  0.1010845E+00
        1   -1    0    0  501    0  0.00000000000E+00  0.00000000000E+00  0.80380398996E+03  0.80380398998E+03  0.50400001928E-02 0.  1.
       -1   -1    0    0    0  501  0.00000000000E+00  0.00000000000E+00 -0.81342101096E+02  0.81342101253E+02  0.50400001928E-02 0. -1.
    10030    2    1    2    0    0  0.00000000000E+00  0.00000000000E+00  0.72246188886E+03  0.88514609123E+03  0.51140240707E+03 0.  0.
        2    1    3    3  502    0 -0.18668494821E+03 -0.31523488168E+02  0.65870117162E+03  0.68537014357E+03  0.25500000920E-02 0.  1.
       -2    1    3    3    0  502  0.18668494821E+03  0.31523488168E+02  0.63760717247E+02  0.19977594766E+03  0.25500000920E-02 0. -1.
</event>
<event>
 5   0  0.3329246E-01  0.5005603E+03  0.7818609E-02  0.1013633E+00
       -2   -1    0    0    0  501  0.00000000000E+00  0.00000000000E+00  0.58972400704E+02  0.58972400759E+02  0.25500000920E-02 0. -1.
        2   -1    0    0  501    0  0.00000000000E+00  0.00000000000E+00 -0.10621946005E+04  0.10621946005E+04  0.25500000920E-02 0.  1.
    10030    2    1    2    0    0  0.00000000000E+00  0.00000000000E+00 -0.10032221998E+04  0.11211670013E+04  0.50056034856E+03 0.  0.
        2    1    3    3  502    0 -0.23912416470E+03 -0.72191461925E+02 -0.53689755465E+03  0.59215788225E+03  0.25500000920E-02 0.  1.
       -2    1    3    3    0  502  0.23912416470E+03  0.72191461925E+02 -0.46632464515E+03  0.52900911901E+03  0.25500000920E-02 0. -1.
</event>
<event>
 5   0  0.1967161E-01  0.5057253E+03  0.7818609E-02  0.1012295E+00
       -1   -1    0    0    0  501  0.00000000000E+00  0.00000000000E+00  0.27075279130E+03  0.27075279134E+03  0.50400001928E-02 0. -1.
        1   -1    0    0  501    0  0.00000000000E+00  0.00000000000E+00 -0.23615465005E+03  0.23615465010E+03  0.50400001928E-02 0.  1.
    10030    2    1    2    0    0  0.00000000000E+00  0.00000000000E+00  0.34598141252E+02  0.50690744145E+03  0.50572534326E+03 0.  0.
        1    1    3    3  502    0  0.94294617560E+01  0.17518198220E+03  0.19982878736E+03  0.26591198905E+03  0.50400001928E-02 0. -1.
       -1    1    3    3    0  502 -0.94294617560E+01 -0.17518198220E+03 -0.16523064611E+03  0.24099545240E+03  0.50400001928E-02 0.  1.
</event>
<event>
 5   0  0.3117389E-01  0.5636367E+03  0.7818609E-02  0.9983859E-01
       -2   -1    0    0    0  501  0.00000000000E+00  0.00000000000E+00  0.51092584259E+02  0.51092584323E+02  0.25500000920E-02 0.  1.
        2   -1    0    0  501    0  0.00000000000E+00  0.00000000000E+00 -0.15544638911E+04  0.15544638911E+04  0.25500000920E-02 0. -1.
    10030    2    1    2    0    0  0.00000000000E+00  0.00000000000E+00 -0.15033713068E+04  0.16055564754E+04  0.56363668222E+03 0.  0.
        4    1    3    3  502    0  0.10620629593E+03 -0.18701391291E+03 -0.23291813321E+03  0.31702752340E+03  0.12699999809E+01 0.  1.
       -4    1    3    3    0  502 -0.10620629593E+03  0.18701391291E+03 -0.12704531736E+04  0.12885289520E+04  0.12699999809E+01 0. -1.
</event>
<event>
 5   0  0.2013450E-01  0.4883947E+03  0.7818609E-02  0.1016853E+00
       -1   -1    0    0    0  501  0.00000000000E+00  0.00000000000E+00  0.82338667142E+02  0.82338667297E+02  0.50400001928E-02 0.  1.
        1   -1    0    0  501    0  0.00000000000E+00  0.00000000000E+00 -0.72423248477E+03  0.72423248479E+03  0.50400001928E-02 0. -1.
    10030    2    1    2    0    0  0.00000000000E+00  0.00000000000E+00 -0.64189381763E+03  0.80657115209E+03  0.48839466650E+03 0.  0.
        4    1    3    3  502    0  0.23804207503E+02 -0.66231995429E+02  0.65220597964E+02  0.95961746608E+02  0.12699999809E+01 0.  1.
       -4    1    3    3    0  502 -0.23804207503E+02  0.66231995429E+02 -0.70711441560E+03  0.71060940548E+03  0.12699999809E+01 0. -1.
</event>
<event>
 5   0  0.3187123E-01  0.4936430E+03  0.7818609E-02  0.1015452E+00
       -2   -1    0    0    0  501  0.00000000000E+00  0.00000000000E+00  0.95276814779E+02  0.95276814813E+02  0.25500000920E-02 0. -1.
        2   -1    0    0  501    0  0.00000000000E+00  0.00000000000E+00 -0.63940902069E+03  0.63940902069E+03  0.25500000920E-02 0.  1.
    10030    2    1    2    0    0  0.00000000000E+00  0.00000000000E+00 -0.54413220591E+03  0.73468583550E+03  0.49364300804E+03 0.  0.
        5    1    3    3  502    0 -0.45904458693E+02 -0.12325548845E+03 -0.58282965665E+03  0.59750450495E+03  0.46999998093E+01 0.  1.
       -5    1    3    3    0  502  0.45904458693E+02  0.12325548845E+03  0.38697450741E+02  0.13718133056E+03  0.46999998093E+01 0. -1.
</event>
<event>
 5   0  0.2000612E-01  0.5004003E+03  0.7818609E-02  0.1013674E+00
        1   -1    0    0  501    0  0.00000000000E+00  0.00000000000E+00  0.71185667072E+03  0.71185667073E+03  0.50400001928E-02 0.  1.
       -1   -1    0    0    0  501  0.00000000000E+00  0.00000000000E+00 -0.87939195747E+02  0.87939195891E+02  0.50400001928E-02 0. -1.
    10030    2    1    2    0    0  0.00000000000E+00  0.00000000000E+00  0.62391747497E+03  0.79979586663E+03  0.50040025250E+03 0.  0.
        2    1    3    3  502    0  0.13780430389E+03  0.10595068197E+03  0.24331219044E+02  0.17552088596E+03  0.25500000920E-02 0. -1.
       -2    1    3    3    0  502 -0.13780430389E+03 -0.10595068197E+03  0.59958625593E+03  0.62427498067E+03  0.25500000920E-02 0.  1.
</event>
<event>
 5   0  0.1984297E-01  0.4988371E+03  0.7818609E-02  0.1014083E+00
       -1   -1    0    0    0  501  0.00000000000E+00  0.00000000000E+00  0.20995103484E+03  0.20995103490E+03  0.50400001928E-02 0. -1.
        1   -1    0    0  501    0  0.00000000000E+00  0.00000000000E+00 -0.29630531147E+03  0.29630531151E+03  0.50400001928E-02 0.  1.
    10030    2    1    2    0    0  0.00000000000E+00  0.00000000000E+00 -0.86354276628E+02  0.50625634641E+03  0.49883707480E+03 0.  0.
        3    1    3    3  502    0 -0.24816726993E+02 -0.10560957101E+03 -0.27110676628E+03  0.29200708956E+03  0.10100000352E+00 0.  1.
       -3    1    3    3    0  502  0.24816726993E+02  0.10560957101E+03  0.18475248965E+03  0.21424925685E+03  0.10100000352E+00 0. -1.
</event>
<event>
 5   0  0.3111146E-01  0.4977818E+03  0.7818609E-02  0.1014360E+00
       -2   -1    0    0    0  501  0.00000000000E+00  0.00000000000E+00  0.67389701835E+02  0.67389701884E+02  0.25500000920E-02 0. -1.
        2   -1    0    0  501    0  0.00000000000E+00  0.00000000000E+00 -0.91923051559E+03  0.91923051560E+03  0.25500000920E-02 0.  1.
    10030    2    1    2    0    0  0.00000000000E+00  0.00000000000E+00 -0.85184081376E+03  0.98662021748E+03  0.49778176097E+03 0.  0.
        1    1    3    3  502    0  0.45796221928E+02  0.17056746363E+03 -0.78322797074E+02  0.19319682751E+03  0.50400001928E-02 0. -1.
       -1    1    3    3    0  502 -0.45796221928E+02 -0.17056746363E+03 -0.77351801668E+03  0.79342338997E+03  0.50400001928E-02 0.  1.
</event>
<event>
 5   0  0.1984297E-01  0.5339561E+03  0.7818609E-02  0.1005277E+00
        1   -1    0    0  501    0  0.00000000000E+00  0.00000000000E+00  0.13416192285E+04  0.13416192285E+04  0.50400001928E-02 0.  1.
       -1   -1    0    0    0  501  0.00000000000E+00  0.00000000000E+00 -0.53127810615E+02  0.53127810855E+02  0.50400001928E-02 0. -1.
    10030    2    1    2    0    0  0.00000000000E+00  0.00000000000E+00  0.12884914179E+04  0.13947470394E+04  0.53395614975E+03 0.  0.
        3    1    3    3  502    0 -0.15320193935E+03  0.20405483085E+03  0.84939246074E+03  0.88689163418E+03  0.10100000352E+00 0.  1.
       -3    1    3    3    0  502  0.15320193935E+03 -0.20405483085E+03  0.43909895716E+03  0.50785540520E+03  0.10100000352E+00 0. -1.
</event>
<event>
 5   0  0.3111146E-01  0.5135636E+03  0.7818609E-02  0.1010298E+00
        2   -1    0    0  501    0  0.00000000000E+00  0.00000000000E+00  0.14890790048E+04  0.14890790048E+04  0.25500000920E-02 0. -1.
       -2   -1    0    0    0  501  0.00000000000E+00  0.00000000000E+00 -0.44280315530E+02  0.44280315604E+02  0.25500000920E-02 0.  1.
    10030    2    1    2    0    0  0.00000000000E+00  0.00000000000E+00  0.14447986893E+04  0.15333593204E+04  0.51356358220E+03 0.  0.
        1    1    3    3  502    0  0.21947492535E+03 -0.10351765828E+03  0.97312446980E+03  0.10029239165E+04  0.50400001928E-02 0. -1.
       -1    1    3    3    0  502 -0.21947492535E+03  0.10351765828E+03  0.47167421946E+03  0.53043540395E+03  0.50400001928E-02 0.  1.
</event>
<event>
 5   0  0.1984297E-01  0.5130602E+03  0.7818609E-02  0.1010425E+00
        1   -1    0    0  501    0  0.00000000000E+00  0.00000000000E+00  0.16274063517E+04  0.16274063517E+04  0.50400001928E-02 0. -1.
       -1   -1    0    0    0  501  0.00000000000E+00  0.00000000000E+00 -0.40437168201E+02  0.40437168515E+02  0.50400001928E-02 0.  1.
    10030    2    1    2    0    0  0.00000000000E+00  0.00000000000E+00  0.15869691835E+04  0.16678435202E+04  0.51306024849E+03 0.  0.
        3    1    3    3  502    0 -0.14773231256E+03 -0.20691973082E+03  0.68242965830E+03  0.72825192063E+03  0.10100000352E+00 0.  1.
       -3    1    3    3    0  502  0.14773231256E+03  0.20691973082E+03  0.90453952522E+03  0.93959159961E+03  0.10100000352E+00 0. -1.
</event>
<event>
 5   0  0.1984680E-01  0.4950941E+03  0.7818609E-02  0.1015067E+00
       -1   -1    0    0    0  501  0.00000000000E+00  0.00000000000E+00  0.11394244927E+03  0.11394244938E+03  0.50400001928E-02 0.  1.
        1   -1    0    0  501    0  0.00000000000E+00  0.00000000000E+00 -0.53781124418E+03  0.53781124421E+03  0.50400001928E-02 0. -1.
    10030    2    1    2    0    0  0.00000000000E+00  0.00000000000E+00 -0.42386879492E+03  0.65175369358E+03  0.49509405349E+03 0.  0.
        5    1    3    3  502    0 -0.47466660929E+02  0.16758130510E+03  0.19549929848E+02  0.17533073739E+03  0.46999998093E+01 0.  1.
       -5    1    3    3    0  502  0.47466660929E+02 -0.16758130510E+03 -0.44341872476E+03  0.47642295619E+03  0.46999998093E+01 0. -1.
</event>
<event>
 5   0  0.3117389E-01  0.4953918E+03  0.7818609E-02  0.1014989E+00
        2   -1    0    0  501    0  0.00000000000E+00  0.00000000000E+00  0.13809773223E+04  0.13809773223E+04  0.25500000920E-02 0.  1.
       -2   -1    0    0    0  501  0.00000000000E+00  0.00000000000E+00 -0.44427420927E+02  0.44427421000E+02  0.25500000920E-02 0. -1.
    10030    2    1    2    0    0  0.00000000000E+00  0.00000000000E+00  0.13365499014E+04  0.14254047433E+04  0.49539180794E+03 0.  0.
        4    1    3    3  502    0  0.36081341582E+02  0.12862286987E+03  0.68119620268E+02  0.14995866573E+03  0.12699999809E+01 0. -1.
       -4    1    3    3    0  502 -0.36081341582E+02 -0.12862286987E+03  0.12684302811E+04  0.12754460776E+04  0.12699999809E+01 0.  1.
</event>
<event>
 5   0  0.3329246E-01  0.4918595E+03  0.7818609E-02  0.1015926E+00
       -2   -1    0    0    0  501  0.00000000000E+00  0.00000000000E+00  0.21715898274E+03  0.21715898276E+03  0.25500000920E-02 0. -1.
        2   -1    0    0  501    0  0.00000000000E+00  0.00000000000E+00 -0.27851226770E+03  0.27851226771E+03  0.25500000920E-02 0.  1.
    10030    2    1    2    0    0  0.00000000000E+00  0.00000000000E+00 -0.61353284960E+02  0.49567125047E+03  0.49185949515E+03 0.  0.
        2    1    3    3  502    0 -0.23332562851E+03  0.74007188648E+02 -0.54599351604E+02  0.25079673462E+03  0.25500000920E-02 0. -1.
       -2    1    3    3    0  502  0.23332562851E+03 -0.74007188648E+02 -0.67539333559E+01  0.24487451585E+03  0.25500000920E-02 0.  1.
</event>
<event>
 5   0  0.2013450E-01  0.4981427E+03  0.7818609E-02  0.1014265E+00
       -1   -1    0    0    0  501  0.00000000000E+00  0.00000000000E+00  0.39778565500E+03  0.39778565504E+03  0.50400001928E-02 0. -1.
        1   -1    0    0  501    0  0.00000000000E+00  0.00000000000E+00 -0.15595468468E+03  0.15595468476E+03  0.50400001928E-02 0.  1.
    10030    2    1    2    0    0  0.00000000000E+00  0.00000000000E+00  0.24183097032E+03  0.55374033980E+03  0.49814269613E+03 0.  0.
        4    1    3    3  502    0  0.24528757923E+03  0.31921715316E+02  0.88508080328E+02  0.26271712091E+03  0.12699999809E+01 0.  1.
       -4    1    3    3    0  502 -0.24528757923E+03 -0.31921715316E+02  0.15332289000E+03  0.29102321889E+03  0.12699999809E+01 0. -1.
</event>
<event>
 5   0  0.1292375E-01  0.4373712E+03  0.7818609E-02  0.1031556E+00
        3   -1    0    0  501    0  0.00000000000E+00  0.00000000000E+00  0.19913124087E+03  0.19913126648E+03  0.10100000352E+00 0.  1.
       -3   -1    0    0    0  501  0.00000000000E+00  0.00000000000E+00 -0.24016014854E+03  0.24016016978E+03  0.10100000352E+00 0. -1.
    10030    2    1    2    0    0  0.00000000000E+00  0.00000000000E+00 -0.41028907667E+02  0.43929143626E+03  0.43737123214E+03 0.  0.
        4    1    3    3  502    0  0.62755407765E+02  0.20731901955E+03 -0.50685789461E+02  0.22246365821E+03  0.12699999809E+01 0.  1.
       -4    1    3    3    0  502 -0.62755407765E+02 -0.20731901955E+03  0.96568817940E+01  0.21682777805E+03  0.12699999809E+01 0. -1.
</event>
<event>
 5   0  0.3187123E-01  0.4832699E+03  0.7818609E-02  0.1018240E+00
        2   -1    0    0  501    0  0.00000000000E+00  0.00000000000E+00  0.75801334059E+03  0.75801334059E+03  0.25500000920E-02 0.  1.
       -2   -1    0    0    0  501  0.00000000000E+00  0.00000000000E+00 -0.77026935975E+02  0.77026936018E+02  0.25500000920E-02 0. -1.
    10030    2    1    2    0    0  0.00000000000E+00  0.00000000000E+00  0.68098640461E+03  0.83504027661E+03  0.48326988349E+03 0.  0.
        5    1    3    3  502    0 -0.74338360109E+01  0.85518549048E+02 -0.49708001527E+02  0.99305888864E+02  0.46999998093E+01 0. -1.
       -5    1    3    3    0  502  0.74338360109E+01 -0.85518549048E+02  0.73069440614E+03  0.73573438774E+03  0.46999998093E+01 0.  1.
</event>
<event>
 5   0  0.2013450E-01  0.4975492E+03  0.7818609E-02  0.1014421E+00
       -1   -1    0    0    0  501  0.00000000000E+00  0.00000000000E+00  0.24544840993E+03  0.24544840998E+03  0.50400001928E-02 0. -1.
        1   -1    0    0  501    0  0.00000000000E+00  0.00000000000E+00 -0.25214587711E+03  0.25214587716E+03  0.50400001928E-02 0.  1.
    10030    2    1    2    0    0  0.00000000000E+00  0.00000000000E+00 -0.66974671794E+01  0.49759428714E+03  0.49754921216E+03 0.  0.
        4    1    3    3  502    0  0.38782045899E+02 -0.24329489960E+01  0.24239130289E+03  0.24548955771E+03  0.12699999809E+01 0. -1.
       -4    1    3    3    0  502 -0.38782045899E+02  0.24329489960E+01 -0.24908877007E+03  0.25210472943E+03  0.12699999809E+01 0.  1.
</event>
<event>
 5   0  0.3117389E-01  0.5032993E+03  0.7818609E-02  0.1012921E+00
        2   -1    0    0  501    0  0.00000000000E+00  0.00000000000E+00  0.98850499278E+03  0.98850499278E+03  0.25500000920E-02 0. -1.
       -2   -1    0    0    0  501  0.00000000000E+00  0.00000000000E+00 -0.64063963146E+02  0.64063963197E+02  0.25500000920E-02 0.  1.
    10030    2    1    2    0    0  0.00000000000E+00  0.00000000000E+00  0.92444102964E+03  0.10525689560E+04  0.50329930441E+03 0.  0.
        4    1    3    3  502    0  0.12283506850E+03  0.21601215678E+02  0.91931480150E+03  0.92773723851E+03  0.12699999809E+01 0. -1.
       -4    1    3    3    0  502 -0.12283506850E+03 -0.21601215678E+02  0.51262281392E+01  0.12483171747E+03  0.12699999809E+01 0.  1.
</event>
<event>
 5   0  0.2000612E-01  0.6208330E+03  0.7818609E-02  0.9863103E-01
        1   -1    0    0  501    0  0.00000000000E+00  0.00000000000E+00  0.86820917484E+03  0.86820917485E+03  0.50400001928E-02 0. -1.
       -1   -1    0    0    0  501  0.00000000000E+00  0.00000000000E+00 -0.11098522910E+03  0.11098522922E+03  0.50400001928E-02 0.  1.
    10030    2    1    2    0    0  0.00000000000E+00  0.00000000000E+00  0.75722394574E+03  0.97919440407E+03  0.62083297026E+03 0.  0.
        2    1    3    3  502    0  0.40996891773E+01 -0.22889333347E+03  0.70926367833E+03  0.74529452632E+03  0.25500000920E-02 0. -1.
       -2    1    3    3    0  502 -0.40996891773E+01  0.22889333347E+03  0.47960267410E+02  0.23389987775E+03  0.25500000920E-02 0.  1.
</event>
<event>
 5   0  0.2000612E-01  0.4955466E+03  0.7818609E-02  0.1014948E+00
        1   -1    0    0  501    0  0.00000000000E+00  0.00000000000E+00  0.19816769401E+03  0.19816769408E+03  0.50400001928E-02 0.  1.
       -1   -1    0    0    0  501  0.00000000000E+00  0.00000000000E+00 -0.30979620352E+03  0.30979620356E+03  0.50400001928E-02 0. -1.
    10030    2    1    2    0    0  0.00000000000E+00  0.00000000000E+00 -0.11162850951E+03  0.50796389764E+03  0.49554656408E+03 0.  0.
        2    1    3    3  502    0 -0.22876827487E+03  0.58069366867E+02 -0.13309997566E+03  0.27096600983E+03  0.25500000920E-02 0. -1.
       -2    1    3    3    0  502  0.22876827487E+03 -0.58069366867E+02  0.21471466156E+02  0.23699788780E+03  0.25500000920E-02 0.  1.
</event>
<event>
 5   0  0.3329246E-01  0.4902323E+03  0.7818609E-02  0.1016360E+00
        2   -1    0    0  501    0  0.00000000000E+00  0.00000000000E+00  0.86912387368E+03  0.86912387369E+03  0.25500000920E-02 0. -1.
       -2   -1    0    0    0  501  0.00000000000E+00  0.00000000000E+00 -0.69129305612E+02  0.69129305659E+02  0.25500000920E-02 0.  1.
    10030    2    1    2    0    0  0.00000000000E+00  0.00000000000E+00  0.79999456807E+03  0.93825317935E+03  0.49023231188E+03 0.  0.
        2    1    3    3  502    0  0.13665795294E+03 -0.42793818040E+02  0.78073841614E+03  0.79376267323E+03  0.25500000920E-02 0. -1.
       -2    1    3    3    0  502 -0.13665795294E+03  0.42793818040E+02  0.19256151934E+02  0.14449050612E+03  0.25500000920E-02 0.  1.
</event>
<event>
 5   0  0.1984680E-01  0.5078919E+03  0.7818609E-02  0.1011739E+00
       -1   -1    0    0    0  501  0.00000000000E+00  0.00000000000E+00  0.16900575730E+03  0.16900575737E+03  0.50400001928E-02 0.  1.
        1   -1    0    0  501    0  0.00000000000E+00  0.00000000000E+00 -0.38157598665E+03  0.38157598669E+03  0.50400001928E-02 0. -1.
    10030    2    1    2    0    0  0.00000000000E+00  0.00000000000E+00 -0.21257022936E+03  0.55058174406E+03  0.50789187282E+03 0.  0.
        5    1    3    3  502    0 -0.67069261133E+02 -0.20904239879E+03  0.31987706525E+02  0.22190609196E+03  0.46999998093E+01 0.  1.
       -5    1    3    3    0  502  0.67069261133E+02  0.20904239879E+03 -0.24455793588E+03  0.32867565210E+03  0.46999998093E+01 0. -1.
</event>
<event>
 5   0  0.2013450E-01  0.5992345E+03  0.7818609E-02  0.9906995E-01
       -1   -1    0    0    0  501  0.00000000000E+00  0.00000000000E+00  0.54332086480E+02  0.54332086714E+02  0.50400001928E-02 0.  1.
        1   -1    0    0  501    0  0.00000000000E+00  0.00000000000E+00 -0.16522558899E+04  0.16522558899E+04  0.50400001928E-02 0. -1.
    10030    2    1    2    0    0  0.00000000000E+00  0.00000000000E+00 -0.15979238034E+04  0.17065879767E+04  0.59923454541E+03 0.  0.
        4    1    3    3  502    0  0.27446016843E+03 -0.63648734740E+02 -0.50867591992E+03  0.58149148738E+03  0.12699999809E+01 0. -1.
       -4    1    3    3    0  502 -0.27446016843E+03  0.63648734740E+02 -0.10892478835E+04  0.11250964893E+04  0.12699999809E+01 0.  1.
</event>
<event>
 5   0  0.1984680E-01  0.5107724E+03  0.7818609E-02  0.1011005E+00
       -1   -1    0    0    0  501  0.00000000000E+00  0.00000000000E+00  0.91095911627E+02  0.91095911766E+02  0.50400001928E-02 0.  1.
        1   -1    0    0  501    0  0.00000000000E+00  0.00000000000E+00 -0.71597188654E+03  0.71597188656E+03  0.50400001928E-02 0. -1.
    10030    2    1    2    0    0  0.00000000000E+00  0.00000000000E+00 -0.62487597492E+03  0.80706779833E+03  0.51077240242E+03 0.  0.
        5    1    3    3  502    0 -0.14467698025E+03  0.23297811759E+02  0.17970734511E+02  0.14771341830E+03  0.46999998093E+01 0.  1.
       -5    1    3    3    0  502  0.14467698025E+03 -0.23297811759E+02 -0.64284670943E+03  0.65935438003E+03  0.46999998093E+01 0. -1.
</event>
<event>
 5   0  0.3329246E-01  0.4909130E+03  0.7818609E-02  0.1016178E+00
       -2   -1    0    0    0  501  0.00000000000E+00  0.00000000000E+00  0.88799394174E+02  0.88799394210E+02  0.25500000920E-02 0.  1.
        2   -1    0    0  501    0  0.00000000000E+00  0.00000000000E+00 -0.67848306024E+03  0.67848306024E+03  0.25500000920E-02 0. -1.
    10030    2    1    2    0    0  0.00000000000E+00  0.00000000000E+00 -0.58968366606E+03  0.76728245445E+03  0.49091296468E+03 0.  0.
        2    1    3    3  502    0 -0.13680375845E+03 -0.73610722680E+02  0.21845614846E+01  0.15536595230E+03  0.25500000920E-02 0.  1.
       -2    1    3    3    0  502  0.13680375845E+03  0.73610722680E+02 -0.59186822755E+03  0.61191650215E+03  0.25500000920E-02 0. -1.
</event>
<event>
 5   0  0.3329246E-01  0.4949239E+03  0.7818609E-02  0.1015112E+00
        2   -1    0    0  501    0  0.00000000000E+00  0.00000000000E+00  0.83636468611E+03  0.83636468611E+03  0.25500000920E-02 0.  1.
       -2   -1    0    0    0  501  0.00000000000E+00  0.00000000000E+00 -0.73218561101E+02  0.73218561146E+02  0.25500000920E-02 0. -1.
    10030    2    1    2    0    0  0.00000000000E+00  0.00000000000E+00  0.76314612501E+03  0.90958324726E+03  0.49492390888E+03 0.  0.
        2    1    3    3  502    0  0.11717486940E+03  0.21094538697E+03  0.48239431785E+03  0.53938129760E+03  0.25500000920E-02 0.  1.
       -2    1    3    3    0  502 -0.11717486940E+03 -0.21094538697E+03  0.28075180716E+03  0.37020194966E+03  0.25500000920E-02 0. -1.
</event>
<event>
 5   0  0.2013450E-01  0.4995626E+03  0.7818609E-02  0.1013893E+00
        1   -1    0    0  501    0  0.00000000000E+00  0.00000000000E+00  0.48268607410E+03  0.48268607413E+03  0.50400001928E-02 0. -1.
       -1   -1    0    0    0  501  0.00000000000E+00  0.00000000000E+00 -0.12925730733E+03  0.12925730742E+03  0.50400001928E-02 0.  1.
    10030    2    1    2    0    0  0.00000000000E+00  0.00000000000E+00  0.35342876678E+03  0.61194338155E+03  0.49956261774E+03 0.  0.
        4    1    3    3  502    0 -0.95582326625E+02 -0.18983393878E+03  0.33744172281E+03  0.39879999331E+03  0.12699999809E+01 0. -1.
       -4    1    3    3    0  502  0.95582326625E+02  0.18983393878E+03  0.15987043970E+02  0.21314338824E+03  0.12699999809E+01 0.  1.
</event>
<event>
 5   0  0.3178149E-01  0.4299720E+03  0.7818609E-02  0.1033869E+00
       -2   -1    0    0    0  501  0.00000000000E+00  0.00000000000E+00  0.13059877181E+03  0.13059877184E+03  0.25500000920E-02 0. -1.
        2   -1    0    0  501    0  0.00000000000E+00  0.00000000000E+00 -0.35390056672E+03  0.35390056673E+03  0.25500000920E-02 0.  1.
    10030    2    1    2    0    0  0.00000000000E+00  0.00000000000E+00 -0.22330179491E+03  0.48449933857E+03  0.42997199614E+03 0.  0.
        3    1    3    3  502    0  0.11940681988E+03 -0.17801775849E+03 -0.13018892862E+03  0.25079369670E+03  0.10100000352E+00 0.  1.
       -3    1    3    3    0  502 -0.11940681988E+03  0.17801775849E+03 -0.93112866292E+02  0.23370564187E+03  0.10100000352E+00 0. -1.
</event>
<event>
 5   0  0.3178149E-01  0.5325651E+03  0.7818609E-02  0.1005612E+00
       -2   -1    0    0    0  501  0.00000000000E+00  0.00000000000E+00  0.13203978987E+03  0.13203978989E+03  0.25500000920E-02 0. -1.
        2   -1    0    0  501    0  0.00000000000E+00  0.00000000000E+00 -0.53700772348E+03  0.53700772349E+03  0.25500000920E-02 0.  1.
    10030    2    1    2    0    0  0.00000000000E+00  0.00000000000E+00 -0.40496793361E+03  0.66904751338E+03  0.53256506448E+03 0.  0.
        3    1    3    3  502    0 -0.73149094570E+02 -0.94753790964E+02  0.96333113782E+02  0.15365269262E+03  0.10100000352E+00 0. -1.
       -3    1    3    3    0  502  0.73149094570E+02  0.94753790964E+02 -0.50130104740E+03  0.51539482075E+03  0.10100000352E+00 0.  1.
</event>
<event>
 5   0  0.3117389E-01  0.5190280E+03  0.7818609E-02  0.1008928E+00
        2   -1    0    0  501    0  0.00000000000E+00  0.00000000000E+00  0.42998851292E+03  0.42998851292E+03  0.25500000920E-02 0. -1.
       -2   -1    0    0    0  501  0.00000000000E+00  0.00000000000E+00 -0.15662629396E+03  0.15662629398E+03  0.25500000920E-02 0.  1.
    10030    2    1    2    0    0  0.00000000000E+00  0.00000000000E+00  0.27336221895E+03  0.58661480691E+03  0.51902796546E+03 0.  0.
        4    1    3    3  502    0  0.23419257828E+03  0.10023026375E+03  0.19266542105E+03  0.31939606582E+03  0.12699999809E+01 0. -1.
       -4    1    3    3    0  502 -0.23419257828E+03 -0.10023026375E+03  0.80696797905E+02  0.26721874108E+03  0.12699999809E+01 0.  1.
</event>
<event>
 5   0  0.2000612E-01  0.5027785E+03  0.7818609E-02  0.1013056E+00
       -1   -1    0    0    0  501  0.00000000000E+00  0.00000000000E+00  0.98129761327E+02  0.98129761456E+02  0.50400001928E-02 0.  1.
        1   -1    0    0  501    0  0.00000000000E+00  0.00000000000E+00 -0.64400997834E+03  0.64400997836E+03  0.50400001928E-02 0. -1.
    10030    2    1    2    0    0  0.00000000000E+00  0.00000000000E+00 -0.54588021702E+03  0.74213973982E+03  0.50277846224E+03 0.  0.
        2    1    3    3  502    0 -0.23428674311E+03 -0.35785742190E+02 -0.14921660170E+03  0.28006515594E+03  0.25500000920E-02 0.  1.
       -2    1    3    3    0  502  0.23428674311E+03  0.35785742190E+02 -0.39666361532E+03  0.46207458388E+03  0.25500000920E-02 0. -1.
</event>
<event>
 5   0  0.2013450E-01  0.4967758E+03  0.7818609E-02  0.1014624E+00
        1   -1    0    0  501    0  0.00000000000E+00  0.00000000000E+00  0.68229392933E+02  0.68229393119E+02  0.50400001928E-02 0. -1.
       -1   -1    0    0    0  501  0.00000000000E+00  0.00000000000E+00 -0.90425176930E+03  0.90425176931E+03  0.50400001928E-02 0.  1.
    10030    2    1    2    0    0  0.00000000000E+00  0.00000000000E+00 -0.83602237636E+03  0.97248116243E+03  0.49677580205E+03 0.  0.
        4    1    3    3  502    0  0.15754041752E+03  0.42137859995E+02 -0.51255791495E+02  0.17094838829E+03  0.12699999809E+01 0. -1.
       -4    1    3    3    0  502 -0.15754041752E+03 -0.42137859995E+02 -0.78476658487E+03  0.80153277414E+03  0.12699999809E+01 0.  1.
</event>
<event>
 5   0  0.3187123E-01  0.4915331E+03  0.7818609E-02  0.1016013E+00
       -2   -1    0    0    0  501  0.00000000000E+00  0.00000000000E+00  0.44837864902E+03  0.44837864903E+03  0.25500000920E-02 0. -1.
        2   -1    0    0  501    0  0.00000000000E+00  0.00000000000E+00 -0.13471022166E+03  0.13471022169E+03  0.25500000920E-02 0.  1.
    10030    2    1    2    0    0  0.00000000000E+00  0.00000000000E+00  0.31366842736E+03  0.58308887071E+03  0.49153305975E+03 0.  0.
        5    1    3    3  502    0 -0.11148981747E+03  0.14610818340E+03  0.35031382993E+03  0.39562539111E+03  0.46999998093E+01 0. -1.
       -5    1    3    3    0  502  0.11148981747E+03 -0.14610818340E+03 -0.36645402572E+02  0.18746347960E+03  0.46999998093E+01 0.  1.
</event>
<event>
 5   0  0.2013450E-01  0.3705120E+03  0.7818609E-02  0.1054497E+00
       -1   -1    0    0    0  501  0.00000000000E+00  0.00000000000E+00  0.12342959320E+03  0.12342959330E+03  0.50400001928E-02 0.  1.
        1   -1    0    0  501    0  0.00000000000E+00  0.00000000000E+00 -0.27805152164E+03  0.27805152169E+03  0.50400001928E-02 0. -1.
    10030    2    1    2    0    0  0.00000000000E+00  0.00000000000E+00 -0.15462192845E+03  0.40148111499E+03  0.37051200377E+03 0.  0.
        4    1    3    3  502    0  0.40336170233E+02  0.17593803131E+03 -0.12247156681E+03  0.21813320487E+03  0.12699999809E+01 0.  1.
       -4    1    3    3    0  502 -0.40336170233E+02 -0.17593803131E+03 -0.32150361634E+02  0.18334791012E+03  0.12699999809E+01 0. -1.
</event>
<event>
 5   0  0.3178149E-01  0.4942408E+03  0.7818609E-02  0.1015293E+00
       -2   -1    0    0    0  501  0.00000000000E+00  0.00000000000E+00  0.47994191324E+02  0.47994191392E+02  0.25500000920E-02 0.  1.
        2   -1    0    0  501    0  0.00000000000E+00  0.00000000000E+00 -0.12724142289E+04  0.12724142289E+04  0.25500000920E-02 0. -1.
    10030    2    1    2    0    0  0.00000000000E+00  0.00000000000E+00 -0.12244200376E+04  0.13204084203E+04  0.49424079958E+03 0.  0.
        3    1    3    3  502    0  0.21903924591E+03 -0.11202653645E+03 -0.67431201070E+03  0.71779163696E+03  0.10100000352E+00 0.  1.
       -3    1    3    3    0  502 -0.21903924591E+03  0.11202653645E+03 -0.55010802689E+03  0.60261678335E+03  0.10100000352E+00 0. -1.
</event>
<event>
 5   0  0.3178149E-01  0.4976540E+03  0.7818609E-02  0.1014393E+00
       -2   -1    0    0    0  501  0.00000000000E+00  0.00000000000E+00  0.11817391515E+03  0.11817391518E+03  0.25500000920E-02 0.  1.
        2   -1    0    0  501    0  0.00000000000E+00  0.00000000000E+00 -0.52393021831E+03  0.52393021831E+03  0.25500000920E-02 0. -1.
    10030    2    1    2    0    0  0.00000000000E+00  0.00000000000E+00 -0.40575630316E+03  0.64210413349E+03  0.49765403715E+03 0.  0.
        3    1    3    3  502    0  0.23522430033E+02 -0.13113079546E+03 -0.47403674229E+03  0.49240169930E+03  0.10100000352E+00 0. -1.
       -3    1    3    3    0  502 -0.23522430033E+02  0.13113079546E+03  0.68280439134E+02  0.14970243419E+03  0.10100000352E+00 0.  1.
</event>
<event>
 5   0  0.2013450E-01  0.5161848E+03  0.7818609E-02  0.1009639E+00
        1   -1    0    0  501    0  0.00000000000E+00  0.00000000000E+00  0.42307646888E+03  0.42307646891E+03  0.50400001928E-02 0.  1.
       -1   -1    0    0    0  501  0.00000000000E+00  0.00000000000E+00 -0.15744596018E+03  0.15744596027E+03  0.50400001928E-02 0. -1.
    10030    2    1    2    0    0  0.00000000000E+00  0.00000000000E+00  0.26563050869E+03  0.58052242917E+03  0.51618477663E+03 0.  0.
        4    1    3    3  502    0  0.10945585421E+03  0.19723901805E+03 -0.82195989474E+01  0.22572768764E+03  0.12699999809E+01 0. -1.
       -4    1    3    3    0  502 -0.10945585421E+03 -0.19723901805E+03  0.27385010764E+03  0.35479474153E+03  0.12699999809E+01 0.  1.
</event>
<event>
 5   0  0.1984297E-01  0.4854659E+03  0.7818609E-02  0.1017644E+00
        1   -1    0    0  501    0  0.00000000000E+00  0.00000000000E+00  0.64728139745E+03  0.64728139747E+03  0.50400001928E-02 0. -1.
       -1   -1    0    0    0  501  0.00000000000E+00  0.00000000000E+00 -0.91025767645E+02  0.91025767785E+02  0.50400001928E-02 0.  1.
    10030    2    1    2    0    0  0.00000000000E+00  0.00000000000E+00  0.55625562981E+03  0.73830716526E+03  0.48546590465E+03 0.  0.
        3    1    3    3  502    0  0.86430472941E+02 -0.11570698171E+02  0.62263733527E+03  0.62871405995E+03  0.10100000352E+00 0. -1.
       -3    1    3    3    0  502 -0.86430472941E+02  0.11570698171E+02 -0.66381705463E+02  0.10959310530E+03  0.10100000352E+00 0.  1.
</event>
<event>
 5   0  0.2013450E-01  0.4976413E+03  0.7818609E-02  0.1014396E+00
       -1   -1    0    0    0  501  0.00000000000E+00  0.00000000000E+00  0.84859852956E+02  0.84859853106E+02  0.50400001928E-02 0.  1.
        1   -1    0    0  501    0  0.00000000000E+00  0.00000000000E+00 -0.72957592740E+03  0.72957592741E+03  0.50400001928E-02 0. -1.
    10030    2    1    2    0    0  0.00000000000E+00  0.00000000000E+00 -0.64471607444E+03  0.81443578052E+03  0.49764126030E+03 0.  0.
        4    1    3    3  502    0 -0.18740490095E+03 -0.12549362115E+03 -0.15039240352E+03  0.27108805541E+03  0.12699999809E+01 0.  1.
       -4    1    3    3    0  502  0.18740490095E+03  0.12549362115E+03 -0.49432367092E+03  0.54334772511E+03  0.12699999809E+01 0. -1.
</event>
<event>
 5   0  0.3187123E-01  0.4977871E+03  0.7818609E-02  0.1014358E+00
        2   -1    0    0  501    0  0.00000000000E+00  0.00000000000E+00  0.95348315247E+03  0.95348315248E+03  0.25500000920E-02 0. -1.
       -2   -1    0    0    0  501  0.00000000000E+00  0.00000000000E+00 -0.64970209565E+02  0.64970209615E+02  0.25500000920E-02 0.  1.
    10030    2    1    2    0    0  0.00000000000E+00  0.00000000000E+00  0.88851294291E+03  0.10184533621E+04  0.49778710413E+03 0.  0.
        5    1    3    3  502    0 -0.13280070352E+03 -0.14007987140E+03  0.12291987606E+03  0.22888814551E+03  0.46999998093E+01 0.  1.
       -5    1    3    3    0  502  0.13280070352E+03  0.14007987140E+03  0.76559306685E+03  0.78956521658E+03  0.46999998093E+01 0. -1.
</event>
<event>
 5   0  0.2013450E-01  0.4687805E+03  0.7818609E-02  0.1022265E+00
        1   -1    0    0  501    0  0.00000000000E+00  0.00000000000E+00  0.15181308113E+04  0.15181308113E+04  0.50400001928E-02 0.  1.
       -1   -1    0    0    0  501  0.00000000000E+00  0.00000000000E+00 -0.36188442089E+02  0.36188442440E+02  0.50400001928E-02 0. -1.
    10030    2    1    2    0    0  0.00000000000E+00  0.00000000000E+00  0.14819423692E+04  0.15543192538E+04  0.46878049972E+03 0.  0.
        4    1    3    3  502    0 -0.13454930567E+03 -0.15853988243E+03  0.38234605124E+03  0.43523387480E+03  0.12699999809E+01 0. -1.
       -4    1    3    3    0  502  0.13454930567E+03  0.15853988243E+03  0.10995963180E+04  0.11190853790E+04  0.12699999809E+01 0.  1.
</event>
<event>
 5   0  0.1292375E-01  0.4797101E+03  0.7818609E-02  0.1019215E+00
       -3   -1    0    0    0  501  0.00000000000E+00  0.00000000000E+00  0.40544182066E+03  0.40544183324E+03  0.10100000352E+00 0. -1.
        3   -1    0    0  501    0  0.00000000000E+00  0.00000000000E+00 -0.14189566504E+03  0.14189570098E+03  0.10100000352E+00 0.  1.
    10030    2    1    2    0    0  0.00000000000E+00  0.00000000000E+00  0.26354615562E+03  0.54733753422E+03  0.47971012103E+03 0.  0.
        2    1    3    3  502    0 -0.19317704859E+03  0.14196137956E+03  0.12293183026E+03  0.26941165581E+03  0.25500000920E-02 0. -1.
       -2    1    3    3    0  502  0.19317704859E+03 -0.14196137956E+03  0.14061432536E+03  0.27792587841E+03  0.25500000920E-02 0.  1.
</event>
<event>
 5   0  0.2000612E-01  0.5008160E+03  0.7818609E-02  0.1013566E+00
       -1   -1    0    0    0  501  0.00000000000E+00  0.00000000000E+00  0.97862753349E+02  0.97862753479E+02  0.50400001928E-02 0.  1.
        1   -1    0    0  501    0  0.00000000000E+00  0.00000000000E+00 -0.64073573720E+03  0.64073573722E+03  0.50400001928E-02 0. -1.
    10030    2    1    2    0    0  0.00000000000E+00  0.00000000000E+00 -0.54287298385E+03  0.73859849069E+03  0.50081598803E+03 0.  0.
        2    1    3    3  502    0  0.89770622627E+02  0.21713198641E+03 -0.14372358748E+03  0.27542972573E+03  0.25500000920E-02 0.  1.
       -2    1    3    3    0  502 -0.89770622627E+02 -0.21713198641E+03 -0.39914939637E+03  0.46316876497E+03  0.25500000920E-02 0. -1.
</event>
<event>
 5   0  0.1984680E-01  0.4926301E+03  0.7818609E-02  0.1015721E+00
        1   -1    0    0  501    0  0.00000000000E+00  0.00000000000E+00  0.59208555900E+03  0.59208555903E+03  0.50400001928E-02 0. -1.
       -1   -1    0    0    0  501  0.00000000000E+00  0.00000000000E+00 -0.10247016636E+03  0.10247016649E+03  0.50400001928E-02 0.  1.
    10030    2    1    2    0    0  0.00000000000E+00  0.00000000000E+00  0.48961539264E+03  0.69455572551E+03  0.49263010782E+03 0.  0.
        5    1    3    3  502    0  0.96881701081E+02 -0.65300292859E+02  0.55046138290E+03  0.56274329522E+03  0.46999998093E+01 0. -1.
       -5    1    3    3    0  502 -0.96881701081E+02  0.65300292859E+02 -0.60845990256E+02  0.13181243029E+03  0.46999998093E+01 0.  1.
</event>
<event>
 5   0  0.3329246E-01  0.4920946E+03  0.7818609E-02  0.1015863E+00
        2   -1    0    0  501    0  0.00000000000E+00  0.00000000000E+00  0.13346462693E+04  0.13346462693E+04  0.25500000920E-02 0.  1.
       -2   -1    0    0    0  501  0.00000000000E+00  0.00000000000E+00 -0.45359783799E+02  0.45359783870E+02  0.25500000920E-02 0. -1.
    10030    2    1    2    0    0  0.00000000000E+00  0.00000000000E+00  0.12892864855E+04  0.13800060532E+04  0.49209456927E+03 0.  0.
        2    1    3    3  502    0 -0.12288248190E+03 -0.93411968269E+02  0.10730899521E+03  0.18799234195E+03  0.25500000920E-02 0. -1.
       -2    1    3    3    0  502  0.12288248190E+03  0.93411968269E+02  0.11819774903E+04  0.11920137112E+04  0.25500000920E-02 0.  1.
</event>
<event>
 5   0  0.3117389E-01  0.4811046E+03  0.7818609E-02  0.1018832E+00
        2   -1    0    0  501    0  0.00000000000E+00  0.00000000000E+00  0.68019927732E+03  0.68019927733E+03  0.25500000920E-02 0. -1.
       -2   -1    0    0    0  501  0.00000000000E+00  0.00000000000E+00 -0.85071256043E+02  0.85071256081E+02  0.25500000920E-02 0.  1.
    10030    2    1    2    0    0  0.00000000000E+00  0.00000000000E+00  0.59512802128E+03  0.76527053341E+03  0.48110459111E+03 0.  0.
        4    1    3    3  502    0  0.15875421087E+02  0.10951959298E+03  0.63729871686E+03  0.64683679368E+03  0.12699999809E+01 0. -1.
       -4    1    3    3    0  502 -0.15875421087E+02 -0.10951959298E+03 -0.42170695578E+02  0.11843373973E+03  0.12699999809E+01 0.  1.
</event>
<event>
 5   0  0.3178149E-01  0.5041792E+03  0.7818609E-02  0.1012694E+00
       -2   -1    0    0    0  501  0.00000000000E+00  0.00000000000E+00  0.16690815331E+03  0.16690815333E+03  0.25500000920E-02 0. -1.
        2   -1    0    0  501    0  0.00000000000E+00  0.00000000000E+00 -0.38074334680E+03  0.38074334681E+03  0.25500000920E-02 0.  1.
    10030    2    1    2    0    0  0.00000000000E+00  0.00000000000E+00 -0.21383519349E+03  0.54765150014E+03  0.50417920984E+03 0.  0.
        3    1    3    3  502    0 -0.48483169715E+02  0.35940818869E+02  0.15894509888E+03  0.17001739577E+03  0.10100000352E+00 0. -1.
       -3    1    3    3    0  502  0.48483169715E+02 -0.35940818869E+02 -0.37278029236E+03  0.37763410437E+03  0.10100000352E+00 0.  1.
</event>
<event>
 5   0  0.2013450E-01  0.4931009E+03  0.7818609E-02  0.1015596E+00
        1   -1    0    0  501    0  0.00000000000E+00  0.00000000000E+00  0.23744664482E+03  0.23744664488E+03  0.50400001928E-02 0. -1.
       -1   -1    0    0    0  501  0.00000000000E+00  0.00000000000E+00 -0.25600327817E+03  0.25600327822E+03  0.50400001928E-02 0.  1.
    10030    2    1    2    0    0  0.00000000000E+00  0.00000000000E+00 -0.18556633349E+02  0.49344992310E+03  0.49310088011E+03 0.  0.
        4    1    3    3  502    0 -0.60749456044E+02 -0.14904950774E+03  0.17761376630E+03  0.23969671472E+03  0.12699999809E+01 0. -1.
       -4    1    3    3    0  502  0.60749456044E+02  0.14904950774E+03 -0.19617039965E+03  0.25375320838E+03  0.12699999809E+01 0.  1.
</event>
<event>
 5   0  0.1984297E-01  0.5192482E+03  0.7818609E-02  0.1008873E+00
        1   -1    0    0  501    0  0.00000000000E+00  0.00000000000E+00  0.45495925957E+03  0.45495925960E+03  0.50400001928E-02 0.  1.
       -1   -1    0    0    0  501  0.00000000000E+00  0.00000000000E+00 -0.14815541726E+03  0.14815541735E+03  0.50400001928E-02 0. -1.
    10030    2    1    2    0    0  0.00000000000E+00  0.00000000000E+00  0.30680384231E+03  0.60311467695E+03  0.51924822185E+03 0.  0.
        3    1    3    3  502    0 -0.12645389283E+03  0.70612704701E+02  0.40367522629E+03  0.42887112237E+03  0.10100000352E+00 0.  1.
       -3    1    3    3    0  502  0.12645389283E+03 -0.70612704701E+02 -0.96871383983E+02  0.17424355458E+03  0.10100000352E+00 0. -1.
</event>
<event>
 5   0  0.1984680E-01  0.4405048E+03  0.7818609E-02  0.1030592E+00
       -1   -1    0    0    0  501  0.00000000000E+00  0.00000000000E+00  0.46993164562E+03  0.46993164564E+03  0.50400001928E-02 0. -1.
        1   -1    0    0  501    0  0.00000000000E+00  0.00000000000E+00 -0.10323016025E+03  0.10323016037E+03  0.50400001928E-02 0.  1.
    10030    2    1    2    0    0  0.00000000000E+00  0.00000000000E+00  0.36670148537E+03  0.57316180602E+03  0.44050479737E+03 0.  0.
        5    1    3    3  502    0  0.75994089678E+02 -0.15817633315E+03  0.35642869970E+03  0.39731393381E+03  0.46999998093E+01 0. -1.
       -5    1    3    3    0  502 -0.75994089678E+02  0.15817633315E+03  0.10272785667E+02  0.17584787220E+03  0.46999998093E+01 0.  1.
</event>
<event>
 5   0  0.1984680E-01  0.4513842E+03  0.7818609E-02  0.1027310E+00
        1   -1    0    0  501    0  0.00000000000E+00  0.00000000000E+00  0.29262706260E+03  0.29262706264E+03  0.50400001928E-02 0.  1.
       -1   -1    0    0    0  501  0.00000000000E+00  0.00000000000E+00 -0.17406774599E+03  0.17406774607E+03  0.50400001928E-02 0. -1.
    10030    2    1    2    0    0  0.00000000000E+00  0.00000000000E+00  0.11855931661E+03  0.46669480871E+03  0.45138424089E+03 0.  0.
        5    1    3    3  502    0 -0.94294017667E+02  0.12493530155E+03 -0.10875892959E+03  0.19065882121E+03  0.46999998093E+01 0. -1.
       -5    1    3    3    0  502  0.94294017667E+02 -0.12493530155E+03  0.22731824620E+03  0.27603598750E+03  0.46999998093E+01 0.  1.
</event>
<event>
 5   0  0.3329246E-01  0.4896488E+03  0.7818609E-02  0.1016517E+00
       -2   -1    0    0    0  501  0.00000000000E+00  0.00000000000E+00  0.10638414919E+03  0.10638414922E+03  0.25500000920E-02 0.  1.
        2   -1    0    0  501    0  0.00000000000E+00  0.00000000000E+00 -0.56342019016E+03  0.56342019017E+03  0.25500000920E-02 0. -1.
    10030    2    1    2    0    0  0.00000000000E+00  0.00000000000E+00 -0.45703604097E+03  0.66980433938E+03  0.48964876218E+03 0.  0.
        2    1    3    3  502    0  0.82817465348E+02  0.12723429799E+03 -0.49125881145E+03  0.51418140669E+03  0.25500000920E-02 0. -1.
       -2    1    3    3    0  502 -0.82817465348E+02 -0.12723429799E+03  0.34222770480E+02  0.15562293269E+03  0.25500000920E-02 0.  1.
</event>
<event>
 5   0  0.3329246E-01  0.4973192E+03  0.7818609E-02  0.1014481E+00
        2   -1    0    0  501    0  0.00000000000E+00  0.00000000000E+00  0.78066998718E+02  0.78066998760E+02  0.25500000920E-02 0. -1.
       -2   -1    0    0    0  501  0.00000000000E+00  0.00000000000E+00 -0.79203261068E+03  0.79203261068E+03  0.25500000920E-02 0.  1.
    10030    2    1    2    0    0  0.00000000000E+00  0.00000000000E+00 -0.71396561196E+03  0.87009960944E+03  0.49731924886E+03 0.  0.
        2    1    3    3  502    0  0.71252032129E+02  0.10157286583E+03  0.20041284229E+02  0.12568035740E+03  0.25500000920E-02 0. -1.
       -2    1    3    3    0  502 -0.71252032129E+02 -0.10157286583E+03 -0.73400689619E+03  0.74441925204E+03  0.25500000920E-02 0.  1.
</event>
<event>
 5   0  0.1967161E-01  0.4991645E+03  0.7818609E-02  0.1013997E+00
       -1   -1    0    0    0  501  0.00000000000E+00  0.00000000000E+00  0.40636590962E+03  0.40636590965E+03  0.50400001928E-02 0. -1.
        1   -1    0    0  501    0  0.00000000000E+00  0.00000000000E+00 -0.15328870201E+03  0.15328870209E+03  0.50400001928E-02 0.  1.
    10030    2    1    2    0    0  0.00000000000E+00  0.00000000000E+00  0.25307720761E+03  0.55965461174E+03  0.49916451340E+03 0.  0.
        1    1    3    3  502    0 -0.19569074445E+03 -0.15439398608E+03  0.11240403232E+03  0.27343561749E+03  0.50400001928E-02 0. -1.
       -1    1    3    3    0  502  0.19569074445E+03  0.15439398608E+03  0.14067317528E+03  0.28621899426E+03  0.50400001928E-02 0.  1.
</event>
<event>
 5   0  0.2013450E-01  0.5034096E+03  0.7818609E-02  0.1012893E+00
        1   -1    0    0  501    0  0.00000000000E+00  0.00000000000E+00  0.32986401730E+03  0.32986401734E+03  0.50400001928E-02 0.  1.
       -1   -1    0    0    0  501  0.00000000000E+00  0.00000000000E+00 -0.19206494728E+03  0.19206494735E+03  0.50400001928E-02 0. -1.
    10030    2    1    2    0    0  0.00000000000E+00  0.00000000000E+00  0.13779907002E+03  0.52192896468E+03  0.50340963487E+03 0.  0.
        4    1    3    3  502    0  0.21185068518E+03  0.57210051367E+01  0.20969004751E+03  0.29813582749E+03  0.12699999809E+01 0.  1.
       -4    1    3    3    0  502 -0.21185068518E+03 -0.57210051367E+01 -0.71890977487E+02  0.22379313719E+03  0.12699999809E+01 0. -1.
</event>
<event>
 5   0  0.3111146E-01  0.4948919E+03  0.7818609E-02  0.1015121E+00
       -2   -1    0    0    0  501  0.00000000000E+00  0.00000000000E+00  0.40401979814E+02  0.40401979895E+02  0.25500000920E-02 0.  1.
        2   -1    0    0  501    0  0.00000000000E+00  0.00000000000E+00 -0.15155072806E+04  0.15155072806E+04  0.25500000920E-02 0. -1.
    10030    2    1    2    0    0  0.00000000000E+00  0.00000000000E+00 -0.14751053008E+04  0.15559092605E+04  0.49489188566E+03 0.  0.
        1    1    3    3  502    0 -0.21091860446E+03  0.10397195568E+03 -0.49539454863E+03  0.54837266901E+03  0.50400001928E-02 0.  1.
       -1    1    3    3    0  502  0.21091860446E+03 -0.10397195568E+03 -0.97971075215E+03  0.10075365915E+04  0.50400001928E-02 0. -1.
</event>
<event>
 5   0  0.3187123E-01  0.5329703E+03  0.7818609E-02  0.1005514E+00
       -2   -1    0    0    0  501  0.00000000000E+00  0.00000000000E+00  0.12857811367E+03  0.12857811370E+03  0.25500000920E-02 0. -1.
        2   -1    0    0  501    0  0.00000000000E+00  0.00000000000E+00 -0.55230493838E+03  0.55230493839E+03  0.25500000920E-02 0.  1.
    10030    2    1    2    0    0  0.00000000000E+00  0.00000000000E+00 -0.42372682471E+03  0.68088305209E+03  0.53297026994E+03 0.  0.
        5    1    3    3  502    0  0.25540236881E+03 -0.41788740484E+02 -0.13090852909E+03  0.29006172070E+03  0.46999998093E+01 0. -1.
       -5    1    3    3    0  502 -0.25540236881E+03  0.41788740484E+02 -0.29281829562E+03  0.39082133139E+03  0.46999998093E+01 0.  1.
</event>
<event>
 5   0  0.2000612E-01  0.4962467E+03  0.7818609E-02  0.1014763E+00
        1   -1    0    0  501    0  0.00000000000E+00  0.00000000000E+00  0.13481610916E+04  0.13481610916E+04  0.50400001928E-02 0.  1.
       -1   -1    0    0    0  501  0.00000000000E+00  0.00000000000E+00 -0.45666051775E+02  0.45666052053E+02  0.50400001928E-02 0. -1.
    10030    2    1    2    0    0  0.00000000000E+00  0.00000000000E+00  0.13024950398E+04  0.13938271436E+04  0.49624669030E+03 0.  0.
        2    1    3    3  502    0  0.20795631637E+03 -0.13450092822E+03  0.69373893251E+03  0.73662068644E+03  0.25500000920E-02 0.  1.
       -2    1    3    3    0  502 -0.20795631637E+03  0.13450092822E+03  0.60875610730E+03  0.65720645721E+03  0.25500000920E-02 0. -1.
</event>
<event>
 5   0  0.2000612E-01  0.5009612E+03  0.7818609E-02  0.1013528E+00
       -1   -1    0    0    0  501  0.00000000000E+00  0.00000000000E+00  0.76529517271E+02  0.76529517437E+02  0.50400001928E-02 0.  1.
        1   -1    0    0  501    0  0.00000000000E+00  0.00000000000E+00 -0.81982132442E+03  0.81982132444E+03  0.50400001928E-02 0. -1.
    10030    2    1    2    0    0  0.00000000000E+00  0.00000000000E+00 -0.74329180715E+03  0.89635084188E+03  0.50096119725E+03 0.  0.
        2    1    3    3  502    0  0.91502737089E+02 -0.93408938305E+02  0.10614127491E+02  0.13118933020E+03  0.25500000920E-02 0.  1.
       -2    1    3    3    0  502 -0.91502737089E+02  0.93408938305E+02 -0.75390593464E+03  0.76516151167E+03  0.25500000920E-02 0. -1.
</event>
<event>
 5   0  0.1984297E-01  0.5082724E+03  0.7818609E-02  0.1011642E+00
       -1   -1    0    0    0  501  0.00000000000E+00  0.00000000000E+00  0.25147771656E+02  0.25147772161E+02  0.50400001928E-02 0. -1.
        1   -1    0    0  501    0  0.00000000000E+00  0.00000000000E+00 -0.25682279168E+04  0.25682279168E+04  0.50400001928E-02 0.  1.
    10030    2    1    2    0    0  0.00000000000E+00  0.00000000000E+00 -0.25430801451E+04  0.25933756889E+04  0.50827240678E+03 0.  0.
        3    1    3    3  502    0 -0.22678768664E+03 -0.11177123850E+03 -0.14025951041E+04  0.14252012141E+04  0.10100000352E+00 0.  1.
       -3    1    3    3    0  502  0.22678768664E+03  0.11177123850E+03 -0.11404850410E+04  0.11681744748E+04  0.10100000352E+00 0. -1.
</event>
<event>
 5   0  0.3178149E-01  0.5117746E+03  0.7818609E-02  0.1010750E+00
        2   -1    0    0  501    0  0.00000000000E+00  0.00000000000E+00  0.61385504302E+03  0.61385504303E+03  0.25500000920E-02 0.  1.
       -2   -1    0    0    0  501  0.00000000000E+00  0.00000000000E+00 -0.10666737945E+03  0.10666737948E+03  0.25500000920E-02 0. -1.
    10030    2    1    2    0    0  0.00000000000E+00  0.00000000000E+00  0.50718766357E+03  0.72052242251E+03  0.51177459419E+03 0.  0.
        3    1    3    3  502    0  0.16309681184E+03 -0.17699195704E+03  0.13124845332E+03  0.27414027357E+03  0.10100000352E+00 0. -1.
       -3    1    3    3    0  502 -0.16309681184E+03  0.17699195704E+03  0.37593921025E+03  0.44638214894E+03  0.10100000352E+00 0.  1.
</event>
<event>
 5   0  0.1984680E-01  0.5044384E+03  0.7818609E-02  0.1012627E+00
       -1   -1    0    0    0  501  0.00000000000E+00  0.00000000000E+00  0.72037479045E+02  0.72037479221E+02  0.50400001928E-02 0. -1.
        1   -1    0    0  501    0  0.00000000000E+00  0.00000000000E+00 -0.88307536282E+03  0.88307536283E+03  0.50400001928E-02 0.  1.
    10030    2    1    2    0    0  0.00000000000E+00  0.00000000000E+00 -0.81103788377E+03  0.95511284205E+03  0.50443839281E+03 0.  0.
        5    1    3    3  502    0  0.53495481144E+02 -0.16778069043E+03 -0.74728122606E+03  0.76776522935E+03  0.46999998093E+01 0.  1.
       -5    1    3    3    0  502 -0.53495481144E+02  0.16778069043E+03 -0.63756657709E+02  0.18734761270E+03  0.46999998093E+01 0. -1.
</event>
<event>
 5   0  0.2000612E-01  0.4949293E+03  0.7818609E-02  0.1015111E+00
       -1   -1    0    0    0  501  0.00000000000E+00  0.00000000000E+00  0.49521086662E+02  0.49521086919E+02  0.50400001928E-02 0. -1.
        1   -1    0    0  501    0  0.00000000000E+00  0.00000000000E+00 -0.12366196999E+04  0.12366196999E+04  0.50400001928E-02 0.  1.
    10030    2    1    2    0    0  0.00000000000E+00  0.00000000000E+00 -0.11870986132E+04  0.12861407868E+04  0.49492929393E+03 0.  0.
        2    1    3    3  502    0  0.22861272449E+03  0.58700343346E+02 -0.78678093098E+03  0.82142178050E+03  0.25500000920E-02 0.  1.
       -2    1    3    3    0  502 -0.22861272449E+03 -0.58700343346E+02 -0.40031768222E+03  0.46471900630E+03  0.25500000920E-02 0. -1.
</event>
<event>
 5   0  0.3178149E-01  0.5034189E+03  0.7818609E-02  0.1012890E+00
       -2   -1    0    0    0  501  0.00000000000E+00  0.00000000000E+00  0.69544769750E+02  0.69544769796E+02  0.25500000920E-02 0.  1.
        2   -1    0    0  501    0  0.00000000000E+00  0.00000000000E+00 -0.91103407418E+03  0.91103407418E+03  0.25500000920E-02 0. -1.
    10030    2    1    2    0    0  0.00000000000E+00  0.00000000000E+00 -0.84148930443E+03  0.98057884398E+03  0.50341893070E+03 0.  0.
        3    1    3    3  502    0  0.16894098540E+01  0.76835199336E+02  0.46132167802E+02  0.89636427136E+02  0.10100000352E+00 0.  1.
       -3    1    3    3    0  502 -0.16894098540E+01 -0.76835199336E+02 -0.88762147223E+03  0.89094241684E+03  0.10100000352E+00 0. -1.
</event>
<event>
 5   0  0.3187123E-01  0.5222408E+03  0.7818609E-02  0.1008131E+00
       -2   -1    0    0    0  501  0.00000000000E+00  0.00000000000E+00  0.49124383193E+02  0.49124383259E+02  0.25500000920E-02 0. -1.
        2   -1    0    0  501    0  0.00000000000E+00  0.00000000000E+00 -0.13879839357E+04  0.13879839357E+04  0.25500000920E-02 0.  1.
    10030    2    1    2    0    0  0.00000000000E+00  0.00000000000E+00 -0.13388595525E+04  0.14371083189E+04  0.52224076735E+03 0.  0.
        5    1    3    3  502    0 -0.30260132318E+02 -0.49787033942E+01  0.44034432590E+02  0.53866356357E+02  0.46999998093E+01 0. -1.
       -5    1    3    3    0  502  0.30260132318E+02  0.49787033942E+01 -0.13828939851E+04  0.13832419626E+04  0.46999998093E+01 0.  1.
</event>
<event>
 5   0  0.3187123E-01  0.4985267E+03  0.7818609E-02  0.1014164E+00
        2   -1    0    0  501    0  0.00000000000E+00  0.00000000000E+00  0.31090293904E+03  0.31090293905E+03  0.25500000920E-02 0. -1.
       -2   -1    0    0    0  501  0.00000000000E+00  0.00000000000E+00 -0.19984439245E+03  0.19984439246E+03  0.25500000920E-02 0.  1.
    10030    2    1    2    0    0  0.00000000000E+00  0.00000000000E+00  0.11105854659E+03  0.51074733151E+03  0.49852666516E+03 0.  0.
        5    1    3    3  502    0  0.19038933882E+03  0.98090795440E+02  0.18609031117E+03  0.28376327880E+03  0.46999998093E+01 0. -1.
       -5    1    3    3    0  502 -0.19038933882E+03 -0.98090795440E+02 -0.75031764582E+02  0.22698405270E+03  0.46999998093E+01 0.  1.
</event>
<event>
 5   0  0.3187123E-01  0.5337807E+03  0.7818609E-02  0.1005319E+00
        2   -1    0    0  501    0  0.00000000000E+00  0.00000000000E+00  0.90102994376E+03  0.90102994377E+03  0.25500000920E-02 0. -1.
       -2   -1    0    0    0  501  0.00000000000E+00  0.00000000000E+00 -0.79054473846E+02  0.79054473887E+02  0.25500000920E-02 0.  1.
    10030    2    1    2    0    0  0.00000000000E+00  0.00000000000E+00  0.82197546992E+03  0.98008441765E+03  0.53378065962E+03 0.  0.
        5    1    3    3  502    0  0.19429822108E+02  0.82814987055E+02 -0.53417785095E+02  0.10055540677E+03  0.46999998093E+01 0.  1.
       -5    1    3    3    0  502 -0.19429822108E+02 -0.82814987055E+02  0.87539325501E+03  0.87952901088E+03  0.46999998093E+01 0. -1.
</event>
<event>
 5   0  0.3329246E-01  0.4976848E+03  0.7818609E-02  0.1014385E+00
        2   -1    0    0  501    0  0.00000000000E+00  0.00000000000E+00  0.35069997594E+03  0.35069997595E+03  0.25500000920E-02 0.  1.
       -2   -1    0    0    0  501  0.00000000000E+00  0.00000000000E+00 -0.17656844678E+03  0.17656844680E+03  0.25500000920E-02 0. -1.
    10030    2    1    2    0    0  0.00000000000E+00  0.00000000000E+00  0.17413152915E+03  0.52726842275E+03  0.49768484022E+03 0.  0.
        2    1    3    3  502    0  0.14686371338E+03 -0.18785129039E+03  0.16246868837E+03  0.28853618892E+03  0.25500000920E-02 0. -1.
       -2    1    3    3    0  502 -0.14686371338E+03  0.18785129039E+03  0.11662840785E+02  0.23873223383E+03  0.25500000920E-02 0.  1.
</event>
<event>
 5   0  0.3117389E-01  0.4978270E+03  0.7818609E-02  0.1014348E+00
        2   -1    0    0  501    0  0.00000000000E+00  0.00000000000E+00  0.43577617968E+03  0.43577617969E+03  0.25500000920E-02 0.  1.
       -2   -1    0    0    0  501  0.00000000000E+00  0.00000000000E+00 -0.14217831952E+03  0.14217831954E+03  0.25500000920E-02 0. -1.
    10030    2    1    2    0    0  0.00000000000E+00  0.00000000000E+00  0.29359786017E+03  0.57795449923E+03  0.49782697766E+03 0.  0.
        4    1    3    3  502    0 -0.21397612025E+03 -0.88616695032E+02  0.40918770995E+02  0.23519068305E+03  0.12699999809E+01 0. -1.
       -4    1    3    3    0  502  0.21397612025E+03  0.88616695032E+02  0.25267908917E+03  0.34276381618E+03  0.12699999809E+01 0.  1.
</event>
<event>
 5   0  0.3178149E-01  0.5050590E+03  0.7818609E-02  0.1012467E+00
       -2   -1    0    0    0  501  0.00000000000E+00  0.00000000000E+00  0.65112040639E+02  0.65112040689E+02  0.25500000920E-02 0. -1.
        2   -1    0    0  501    0  0.00000000000E+00  0.00000000000E+00 -0.97940650083E+03  0.97940650083E+03  0.25500000920E-02 0.  1.
    10030    2    1    2    0    0  0.00000000000E+00  0.00000000000E+00 -0.91429446019E+03  0.10445185415E+04  0.50505902987E+03 0.  0.
        3    1    3    3  502    0  0.19829278346E+03 -0.15611278871E+03 -0.43865931209E+03  0.50607631149E+03  0.10100000352E+00 0. -1.
       -3    1    3    3    0  502 -0.19829278346E+03  0.15611278871E+03 -0.47563514810E+03  0.53844223003E+03  0.10100000352E+00 0.  1.
</event>
<event>
 5   0  0.3187123E-01  0.4586866E+03  0.7818609E-02  0.1025163E+00
        2   -1    0    0  501    0  0.00000000000E+00  0.00000000000E+00  0.23862278364E+03  0.23862278365E+03  0.25500000920E-02 0. -1.
       -2   -1    0    0    0  501  0.00000000000E+00  0.00000000000E+00 -0.22042465563E+03  0.22042465565E+03  0.25500000920E-02 0.  1.
    10030    2    1    2    0    0  0.00000000000E+00  0.00000000000E+00  0.18198128004E+02  0.45904743930E+03  0.45868658108E+03 0.  0.
        5    1    3    3  502    0 -0.11725328369E+03 -0.13144553116E+03 -0.13781559051E+03  0.22369954668E+03  0.46999998093E+01 0.  1.
       -5    1    3    3    0  502  0.11725328369E+03  0.13144553116E+03  0.15601371852E+03  0.23534789262E+03  0.46999998093E+01 0. -1.
</event>
<event>
 5   0  0.3111146E-01  0.4983241E+03  0.7818609E-02  0.1014217E+00
        2   -1    0    0  501    0  0.00000000000E+00  0.00000000000E+00  0.37022595501E+03  0.37022595502E+03  0.25500000920E-02 0.  1.
       -2   -1    0    0    0  501  0.00000000000E+00  0.00000000000E+00 -0.16768604690E+03  0.16768604692E+03  0.25500000920E-02 0. -1.
    10030    2    1    2    0    0  0.00000000000E+00  0.00000000000E+00  0.20253990811E+03  0.53791200194E+03  0.49832409881E+03 0.  0.
        1    1    3    3  502    0  0.84171915990E+02 -0.12764497265E+03 -0.11109111013E+03  0.18899572816E+03  0.50400001928E-02 0. -1.
       -1    1    3    3    0  502 -0.84171915990E+02  0.12764497265E+03  0.31363101824E+03  0.34891627379E+03  0.50400001928E-02 0.  1.
</event>
<event>
 5   0  0.1984680E-01  0.5038874E+03  0.7818609E-02  0.1012769E+00
        1   -1    0    0  501    0  0.00000000000E+00  0.00000000000E+00  0.86717086951E+03  0.86717086953E+03  0.50400001928E-02 0.  1.
       -1   -1    0    0    0  501  0.00000000000E+00  0.00000000000E+00 -0.73198525868E+02  0.73198526042E+02  0.50400001928E-02 0. -1.
    10030    2    1    2    0    0  0.00000000000E+00  0.00000000000E+00  0.79397234365E+03  0.94036939557E+03  0.50388740573E+03 0.  0.
        5    1    3    3  502    0 -0.41031406813E+02 -0.87500058301E+02 -0.37142639589E+02  0.10364121874E+03  0.46999998093E+01 0. -1.
       -5    1    3    3    0  502  0.41031406813E+02  0.87500058301E+02  0.83111498324E+03  0.83672817683E+03  0.46999998093E+01 0.  1.
</event>
<event>
 5   0  0.3111146E-01  0.4138018E+03  0.7818609E-02  0.1039103E+00
        2   -1    0    0  501    0  0.00000000000E+00  0.00000000000E+00  0.13943946467E+04  0.13943946467E+04  0.25500000920E-02 0. -1.
       -2   -1    0    0    0  501  0.00000000000E+00  0.00000000000E+00 -0.30700042918E+02  0.30700043024E+02  0.25500000920E-02 0.  1.
    10030    2    1    2    0    0  0.00000000000E+00  0.00000000000E+00  0.13636946037E+04  0.14250946897E+04  0.41380176691E+03 0.  0.
        1    1    3    3  502    0  0.16343898676E+03  0.11284702030E+03  0.88151143409E+03  0.90360896456E+03  0.50400001928E-02 0. -1.
       -1    1    3    3    0  502 -0.16343898676E+03 -0.11284702030E+03  0.48218316965E+03  0.52148572512E+03  0.50400001928E-02 0.  1.
</event>
<event>
 5   0  0.2000612E-01  0.4592115E+03  0.7818609E-02  0.1025010E+00
        1   -1    0    0  501    0  0.00000000000E+00  0.00000000000E+00  0.58844418579E+03  0.58844418581E+03  0.50400001928E-02 0.  1.
       -1   -1    0    0    0  501  0.00000000000E+00  0.00000000000E+00 -0.89590163021E+02  0.89590163162E+02  0.50400001928E-02 0. -1.
    10030    2    1    2    0    0  0.00000000000E+00  0.00000000000E+00  0.49885402277E+03  0.67803434897E+03  0.45921154423E+03 0.  0.
        2    1    3    3  502    0  0.17685712915E+03  0.63924860762E+02  0.44393544093E+03  0.48212395468E+03  0.25500000920E-02 0.  1.
       -2    1    3    3    0  502 -0.17685712915E+03 -0.63924860762E+02  0.54918581841E+02  0.19591039430E+03  0.25500000920E-02 0. -1.
</event>
<event>
 5   0  0.3178149E-01  0.5398222E+03  0.7818609E-02  0.1003878E+00
        2   -1    0    0  501    0  0.00000000000E+00  0.00000000000E+00  0.89074177216E+03  0.89074177217E+03  0.25500000920E-02 0. -1.
       -2   -1    0    0    0  501  0.00000000000E+00  0.00000000000E+00 -0.81788002244E+02  0.81788002284E+02  0.25500000920E-02 0.  1.
    10030    2    1    2    0    0  0.00000000000E+00  0.00000000000E+00  0.80895376992E+03  0.97252977445E+03  0.53982215620E+03 0.  0.
        3    1    3    3  502    0  0.11272732141E+03 -0.19993010185E+03  0.66035427026E+03  0.69910461811E+03  0.10100000352E+00 0. -1.
       -3    1    3    3    0  502 -0.11272732141E+03  0.19993010185E+03  0.14859949966E+03  0.27342515634E+03  0.10100000352E+00 0.  1.
</event>
<event>
 5   0  0.2013450E-01  0.4842048E+03  0.7818609E-02  0.1017986E+00
        1   -1    0    0  501    0  0.00000000000E+00  0.00000000000E+00  0.70884557657E+02  0.70884557837E+02  0.50400001928E-02 0.  1.
       -1   -1    0    0    0  501  0.00000000000E+00  0.00000000000E+00 -0.82688766252E+03  0.82688766254E+03  0.50400001928E-02 0. -1.
    10030    2    1    2    0    0  0.00000000000E+00  0.00000000000E+00 -0.75600310487E+03  0.89777222038E+03  0.48420477601E+03 0.  0.
        4    1    3    3  502    0  0.12748038680E+03 -0.20510982536E+03 -0.40961214529E+03  0.47550500728E+03  0.12699999809E+01 0.  1.
       -4    1    3    3    0  502 -0.12748038680E+03  0.20510982536E+03 -0.34639095958E+03  0.42226721310E+03  0.12699999809E+01 0. -1.
</event>
<event>
 5   0  0.1967161E-01  0.5076445E+03  0.7818609E-02  0.1011803E+00
        1   -1    0    0  501    0  0.00000000000E+00  0.00000000000E+00  0.81929894656E+03  0.81929894658E+03  0.50400001928E-02 0. -1.
       -1   -1    0    0    0  501  0.00000000000E+00  0.00000000000E+00 -0.78635199370E+02  0.78635199532E+02  0.50400001928E-02 0.  1.
    10030    2    1    2    0    0  0.00000000000E+00  0.00000000000E+00  0.74066374719E+03  0.89793414611E+03  0.50764450587E+03 0.  0.
        1    1    3    3  502    0 -0.42087382844E+02  0.97388370346E+02  0.77819805066E+03  0.78539674595E+03  0.50400001928E-02 0. -1.
       -1    1    3    3    0  502  0.42087382844E+02 -0.97388370346E+02 -0.37534303464E+02  0.11253740016E+03  0.50400001928E-02 0.  1.
</event>
<event>
 5   0  0.1984680E-01  0.4881952E+03  0.7818609E-02  0.1016907E+00
        1   -1    0    0  501    0  0.00000000000E+00  0.00000000000E+00  0.34136429218E+03  0.34136429222E+03  0.50400001928E-02 0. -1.
       -1   -1    0    0    0  501  0.00000000000E+00  0.00000000000E+00 -0.17454564433E+03  0.17454564440E+03  0.50400001928E-02 0.  1.
    10030    2    1    2    0    0  0.00000000000E+00  0.00000000000E+00  0.16681864786E+03  0.51590993662E+03  0.48819524929E+03 0.  0.
        5    1    3    3  502    0 -0.14314550858E+03  0.19440603759E+03  0.12117633077E+03  0.27016686920E+03  0.46999998093E+01 0. -1.
       -5    1    3    3    0  502  0.14314550858E+03 -0.19440603759E+03  0.45642317090E+02  0.24574306742E+03  0.46999998093E+01 0.  1.
</event>
<event>
 5   0  0.3117389E-01  0.4454473E+03  0.7818609E-02  0.1029088E+00
       -2   -1    0    0    0  501  0.00000000000E+00  0.00000000000E+00  0.12621196158E+03  0.12621196161E+03  0.25500000920E-02 0. -1.
        2   -1    0    0  501    0  0.00000000000E+00  0.00000000000E+00 -0.39303591637E+03  0.39303591638E+03  0.25500000920E-02 0.  1.
    10030    2    1    2    0    0  0.00000000000E+00  0.00000000000E+00 -0.26682395479E+03  0.51924787799E+03  0.44544734363E+03 0.  0.
        4    1    3    3  502    0  0.93154102057E+02 -0.65665847270E+02  0.89639494734E+02  0.14500531764E+03  0.12699999809E+01 0. -1.
       -4    1    3    3    0  502 -0.93154102057E+02  0.65665847270E+02 -0.35646344953E+03  0.37424256035E+03  0.12699999809E+01 0.  1.
</event>
<event>
 5   0  0.2000612E-01  0.4917865E+03  0.7818609E-02  0.1015945E+00
       -1   -1    0    0    0  501  0.00000000000E+00  0.00000000000E+00  0.41006672598E+03  0.41006672601E+03  0.50400001928E-02 0. -1.
        1   -1    0    0  501    0  0.00000000000E+00  0.00000000000E+00 -0.14744795356E+03  0.14744795364E+03  0.50400001928E-02 0.  1.
    10030    2    1    2    0    0  0.00000000000E+00  0.00000000000E+00  0.26261877243E+03  0.55751467965E+03  0.49178653743E+03 0.  0.
        2    1    3    3  502    0 -0.19936668822E+03 -0.58882014260E+02 -0.17580708789E+02  0.20862226464E+03  0.25500000920E-02 0.  1.
       -2    1    3    3    0  502  0.19936668822E+03  0.58882014260E+02  0.28019948122E+03  0.34889241501E+03  0.25500000920E-02 0. -1.
</event>
<event>
 5   0  0.3329246E-01  0.4963255E+03  0.7818609E-02  0.1014742E+00
       -2   -1    0    0    0  501  0.00000000000E+00  0.00000000000E+00  0.92061034269E+02  0.92061034304E+02  0.25500000920E-02 0. -1.
        2   -1    0    0  501    0  0.00000000000E+00  0.00000000000E+00 -0.66895559424E+03  0.66895559424E+03  0.25500000920E-02 0.  1.
    10030    2    1    2    0    0  0.00000000000E+00  0.00000000000E+00 -0.57689455997E+03  0.76101662855E+03  0.49632547346E+03 0.  0.
        2    1    3    3  502    0  0.14032936327E+01  0.14762833083E+03  0.17401805435E+02  0.14865704200E+03  0.25500000920E-02 0. -1.
       -2    1    3    3    0  502 -0.14032936327E+01 -0.14762833083E+03 -0.59429636540E+03  0.61235958655E+03  0.25500000920E-02 0.  1.
</event>
<event>
 5   0  0.1292375E-01  0.4807807E+03  0.7818609E-02  0.1018921E+00
        3   -1    0    0  501    0  0.00000000000E+00  0.00000000000E+00  0.24784101319E+03  0.24784103377E+03  0.10100000352E+00 0.  1.
       -3   -1    0    0    0  501  0.00000000000E+00  0.00000000000E+00 -0.23316367175E+03  0.23316369363E+03  0.10100000352E+00 0. -1.
    10030    2    1    2    0    0  0.00000000000E+00  0.00000000000E+00  0.14677341443E+02  0.48100472740E+03  0.48078074361E+03 0.  0.
        1    1    3    3  502    0 -0.19574334415E+03  0.95580895566E+02 -0.94376616281E+02  0.23739863122E+03  0.50400001928E-02 0. -1.
       -1    1    3    3    0  502  0.19574334415E+03 -0.95580895566E+02  0.10905395772E+03  0.24360609618E+03  0.50400001928E-02 0.  1.
</event>
<event>
 5   0  0.1292375E-01  0.5014118E+03  0.7818609E-02  0.1013411E+00
       -3   -1    0    0    0  501  0.00000000000E+00  0.00000000000E+00  0.30853607766E+03  0.30853609419E+03  0.10100000352E+00 0.  1.
        3   -1    0    0  501    0  0.00000000000E+00  0.00000000000E+00 -0.20371505285E+03  0.20371507788E+03  0.10100000352E+00 0. -1.
    10030    2    1    2    0    0  0.00000000000E+00  0.00000000000E+00  0.10482102481E+03  0.51225117207E+03  0.50141182280E+03 0.  0.
        5    1    3    3  502    0 -0.16958733310E+02  0.36502823912E+02 -0.20034708881E+03  0.20440425823E+03  0.46999998093E+01 0. -1.
       -5    1    3    3    0  502  0.16958733310E+02 -0.36502823912E+02  0.30516811362E+03  0.30784691384E+03  0.46999998093E+01 0.  1.
</event>
<event>
 5   0  0.3111146E-01  0.5023953E+03  0.7818609E-02  0.1013156E+00
       -2   -1    0    0    0  501  0.00000000000E+00  0.00000000000E+00  0.26466501831E+03  0.26466501832E+03  0.25500000920E-02 0.  1.
        2   -1    0    0  501    0  0.00000000000E+00  0.00000000000E+00 -0.23841554706E+03  0.23841554707E+03  0.25500000920E-02 0. -1.
    10030    2    1    2    0    0  0.00000000000E+00  0.00000000000E+00  0.26249471249E+02  0.50308056539E+03  0.50239528315E+03 0.  0.
        1    1    3    3  502    0 -0.12643649417E+03  0.10904910454E+03  0.20105694440E+03  0.26134610993E+03  0.50400001928E-02 0.  1.
       -1    1    3    3    0  502  0.12643649417E+03 -0.10904910454E+03 -0.17480747316E+03  0.24173445546E+03  0.50400001928E-02 0. -1.
</event>
<event>
 5   0  0.3187123E-01  0.5009217E+03  0.7818609E-02  0.1013539E+00
        2   -1    0    0  501    0  0.00000000000E+00  0.00000000000E+00  0.22117375092E+03  0.22117375093E+03  0.25500000920E-02 0. -1.
       -2   -1    0    0    0  501  0.00000000000E+00  0.00000000000E+00 -0.28362604942E+03  0.28362604943E+03  0.25500000920E-02 0.  1.
    10030    2    1    2    0    0  0.00000000000E+00  0.00000000000E+00 -0.62452298506E+02  0.50479980036E+03  0.50092169933E+03 0.  0.
        5    1    3    3  502    0 -0.83785726289E+02 -0.18405331381E+02 -0.26831281764E+03  0.28173154290E+03  0.46999998093E+01 0.  1.
       -5    1    3    3    0  502  0.83785726289E+02  0.18405331381E+02  0.20586051914E+03  0.22306825747E+03  0.46999998093E+01 0. -1.
</event>
<event>
 5   0  0.1292375E-01  0.4840101E+03  0.7818609E-02  0.1018039E+00
       -4   -1    0    0    0  501  0.00000000000E+00  0.00000000000E+00  0.17977095124E+03  0.17977543717E+03  0.12699999809E+01 0. -1.
        4   -1    0    0  501    0  0.00000000000E+00  0.00000000000E+00 -0.32577390852E+03  0.32577638400E+03  0.12699999809E+01 0.  1.
    10030    2    1    2    0    0  0.00000000000E+00  0.00000000000E+00 -0.14600295728E+03  0.50555182117E+03  0.48401010357E+03 0.  0.
        5    1    3    3  502    0 -0.20918452530E+03  0.75763488746E+02  0.26342498276E+02  0.22408545036E+03  0.46999998093E+01 0. -1.
       -5    1    3    3    0  502  0.20918452530E+03 -0.75763488746E+02 -0.17234545555E+03  0.28146637081E+03  0.46999998093E+01 0.  1.
</event>
<event>
 5   0  0.2013450E-01  0.5061967E+03  0.7818609E-02  0.1012174E+00
       -1   -1    0    0    0  501  0.00000000000E+00  0.00000000000E+00  0.14152797668E+03  0.14152797676E+03  0.50400001928E-02 0. -1.
        1   -1    0    0  501    0  0.00000000000E+00  0.00000000000E+00 -0.45262270090E+03  0.45262270093E+03  0.50400001928E-02 0.  1.
    10030    2    1    2    0    0  0.00000000000E+00  0.00000000000E+00 -0.31109472423E+03  0.59415067770E+03  0.50619670126E+03 0.  0.
        4    1    3    3  502    0 -0.15926209077E+03 -0.17544748471E+03 -0.25994508416E+03  0.35173753443E+03  0.12699999809E+01 0.  1.
       -4    1    3    3    0  502  0.15926209077E+03  0.17544748471E+03 -0.51149640069E+02  0.24241314327E+03  0.12699999809E+01 0. -1.
</event>
<event>
 5   0  0.3117389E-01  0.5041252E+03  0.7818609E-02  0.1012708E+00
        2   -1    0    0  501    0  0.00000000000E+00  0.00000000000E+00  0.14410212475E+03  0.14410212478E+03  0.25500000920E-02 0.  1.
       -2   -1    0    0    0  501  0.00000000000E+00  0.00000000000E+00 -0.44090649560E+03  0.44090649561E+03  0.25500000920E-02 0. -1.
    10030    2    1    2    0    0  0.00000000000E+00  0.00000000000E+00 -0.29680437085E+03  0.58500862038E+03  0.50412523382E+03 0.  0.
        4    1    3    3  502    0  0.29422255747E+02 -0.18951087049E+03  0.41407105334E+02  0.19620448629E+03  0.12699999809E+01 0.  1.
       -4    1    3    3    0  502 -0.29422255747E+02  0.18951087049E+03 -0.33821147618E+03  0.38880413410E+03  0.12699999809E+01 0. -1.
</event>
<event>
 5   0  0.3178149E-01  0.5006264E+03  0.7818609E-02  0.1013616E+00
       -2   -1    0    0    0  501  0.00000000000E+00  0.00000000000E+00  0.15141441428E+03  0.15141441430E+03  0.25500000920E-02 0.  1.
        2   -1    0    0  501    0  0.00000000000E+00  0.00000000000E+00 -0.41380938742E+03  0.41380938743E+03  0.25500000920E-02 0. -1.
    10030    2    1    2    0    0  0.00000000000E+00  0.00000000000E+00 -0.26239497314E+03  0.56522380173E+03  0.50062643169E+03 0.  0.
        3    1    3    3  502    0 -0.33966702086E+02  0.15416326440E+03  0.88127605526E+02  0.18079417579E+03  0.10100000352E+00 0.  1.
       -3    1    3    3    0  502  0.33966702086E+02 -0.15416326440E+03 -0.35052257867E+03  0.38442962594E+03  0.10100000352E+00 0. -1.
</event>
<event>
 5   0  0.1967161E-01  0.4877666E+03  0.7818609E-02  0.1017022E+00
        1   -1    0    0  501    0  0.00000000000E+00  0.00000000000E+00  0.58340086560E+03  0.58340086562E+03  0.50400001928E-02 0. -1.
       -1   -1    0    0    0  501  0.00000000000E+00  0.00000000000E+00 -0.10195230834E+03  0.10195230846E+03  0.50400001928E-02 0.  1.
    10030    2    1    2    0    0  0.00000000000E+00  0.00000000000E+00  0.48144855726E+03  0.68535317408E+03  0.48776660396E+03 0.  0.
        1    1    3    3  502    0  0.12521235872E+03  0.17723909818E+02  0.53373334458E+03  0.54851030519E+03  0.50400001928E-02 0. -1.
       -1    1    3    3    0  502 -0.12521235872E+03 -0.17723909818E+02 -0.52284787325E+02  0.13684286889E+03  0.50400001928E-02 0.  1.
</event>
<event>
 5   0  0.1967161E-01  0.4970184E+03  0.7818609E-02  0.1014560E+00
        1   -1    0    0  501    0  0.00000000000E+00  0.00000000000E+00  0.31046254994E+03  0.31046254998E+03  0.50400001928E-02 0. -1.
       -1   -1    0    0    0  501  0.00000000000E+00  0.00000000000E+00 -0.19891874178E+03  0.19891874184E+03  0.50400001928E-02 0.  1.
    10030    2    1    2    0    0  0.00000000000E+00  0.00000000000E+00  0.11154380817E+03  0.50938129182E+03  0.49701838932E+03 0.  0.
        1    1    3    3  502    0 -0.24355792306E+02  0.13217557417E+03  0.27000058916E+03  0.30160223009E+03  0.50400001928E-02 0. -1.
       -1    1    3    3    0  502  0.24355792306E+02 -0.13217557417E+03 -0.15845678099E+03  0.20777906173E+03  0.50400001928E-02 0.  1.
</event>
<event>
 5   0  0.2000612E-01  0.5081631E+03  0.7818609E-02  0.1011670E+00
        1   -1    0    0  501    0  0.00000000000E+00  0.00000000000E+00  0.94775377538E+03  0.94775377539E+03  0.50400001928E-02 0. -1.
       -1   -1    0    0    0  501  0.00000000000E+00  0.00000000000E+00 -0.68116245813E+02  0.68116245999E+02  0.50400001928E-02 0.  1.
    10030    2    1    2    0    0  0.00000000000E+00  0.00000000000E+00  0.87963752956E+03  0.10158700214E+04  0.50816308105E+03 0.  0.
        2    1    3    3  502    0  0.23501903933E+03 -0.78414568482E+02  0.55245600253E+03  0.60546711565E+03  0.25500000920E-02 0.  1.
       -2    1    3    3    0  502 -0.23501903933E+03  0.78414568482E+02  0.32718152703E+03  0.41040290573E+03  0.25500000920E-02 0. -1.
</event>
<event>
 5   0  0.2000612E-01  0.4586074E+03  0.7818609E-02  0.1025186E+00
        1   -1    0    0  501    0  0.00000000000E+00  0.00000000000E+00  0.10103417702E+03  0.10103417715E+03  0.50400001928E-02 0. -1.
       -1   -1    0    0    0  501  0.00000000000E+00  0.00000000000E+00 -0.52041973193E+03  0.52041973195E+03  0.50400001928E-02 0.  1.
    10030    2    1    2    0    0  0.00000000000E+00  0.00000000000E+00 -0.41938555490E+03  0.62145390910E+03  0.45860736745E+03 0.  0.
        2    1    3    3  502    0 -0.12115678739E+03  0.22802712732E+02 -0.47168886032E+03  0.48753390835E+03  0.25500000920E-02 0.  1.
       -2    1    3    3    0  502  0.12115678739E+03 -0.22802712732E+02  0.52303305412E+02  0.13392000075E+03  0.25500000920E-02 0. -1.
</event>
<event>
 5   0  0.3187123E-01  0.5233098E+03  0.7818609E-02  0.1007868E+00
       -2   -1    0    0    0  501  0.00000000000E+00  0.00000000000E+00  0.80933682973E+02  0.80933683013E+02  0.25500000920E-02 0.  1.
        2   -1    0    0  501    0  0.00000000000E+00  0.00000000000E+00 -0.84591833554E+03  0.84591833554E+03  0.25500000920E-02 0. -1.
    10030    2    1    2    0    0  0.00000000000E+00  0.00000000000E+00 -0.76498465256E+03  0.92685201855E+03  0.52330979891E+03 0.  0.
        5    1    3    3  502    0 -0.79144653919E+02  0.73849325295E+02 -0.80431839533E+03  0.81158349549E+03  0.46999998093E+01 0. -1.
       -5    1    3    3    0  502  0.79144653919E+02 -0.73849325295E+02  0.39333742767E+02  0.11526852306E+03  0.46999998093E+01 0.  1.
</event>
<event>
 5   0  0.1984680E-01  0.5081694E+03  0.7818609E-02  0.1011668E+00
       -1   -1    0    0    0  501  0.00000000000E+00  0.00000000000E+00  0.17655938803E+03  0.17655938810E+03  0.50400001928E-02 0. -1.
        1   -1    0    0  501    0  0.00000000000E+00  0.00000000000E+00 -0.36565055612E+03  0.36565055615E+03  0.50400001928E-02 0.  1.
    10030    2    1    2    0    0  0.00000000000E+00  0.00000000000E+00 -0.18909116809E+03  0.54220994425E+03  0.50816941446E+03 0.  0.
        5    1    3    3  502    0  0.23423194042E+03 -0.96115513995E+02 -0.11677771607E+03  0.27885824161E+03  0.46999998093E+01 0. -1.
       -5    1    3    3    0  502 -0.23423194042E+03  0.96115513995E+02 -0.72313452019E+02  0.26335170264E+03  0.46999998093E+01 0.  1.
</event>
<event>
 5   0  0.1984297E-01  0.5100068E+03  0.7818609E-02  0.1011200E+00
       -1   -1    0    0    0  501  0.00000000000E+00  0.00000000000E+00  0.99553804903E+02  0.99553805030E+02  0.50400001928E-02 0.  1.
        1   -1    0    0  501    0  0.00000000000E+00  0.00000000000E+00 -0.65318180106E+03  0.65318180108E+03  0.50400001928E-02 0. -1.
    10030    2    1    2    0    0  0.00000000000E+00  0.00000000000E+00 -0.55362799616E+03  0.75273560611E+03  0.51000679856E+03 0.  0.
        3    1    3    3  502    0 -0.41208517541E+02 -0.13535784800E+03 -0.58993033563E+03  0.60666110805E+03  0.10100000352E+00 0. -1.
       -3    1    3    3    0  502  0.41208517541E+02  0.13535784800E+03  0.36302339465E+02  0.14607449806E+03  0.10100000352E+00 0.  1.
</event>
<event>
 5   0  0.1984297E-01  0.3834436E+03  0.7818609E-02  0.1049668E+00
       -1   -1    0    0    0  501  0.00000000000E+00  0.00000000000E+00  0.32860440394E+02  0.32860440780E+02  0.50400001928E-02 0. -1.
        1   -1    0    0  501    0  0.00000000000E+00  0.00000000000E+00 -0.11185865630E+04  0.11185865630E+04  0.50400001928E-02 0.  1.
    10030    2    1    2    0    0  0.00000000000E+00  0.00000000000E+00 -0.10857261226E+04  0.11514470038E+04  0.38344359328E+03 0.  0.
        3    1    3    3  502    0  0.13542279609E+02 -0.14710522794E+03 -0.90983176256E+03  0.92174681328E+03  0.10100000352E+00 0.  1.
       -3    1    3    3    0  502 -0.13542279609E+02  0.14710522794E+03 -0.17589436004E+03  0.22970019051E+03  0.10100000352E+00 0. -1.
</event>
<event>
 5   0  0.2013450E-01  0.4967292E+03  0.7818609E-02  0.1014636E+00
       -1   -1    0    0    0  501  0.00000000000E+00  0.00000000000E+00  0.35694403163E+03  0.35694403167E+03  0.50400001928E-02 0. -1.
        1   -1    0    0  501    0  0.00000000000E+00  0.00000000000E+00 -0.17281416209E+03  0.17281416217E+03  0.50400001928E-02 0.  1.
    10030    2    1    2    0    0  0.00000000000E+00  0.00000000000E+00  0.18412986954E+03  0.52975819383E+03  0.49672923719E+03 0.  0.
        4    1    3    3  502    0  0.24435512948E+03  0.37557756959E+02  0.66751586213E+02  0.25608084968E+03  0.12699999809E+01 0.  1.
       -4    1    3    3    0  502 -0.24435512948E+03 -0.37557756959E+02  0.11737828333E+03  0.27367734416E+03  0.12699999809E+01 0. -1.
</event>
<event>
 5   0  0.3329246E-01  0.5012787E+03  0.7818609E-02  0.1013446E+00
       -2   -1    0    0    0  501  0.00000000000E+00  0.00000000000E+00  0.17129203787E+03  0.17129203789E+03  0.25500000920E-02 0.  1.
        2   -1    0    0  501    0  0.00000000000E+00  0.00000000000E+00 -0.36674261939E+03  0.36674261940E+03  0.25500000920E-02 0. -1.
    10030    2    1    2    0    0  0.00000000000E+00  0.00000000000E+00 -0.19545058152E+03  0.53803465729E+03  0.50127872749E+03 0.  0.
        2    1    3    3  502    0  0.17589447906E+03  0.58025430457E+02  0.83518076755E+02  0.20317747782E+03  0.25500000920E-02 0.  1.
       -2    1    3    3    0  502 -0.17589447906E+03 -0.58025430457E+02 -0.27896865827E+03  0.33485717947E+03  0.25500000920E-02 0. -1.
</event>
<event>
 5   0  0.3111146E-01  0.4853226E+03  0.7818609E-02  0.1017683E+00
        2   -1    0    0  501    0  0.00000000000E+00  0.00000000000E+00  0.17177322590E+04  0.17177322590E+04  0.25500000920E-02 0.  1.
       -2   -1    0    0    0  501  0.00000000000E+00  0.00000000000E+00 -0.34280377490E+02  0.34280377585E+02  0.25500000920E-02 0. -1.
    10030    2    1    2    0    0  0.00000000000E+00  0.00000000000E+00  0.16834518815E+04  0.17520126366E+04  0.48532261580E+03 0.  0.
        1    1    3    3  502    0 -0.11830831818E+03  0.84533669799E+02  0.14040388682E+03  0.20212879790E+03  0.50400001928E-02 0. -1.
       -1    1    3    3    0  502  0.11830831818E+03 -0.84533669799E+02  0.15430479947E+04  0.15498838387E+04  0.50400001928E-02 0.  1.
</event>
<event>
 5   0  0.1984680E-01  0.4774647E+03  0.7818609E-02  0.1019834E+00
        1   -1    0    0  501    0  0.00000000000E+00  0.00000000000E+00  0.77089196256E+03  0.77089196257E+03  0.50400001928E-02 0.  1.
       -1   -1    0    0    0  501  0.00000000000E+00  0.00000000000E+00 -0.73931418142E+02  0.73931418314E+02  0.50400001928E-02 0. -1.
    10030    2    1    2    0    0  0.00000000000E+00  0.00000000000E+00  0.69696054442E+03  0.84482338089E+03  0.47746470490E+03 0.  0.
        5    1    3    3  502    0  0.13411728459E+03 -0.19035987466E+03  0.44121271582E+03  0.49891389889E+03  0.46999998093E+01 0.  1.
       -5    1    3    3    0  502 -0.13411728459E+03  0.19035987466E+03  0.25574782859E+03  0.34590948200E+03  0.46999998093E+01 0. -1.
</event>
<event>
 5   0  0.2000612E-01  0.5000069E+03  0.7818609E-02  0.1013777E+00
        1   -1    0    0  501    0  0.00000000000E+00  0.00000000000E+00  0.96284151072E+03  0.96284151074E+03  0.50400001928E-02 0.  1.
       -1   -1    0    0    0  501  0.00000000000E+00  0.00000000000E+00 -0.64913814152E+02  0.64913814348E+02  0.50400001928E-02 0. -1.
    10030    2    1    2    0    0  0.00000000000E+00  0.00000000000E+00  0.89792769657E+03  0.10277553251E+04  0.50000685992E+03 0.  0.
        2    1    3    3  502    0  0.16413865893E+03 -0.14129070777E+03  0.70567008414E+03  0.73815637308E+03  0.25500000920E-02 0.  1.
       -2    1    3    3    0  502 -0.16413865893E+03  0.14129070777E+03  0.19225761243E+03  0.28959895200E+03  0.25500000920E-02 0. -1.
</event>
<event>
 5   0  0.1984297E-01  0.5001974E+03  0.7818609E-02  0.1013727E+00
        1   -1    0    0  501    0  0.00000000000E+00  0.00000000000E+00  0.38350567992E+03  0.38350567995E+03  0.50400001928E-02 0. -1.
       -1   -1    0    0    0  501  0.00000000000E+00  0.00000000000E+00 -0.16309890773E+03  0.16309890780E+03  0.50400001928E-02 0.  1.
    10030    2    1    2    0    0  0.00000000000E+00  0.00000000000E+00  0.22040677219E+03  0.54660458775E+03  0.50019739116E+03 0.  0.
        3    1    3    3  502    0 -0.11406533549E+03  0.20233754725E+03  0.21153142789E+03  0.31416068973E+03  0.10100000352E+00 0. -1.
       -3    1    3    3    0  502  0.11406533549E+03 -0.20233754725E+03  0.88753443050E+01  0.23244389802E+03  0.10100000352E+00 0.  1.
</event>
<event>
 5   0  0.3329246E-01  0.5027018E+03  0.7818609E-02  0.1013076E+00
        2   -1    0    0  501    0  0.00000000000E+00  0.00000000000E+00  0.21229390378E+03  0.21229390379E+03  0.25500000920E-02 0. -1.
       -2   -1    0    0    0  501  0.00000000000E+00  0.00000000000E+00 -0.29759339209E+03  0.29759339210E+03  0.25500000920E-02 0.  1.
    10030    2    1    2    0    0  0.00000000000E+00  0.00000000000E+00 -0.85299488316E+02  0.50988729590E+03  0.50270175234E+03 0.  0.
        2    1    3    3  502    0 -0.47526873717E+01 -0.25128602167E+03 -0.39440626846E+02  0.25440679193E+03  0.25500000920E-02 0. -1.
       -2    1    3    3    0  502  0.47526873717E+01  0.25128602167E+03 -0.45858861470E+02  0.25548050397E+03  0.25500000920E-02 0.  1.
</event>
<event>
 5   0  0.3111146E-01  0.4932197E+03  0.7818609E-02  0.1015564E+00
       -2   -1    0    0    0  501  0.00000000000E+00  0.00000000000E+00  0.14840235876E+03  0.14840235878E+03  0.25500000920E-02 0. -1.
        2   -1    0    0  501    0  0.00000000000E+00  0.00000000000E+00 -0.40980760066E+03  0.40980760066E+03  0.25500000920E-02 0.  1.
    10030    2    1    2    0    0  0.00000000000E+00  0.00000000000E+00 -0.26140524190E+03  0.55820995945E+03  0.49321968567E+03 0.  0.
        1    1    3    3  502    0  0.15476590034E+03  0.94730422384E+02 -0.31971142799E+03  0.36761628643E+03  0.50400001928E-02 0.  1.
       -1    1    3    3    0  502 -0.15476590034E+03 -0.94730422384E+02  0.58306186093E+02  0.19059367302E+03  0.50400001928E-02 0. -1.
</event>
<event>
 5   0  0.1967161E-01  0.5165841E+03  0.7818609E-02  0.1009539E+00
       -1   -1    0    0    0  501  0.00000000000E+00  0.00000000000E+00  0.49561698442E+02  0.49561698698E+02  0.50400001928E-02 0. -1.
        1   -1    0    0  501    0  0.00000000000E+00  0.00000000000E+00 -0.13460954110E+04  0.13460954110E+04  0.50400001928E-02 0.  1.
    10030    2    1    2    0    0  0.00000000000E+00  0.00000000000E+00 -0.12965337125E+04  0.13956571097E+04  0.51658406874E+03 0.  0.
        1    1    3    3  502    0  0.86117946530E+02 -0.24337823171E+03 -0.62639963788E+03  0.67751440630E+03  0.50400001928E-02 0. -1.
       -1    1    3    3    0  502 -0.86117946530E+02  0.24337823171E+03 -0.67013407465E+03  0.71814270338E+03  0.50400001928E-02 0.  1.
</event>
<event>
 5   0  0.3329246E-01  0.5020168E+03  0.7818609E-02  0.1013254E+00
       -2   -1    0    0    0  501  0.00000000000E+00  0.00000000000E+00  0.29517438548E+03  0.29517438550E+03  0.25500000920E-02 0.  1.
        2   -1    0    0  501    0  0.00000000000E+00  0.00000000000E+00 -0.21345083343E+03  0.21345083344E+03  0.25500000920E-02 0. -1.
    10030    2    1    2    0    0  0.00000000000E+00  0.00000000000E+00  0.81723552055E+02  0.50862521894E+03  0.50201680687E+03 0.  0.
        2    1    3    3  502    0  0.11775764276E+03 -0.22106790053E+03  0.24296021862E+02  0.25165090057E+03  0.25500000920E-02 0.  1.
       -2    1    3    3    0  502 -0.11775764276E+03  0.22106790053E+03  0.57427530193E+02  0.25697431837E+03  0.25500000920E-02 0. -1.
</event>
<event>
 5   0  0.2000612E-01  0.4926380E+03  0.7818609E-02  0.1015719E+00
       -1   -1    0    0    0  501  0.00000000000E+00  0.00000000000E+00  0.79056098328E+02  0.79056098489E+02  0.50400001928E-02 0. -1.
        1   -1    0    0  501    0  0.00000000000E+00  0.00000000000E+00 -0.76746834661E+03  0.76746834663E+03  0.50400001928E-02 0.  1.
    10030    2    1    2    0    0  0.00000000000E+00  0.00000000000E+00 -0.68841224829E+03  0.84652444512E+03  0.49263801375E+03 0.  0.
        2    1    3    3  502    0 -0.24614305366E+03 -0.86207158909E+01 -0.33817142868E+03  0.41835467583E+03  0.25500000920E-02 0.  1.
       -2    1    3    3    0  502  0.24614305366E+03  0.86207158909E+01 -0.35024081960E+03  0.42816976929E+03  0.25500000920E-02 0. -1.
</event>
<event>
 5   0  0.1292375E-01  0.4978743E+03  0.7818609E-02  0.1014335E+00
       -3   -1    0    0    0  501  0.00000000000E+00  0.00000000000E+00  0.46789749017E+03  0.46789750107E+03  0.10100000352E+00 0. -1.
        3   -1    0    0  501    0  0.00000000000E+00  0.00000000000E+00 -0.13244289095E+03  0.13244292946E+03  0.10100000352E+00 0.  1.
    10030    2    1    2    0    0  0.00000000000E+00  0.00000000000E+00  0.33545459922E+03  0.60034043053E+03  0.49787432590E+03 0.  0.
        2    1    3    3  502    0 -0.43638422329E+02  0.36498137306E+02  0.45995407614E+03  0.46345892816E+03  0.25500000920E-02 0. -1.
       -2    1    3    3    0  502  0.43638422329E+02 -0.36498137306E+02 -0.12449947692E+03  0.13688150237E+03  0.25500000920E-02 0.  1.
</event>
<event>
 5   0  0.1984297E-01  0.4896155E+03  0.7818609E-02  0.1016526E+00
       -1   -1    0    0    0  501  0.00000000000E+00  0.00000000000E+00  0.50648858415E+03  0.50648858418E+03  0.50400001928E-02 0.  1.
        1   -1    0    0  501    0  0.00000000000E+00  0.00000000000E+00 -0.11832613855E+03  0.11832613866E+03  0.50400001928E-02 0. -1.
    10030    2    1    2    0    0  0.00000000000E+00  0.00000000000E+00  0.38816244560E+03  0.62481472284E+03  0.48961551619E+03 0.  0.
        3    1    3    3  502    0  0.18292427082E+03 -0.13800697811E+03  0.84129065576E+02  0.24410023502E+03  0.10100000352E+00 0. -1.
       -3    1    3    3    0  502 -0.18292427082E+03  0.13800697811E+03  0.30403338003E+03  0.38071448782E+03  0.10100000352E+00 0.  1.
</event>
<event>
 5   0  0.3187123E-01  0.4823274E+03  0.7818609E-02  0.1018497E+00
       -2   -1    0    0    0  501  0.00000000000E+00  0.00000000000E+00  0.58270994082E+02  0.58270994138E+02  0.25500000920E-02 0. -1.
        2   -1    0    0  501    0  0.00000000000E+00  0.00000000000E+00 -0.99809397278E+03  0.99809397278E+03  0.25500000920E-02 0.  1.
    10030    2    1    2    0    0  0.00000000000E+00  0.00000000000E+00 -0.93982297869E+03  0.10563649669E+04  0.48232739094E+03 0.  0.
        5    1    3    3  502    0  0.13750750556E+02  0.84065515571E+02 -0.96394118899E+03  0.96770904712E+03  0.46999998093E+01 0.  1.
       -5    1    3    3    0  502 -0.13750750556E+02 -0.84065515571E+02  0.24118210296E+02  0.88655919797E+02  0.46999998093E+01 0. -1.
</event>
<event>
 5   0  0.3329246E-01  0.4853998E+03  0.7818609E-02  0.1017662E+00
        2   -1    0    0  501    0  0.00000000000E+00  0.00000000000E+00  0.26484806270E+03  0.26484806271E+03  0.25500000920E-02 0.  1.
       -2   -1    0    0    0  501  0.00000000000E+00  0.00000000000E+00 -0.22240391351E+03  0.22240391353E+03  0.25500000920E-02 0. -1.
    10030    2    1    2    0    0  0.00000000000E+00  0.00000000000E+00  0.42444149190E+02  0.48725197624E+03  0.48539981721E+03 0.  0.
        2    1    3    3  502    0  0.10142282018E+03  0.20353086299E+03  0.10635041362E+03  0.25104145301E+03  0.25500000920E-02 0.  1.
       -2    1    3    3    0  502 -0.10142282018E+03 -0.20353086299E+03 -0.63906264428E+02  0.23621052323E+03  0.25500000920E-02 0. -1.
</event>
<event>
 5   0  0.1984680E-01  0.5263954E+03  0.7818609E-02  0.1007110E+00
        1   -1    0    0  501    0  0.00000000000E+00  0.00000000000E+00  0.51283697831E+03  0.51283697834E+03  0.50400001928E-02 0.  1.
       -1   -1    0    0    0  501  0.00000000000E+00  0.00000000000E+00 -0.13507808113E+03  0.13507808123E+03  0.50400001928E-02 0. -1.
    10030    2    1    2    0    0  0.00000000000E+00  0.00000000000E+00  0.37775889718E+03  0.64791505956E+03  0.52639542172E+03 0.  0.
        5    1    3    3  502    0 -0.26062416438E+03  0.20691093883E+02  0.15199762739E+03  0.30245403808E+03  0.46999998093E+01 0.  1.
       -5    1    3    3    0  502  0.26062416438E+03 -0.20691093883E+02  0.22576126979E+03  0.34546102148E+03  0.46999998093E+01 0. -1.
</event>
<event>
 5   0  0.1292375E-01  0.5026765E+03  0.7818609E-02  0.1013083E+00
        3   -1    0    0  501    0  0.00000000000E+00  0.00000000000E+00  0.40273086056E+03  0.40273087322E+03  0.10100000352E+00 0.  1.
       -3   -1    0    0    0  501  0.00000000000E+00  0.00000000000E+00 -0.15685640601E+03  0.15685643853E+03  0.10100000352E+00 0. -1.
    10030    2    1    2    0    0  0.00000000000E+00  0.00000000000E+00  0.24587445455E+03  0.55958731175E+03  0.50267654816E+03 0.  0.
        3    1    3    3  502    0 -0.20989758202E+03  0.12343851381E+03  0.19225092691E+03  0.31024907852E+03  0.10100000352E+00 0.  1.
       -3    1    3    3    0  502  0.20989758202E+03 -0.12343851381E+03  0.53623527642E+02  0.24933823322E+03  0.10100000352E+00 0. -1.
</event>
<event>
 5   0  0.1984680E-01  0.4202968E+03  0.7818609E-02  0.1036970E+00
        1   -1    0    0  501    0  0.00000000000E+00  0.00000000000E+00  0.12883765415E+03  0.12883765425E+03  0.50400001928E-02 0.  1.
       -1   -1    0    0    0  501  0.00000000000E+00  0.00000000000E+00 -0.34277515820E+03  0.34277515824E+03  0.50400001928E-02 0. -1.
    10030    2    1    2    0    0  0.00000000000E+00  0.00000000000E+00 -0.21393750406E+03  0.47161281249E+03  0.42029678712E+03 0.  0.
        5    1    3    3  502    0 -0.13115085642E+01  0.19059037047E+02 -0.34173953203E+03  0.34230536761E+03  0.46999998093E+01 0. -1.
       -5    1    3    3    0  502  0.13115085642E+01 -0.19059037047E+02  0.12780202797E+03  0.12930744488E+03  0.46999998093E+01 0.  1.
</event>
<event>
 5   0  0.1292375E-01  0.4736409E+03  0.7818609E-02  0.1020898E+00
        4   -1    0    0  501    0  0.00000000000E+00  0.00000000000E+00  0.11987450281E+04  0.11987457009E+04  0.12699999809E+01 0.  1.
       -4   -1    0    0    0  501  0.00000000000E+00  0.00000000000E+00 -0.46776227357E+02  0.46793464776E+02  0.12699999809E+01 0. -1.
    10030    2    1    2    0    0  0.00000000000E+00  0.00000000000E+00  0.11519688008E+04  0.12455391656E+04  0.47364089267E+03 0.  0.
        5    1    3    3  502    0 -0.10196391756E+02  0.13042562899E+03  0.57010724802E+02  0.14278348589E+03  0.46999998093E+01 0. -1.
       -5    1    3    3    0  502  0.10196391756E+02 -0.13042562899E+03  0.10949580759E+04  0.11027556797E+04  0.46999998093E+01 0.  1.
</event>
<event>
 5   0  0.1967161E-01  0.4119515E+03  0.7818609E-02  0.1039718E+00
        1   -1    0    0  501    0  0.00000000000E+00  0.00000000000E+00  0.23415416092E+03  0.23415416097E+03  0.50400001928E-02 0.  1.
       -1   -1    0    0    0  501  0.00000000000E+00  0.00000000000E+00 -0.18118834509E+03  0.18118834516E+03  0.50400001928E-02 0. -1.
    10030    2    1    2    0    0  0.00000000000E+00  0.00000000000E+00  0.52965815831E+02  0.41534250613E+03  0.41195147742E+03 0.  0.
        1    1    3    3  502    0  0.11340891600E+03  0.14613253314E+02  0.19921412953E+03  0.22969849549E+03  0.50400001928E-02 0.  1.
       -1    1    3    3    0  502 -0.11340891600E+03 -0.14613253314E+02 -0.14624831370E+03  0.18564401064E+03  0.50400001928E-02 0. -1.
</event>
<event>
 5   0  0.3329246E-01  0.3580190E+03  0.7818609E-02  0.1059371E+00
       -2   -1    0    0    0  501  0.00000000000E+00  0.00000000000E+00  0.67064053600E+02  0.67064053648E+02  0.25500000920E-02 0. -1.
        2   -1    0    0  501    0  0.00000000000E+00  0.00000000000E+00 -0.47781791722E+03  0.47781791723E+03  0.25500000920E-02 0.  1.
    10030    2    1    2    0    0  0.00000000000E+00  0.00000000000E+00 -0.41075386362E+03  0.54488197088E+03  0.35801902981E+03 0.  0.
        2    1    3    3  502    0 -0.70059105448E+02 -0.81854459706E+02 -0.42294442831E+03  0.43645208245E+03  0.25500000920E-02 0.  1.
       -2    1    3    3    0  502  0.70059105448E+02  0.81854459706E+02  0.12190564691E+02  0.10842988842E+03  0.25500000920E-02 0. -1.
</event>
<event>
 5   0  0.1967161E-01  0.5063033E+03  0.7818609E-02  0.1012147E+00
        1   -1    0    0  501    0  0.00000000000E+00  0.00000000000E+00  0.56490258024E+03  0.56490258027E+03  0.50400001928E-02 0. -1.
       -1   -1    0    0    0  501  0.00000000000E+00  0.00000000000E+00 -0.11344569767E+03  0.11344569779E+03  0.50400001928E-02 0.  1.
    10030    2    1    2    0    0  0.00000000000E+00  0.00000000000E+00  0.45145688257E+03  0.67834827805E+03  0.50630333745E+03 0.  0.
        1    1    3    3  502    0  0.23479682685E+02  0.15601558836E+03 -0.39517996004E+02  0.16264633824E+03  0.50400001928E-02 0.  1.
       -1    1    3    3    0  502 -0.23479682685E+02 -0.15601558836E+03  0.49097487857E+03  0.51570193981E+03  0.50400001928E-02 0. -1.
</event>
<event>
 5   0  0.1292375E-01  0.5006603E+03  0.7818609E-02  0.1013607E+00
        3   -1    0    0  501    0  0.00000000000E+00  0.00000000000E+00  0.84123152432E+02  0.84123213064E+02  0.10100000352E+00 0.  1.
       -3   -1    0    0    0  501  0.00000000000E+00  0.00000000000E+00 -0.74492155350E+03  0.74492156035E+03  0.10100000352E+00 0. -1.
    10030    2    1    2    0    0  0.00000000000E+00  0.00000000000E+00 -0.66079840107E+03  0.82904477341E+03  0.50066027351E+03 0.  0.
        4    1    3    3  502    0  0.14190034948E+03 -0.10659995893E+03 -0.38075808290E+02  0.18152311286E+03  0.12699999809E+01 0.  1.
       -4    1    3    3    0  502 -0.14190034948E+03  0.10659995893E+03 -0.62272259278E+03  0.64752166055E+03  0.12699999809E+01 0. -1.
</event>
<event>
 5   0  0.1292375E-01  0.4935232E+03  0.7818609E-02  0.1015483E+00
       -3   -1    0    0    0  501  0.00000000000E+00  0.00000000000E+00  0.13335239671E+03  0.13335243496E+03  0.10100000352E+00 0. -1.
        3   -1    0    0  501    0  0.00000000000E+00  0.00000000000E+00 -0.45661919523E+03  0.45661920640E+03  0.10100000352E+00 0.  1.
    10030    2    1    2    0    0  0.00000000000E+00  0.00000000000E+00 -0.32326679852E+03  0.58997164135E+03  0.49352316519E+03 0.  0.
        5    1    3    3  502    0  0.18180598437E+03  0.10537736881E+02 -0.36060933032E+03  0.40401192924E+03  0.46999998093E+01 0.  1.
       -5    1    3    3    0  502 -0.18180598437E+03 -0.10537736881E+02  0.37342531801E+02  0.18595971212E+03  0.46999998093E+01 0. -1.
</event>
<event>
 5   0  0.3187123E-01  0.5221534E+03  0.7818609E-02  0.1008153E+00
        2   -1    0    0  501    0  0.00000000000E+00  0.00000000000E+00  0.79158391637E+03  0.79158391638E+03  0.25500000920E-02 0. -1.
       -2   -1    0    0    0  501  0.00000000000E+00  0.00000000000E+00 -0.86107169746E+02  0.86107169784E+02  0.25500000920E-02 0.  1.
    10030    2    1    2    0    0  0.00000000000E+00  0.00000000000E+00  0.70547674663E+03  0.87769108616E+03  0.52215342831E+03 0.  0.
        5    1    3    3  502    0  0.22749598967E+03  0.26171126502E+01  0.13762380410E+03  0.26593923375E+03  0.46999998093E+01 0.  1.
       -5    1    3    3    0  502 -0.22749598967E+03 -0.26171126502E+01  0.56785294253E+03  0.61175185241E+03  0.46999998093E+01 0. -1.
</event>
<event>
 5   0  0.1984297E-01  0.5004606E+03  0.7818609E-02  0.1013659E+00
        1   -1    0    0  501    0  0.00000000000E+00  0.00000000000E+00  0.19540961048E+04  0.19540961048E+04  0.50400001928E-02 0.  1.
       -1   -1    0    0    0  501  0.00000000000E+00  0.00000000000E+00 -0.32043057680E+02  0.32043058077E+02  0.50400001928E-02 0. -1.
    10030    2    1    2    0    0  0.00000000000E+00  0.00000000000E+00  0.19220530471E+04  0.19861391629E+04  0.50046064620E+03 0.  0.
        3    1    3    3  502    0  0.19972351119E+02  0.12995844990E+03  0.18059526936E+04  0.18107327896E+04  0.10100000352E+00 0.  1.
       -3    1    3    3    0  502 -0.19972351119E+02 -0.12995844990E+03  0.11610035351E+03  0.17540637330E+03  0.10100000352E+00 0. -1.
</event>
<event>
 5   0  0.1984680E-01  0.5246459E+03  0.7818609E-02  0.1007539E+00
       -1   -1    0    0    0  501  0.00000000000E+00  0.00000000000E+00  0.83194845716E+03  0.83194845717E+03  0.50400001928E-02 0. -1.
        1   -1    0    0  501    0  0.00000000000E+00  0.00000000000E+00 -0.82713462379E+02  0.82713462532E+02  0.50400001928E-02 0.  1.
    10030    2    1    2    0    0  0.00000000000E+00  0.00000000000E+00  0.74923499478E+03  0.91466191970E+03  0.52464592818E+03 0.  0.
        5    1    3    3  502    0  0.17465919240E+02  0.17732448465E+03  0.39078676950E+02  0.18247811973E+03  0.46999998093E+01 0.  1.
       -5    1    3    3    0  502 -0.17465919240E+02 -0.17732448465E+03  0.71015631783E+03  0.73218379997E+03  0.46999998093E+01 0. -1.
</event>
<event>
 5   0  0.1984680E-01  0.4571790E+03  0.7818609E-02  0.1025603E+00
       -1   -1    0    0    0  501  0.00000000000E+00  0.00000000000E+00  0.98184583172E+02  0.98184583302E+02  0.50400001928E-02 0.  1.
        1   -1    0    0  501    0  0.00000000000E+00  0.00000000000E+00 -0.53219318849E+03  0.53219318852E+03  0.50400001928E-02 0. -1.
    10030    2    1    2    0    0  0.00000000000E+00  0.00000000000E+00 -0.43400860532E+03  0.63037777182E+03  0.45717903026E+03 0.  0.
        5    1    3    3  502    0 -0.25432831010E+02 -0.21676125332E+03 -0.12349880167E+03  0.25081131124E+03  0.46999998093E+01 0. -1.
       -5    1    3    3    0  502  0.25432831010E+02  0.21676125332E+03 -0.31050980365E+03  0.37956646058E+03  0.46999998093E+01 0.  1.
</event>
<event>
 5   0  0.3329246E-01  0.5076164E+03  0.7818609E-02  0.1011810E+00
        2   -1    0    0  501    0  0.00000000000E+00  0.00000000000E+00  0.23760583940E+03  0.23760583942E+03  0.25500000920E-02 0.  1.
       -2   -1    0    0    0  501  0.00000000000E+00  0.00000000000E+00 -0.27111543671E+03  0.27111543673E+03  0.25500000920E-02 0. -1.
    10030    2    1    2    0    0  0.00000000000E+00  0.00000000000E+00 -0.33509597308E+02  0.50872127614E+03  0.50761643363E+03 0.  0.
        2    1    3    3  502    0 -0.89384744578E+02  0.21919469356E+03 -0.10851096807E+03  0.26040463983E+03  0.25500000920E-02 0. -1.
       -2    1    3    3    0  502  0.89384744578E+02 -0.21919469356E+03  0.75001370764E+02  0.24831663631E+03  0.25500000920E-02 0.  1.
</event>
<event>
 5   0  0.1984680E-01  0.4084560E+03  0.7818609E-02  0.1040890E+00
       -1   -1    0    0    0  501  0.00000000000E+00  0.00000000000E+00  0.68411374238E+03  0.68411374240E+03  0.50400001928E-02 0.  1.
        1   -1    0    0  501    0  0.00000000000E+00  0.00000000000E+00 -0.60968055388E+02  0.60968055596E+02  0.50400001928E-02 0. -1.
    10030    2    1    2    0    0  0.00000000000E+00  0.00000000000E+00  0.62314568699E+03  0.74508179799E+03  0.40845604229E+03 0.  0.
        5    1    3    3  502    0  0.12014287690E+03  0.15099091518E+02  0.11698659434E+02  0.12174252365E+03  0.46999998093E+01 0. -1.
       -5    1    3    3    0  502 -0.12014287690E+03 -0.15099091518E+02  0.61144702756E+03  0.62333927435E+03  0.46999998093E+01 0.  1.
</event>
<event>
 5   0  0.1967161E-01  0.4828254E+03  0.7818609E-02  0.1018362E+00
        1   -1    0    0  501    0  0.00000000000E+00  0.00000000000E+00  0.37059345834E+03  0.37059345838E+03  0.50400001928E-02 0. -1.
       -1   -1    0    0    0  501  0.00000000000E+00  0.00000000000E+00 -0.15726150924E+03  0.15726150932E+03  0.50400001928E-02 0.  1.
    10030    2    1    2    0    0  0.00000000000E+00  0.00000000000E+00  0.21333194910E+03  0.52785496770E+03  0.48282537881E+03 0.  0.
        1    1    3    3  502    0 -0.97988047371E+02  0.10317434479E+03 -0.10654402867E+03  0.17775891798E+03  0.50400001928E-02 0.  1.
       -1    1    3    3    0  502  0.97988047371E+02 -0.10317434479E+03  0.31987597777E+03  0.35009604972E+03  0.50400001928E-02 0. -1.
</event>
<event>
 5   0  0.3329246E-01  0.4971688E+03  0.7818609E-02  0.1014521E+00
        2   -1    0    0  501    0  0.00000000000E+00  0.00000000000E+00  0.11416375195E+04  0.11416375195E+04  0.25500000920E-02 0.  1.
       -2   -1    0    0    0  501  0.00000000000E+00  0.00000000000E+00 -0.54127686925E+02  0.54127686986E+02  0.25500000920E-02 0. -1.
    10030    2    1    2    0    0  0.00000000000E+00  0.00000000000E+00  0.10875098326E+04  0.11957652065E+04  0.49716877729E+03 0.  0.
        2    1    3    3  502    0  0.20277406737E+03  0.49605414256E+02  0.86837150193E+03  0.89311090290E+03  0.25500000920E-02 0.  1.
       -2    1    3    3    0  502 -0.20277406737E+03 -0.49605414256E+02  0.21913833069E+03  0.30265430362E+03  0.25500000920E-02 0. -1.
</event>
<event>
 5   0  0.1292375E-01  0.5014753E+03  0.7818609E-02  0.1013395E+00
        4   -1    0    0  501    0  0.00000000000E+00  0.00000000000E+00  0.13204666128E+03  0.13205276845E+03  0.12699999809E+01 0. -1.
       -4   -1    0    0    0  501  0.00000000000E+00  0.00000000000E+00 -0.47609674745E+03  0.47609844132E+03  0.12699999809E+01 0.  1.
    10030    2    1    2    0    0  0.00000000000E+00  0.00000000000E+00 -0.34405008616E+03  0.60815120977E+03  0.50147525578E+03 0.  0.
        1    1    3    3  502    0  0.70376490326E+02  0.12681523407E+03  0.76019033128E+02  0.16374934322E+03  0.50400001928E-02 0. -1.
       -1    1    3    3    0  502 -0.70376490326E+02 -0.12681523407E+03 -0.42006911929E+03  0.44440186655E+03  0.50400001928E-02 0.  1.
</event>
<event>
 5   0  0.2000612E-01  0.4815226E+03  0.7818609E-02  0.1018718E+00
       -1   -1    0    0    0  501  0.00000000000E+00  0.00000000000E+00  0.15164018024E+03  0.15164018032E+03  0.50400001928E-02 0. -1.
        1   -1    0    0  501    0  0.00000000000E+00  0.00000000000E+00 -0.38226012887E+03  0.38226012890E+03  0.50400001928E-02 0.  1.
    10030    2    1    2    0    0  0.00000000000E+00  0.00000000000E+00 -0.23061994863E+03  0.53390030922E+03  0.48152256383E+03 0.  0.
        2    1    3    3  502    0  0.63727651862E+02 -0.79611012808E+02  0.12651202502E+03  0.16249436745E+03  0.25500000920E-02 0. -1.
       -2    1    3    3    0  502 -0.63727651862E+02  0.79611012808E+02 -0.35713197365E+03  0.37140594177E+03  0.25500000920E-02 0.  1.
</event>
<event>
 5   0  0.2000612E-01  0.4932559E+03  0.7818609E-02  0.1015554E+00
        1   -1    0    0  501    0  0.00000000000E+00  0.00000000000E+00  0.48225830698E+02  0.48225830961E+02  0.50400001928E-02 0. -1.
       -1   -1    0    0    0  501  0.00000000000E+00  0.00000000000E+00 -0.12612606583E+04  0.12612606583E+04  0.50400001928E-02 0.  1.
    10030    2    1    2    0    0  0.00000000000E+00  0.00000000000E+00 -0.12130348276E+04  0.13094864892E+04  0.49325588958E+03 0.  0.
        2    1    3    3  502    0  0.37221637337E+02 -0.71263627194E+02 -0.12254937016E+04  0.12281281560E+04  0.25500000920E-02 0.  1.
       -2    1    3    3    0  502 -0.37221637337E+02  0.71263627194E+02  0.12458874003E+02  0.81358333285E+02  0.25500000920E-02 0. -1.
</event>
<event>
 5   0  0.2013450E-01  0.4675203E+03  0.7818609E-02  0.1022622E+00
        1   -1    0    0  501    0  0.00000000000E+00  0.00000000000E+00  0.31320478757E+03  0.31320478761E+03  0.50400001928E-02 0. -1.
       -1   -1    0    0    0  501  0.00000000000E+00  0.00000000000E+00 -0.17446674337E+03  0.17446674344E+03  0.50400001928E-02 0.  1.
    10030    2    1    2    0    0  0.00000000000E+00  0.00000000000E+00  0.13873804420E+03  0.48767153105E+03  0.46752034960E+03 0.  0.
        4    1    3    3  502    0  0.21072542527E+02  0.11609595099E+03  0.27985838485E+03  0.30371804418E+03  0.12699999809E+01 0. -1.
       -4    1    3    3    0  502 -0.21072542527E+02 -0.11609595099E+03 -0.14112034066E+03  0.18395348687E+03  0.12699999809E+01 0.  1.
</event>
<event>
 5   0  0.1984680E-01  0.4233525E+03  0.7818609E-02  0.1035981E+00
       -1   -1    0    0    0  501  0.00000000000E+00  0.00000000000E+00  0.45118698752E+02  0.45118699033E+02  0.50400001928E-02 0.  1.
        1   -1    0    0  501    0  0.00000000000E+00  0.00000000000E+00 -0.99308814245E+03  0.99308814246E+03  0.50400001928E-02 0. -1.
    10030    2    1    2    0    0  0.00000000000E+00  0.00000000000E+00 -0.94796944370E+03  0.10382068415E+04  0.42335254758E+03 0.  0.
        5    1    3    3  502    0  0.20640717642E+03 -0.64671874574E+01 -0.58740426735E+03  0.62266492618E+03  0.46999998093E+01 0. -1.
       -5    1    3    3    0  502 -0.20640717642E+03  0.64671874574E+01 -0.36056517635E+03  0.41554191532E+03  0.46999998093E+01 0.  1.
</event>
<event>
 5   0  0.1984297E-01  0.4953692E+03  0.7818609E-02  0.1014995E+00
        1   -1    0    0  501    0  0.00000000000E+00  0.00000000000E+00  0.10145848130E+03  0.10145848143E+03  0.50400001928E-02 0.  1.
       -1   -1    0    0    0  501  0.00000000000E+00  0.00000000000E+00 -0.60465782091E+03  0.60465782093E+03  0.50400001928E-02 0. -1.
    10030    2    1    2    0    0  0.00000000000E+00  0.00000000000E+00 -0.50319933961E+03  0.70611630236E+03  0.49536921289E+03 0.  0.
        3    1    3    3  502    0  0.14992684822E+02  0.19608065668E+03 -0.36953440221E+02  0.20009490615E+03  0.10100000352E+00 0.  1.
       -3    1    3    3    0  502 -0.14992684822E+02 -0.19608065668E+03 -0.46624589939E+03  0.50602139621E+03  0.10100000352E+00 0. -1.
</event>
<event>
 5   0  0.3187123E-01  0.5271542E+03  0.7818609E-02  0.1006925E+00
        2   -1    0    0  501    0  0.00000000000E+00  0.00000000000E+00  0.16395527403E+03  0.16395527405E+03  0.25500000920E-02 0.  1.
       -2   -1    0    0    0  501  0.00000000000E+00  0.00000000000E+00 -0.42373070937E+03  0.42373070938E+03  0.25500000920E-02 0. -1.
    10030    2    1    2    0    0  0.00000000000E+00  0.00000000000E+00 -0.25977543534E+03  0.58768598343E+03  0.52715418836E+03 0.  0.
        5    1    3    3  502    0  0.25995347497E+03  0.43300644085E+02 -0.12966572506E+03  0.29374486410E+03  0.46999998093E+01 0.  1.
       -5    1    3    3    0  502 -0.25995347497E+03 -0.43300644085E+02 -0.13010971028E+03  0.29394111933E+03  0.46999998093E+01 0. -1.
</event>
<event>
 5   0  0.1984680E-01  0.4998967E+03  0.7818609E-02  0.1013806E+00
       -1   -1    0    0    0  501  0.00000000000E+00  0.00000000000E+00  0.33611932983E+03  0.33611932987E+03  0.50400001928E-02 0.  1.
        1   -1    0    0  501    0  0.00000000000E+00  0.00000000000E+00 -0.18586901087E+03  0.18586901094E+03  0.50400001928E-02 0. -1.
    10030    2    1    2    0    0  0.00000000000E+00  0.00000000000E+00  0.15025031896E+03  0.52198834081E+03  0.49989665892E+03 0.  0.
        5    1    3    3  502    0 -0.18930099145E+03  0.48714165311E+02 -0.87461152278E+02  0.21419495424E+03  0.46999998093E+01 0. -1.
       -5    1    3    3    0  502  0.18930099145E+03 -0.48714165311E+02  0.23771147123E+03  0.30779338657E+03  0.46999998093E+01 0.  1.
</event>
<event>
 5   0  0.3111146E-01  0.4837640E+03  0.7818609E-02  0.1018106E+00
        2   -1    0    0  501    0  0.00000000000E+00  0.00000000000E+00  0.27832969169E+03  0.27832969170E+03  0.25500000920E-02 0. -1.
       -2   -1    0    0    0  501  0.00000000000E+00  0.00000000000E+00 -0.21020715047E+03  0.21020715048E+03  0.25500000920E-02 0.  1.
    10030    2    1    2    0    0  0.00000000000E+00  0.00000000000E+00  0.68122541218E+02  0.48853684218E+03  0.48376395644E+03 0.  0.
        1    1    3    3  502    0  0.23046683278E+03  0.64908155567E+02  0.68734575654E+02  0.24910333516E+03  0.50400001928E-02 0. -1.
       -1    1    3    3    0  502 -0.23046683278E+03 -0.64908155567E+02 -0.61203443619E+00  0.23943350702E+03  0.50400001928E-02 0.  1.
</event>
<event>
 5   0  0.1984297E-01  0.5035199E+03  0.7818609E-02  0.1012864E+00
       -1   -1    0    0    0  501  0.00000000000E+00  0.00000000000E+00  0.65574318121E+03  0.65574318123E+03  0.50400001928E-02 0. -1.
        1   -1    0    0  501    0  0.00000000000E+00  0.00000000000E+00 -0.96658377927E+02  0.96658378059E+02  0.50400001928E-02 0.  1.
    10030    2    1    2    0    0  0.00000000000E+00  0.00000000000E+00  0.55908480328E+03  0.75240155929E+03  0.50351989947E+03 0.  0.
        3    1    3    3  502    0  0.20584336511E+03 -0.12518267500E+03  0.17033828472E+03  0.29505479919E+03  0.10100000352E+00 0.  1.
       -3    1    3    3    0  502 -0.20584336511E+03  0.12518267500E+03  0.38874651856E+03  0.45734676010E+03  0.10100000352E+00 0. -1.
</event>
<event>
 5   0  0.2000612E-01  0.4413105E+03  0.7818609E-02  0.1030345E+00
        1   -1    0    0  501    0  0.00000000000E+00  0.00000000000E+00  0.15414051045E+04  0.15414051045E+04  0.50400001928E-02 0.  1.
       -1   -1    0    0    0  501  0.00000000000E+00  0.00000000000E+00 -0.31587245457E+02  0.31587245859E+02  0.50400001928E-02 0. -1.
    10030    2    1    2    0    0  0.00000000000E+00  0.00000000000E+00  0.15098178590E+04  0.15729923504E+04  0.44131051067E+03 0.  0.
        2    1    3    3  502    0  0.65466429460E+02  0.61225741432E+02  0.36228916954E+02  0.96679776739E+02  0.25500000920E-02 0. -1.
       -2    1    3    3    0  502 -0.65466429460E+02 -0.61225741432E+02  0.14735889421E+04  0.14763125736E+04  0.25500000920E-02 0.  1.
</event>
<event>
 5   0  0.1292375E-01  0.5992391E+03  0.7818609E-02  0.9906986E-01
       -3   -1    0    0    0  501  0.00000000000E+00  0.00000000000E+00  0.11327655255E+04  0.11327655300E+04  0.10100000352E+00 0.  1.
        3   -1    0    0  501    0  0.00000000000E+00  0.00000000000E+00 -0.79250142935E+02  0.79250207295E+02  0.10100000352E+00 0. -1.
    10030    2    1    2    0    0  0.00000000000E+00  0.00000000000E+00  0.10535153825E+04  0.12120157373E+04  0.59923908930E+03 0.  0.
        2    1    3    3  502    0  0.88070158405E+02 -0.82121681178E+02  0.10816689648E+04  0.10883510797E+04  0.25500000920E-02 0.  1.
       -2    1    3    3    0  502 -0.88070158405E+02  0.82121681178E+02 -0.28153582276E+02  0.12366465753E+03  0.25500000920E-02 0. -1.
</event>
<event>
 5   0  0.3111146E-01  0.5031017E+03  0.7818609E-02  0.1012972E+00
       -2   -1    0    0    0  501  0.00000000000E+00  0.00000000000E+00  0.18548355144E+03  0.18548355146E+03  0.25500000920E-02 0.  1.
        2   -1    0    0  501    0  0.00000000000E+00  0.00000000000E+00 -0.34115056207E+03  0.34115056208E+03  0.25500000920E-02 0. -1.
    10030    2    1    2    0    0  0.00000000000E+00  0.00000000000E+00 -0.15566701063E+03  0.52663411354E+03  0.50310165111E+03 0.  0.
        1    1    3    3  502    0  0.66775521571E+02  0.12340142984E+02  0.17570772183E+03  0.18837317470E+03  0.50400001928E-02 0.  1.
       -1    1    3    3    0  502 -0.66775521571E+02 -0.12340142984E+02 -0.33137473246E+03  0.33826093885E+03  0.50400001928E-02 0. -1.
</event>
<event>
 5   0  0.3178149E-01  0.4109479E+03  0.7818609E-02  0.1040053E+00
       -2   -1    0    0    0  501  0.00000000000E+00  0.00000000000E+00  0.31407848360E+02  0.31407848464E+02  0.25500000920E-02 0.  1.
        2   -1    0    0  501    0  0.00000000000E+00  0.00000000000E+00 -0.13442354631E+04  0.13442354631E+04  0.25500000920E-02 0. -1.
    10030    2    1    2    0    0  0.00000000000E+00  0.00000000000E+00 -0.13128276148E+04  0.13756433116E+04  0.41094789771E+03 0.  0.
        3    1    3    3  502    0  0.47643043379E+02 -0.16850668581E+03 -0.10162520034E+04  0.10312286397E+04  0.10100000352E+00 0. -1.
       -3    1    3    3    0  502 -0.47643043379E+02  0.16850668581E+03 -0.29657561133E+03  0.34441467184E+03  0.10100000352E+00 0.  1.
</event>
<event>
 5   0  0.3111146E-01  0.4890190E+03  0.7818609E-02  0.1016686E+00
        2   -1    0    0  501    0  0.00000000000E+00  0.00000000000E+00  0.42256625905E+03  0.42256625905E+03  0.25500000920E-02 0.  1.
       -2   -1    0    0    0  501  0.00000000000E+00  0.00000000000E+00 -0.14148051182E+03  0.14148051184E+03  0.25500000920E-02 0. -1.
    10030    2    1    2    0    0  0.00000000000E+00  0.00000000000E+00  0.28108574723E+03  0.56404677089E+03  0.48901897965E+03 0.  0.
        1    1    3    3  502    0 -0.85191332801E+02 -0.41040937874E+02  0.40062161399E+03  0.41163041602E+03  0.50400001928E-02 0.  1.
       -1    1    3    3    0  502  0.85191332801E+02  0.41040937874E+02 -0.11953586676E+03  0.15241635488E+03  0.50400001928E-02 0. -1.
</event>
<event>
 5   0  0.3178149E-01  0.4967884E+03  0.7818609E-02  0.1014621E+00
        2   -1    0    0  501    0  0.00000000000E+00  0.00000000000E+00  0.12572272406E+04  0.12572272406E+04  0.25500000920E-02 0.  1.
       -2   -1    0    0    0  501  0.00000000000E+00  0.00000000000E+00 -0.49075995948E+02  0.49075996014E+02  0.25500000920E-02 0. -1.
    10030    2    1    2    0    0  0.00000000000E+00  0.00000000000E+00  0.12081512446E+04  0.13063032366E+04  0.49678840167E+03 0.  0.
        3    1    3    3  502    0  0.26497902114E+02 -0.10473509501E+03  0.15937249656E+02  0.10920432716E+03  0.10100000352E+00 0. -1.
       -3    1    3    3    0  502 -0.26497902114E+02  0.10473509501E+03  0.11922139950E+04  0.11970989094E+04  0.10100000352E+00 0.  1.
</event>
<event>
 5   0  0.3329246E-01  0.4908073E+03  0.7818609E-02  0.1016207E+00
       -2   -1    0    0    0  501  0.00000000000E+00  0.00000000000E+00  0.47837135544E+02  0.47837135612E+02  0.25500000920E-02 0. -1.
        2   -1    0    0  501    0  0.00000000000E+00  0.00000000000E+00 -0.12589161475E+04  0.12589161475E+04  0.25500000920E-02 0.  1.
    10030    2    1    2    0    0  0.00000000000E+00  0.00000000000E+00 -0.12110790119E+04  0.13067532831E+04  0.49080726331E+03 0.  0.
        2    1    3    3  502    0  0.41180690557E+02  0.20910744079E+03 -0.92945420916E+03  0.95357584806E+03  0.25500000920E-02 0.  1.
       -2    1    3    3    0  502 -0.41180690557E+02 -0.20910744079E+03 -0.28162480275E+03  0.35317743501E+03  0.25500000920E-02 0. -1.
</event>
<event>
 5   0  0.3111146E-01  0.5123056E+03  0.7818609E-02  0.1010616E+00
       -2   -1    0    0    0  501  0.00000000000E+00  0.00000000000E+00  0.45610431319E+02  0.45610431390E+02  0.25500000920E-02 0.  1.
        2   -1    0    0  501    0  0.00000000000E+00  0.00000000000E+00 -0.14385798657E+04  0.14385798657E+04  0.25500000920E-02 0. -1.
    10030    2    1    2    0    0  0.00000000000E+00  0.00000000000E+00 -0.13929694344E+04  0.14841902971E+04  0.51230556591E+03 0.  0.
        1    1    3    3  502    0 -0.21944859360E+03 -0.12505877517E+03 -0.57299752157E+03  0.62619768622E+03  0.50400001928E-02 0.  1.
       -1    1    3    3    0  502  0.21944859360E+03  0.12505877517E+03 -0.81997191283E+03  0.85799261088E+03  0.50400001928E-02 0. -1.
</event>
<event>
 5   0  0.1984680E-01  0.4972433E+03  0.7818609E-02  0.1014501E+00
        1   -1    0    0  501    0  0.00000000000E+00  0.00000000000E+00  0.67095805691E+03  0.67095805693E+03  0.50400001928E-02 0. -1.
       -1   -1    0    0    0  501  0.00000000000E+00  0.00000000000E+00 -0.92126070581E+02  0.92126070718E+02  0.50400001928E-02 0.  1.
    10030    2    1    2    0    0  0.00000000000E+00  0.00000000000E+00  0.57883198633E+03  0.76308412765E+03  0.49724331818E+03 0.  0.
        5    1    3    3  502    0 -0.95330421514E+02  0.14512400130E+03  0.16434076421E+02  0.17447359080E+03  0.46999998093E+01 0.  1.
       -5    1    3    3    0  502  0.95330421514E+02 -0.14512400130E+03  0.56239790991E+03  0.58861053685E+03  0.46999998093E+01 0. -1.
</event>
<event>
 5   0  0.1984297E-01  0.5039789E+03  0.7818609E-02  0.1012746E+00
       -1   -1    0    0    0  501  0.00000000000E+00  0.00000000000E+00  0.10770869760E+03  0.10770869772E+03  0.50400001928E-02 0. -1.
        1   -1    0    0  501    0  0.00000000000E+00  0.00000000000E+00 -0.58954092948E+03  0.58954092950E+03  0.50400001928E-02 0.  1.
    10030    2    1    2    0    0  0.00000000000E+00  0.00000000000E+00 -0.48183223187E+03  0.69724962722E+03  0.50397891125E+03 0.  0.
        3    1    3    3  502    0 -0.14339191702E+03  0.20276791935E+03 -0.29998002042E+03  0.38944074496E+03  0.10100000352E+00 0.  1.
       -3    1    3    3    0  502  0.14339191702E+03 -0.20276791935E+03 -0.18185221146E+03  0.30780888226E+03  0.10100000352E+00 0. -1.
</event>
<event>
 5   0  0.3329246E-01  0.5204100E+03  0.7818609E-02  0.1008585E+00
       -2   -1    0    0    0  501  0.00000000000E+00  0.00000000000E+00  0.88206085686E+02  0.88206085723E+02  0.25500000920E-02 0. -1.
        2   -1    0    0  501    0  0.00000000000E+00  0.00000000000E+00 -0.76759614380E+03  0.76759614380E+03  0.25500000920E-02 0.  1.
    10030    2    1    2    0    0  0.00000000000E+00  0.00000000000E+00 -0.67939005811E+03  0.85580222952E+03  0.52041003545E+03 0.  0.
        2    1    3    3  502    0  0.89159332485E+02 -0.24385241424E+03 -0.36785665200E+03  0.45025759619E+03  0.25500000920E-02 0. -1.
       -2    1    3    3    0  502 -0.89159332485E+02  0.24385241424E+03 -0.31153340611E+03  0.40554463333E+03  0.25500000920E-02 0.  1.
</event>
<event>
 5   0  0.1984297E-01  0.2792462E+03  0.7818609E-02  0.1096101E+00
       -1   -1    0    0    0  501  0.00000000000E+00  0.00000000000E+00  0.31434292493E+02  0.31434292897E+02  0.50400001928E-02 0.  1.
        1   -1    0    0  501    0  0.00000000000E+00  0.00000000000E+00 -0.62016999774E+03  0.62016999776E+03  0.50400001928E-02 0. -1.
    10030    2    1    2    0    0  0.00000000000E+00  0.00000000000E+00 -0.58873570525E+03  0.65160429066E+03  0.27924616554E+03 0.  0.
        3    1    3    3  502    0  0.11210576459E+03  0.45933569160E+02 -0.13241633140E+03  0.17947615510E+03  0.10100000352E+00 0. -1.
       -3    1    3    3    0  502 -0.11210576459E+03 -0.45933569160E+02 -0.45631937385E+03  0.47212813555E+03  0.10100000352E+00 0.  1.
</event>
<event>
 5   0  0.1984297E-01  0.5170673E+03  0.7818609E-02  0.1009418E+00
       -1   -1    0    0    0  501  0.00000000000E+00  0.00000000000E+00  0.48688043363E+02  0.48688043624E+02  0.50400001928E-02 0.  1.
        1   -1    0    0  501    0  0.00000000000E+00  0.00000000000E+00 -0.13728146733E+04  0.13728146733E+04  0.50400001928E-02 0. -1.
    10030    2    1    2    0    0  0.00000000000E+00  0.00000000000E+00 -0.13241266300E+04  0.14215027170E+04  0.51706734778E+03 0.  0.
        3    1    3    3  502    0  0.17455266603E+03 -0.14170298472E+03 -0.10129591402E+04  0.10376100419E+04  0.10100000352E+00 0. -1.
       -3    1    3    3    0  502 -0.17455266603E+03  0.14170298472E+03 -0.31116748978E+03  0.38389267509E+03  0.10100000352E+00 0.  1.
</event>
<event>
 5   0  0.3187123E-01  0.4997718E+03  0.7818609E-02  0.1013838E+00
        2   -1    0    0  501    0  0.00000000000E+00  0.00000000000E+00  0.14192637628E+03  0.14192637630E+03  0.25500000920E-02 0. -1.
       -2   -1    0    0    0  501  0.00000000000E+00  0.00000000000E+00 -0.43996731019E+03  0.43996731020E+03  0.25500000920E-02 0.  1.
    10030    2    1    2    0    0  0.00000000000E+00  0.00000000000E+00 -0.29804093391E+03  0.58189368650E+03  0.49977181203E+03 0.  0.
        5    1    3    3  502    0 -0.15387949184E+03 -0.19655744621E+03 -0.13696831361E+03  0.28477383412E+03  0.46999998093E+01 0.  1.
       -5    1    3    3    0  502  0.15387949184E+03  0.19655744621E+03 -0.16107262030E+03  0.29711985238E+03  0.46999998093E+01 0. -1.
</event>
<event>
 5   0  0.3178149E-01  0.4968403E+03  0.7818609E-02  0.1014607E+00
        2   -1    0    0  501    0  0.00000000000E+00  0.00000000000E+00  0.75229620515E+03  0.75229620516E+03  0.25500000920E-02 0. -1.
       -2   -1    0    0    0  501  0.00000000000E+00  0.00000000000E+00 -0.82032287211E+02  0.82032287251E+02  0.25500000920E-02 0.  1.
    10030    2    1    2    0    0  0.00000000000E+00  0.00000000000E+00  0.67026391794E+03  0.83432849241E+03  0.49684033004E+03 0.  0.
        3    1    3    3  502    0 -0.24746897666E+03  0.15062719190E+02  0.30885860401E+03  0.39605735366E+03  0.10100000352E+00 0. -1.
       -3    1    3    3    0  502  0.24746897666E+03 -0.15062719190E+02  0.36140531393E+03  0.43827113875E+03  0.10100000352E+00 0.  1.
</event>
<event>
 5   0  0.1984680E-01  0.5879379E+03  0.7818609E-02  0.9930752E-01
        1   -1    0    0  501    0  0.00000000000E+00  0.00000000000E+00  0.28774935251E+03  0.28774935255E+03  0.50400001928E-02 0. -1.
       -1   -1    0    0    0  501  0.00000000000E+00  0.00000000000E+00 -0.30032297136E+03  0.30032297140E+03  0.50400001928E-02 0.  1.
    10030    2    1    2    0    0  0.00000000000E+00  0.00000000000E+00 -0.12573618851E+02  0.58807232395E+03  0.58793788984E+03 0.  0.
        5    1    3    3  502    0  0.26531865305E+03 -0.12096714872E+03  0.30716403935E+02  0.29324499347E+03  0.46999998093E+01 0.  1.
       -5    1    3    3    0  502 -0.26531865305E+03  0.12096714872E+03 -0.43290022786E+02  0.29482733048E+03  0.46999998093E+01 0. -1.
</event>
<event>
 5   0  0.3329246E-01  0.4906498E+03  0.7818609E-02  0.1016249E+00
       -2   -1    0    0    0  501  0.00000000000E+00  0.00000000000E+00  0.76175567491E+02  0.76175567534E+02  0.25500000920E-02 0.  1.
        2   -1    0    0  501    0  0.00000000000E+00  0.00000000000E+00 -0.79007373090E+03  0.79007373090E+03  0.25500000920E-02 0. -1.
    10030    2    1    2    0    0  0.00000000000E+00  0.00000000000E+00 -0.71389816341E+03  0.86624929843E+03  0.49064983371E+03 0.  0.
        2    1    3    3  502    0  0.14343466891E+02 -0.38262361234E+02 -0.78402320143E+03  0.78508733509E+03  0.25500000920E-02 0. -1.
       -2    1    3    3    0  502 -0.14343466891E+02  0.38262361234E+02  0.70125038024E+02  0.81161963346E+02  0.25500000920E-02 0.  1.
</event>
<event>
 5   0  0.1967161E-01  0.6401179E+03  0.7818609E-02  0.9825501E-01
       -1   -1    0    0    0  501  0.00000000000E+00  0.00000000000E+00  0.41652345147E+03  0.41652345150E+03  0.50400001928E-02 0.  1.
        1   -1    0    0  501    0  0.00000000000E+00  0.00000000000E+00 -0.24593507401E+03  0.24593507406E+03  0.50400001928E-02 0. -1.
    10030    2    1    2    0    0  0.00000000000E+00  0.00000000000E+00  0.17058837746E+03  0.66245852556E+03  0.64011788255E+03 0.  0.
        1    1    3    3  502    0 -0.11383542083E+03 -0.15813602735E+03  0.34806979392E+03  0.39889608628E+03  0.50400001928E-02 0.  1.
       -1    1    3    3    0  502  0.11383542083E+03  0.15813602735E+03 -0.17748141646E+03  0.26356243928E+03  0.50400001928E-02 0. -1.
</event>
<event>
 5   0  0.1292375E-01  0.4831608E+03  0.7818609E-02  0.1018270E+00
        3   -1    0    0  501    0  0.00000000000E+00  0.00000000000E+00  0.12444813165E+03  0.12444817263E+03  0.10100000352E+00 0.  1.
       -3   -1    0    0    0  501  0.00000000000E+00  0.00000000000E+00 -0.46895900336E+03  0.46895901424E+03  0.10100000352E+00 0. -1.
    10030    2    1    2    0    0  0.00000000000E+00  0.00000000000E+00 -0.34451087171E+03  0.59340718687E+03  0.48316078970E+03 0.  0.
        2    1    3    3  502    0  0.54770587424E+02  0.23484833735E+03 -0.15456250205E+03  0.28643171237E+03  0.25500000920E-02 0.  1.
       -2    1    3    3    0  502 -0.54770587424E+02 -0.23484833735E+03 -0.18994836966E+03  0.30697547450E+03  0.25500000920E-02 0. -1.
</event>
<event>
 5   0  0.3178149E-01  0.5189075E+03  0.7818609E-02  0.1008958E+00
        2   -1    0    0  501    0  0.00000000000E+00  0.00000000000E+00  0.64928697243E+03  0.64928697243E+03  0.25500000920E-02 0. -1.
       -2   -1    0    0    0  501  0.00000000000E+00  0.00000000000E+00 -0.10367718880E+03  0.10367718883E+03  0.25500000920E-02 0.  1.
    10030    2    1    2    0    0  0.00000000000E+00  0.00000000000E+00  0.54560978363E+03  0.75296416126E+03  0.51890749864E+03 0.  0.
        3    1    3    3  502    0  0.19864374766E+03  0.16415871003E+03  0.22906047352E+03  0.34478418074E+03  0.10100000352E+00 0.  1.
       -3    1    3    3    0  502 -0.19864374766E+03 -0.16415871003E+03  0.31654931012E+03  0.40817998052E+03  0.10100000352E+00 0. -1.
</event>
<event>
 5   0  0.1292375E-01  0.4885177E+03  0.7818609E-02  0.1016820E+00
       -4   -1    0    0    0  501  0.00000000000E+00  0.00000000000E+00  0.12809574919E+03  0.12810204472E+03  0.12699999809E+01 0. -1.
        4   -1    0    0  501    0  0.00000000000E+00  0.00000000000E+00 -0.46574535599E+03  0.46574708752E+03  0.12699999809E+01 0.  1.
    10030    2    1    2    0    0  0.00000000000E+00  0.00000000000E+00 -0.33764960680E+03  0.59384913224E+03  0.48851769148E+03 0.  0.
        5    1    3    3  502    0 -0.20963508724E+03  0.49772241432E+02 -0.30857366384E+03  0.37638270660E+03  0.46999998093E+01 0.  1.
       -5    1    3    3    0  502  0.20963508724E+03 -0.49772241432E+02 -0.29075942965E+02  0.21746642563E+03  0.46999998093E+01 0. -1.
</event>
<event>
 5   0  0.1984297E-01  0.4082056E+03  0.7818609E-02  0.1040975E+00
       -1   -1    0    0    0  501  0.00000000000E+00  0.00000000000E+00  0.82651152488E+02  0.82651152642E+02  0.50400001928E-02 0.  1.
        1   -1    0    0  501    0  0.00000000000E+00  0.00000000000E+00 -0.50402146396E+03  0.50402146399E+03  0.50400001928E-02 0. -1.
    10030    2    1    2    0    0  0.00000000000E+00  0.00000000000E+00 -0.42137031148E+03  0.58667261663E+03  0.40820560960E+03 0.  0.
        3    1    3    3  502    0 -0.19382313077E+03  0.83591810348E+01 -0.30181605901E+03  0.35878994635E+03  0.10100000352E+00 0. -1.
       -3    1    3    3    0  502  0.19382313077E+03 -0.83591810348E+01 -0.11955425247E+03  0.22788267028E+03  0.10100000352E+00 0.  1.
</event>
<event>
 5   0  0.1984680E-01  0.5035637E+03  0.7818609E-02  0.1012853E+00
        1   -1    0    0  501    0  0.00000000000E+00  0.00000000000E+00  0.55818501042E+03  0.55818501044E+03  0.50400001928E-02 0.  1.
       -1   -1    0    0    0  501  0.00000000000E+00  0.00000000000E+00 -0.11357182218E+03  0.11357182229E+03  0.50400001928E-02 0. -1.
    10030    2    1    2    0    0  0.00000000000E+00  0.00000000000E+00  0.44461318824E+03  0.67175683273E+03  0.50356365552E+03 0.  0.
        5    1    3    3  502    0 -0.13442819000E+03  0.12634366717E+03 -0.61877586415E+01  0.18464571172E+03  0.46999998093E+01 0. -1.
       -5    1    3    3    0  502  0.13442819000E+03 -0.12634366717E+03  0.45080094688E+03  0.48711112101E+03  0.46999998093E+01 0.  1.
</event>
<event>
 5   0  0.2000612E-01  0.4966162E+03  0.7818609E-02  0.1014666E+00
        1   -1    0    0  501    0  0.00000000000E+00  0.00000000000E+00  0.75906579291E+03  0.75906579293E+03  0.50400001928E-02 0. -1.
       -1   -1    0    0    0  501  0.00000000000E+00  0.00000000000E+00 -0.81227359515E+02  0.81227359672E+02  0.50400001928E-02 0.  1.
    10030    2    1    2    0    0  0.00000000000E+00  0.00000000000E+00  0.67783843340E+03  0.84029315260E+03  0.49661619035E+03 0.  0.
        2    1    3    3  502    0  0.16256646704E+03  0.51215508958E+02  0.64445275030E+03  0.66661100496E+03  0.25500000920E-02 0. -1.
       -2    1    3    3    0  502 -0.16256646704E+03 -0.51215508958E+02  0.33385683099E+02  0.17368214764E+03  0.25500000920E-02 0.  1.
</event>
<event>
 5   0  0.1292375E-01  0.5235509E+03  0.7818609E-02  0.1007808E+00
        3   -1    0    0  501    0  0.00000000000E+00  0.00000000000E+00  0.16528121204E+03  0.16528124290E+03  0.10100000352E+00 0. -1.
       -3   -1    0    0    0  501  0.00000000000E+00  0.00000000000E+00 -0.41460467379E+03  0.41460468610E+03  0.10100000352E+00 0.  1.
    10030    2    1    2    0    0  0.00000000000E+00  0.00000000000E+00 -0.24932346176E+03  0.57988592899E+03  0.52355085910E+03 0.  0.
        1    1    3    3  502    0  0.67625937617E+02 -0.43097195593E+02  0.15134177385E+03  0.17127454056E+03  0.50400001928E-02 0. -1.
       -1    1    3    3    0  502 -0.67625937617E+02  0.43097195593E+02 -0.40066523561E+03  0.40861138843E+03  0.50400001928E-02 0.  1.
</event>
<event>
 5   0  0.3117389E-01  0.3115872E+03  0.7818609E-02  0.1079588E+00
       -2   -1    0    0    0  501  0.00000000000E+00  0.00000000000E+00  0.65790057934E+02  0.65790057983E+02  0.25500000920E-02 0. -1.
        2   -1    0    0  501    0  0.00000000000E+00  0.00000000000E+00 -0.36892571071E+03  0.36892571072E+03  0.25500000920E-02 0.  1.
    10030    2    1    2    0    0  0.00000000000E+00  0.00000000000E+00 -0.30313565277E+03  0.43471576870E+03  0.31158718776E+03 0.  0.
        4    1    3    3  502    0  0.66821240027E+02 -0.11371961025E+03 -0.26723037401E+03  0.29801159972E+03  0.12699999809E+01 0.  1.
       -4    1    3    3    0  502 -0.66821240027E+02  0.11371961025E+03 -0.35905278760E+02  0.13670416898E+03  0.12699999809E+01 0. -1.
</event>
<event>
 5   0  0.2013450E-01  0.4967608E+03  0.7818609E-02  0.1014628E+00
       -1   -1    0    0    0  501  0.00000000000E+00  0.00000000000E+00  0.17808485580E+03  0.17808485588E+03  0.50400001928E-02 0. -1.
        1   -1    0    0  501    0  0.00000000000E+00  0.00000000000E+00 -0.34642378273E+03  0.34642378277E+03  0.50400001928E-02 0.  1.
    10030    2    1    2    0    0  0.00000000000E+00  0.00000000000E+00 -0.16833892693E+03  0.52450863864E+03  0.49676082544E+03 0.  0.
        4    1    3    3  502    0 -0.19020571199E+03 -0.11614306561E+03  0.31608533595E+02  0.22509583927E+03  0.12699999809E+01 0. -1.
       -4    1    3    3    0  502  0.19020571199E+03  0.11614306561E+03 -0.19994746052E+03  0.29941279937E+03  0.12699999809E+01 0.  1.
</event>
<event>
 5   0  0.1984297E-01  0.4873673E+03  0.7818609E-02  0.1017130E+00
        1   -1    0    0  501    0  0.00000000000E+00  0.00000000000E+00  0.26149593988E+02  0.26149594473E+02  0.50400001928E-02 0. -1.
       -1   -1    0    0    0  501  0.00000000000E+00  0.00000000000E+00 -0.22708469760E+04  0.22708469761E+04  0.50400001928E-02 0.  1.
    10030    2    1    2    0    0  0.00000000000E+00  0.00000000000E+00 -0.22446973821E+04  0.22969965705E+04  0.48736732347E+03 0.  0.
        3    1    3    3  502    0  0.10503650184E+03  0.45660313834E+02 -0.10860911641E+03  0.15784004988E+03  0.10100000352E+00 0. -1.
       -3    1    3    3    0  502 -0.10503650184E+03 -0.45660313834E+02 -0.21360882656E+04  0.21391565206E+04  0.10100000352E+00 0.  1.
</event>
<event>
 5   0  0.1292375E-01  0.5030963E+03  0.7818609E-02  0.1012974E+00
       -4   -1    0    0    0  501  0.00000000000E+00  0.00000000000E+00  0.71399507149E+03  0.71399620098E+03  0.12699999809E+01 0.  1.
        4   -1    0    0  501    0  0.00000000000E+00  0.00000000000E+00 -0.88617385340E+02  0.88626485232E+02  0.12699999809E+01 0. -1.
    10030    2    1    2    0    0  0.00000000000E+00  0.00000000000E+00  0.62537768615E+03  0.80262268621E+03  0.50309633877E+03 0.  0.
        4    1    3    3  502    0 -0.17430920061E+03 -0.11965915824E+03  0.95268772569E+02  0.23190464311E+03  0.12699999809E+01 0. -1.
       -4    1    3    3    0  502  0.17430920061E+03  0.11965915824E+03  0.53010891358E+03  0.57071804310E+03  0.12699999809E+01 0.  1.
</event>
<event>
 5   0  0.3111146E-01  0.4895443E+03  0.7818609E-02  0.1016545E+00
       -2   -1    0    0    0  501  0.00000000000E+00  0.00000000000E+00  0.10050962749E+04  0.10050962749E+04  0.25500000920E-02 0. -1.
        2   -1    0    0  501    0  0.00000000000E+00  0.00000000000E+00 -0.59609614021E+02  0.59609614076E+02  0.25500000920E-02 0.  1.
    10030    2    1    2    0    0  0.00000000000E+00  0.00000000000E+00  0.94548666087E+03  0.10647058890E+04  0.48954428209E+03 0.  0.
        1    1    3    3  502    0 -0.13956051884E+03  0.14142055180E+03  0.16182893633E+03  0.25625283520E+03  0.50400001928E-02 0.  1.
       -1    1    3    3    0  502  0.13956051884E+03 -0.14142055180E+03  0.78365772453E+03  0.80845305376E+03  0.50400001928E-02 0. -1.
</event>
<event>
 5   0  0.3178149E-01  0.5476997E+03  0.7818609E-02  0.1002028E+00
       -2   -1    0    0    0  501  0.00000000000E+00  0.00000000000E+00  0.66997426721E+02  0.66997426769E+02  0.25500000920E-02 0. -1.
        2   -1    0    0  501    0  0.00000000000E+00  0.00000000000E+00 -0.11193523592E+04  0.11193523592E+04  0.25500000920E-02 0.  1.
    10030    2    1    2    0    0  0.00000000000E+00  0.00000000000E+00 -0.10523549325E+04  0.11863497860E+04  0.54769965379E+03 0.  0.
        3    1    3    3  502    0  0.23538740971E+03  0.14551360905E+02 -0.82767812275E+03  0.86062190295E+03  0.10100000352E+00 0.  1.
       -3    1    3    3    0  502 -0.23538740971E+03 -0.14551360905E+02 -0.22467680974E+03  0.32572788304E+03  0.10100000352E+00 0. -1.
</event>
<event>
 5   0  0.3178149E-01  0.4836187E+03  0.7818609E-02  0.1018145E+00
       -2   -1    0    0    0  501  0.00000000000E+00  0.00000000000E+00  0.18904873829E+03  0.18904873830E+03  0.25500000920E-02 0.  1.
        2   -1    0    0  501    0  0.00000000000E+00  0.00000000000E+00 -0.30929460414E+03  0.30929460415E+03  0.25500000920E-02 0. -1.
    10030    2    1    2    0    0  0.00000000000E+00  0.00000000000E+00 -0.12024586585E+03  0.49834334245E+03  0.48361867077E+03 0.  0.
        3    1    3    3  502    0  0.11951768832E+03 -0.64658061977E+02 -0.26622931163E+03  0.29890332780E+03  0.10100000352E+00 0. -1.
       -3    1    3    3    0  502 -0.11951768832E+03  0.64658061977E+02  0.14598344578E+03  0.19944001465E+03  0.10100000352E+00 0.  1.
</event>
<event>
 5   0  0.2013450E-01  0.4985062E+03  0.7818609E-02  0.1014170E+00
       -1   -1    0    0    0  501  0.00000000000E+00  0.00000000000E+00  0.30317317521E+03  0.30317317525E+03  0.50400001928E-02 0. -1.
        1   -1    0    0  501    0  0.00000000000E+00  0.00000000000E+00 -0.20492287015E+03  0.20492287021E+03  0.50400001928E-02 0.  1.
    10030    2    1    2    0    0  0.00000000000E+00  0.00000000000E+00  0.98250305062E+02  0.50809604547E+03  0.49850623765E+03 0.  0.
        4    1    3    3  502    0  0.12617635148E+03  0.10568451655E+03  0.23990448904E+03  0.29093893771E+03  0.12699999809E+01 0. -1.
       -4    1    3    3    0  502 -0.12617635148E+03 -0.10568451655E+03 -0.14165418398E+03  0.21715710776E+03  0.12699999809E+01 0.  1.
</event>
<event>
 5   0  0.3111146E-01  0.5157936E+03  0.7818609E-02  0.1009737E+00
       -2   -1    0    0    0  501  0.00000000000E+00  0.00000000000E+00  0.36976603493E+03  0.36976603493E+03  0.25500000920E-02 0.  1.
        2   -1    0    0  501    0  0.00000000000E+00  0.00000000000E+00 -0.17987257993E+03  0.17987257995E+03  0.25500000920E-02 0. -1.
    10030    2    1    2    0    0  0.00000000000E+00  0.00000000000E+00  0.18989345500E+03  0.54963861488E+03  0.51579364354E+03 0.  0.
        1    1    3    3  502    0 -0.22210059283E+03 -0.93299357601E+02 -0.31672141504E+01  0.24092213417E+03  0.50400001928E-02 0. -1.
       -1    1    3    3    0  502  0.22210059283E+03  0.93299357601E+02  0.19306066915E+03  0.30871648071E+03  0.50400001928E-02 0.  1.
</event>
<event>
 5   0  0.2000612E-01  0.4987346E+03  0.7818609E-02  0.1014110E+00
        1   -1    0    0  501    0  0.00000000000E+00  0.00000000000E+00  0.64927977338E+02  0.64927977534E+02  0.50400001928E-02 0.  1.
       -1   -1    0    0    0  501  0.00000000000E+00  0.00000000000E+00 -0.95773887355E+03  0.95773887356E+03  0.50400001928E-02 0. -1.
    10030    2    1    2    0    0  0.00000000000E+00  0.00000000000E+00 -0.89281089621E+03  0.10226668511E+04  0.49873459068E+03 0.  0.
        2    1    3    3  502    0 -0.12850926406E+03 -0.97128268859E+02 -0.56075462233E+02  0.17056667034E+03  0.25500000920E-02 0.  1.
       -2    1    3    3    0  502  0.12850926406E+03  0.97128268859E+02 -0.83673543398E+03  0.85210018075E+03  0.25500000920E-02 0. -1.
</event>
<event>
 5   0  0.1967161E-01  0.5117600E+03  0.7818609E-02  0.1010754E+00
        1   -1    0    0  501    0  0.00000000000E+00  0.00000000000E+00  0.57678598652E+03  0.57678598654E+03  0.50400001928E-02 0. -1.
       -1   -1    0    0    0  501  0.00000000000E+00  0.00000000000E+00 -0.11351624615E+03  0.11351624626E+03  0.50400001928E-02 0.  1.
    10030    2    1    2    0    0  0.00000000000E+00  0.00000000000E+00  0.46326974038E+03  0.69030223280E+03  0.51176002214E+03 0.  0.
        1    1    3    3  502    0  0.15281440206E+03 -0.12970855978E+03  0.17090927805E+02  0.20116821766E+03  0.50400001928E-02 0.  1.
       -1    1    3    3    0  502 -0.15281440206E+03  0.12970855978E+03  0.44617881257E+03  0.48913401514E+03  0.50400001928E-02 0. -1.
</event>
<event>
 5   0  0.1984680E-01  0.4883649E+03  0.7818609E-02  0.1016861E+00
       -1   -1    0    0    0  501  0.00000000000E+00  0.00000000000E+00  0.52694334369E+03  0.52694334371E+03  0.50400001928E-02 0. -1.
        1   -1    0    0  501    0  0.00000000000E+00  0.00000000000E+00 -0.11315269537E+03  0.11315269548E+03  0.50400001928E-02 0.  1.
    10030    2    1    2    0    0  0.00000000000E+00  0.00000000000E+00  0.41379064832E+03  0.64009603920E+03  0.48836486233E+03 0.  0.
        5    1    3    3  502    0 -0.11973237446E+03  0.19206907956E+03  0.32685479420E+03  0.39759592466E+03  0.46999998093E+01 0. -1.
       -5    1    3    3    0  502  0.11973237446E+03 -0.19206907956E+03  0.86935854113E+02  0.24250011453E+03  0.46999998093E+01 0.  1.
</event>
<event>
 5   0  0.3329246E-01  0.4992943E+03  0.7818609E-02  0.1013963E+00
       -2   -1    0    0    0  501  0.00000000000E+00  0.00000000000E+00  0.63598809092E+02  0.63598809143E+02  0.25500000920E-02 0. -1.
        2   -1    0    0  501    0  0.00000000000E+00  0.00000000000E+00 -0.97995063137E+03  0.97995063138E+03  0.25500000920E-02 0.  1.
    10030    2    1    2    0    0  0.00000000000E+00  0.00000000000E+00 -0.91635182228E+03  0.10435494405E+04  0.49929427456E+03 0.  0.
        2    1    3    3  502    0 -0.17861861001E+03  0.72028554749E+02 -0.12618710576E+03  0.23025183215E+03  0.25500000920E-02 0. -1.
       -2    1    3    3    0  502  0.17861861001E+03 -0.72028554749E+02 -0.79016471652E+03  0.81329760837E+03  0.25500000920E-02 0.  1.
</event>
<event>
 5   0  0.3111146E-01  0.5020056E+03  0.7818609E-02  0.1013257E+00
        2   -1    0    0  501    0  0.00000000000E+00  0.00000000000E+00  0.23525198702E+03  0.23525198703E+03  0.25500000920E-02 0. -1.
       -2   -1    0    0    0  501  0.00000000000E+00  0.00000000000E+00 -0.26780819909E+03  0.26780819910E+03  0.25500000920E-02 0.  1.
    10030    2    1    2    0    0  0.00000000000E+00  0.00000000000E+00 -0.32556212070E+02  0.50306018613E+03  0.50200562141E+03 0.  0.
        1    1    3    3  502    0 -0.11467528952E+03  0.19414400545E+03 -0.12678257306E+03  0.25868153729E+03  0.50400001928E-02 0.  1.
       -1    1    3    3    0  502  0.11467528952E+03 -0.19414400545E+03  0.94226360988E+02  0.24437864884E+03  0.50400001928E-02 0. -1.
</event>
<event>
 5   0  0.3187123E-01  0.4998601E+03  0.7818609E-02  0.1013815E+00
        2   -1    0    0  501    0  0.00000000000E+00  0.00000000000E+00  0.67419860767E+03  0.67419860768E+03  0.25500000920E-02 0. -1.
       -2   -1    0    0    0  501  0.00000000000E+00  0.00000000000E+00 -0.92650783874E+02  0.92650783909E+02  0.25500000920E-02 0.  1.
    10030    2    1    2    0    0  0.00000000000E+00  0.00000000000E+00  0.58154782380E+03  0.76684939159E+03  0.49986009844E+03 0.  0.
        5    1    3    3  502    0  0.78075768090E+02  0.77195047274E+02 -0.53596106440E+02  0.12226828497E+03  0.46999998093E+01 0.  1.
       -5    1    3    3    0  502 -0.78075768090E+02 -0.77195047274E+02  0.63514393024E+03  0.64458110661E+03  0.46999998093E+01 0. -1.
</event>
<event>
 5   0  0.1984680E-01  0.4995417E+03  0.7818609E-02  0.1013899E+00
        1   -1    0    0  501    0  0.00000000000E+00  0.00000000000E+00  0.71807439895E+02  0.71807440072E+02  0.50400001928E-02 0. -1.
       -1   -1    0    0    0  501  0.00000000000E+00  0.00000000000E+00 -0.86878861620E+03  0.86878861622E+03  0.50400001928E-02 0.  1.
    10030    2    1    2    0    0  0.00000000000E+00  0.00000000000E+00 -0.79698117631E+03  0.94059605629E+03  0.49954173571E+03 0.  0.
        5    1    3    3  502    0 -0.13030052880E+03  0.50096572560E+02 -0.86060754070E+01  0.13994302026E+03  0.46999998093E+01 0. -1.
       -5    1    3    3    0  502  0.13030052880E+03 -0.50096572560E+02 -0.78837510090E+03  0.80065303603E+03  0.46999998093E+01 0.  1.
</event>
<event>
 5   0  0.1292375E-01  0.4932815E+03  0.7818609E-02  0.1015548E+00
        4   -1    0    0  501    0  0.00000000000E+00  0.00000000000E+00  0.44790633282E+03  0.44790813331E+03  0.12699999809E+01 0. -1.
       -4   -1    0    0    0  501  0.00000000000E+00  0.00000000000E+00 -0.13580830485E+03  0.13581424287E+03  0.12699999809E+01 0.  1.
    10030    2    1    2    0    0  0.00000000000E+00  0.00000000000E+00  0.31209802797E+03  0.58372237618E+03  0.49328149508E+03 0.  0.
        2    1    3    3  502    0 -0.14350512017E+03 -0.57939243193E+02  0.38330365518E+03  0.41336710984E+03  0.25500000920E-02 0. -1.
       -2    1    3    3    0  502  0.14350512017E+03  0.57939243193E+02 -0.71205627208E+02  0.17035526634E+03  0.25500000920E-02 0.  1.
</event>
<event>
 5   0  0.3117389E-01  0.4981610E+03  0.7818609E-02  0.1014260E+00
        2   -1    0    0  501    0  0.00000000000E+00  0.00000000000E+00  0.18240536494E+03  0.18240536496E+03  0.25500000920E-02 0.  1.
       -2   -1    0    0    0  501  0.00000000000E+00  0.00000000000E+00 -0.34012761983E+03  0.34012761984E+03  0.25500000920E-02 0. -1.
    10030    2    1    2    0    0  0.00000000000E+00  0.00000000000E+00 -0.15772225489E+03  0.52253298480E+03  0.49816102870E+03 0.  0.
        4    1    3    3  502    0  0.15993854549E+03  0.18998530488E+03 -0.98893522388E+02  0.26731310494E+03  0.12699999809E+01 0.  1.
       -4    1    3    3    0  502 -0.15993854549E+03 -0.18998530488E+03 -0.58828732506E+02  0.25521987985E+03  0.12699999809E+01 0. -1.
</event>
<event>
 5   0  0.3111146E-01  0.4978811E+03  0.7818609E-02  0.1014333E+00
        2   -1    0    0  501    0  0.00000000000E+00  0.00000000000E+00  0.10890123185E+04  0.10890123185E+04  0.25500000920E-02 0.  1.
       -2   -1    0    0    0  501  0.00000000000E+00  0.00000000000E+00 -0.56906048945E+02  0.56906049003E+02  0.25500000920E-02 0. -1.
    10030    2    1    2    0    0  0.00000000000E+00  0.00000000000E+00  0.10321062695E+04  0.11459183675E+04  0.49788106344E+03 0.  0.
        1    1    3    3  502    0 -0.16311872977E+03  0.15158604765E+02  0.94746408059E+03  0.96152258806E+03  0.50400001928E-02 0.  1.
       -1    1    3    3    0  502  0.16311872977E+03 -0.15158604765E+02  0.84642188949E+02  0.18439577944E+03  0.50400001928E-02 0. -1.
</event>
<event>
 5   0  0.2013450E-01  0.4954565E+03  0.7818609E-02  0.1014972E+00
       -1   -1    0    0    0  501  0.00000000000E+00  0.00000000000E+00  0.50454365581E+03  0.50454365584E+03  0.50400001928E-02 0. -1.
        1   -1    0    0  501    0  0.00000000000E+00  0.00000000000E+00 -0.12163323089E+03  0.12163323100E+03  0.50400001928E-02 0.  1.
    10030    2    1    2    0    0  0.00000000000E+00  0.00000000000E+00  0.38291042492E+03  0.62617688683E+03  0.49545645631E+03 0.  0.
        4    1    3    3  502    0  0.13143130139E+03 -0.11705855693E+03  0.41177950714E+03  0.44781789618E+03  0.12699999809E+01 0. -1.
       -4    1    3    3    0  502 -0.13143130139E+03  0.11705855693E+03 -0.28869082227E+02  0.17835899065E+03  0.12699999809E+01 0.  1.
</event>
<event>
 5   0  0.1984680E-01  0.5084922E+03  0.7818609E-02  0.1011586E+00
       -1   -1    0    0    0  501  0.00000000000E+00  0.00000000000E+00  0.74206368974E+02  0.74206369145E+02  0.50400001928E-02 0.  1.
        1   -1    0    0  501    0  0.00000000000E+00  0.00000000000E+00 -0.87109881092E+03  0.87109881093E+03  0.50400001928E-02 0. -1.
    10030    2    1    2    0    0  0.00000000000E+00  0.00000000000E+00 -0.79689244194E+03  0.94530518008E+03  0.50849220196E+03 0.  0.
        5    1    3    3  502    0 -0.66960182371E+02 -0.12030167315E+02  0.56887002119E+02  0.88806598612E+02  0.46999998093E+01 0.  1.
       -5    1    3    3    0  502  0.66960182371E+02  0.12030167315E+02 -0.85377944406E+03  0.85649858146E+03  0.46999998093E+01 0. -1.
</event>
<event>
 5   0  0.3187123E-01  0.5153315E+03  0.7818609E-02  0.1009853E+00
        2   -1    0    0  501    0  0.00000000000E+00  0.00000000000E+00  0.10818170318E+03  0.10818170321E+03  0.25500000920E-02 0. -1.
       -2   -1    0    0    0  501  0.00000000000E+00  0.00000000000E+00 -0.61370492369E+03  0.61370492369E+03  0.25500000920E-02 0.  1.
    10030    2    1    2    0    0  0.00000000000E+00  0.00000000000E+00 -0.50552322051E+03  0.72188662690E+03  0.51533152011E+03 0.  0.
        5    1    3    3  502    0 -0.28814569701E+02  0.23924605325E+03 -0.12513623108E+03  0.27156973276E+03  0.46999998093E+01 0. -1.
       -5    1    3    3    0  502  0.28814569701E+02 -0.23924605325E+03 -0.38038698943E+03  0.45031689414E+03  0.46999998093E+01 0.  1.
</event>
<event>
 5   0  0.3187123E-01  0.4924765E+03  0.7818609E-02  0.1015762E+00
       -2   -1    0    0    0  501  0.00000000000E+00  0.00000000000E+00  0.59981044956E+03  0.59981044956E+03  0.25500000920E-02 0.  1.
        2   -1    0    0  501    0  0.00000000000E+00  0.00000000000E+00 -0.10108740233E+03  0.10108740236E+03  0.25500000920E-02 0. -1.
    10030    2    1    2    0    0  0.00000000000E+00  0.00000000000E+00  0.49872304723E+03  0.70089785192E+03  0.49247651821E+03 0.  0.
        5    1    3    3  502    0 -0.21182729781E+03  0.87971431433E+02  0.12205444393E+03  0.25986372223E+03  0.46999998093E+01 0. -1.
       -5    1    3    3    0  502  0.21182729781E+03 -0.87971431433E+02  0.37666860330E+03  0.44103412969E+03  0.46999998093E+01 0.  1.
</event>
<event>
 5   0  0.3187123E-01  0.4914743E+03  0.7818609E-02  0.1016029E+00
       -2   -1    0    0    0  501  0.00000000000E+00  0.00000000000E+00  0.54452369538E+02  0.54452369598E+02  0.25500000920E-02 0. -1.
        2   -1    0    0  501    0  0.00000000000E+00  0.00000000000E+00 -0.11089829841E+04  0.11089829841E+04  0.25500000920E-02 0.  1.
    10030    2    1    2    0    0  0.00000000000E+00  0.00000000000E+00 -0.10545306145E+04  0.11634353537E+04  0.49147431793E+03 0.  0.
        5    1    3    3  502    0 -0.13136892392E+03  0.13390396204E+03 -0.15165289590E+03  0.24126490846E+03  0.46999998093E+01 0.  1.
       -5    1    3    3    0  502  0.13136892392E+03 -0.13390396204E+03 -0.90287771864E+03  0.92217044522E+03  0.46999998093E+01 0. -1.
</event>
<event>
 5   0  0.3117389E-01  0.4958020E+03  0.7818609E-02  0.1014881E+00
       -2   -1    0    0    0  501  0.00000000000E+00  0.00000000000E+00  0.11424850368E+03  0.11424850371E+03  0.25500000920E-02 0. -1.
        2   -1    0    0  501    0  0.00000000000E+00  0.00000000000E+00 -0.53790546129E+03  0.53790546130E+03  0.25500000920E-02 0.  1.
    10030    2    1    2    0    0  0.00000000000E+00  0.00000000000E+00 -0.42365695761E+03  0.65215396500E+03  0.49580195274E+03 0.  0.
        4    1    3    3  502    0 -0.23056213617E+03  0.89612756444E+02 -0.23319784182E+03  0.33995910207E+03  0.12699999809E+01 0. -1.
       -4    1    3    3    0  502  0.23056213617E+03 -0.89612756444E+02 -0.19045911579E+03  0.31219486293E+03  0.12699999809E+01 0.  1.
</event>
<event>
 5   0  0.3117389E-01  0.5277693E+03  0.7818609E-02  0.1006775E+00
        2   -1    0    0  501    0  0.00000000000E+00  0.00000000000E+00  0.76493550829E+03  0.76493550829E+03  0.25500000920E-02 0.  1.
       -2   -1    0    0    0  501  0.00000000000E+00  0.00000000000E+00 -0.91033955201E+02  0.91033955237E+02  0.25500000920E-02 0. -1.
    10030    2    1    2    0    0  0.00000000000E+00  0.00000000000E+00  0.67390155309E+03  0.85596946353E+03  0.52776928600E+03 0.  0.
        4    1    3    3  502    0 -0.50849269777E+01 -0.23871593767E+03  0.15473581379E+03  0.28452757397E+03  0.12699999809E+01 0. -1.
       -4    1    3    3    0  502  0.50849269777E+01  0.23871593767E+03  0.51916573930E+03  0.57144188956E+03  0.12699999809E+01 0.  1.
</event>
<event>
 5   0  0.1984680E-01  0.4974981E+03  0.7818609E-02  0.1014434E+00
        1   -1    0    0  501    0  0.00000000000E+00  0.00000000000E+00  0.27723845017E+03  0.27723845021E+03  0.50400001928E-02 0. -1.
       -1   -1    0    0    0  501  0.00000000000E+00  0.00000000000E+00 -0.22318721976E+03  0.22318721982E+03  0.50400001928E-02 0.  1.
    10030    2    1    2    0    0  0.00000000000E+00  0.00000000000E+00  0.54051230407E+02  0.50042567003E+03  0.49749805600E+03 0.  0.
        5    1    3    3  502    0  0.81326646321E+02  0.20180837725E+03 -0.94154662078E+02  0.23712409181E+03  0.46999998093E+01 0.  1.
       -5    1    3    3    0  502 -0.81326646321E+02 -0.20180837725E+03  0.14820589248E+03  0.26330157822E+03  0.46999998093E+01 0. -1.
</event>
<event>
 5   0  0.3178149E-01  0.3900564E+03  0.7818609E-02  0.1047278E+00
       -2   -1    0    0    0  501  0.00000000000E+00  0.00000000000E+00  0.29441543507E+02  0.29441543618E+02  0.25500000920E-02 0. -1.
        2   -1    0    0  501    0  0.00000000000E+00  0.00000000000E+00 -0.12919159158E+04  0.12919159158E+04  0.25500000920E-02 0.  1.
    10030    2    1    2    0    0  0.00000000000E+00  0.00000000000E+00 -0.12624743723E+04  0.13213574594E+04  0.39005639960E+03 0.  0.
        3    1    3    3  502    0  0.14260774505E+03  0.12533696647E+03 -0.78234357548E+03  0.80505142967E+03  0.10100000352E+00 0.  1.
       -3    1    3    3    0  502 -0.14260774505E+03 -0.12533696647E+03 -0.48013079681E+03  0.51630602975E+03  0.10100000352E+00 0. -1.
</event>
<event>
 5   0  0.3117389E-01  0.4983428E+03  0.7818609E-02  0.1014212E+00
       -2   -1    0    0    0  501  0.00000000000E+00  0.00000000000E+00  0.99957260857E+02  0.99957260890E+02  0.25500000920E-02 0.  1.
        2   -1    0    0  501    0  0.00000000000E+00  0.00000000000E+00 -0.62112938253E+03  0.62112938254E+03  0.25500000920E-02 0. -1.
    10030    2    1    2    0    0  0.00000000000E+00  0.00000000000E+00 -0.52117212168E+03  0.72108664343E+03  0.49834282068E+03 0.  0.
        4    1    3    3  502    0  0.84895846541E+02  0.22810255078E+03 -0.18338378089E+03  0.30474465119E+03  0.12699999809E+01 0. -1.
       -4    1    3    3    0  502 -0.84895846541E+02 -0.22810255078E+03 -0.33778834078E+03  0.41634199224E+03  0.12699999809E+01 0.  1.
</event>
<event>
 5   0  0.1967161E-01  0.4997556E+03  0.7818609E-02  0.1013843E+00
        1   -1    0    0  501    0  0.00000000000E+00  0.00000000000E+00  0.43661294985E+02  0.43661295276E+02  0.50400001928E-02 0.  1.
       -1   -1    0    0    0  501  0.00000000000E+00  0.00000000000E+00 -0.14300748742E+04  0.14300748742E+04  0.50400001928E-02 0. -1.
    10030    2    1    2    0    0  0.00000000000E+00  0.00000000000E+00 -0.13864135792E+04  0.14737361694E+04  0.49975562489E+03 0.  0.
        1    1    3    3  502    0  0.24216327621E+03  0.53586540364E+02 -0.60355052912E+03  0.65252418414E+03  0.50400001928E-02 0.  1.
       -1    1    3    3    0  502 -0.24216327621E+03 -0.53586540364E+02 -0.78286305006E+03  0.82121198531E+03  0.50400001928E-02 0. -1.
</event>
<event>
 5   0  0.3187123E-01  0.4940623E+03  0.7818609E-02  0.1015340E+00
        2   -1    0    0  501    0  0.00000000000E+00  0.00000000000E+00  0.50936103821E+03  0.50936103822E+03  0.25500000920E-02 0. -1.
       -2   -1    0    0    0  501  0.00000000000E+00  0.00000000000E+00 -0.11980576278E+03  0.11980576281E+03  0.25500000920E-02 0.  1.
    10030    2    1    2    0    0  0.00000000000E+00  0.00000000000E+00  0.38955527543E+03  0.62916680103E+03  0.49406229456E+03 0.  0.
        5    1    3    3  502    0 -0.10538875266E+03 -0.18864793301E+03  0.42454650792E+02  0.22027101304E+03  0.46999998093E+01 0.  1.
       -5    1    3    3    0  502  0.10538875266E+03  0.18864793301E+03  0.34710062463E+03  0.40889578799E+03  0.46999998093E+01 0. -1.
</event>
<event>
 5   0  0.3329246E-01  0.4898570E+03  0.7818609E-02  0.1016461E+00
        2   -1    0    0  501    0  0.00000000000E+00  0.00000000000E+00  0.31696869728E+03  0.31696869729E+03  0.25500000920E-02 0. -1.
       -2   -1    0    0    0  501  0.00000000000E+00  0.00000000000E+00 -0.18926147181E+03  0.18926147183E+03  0.25500000920E-02 0.  1.
    10030    2    1    2    0    0  0.00000000000E+00  0.00000000000E+00  0.12770722547E+03  0.50623016912E+03  0.48985696758E+03 0.  0.
        2    1    3    3  502    0 -0.35627346451E+02  0.19031574025E+03 -0.91162030394E+02  0.21400912269E+03  0.25500000920E-02 0.  1.
       -2    1    3    3    0  502  0.35627346451E+02 -0.19031574025E+03  0.21886925587E+03  0.29222104642E+03  0.25500000920E-02 0. -1.
</event>
<event>
 5   0  0.1967161E-01  0.5107033E+03  0.7818609E-02  0.1011022E+00
       -1   -1    0    0    0  501  0.00000000000E+00  0.00000000000E+00  0.43334156008E+02  0.43334156301E+02  0.50400001928E-02 0. -1.
        1   -1    0    0  501    0  0.00000000000E+00  0.00000000000E+00 -0.15046901035E+04  0.15046901035E+04  0.50400001928E-02 0.  1.
    10030    2    1    2    0    0  0.00000000000E+00  0.00000000000E+00 -0.14613559475E+04  0.15480242598E+04  0.51070334216E+03 0.  0.
        1    1    3    3  502    0  0.63279239855E+02  0.13891495365E+03 -0.11019361212E+03  0.18826645671E+03  0.50400001928E-02 0. -1.
       -1    1    3    3    0  502 -0.63279239855E+02 -0.13891495365E+03 -0.13511623354E+04  0.13597578031E+04  0.50400001928E-02 0.  1.
</event>
<event>
 5   0  0.3187123E-01  0.4946220E+03  0.7818609E-02  0.1015192E+00
       -2   -1    0    0    0  501  0.00000000000E+00  0.00000000000E+00  0.46996411454E+02  0.46996411523E+02  0.25500000920E-02 0.  1.
        2   -1    0    0  501    0  0.00000000000E+00  0.00000000000E+00 -0.13014338597E+04  0.13014338597E+04  0.25500000920E-02 0. -1.
    10030    2    1    2    0    0  0.00000000000E+00  0.00000000000E+00 -0.12544374482E+04  0.13484302712E+04  0.49462196149E+03 0.  0.
        5    1    3    3  502    0 -0.30994869952E+02  0.16636911275E+03 -0.13573940536E+03  0.21699456170E+03  0.46999998093E+01 0.  1.
       -5    1    3    3    0  502  0.30994869952E+02 -0.16636911275E+03 -0.11186980428E+04  0.11314357095E+04  0.46999998093E+01 0. -1.
</event>
<event>
 5   0  0.3187123E-01  0.4870515E+03  0.7818609E-02  0.1017215E+00
       -2   -1    0    0    0  501  0.00000000000E+00  0.00000000000E+00  0.24020460828E+03  0.24020460830E+03  0.25500000920E-02 0.  1.
        2   -1    0    0  501    0  0.00000000000E+00  0.00000000000E+00 -0.24689281687E+03  0.24689281689E+03  0.25500000920E-02 0. -1.
    10030    2    1    2    0    0  0.00000000000E+00  0.00000000000E+00 -0.66882085910E+01  0.48709742519E+03  0.48705150599E+03 0.  0.
        5    1    3    3  502    0  0.23617898463E+03  0.49565011651E+02 -0.35681333011E+02  0.24399272670E+03  0.46999998093E+01 0. -1.
       -5    1    3    3    0  502 -0.23617898463E+03 -0.49565011651E+02  0.28993124420E+02  0.24310469848E+03  0.46999998093E+01 0.  1.
</event>
<event>
 5   0  0.3178149E-01  0.4682764E+03  0.7818609E-02  0.1022408E+00
       -2   -1    0    0    0  501  0.00000000000E+00  0.00000000000E+00  0.32485116531E+02  0.32485116631E+02  0.25500000920E-02 0.  1.
        2   -1    0    0  501    0  0.00000000000E+00  0.00000000000E+00 -0.16875637121E+04  0.16875637121E+04  0.25500000920E-02 0. -1.
    10030    2    1    2    0    0  0.00000000000E+00  0.00000000000E+00 -0.16550785956E+04  0.17200488288E+04  0.46827643088E+03 0.  0.
        3    1    3    3  502    0  0.11183544422E+03  0.11474894157E+03 -0.14546287601E+04  0.14634272534E+04  0.10100000352E+00 0. -1.
       -3    1    3    3    0  502 -0.11183544422E+03 -0.11474894157E+03 -0.20044983550E+03  0.25662157533E+03  0.10100000352E+00 0.  1.
</event>
<event>
 5   0  0.1292375E-01  0.5134492E+03  0.7818609E-02  0.1010327E+00
        4   -1    0    0  501    0  0.00000000000E+00  0.00000000000E+00  0.92010900376E+02  0.92019664680E+02  0.12699999809E+01 0. -1.
       -4   -1    0    0    0  501  0.00000000000E+00  0.00000000000E+00 -0.71625791745E+03  0.71625904337E+03  0.12699999809E+01 0.  1.
    10030    2    1    2    0    0  0.00000000000E+00  0.00000000000E+00 -0.62424701707E+03  0.80827870805E+03  0.51344924926E+03 0.  0.
        1    1    3    3  502    0  0.10310706375E+03  0.52029195469E+02  0.48812528580E+02  0.12538248182E+03  0.50400001928E-02 0. -1.
       -1    1    3    3    0  502 -0.10310706375E+03 -0.52029195469E+02 -0.67305954565E+03  0.68289622622E+03  0.50400001928E-02 0.  1.
</event>
<event>
 5   0  0.1984680E-01  0.4987461E+03  0.7818609E-02  0.1014107E+00
        1   -1    0    0  501    0  0.00000000000E+00  0.00000000000E+00  0.14106229354E+04  0.14106229354E+04  0.50400001928E-02 0.  1.
       -1   -1    0    0    0  501  0.00000000000E+00  0.00000000000E+00 -0.44084713785E+02  0.44084714073E+02  0.50400001928E-02 0. -1.
    10030    2    1    2    0    0  0.00000000000E+00  0.00000000000E+00  0.13665382216E+04  0.14547076495E+04  0.49874606196E+03 0.  0.
        5    1    3    3  502    0 -0.15446158724E+01  0.40179183765E+02 -0.34436564692E+02  0.53148091520E+02  0.46999998093E+01 0. -1.
       -5    1    3    3    0  502  0.15446158724E+01 -0.40179183765E+02  0.14009747863E+04  0.14015595579E+04  0.46999998093E+01 0.  1.
</event>
<event>
 5   0  0.3329246E-01  0.5233822E+03  0.7818609E-02  0.1007850E+00
       -2   -1    0    0    0  501  0.00000000000E+00  0.00000000000E+00  0.32345824443E+02  0.32345824544E+02  0.25500000920E-02 0. -1.
        2   -1    0    0  501    0  0.00000000000E+00  0.00000000000E+00 -0.21171890010E+04  0.21171890010E+04  0.25500000920E-02 0.  1.
    10030    2    1    2    0    0  0.00000000000E+00  0.00000000000E+00 -0.20848431765E+04  0.21495348255E+04  0.52338216954E+03 0.  0.
        2    1    3    3  502    0 -0.25455932286E+03  0.38565047092E+02 -0.12348169312E+04  0.12613724927E+04  0.25500000920E-02 0.  1.
       -2    1    3    3    0  502  0.25455932286E+03 -0.38565047092E+02 -0.85002624533E+03  0.88816233283E+03  0.25500000920E-02 0. -1.
</event>
<event>
 5   0  0.3111146E-01  0.4874897E+03  0.7818609E-02  0.1017097E+00
       -2   -1    0    0    0  501  0.00000000000E+00  0.00000000000E+00  0.20565152713E+03  0.20565152715E+03  0.25500000920E-02 0.  1.
        2   -1    0    0  501    0  0.00000000000E+00  0.00000000000E+00 -0.28889424211E+03  0.28889424212E+03  0.25500000920E-02 0. -1.
    10030    2    1    2    0    0  0.00000000000E+00  0.00000000000E+00 -0.83242714977E+02  0.49454576927E+03  0.48748965970E+03 0.  0.
        1    1    3    3  502    0 -0.22805426110E+03 -0.78695412604E+02 -0.63353181884E+01  0.24133348348E+03  0.50400001928E-02 0. -1.
       -1    1    3    3    0  502  0.22805426110E+03  0.78695412604E+02 -0.76907396789E+02  0.25321228579E+03  0.50400001928E-02 0.  1.
</event>
<event>
 5   0  0.2000612E-01  0.5301974E+03  0.7818609E-02  0.1006184E+00
       -1   -1    0    0    0  501  0.00000000000E+00  0.00000000000E+00  0.17266863265E+03  0.17266863272E+03  0.50400001928E-02 0. -1.
        1   -1    0    0  501    0  0.00000000000E+00  0.00000000000E+00 -0.40700681551E+03  0.40700681554E+03  0.50400001928E-02 0.  1.
    10030    2    1    2    0    0  0.00000000000E+00  0.00000000000E+00 -0.23433818286E+03  0.57967544826E+03  0.53019736077E+03 0.  0.
        2    1    3    3  502    0 -0.11171607380E+02  0.16744748632E+03 -0.34153651006E+03  0.38053994954E+03  0.25500000920E-02 0.  1.
       -2    1    3    3    0  502  0.11171607380E+02 -0.16744748632E+03  0.10719832720E+03  0.19913549872E+03  0.25500000920E-02 0. -1.
</event>
<event>
 5   0  0.1967161E-01  0.5178224E+03  0.7818609E-02  0.1009229E+00
       -1   -1    0    0    0  501  0.00000000000E+00  0.00000000000E+00  0.84245100683E+02  0.84245100834E+02  0.50400001928E-02 0.  1.
        1   -1    0    0  501    0  0.00000000000E+00  0.00000000000E+00 -0.79571405654E+03  0.79571405656E+03  0.50400001928E-02 0. -1.
    10030    2    1    2    0    0  0.00000000000E+00  0.00000000000E+00 -0.71146895586E+03  0.87995915739E+03  0.51782240539E+03 0.  0.
        1    1    3    3  502    0 -0.13364853694E+03  0.96300695289E+02 -0.16293653535E+02  0.16553319459E+03  0.50400001928E-02 0.  1.
       -1    1    3    3    0  502  0.13364853694E+03 -0.96300695289E+02 -0.69517530232E+03  0.71442596280E+03  0.50400001928E-02 0. -1.
</event>
<event>
 5   0  0.3329246E-01  0.4926597E+03  0.7818609E-02  0.1015713E+00
       -2   -1    0    0    0  501  0.00000000000E+00  0.00000000000E+00  0.65308748283E+02  0.65308748332E+02  0.25500000920E-02 0.  1.
        2   -1    0    0  501    0  0.00000000000E+00  0.00000000000E+00 -0.92910039868E+03  0.92910039869E+03  0.25500000920E-02 0. -1.
    10030    2    1    2    0    0  0.00000000000E+00  0.00000000000E+00 -0.86379165040E+03  0.99440914702E+03  0.49265965572E+03 0.  0.
        2    1    3    3  502    0  0.40749687580E+02  0.23630810895E+03 -0.31813818956E+03  0.39838921554E+03  0.25500000920E-02 0.  1.
       -2    1    3    3    0  502 -0.40749687580E+02 -0.23630810895E+03 -0.54565346084E+03  0.59601993148E+03  0.25500000920E-02 0. -1.
</event>
<event>
 5   0  0.1967161E-01  0.5021657E+03  0.7818609E-02  0.1013215E+00
        1   -1    0    0  501    0  0.00000000000E+00  0.00000000000E+00  0.41642106355E+03  0.41642106358E+03  0.50400001928E-02 0. -1.
       -1   -1    0    0    0  501  0.00000000000E+00  0.00000000000E+00 -0.15139144834E+03  0.15139144842E+03  0.50400001928E-02 0.  1.
    10030    2    1    2    0    0  0.00000000000E+00  0.00000000000E+00  0.26502961521E+03  0.56781251201E+03  0.50216566176E+03 0.  0.
        1    1    3    3  502    0  0.49459809299E+02 -0.17511972918E+03  0.32813195420E+03  0.37521163585E+03  0.50400001928E-02 0. -1.
       -1    1    3    3    0  502 -0.49459809299E+02  0.17511972918E+03 -0.63102338987E+02  0.19260087616E+03  0.50400001928E-02 0.  1.
</event>
<event>
 5   0  0.2013450E-01  0.5110512E+03  0.7818609E-02  0.1010934E+00
       -1   -1    0    0    0  501  0.00000000000E+00  0.00000000000E+00  0.64345246126E+03  0.64345246128E+03  0.50400001928E-02 0. -1.
        1   -1    0    0  501    0  0.00000000000E+00  0.00000000000E+00 -0.10147344762E+03  0.10147344774E+03  0.50400001928E-02 0.  1.
    10030    2    1    2    0    0  0.00000000000E+00  0.00000000000E+00  0.54197901364E+03  0.74492590902E+03  0.51105122904E+03 0.  0.
        4    1    3    3  502    0 -0.49386950009E+02  0.22529461205E+03  0.43129613011E+03  0.48909579614E+03  0.12699999809E+01 0. -1.
       -4    1    3    3    0  502  0.49386950009E+02 -0.22529461205E+03  0.11068288353E+03  0.25583011288E+03  0.12699999809E+01 0.  1.
</event>
<event>
 5   0  0.2000612E-01  0.4736911E+03  0.7818609E-02  0.1020884E+00
        1   -1    0    0  501    0  0.00000000000E+00  0.00000000000E+00  0.16538998413E+03  0.16538998421E+03  0.50400001928E-02 0.  1.
       -1   -1    0    0    0  501  0.00000000000E+00  0.00000000000E+00 -0.33917294802E+03  0.33917294806E+03  0.50400001928E-02 0. -1.
    10030    2    1    2    0    0  0.00000000000E+00  0.00000000000E+00 -0.17378296389E+03  0.50456293227E+03  0.47369107452E+03 0.  0.
        2    1    3    3  502    0  0.15534568609E+03 -0.74535885908E+02  0.86204626514E+02  0.19266322460E+03  0.25500000920E-02 0.  1.
       -2    1    3    3    0  502 -0.15534568609E+03  0.74535885908E+02 -0.25998759041E+03  0.31189970767E+03  0.25500000920E-02 0. -1.
</event>
<event>
 5   0  0.3117389E-01  0.5138191E+03  0.7818609E-02  0.1010234E+00
        2   -1    0    0  501    0  0.00000000000E+00  0.00000000000E+00  0.12360536241E+04  0.12360536241E+04  0.25500000920E-02 0.  1.
       -2   -1    0    0    0  501  0.00000000000E+00  0.00000000000E+00 -0.53397785288E+02  0.53397785349E+02  0.25500000920E-02 0. -1.
    10030    2    1    2    0    0  0.00000000000E+00  0.00000000000E+00  0.11826558388E+04  0.12894514095E+04  0.51381913575E+03 0.  0.
        4    1    3    3  502    0 -0.62362380736E+02  0.23566028652E+01 -0.34078753938E+02  0.71116766505E+02  0.12699999809E+01 0. -1.
       -4    1    3    3    0  502  0.62362380736E+02 -0.23566028652E+01  0.12167345928E+04  0.12183346430E+04  0.12699999809E+01 0.  1.
</event>
<event>
 5   0  0.1292375E-01  0.5059586E+03  0.7818609E-02  0.1012235E+00
       -4   -1    0    0    0  501  0.00000000000E+00  0.00000000000E+00  0.53962163927E+03  0.53962313374E+03  0.12699999809E+01 0.  1.
        4   -1    0    0  501    0  0.00000000000E+00  0.00000000000E+00 -0.11859380725E+03  0.11860060716E+03  0.12699999809E+01 0. -1.
    10030    2    1    2    0    0  0.00000000000E+00  0.00000000000E+00  0.42102783202E+03  0.65822374089E+03  0.50595855338E+03 0.  0.
        2    1    3    3  502    0  0.99234799221E+02 -0.17155311133E+03  0.41505813857E+03  0.45994703367E+03  0.25500000920E-02 0.  1.
       -2    1    3    3    0  502 -0.99234799221E+02  0.17155311133E+03  0.59696934533E+01  0.19827670723E+03  0.25500000920E-02 0. -1.
</event>
<event>
 5   0  0.3117389E-01  0.4486570E+03  0.7818609E-02  0.1028123E+00
       -2   -1    0    0    0  501  0.00000000000E+00  0.00000000000E+00  0.36177886559E+03  0.36177886560E+03  0.25500000920E-02 0.  1.
        2   -1    0    0  501    0  0.00000000000E+00  0.00000000000E+00 -0.13909952861E+03  0.13909952864E+03  0.25500000920E-02 0. -1.
    10030    2    1    2    0    0  0.00000000000E+00  0.00000000000E+00  0.22267933698E+03  0.50087839424E+03  0.44865697220E+03 0.  0.
        4    1    3    3  502    0  0.14978198221E+03  0.16696778553E+03  0.10803295661E+03  0.24896910694E+03  0.12699999809E+01 0.  1.
       -4    1    3    3    0  502 -0.14978198221E+03 -0.16696778553E+03  0.11464638037E+03  0.25190928730E+03  0.12699999809E+01 0. -1.
</event>
<event>
 5   0  0.3111146E-01  0.4603125E+03  0.7818609E-02  0.1024691E+00
        2   -1    0    0  501    0  0.00000000000E+00  0.00000000000E+00  0.27168342909E+03  0.27168342911E+03  0.25500000920E-02 0.  1.
       -2   -1    0    0    0  501  0.00000000000E+00  0.00000000000E+00 -0.19497651469E+03  0.19497651470E+03  0.25500000920E-02 0. -1.
    10030    2    1    2    0    0  0.00000000000E+00  0.00000000000E+00  0.76706914408E+02  0.46665994381E+03  0.46031245088E+03 0.  0.
        1    1    3    3  502    0  0.64393172257E+02 -0.18752785379E+02  0.26155699245E+03  0.27001890289E+03  0.50400001928E-02 0.  1.
       -1    1    3    3    0  502 -0.64393172257E+02  0.18752785379E+02 -0.18485007805E+03  0.19664104091E+03  0.50400001928E-02 0. -1.
</event>
<event>
 5   0  0.3187123E-01  0.4959952E+03  0.7818609E-02  0.1014830E+00
        2   -1    0    0  501    0  0.00000000000E+00  0.00000000000E+00  0.24648423797E+03  0.24648423798E+03  0.25500000920E-02 0.  1.
       -2   -1    0    0    0  501  0.00000000000E+00  0.00000000000E+00 -0.24952022652E+03  0.24952022653E+03  0.25500000920E-02 0. -1.
    10030    2    1    2    0    0  0.00000000000E+00  0.00000000000E+00 -0.30359885437E+01  0.49600446451E+03  0.49599517295E+03 0.  0.
        5    1    3    3  502    0  0.12110042890E+03 -0.36939778992E+02 -0.21471404170E+03  0.24930718172E+03  0.46999998093E+01 0. -1.
       -5    1    3    3    0  502 -0.12110042890E+03  0.36939778992E+02  0.21167805316E+03  0.24669728280E+03  0.46999998093E+01 0.  1.
</event>
<event>
 5   0  0.3178149E-01  0.4857320E+03  0.7818609E-02  0.1017572E+00
       -2   -1    0    0    0  501  0.00000000000E+00  0.00000000000E+00  0.60234320690E+02  0.60234320744E+02  0.25500000920E-02 0. -1.
        2   -1    0    0  501    0  0.00000000000E+00  0.00000000000E+00 -0.97924082734E+03  0.97924082734E+03  0.25500000920E-02 0.  1.
    10030    2    1    2    0    0  0.00000000000E+00  0.00000000000E+00 -0.91900650665E+03  0.10394751481E+04  0.48573204982E+03 0.  0.
        3    1    3    3  502    0  0.11205596832E+03  0.15218711206E+03 -0.13307908439E+03  0.23114391624E+03  0.10100000352E+00 0. -1.
       -3    1    3    3    0  502 -0.11205596832E+03 -0.15218711206E+03 -0.78592742226E+03  0.80833123185E+03  0.10100000352E+00 0.  1.
</event>
<event>
 5   0  0.3117389E-01  0.4684962E+03  0.7818609E-02  0.1022345E+00
       -2   -1    0    0    0  501  0.00000000000E+00  0.00000000000E+00  0.38612489511E+02  0.38612489595E+02  0.25500000920E-02 0. -1.
        2   -1    0    0  501    0  0.00000000000E+00  0.00000000000E+00 -0.14210991821E+04  0.14210991821E+04  0.25500000920E-02 0.  1.
    10030    2    1    2    0    0  0.00000000000E+00  0.00000000000E+00 -0.13824866926E+04  0.14597116717E+04  0.46849622123E+03 0.  0.
        4    1    3    3  502    0  0.11399146286E+03 -0.20057227957E+03 -0.81770055159E+03  0.84962291512E+03  0.12699999809E+01 0.  1.
       -4    1    3    3    0  502 -0.11399146286E+03  0.20057227957E+03 -0.56478614103E+03  0.61008875661E+03  0.12699999809E+01 0. -1.
</event>
<event>
 5   0  0.1984297E-01  0.5026706E+03  0.7818609E-02  0.1013084E+00
       -1   -1    0    0    0  501  0.00000000000E+00  0.00000000000E+00  0.61173969070E+03  0.61173969072E+03  0.50400001928E-02 0. -1.
        1   -1    0    0  501    0  0.00000000000E+00  0.00000000000E+00 -0.10326195899E+03  0.10326195912E+03  0.50400001928E-02 0.  1.
    10030    2    1    2    0    0  0.00000000000E+00  0.00000000000E+00  0.50847773171E+03  0.71500164983E+03  0.50267062340E+03 0.  0.
        3    1    3    3  502    0  0.22559207417E+03  0.80029831616E+02  0.36324445411E+03  0.43502080585E+03  0.10100000352E+00 0. -1.
       -3    1    3    3    0  502 -0.22559207417E+03 -0.80029831616E+02  0.14523327759E+03  0.27998084398E+03  0.10100000352E+00 0.  1.
</event>
<event>
 5   0  0.2000612E-01  0.5021864E+03  0.7818609E-02  0.1013210E+00
        1   -1    0    0  501    0  0.00000000000E+00  0.00000000000E+00  0.16650958715E+03  0.16650958722E+03  0.50400001928E-02 0.  1.
       -1   -1    0    0    0  501  0.00000000000E+00  0.00000000000E+00 -0.37864359662E+03  0.37864359665E+03  0.50400001928E-02 0. -1.
    10030    2    1    2    0    0  0.00000000000E+00  0.00000000000E+00 -0.21213400947E+03  0.54515318387E+03  0.50218637567E+03 0.  0.
        2    1    3    3  502    0  0.61633433887E+02  0.13733151475E+03 -0.32423249680E+03  0.35747075000E+03  0.25500000920E-02 0. -1.
       -2    1    3    3    0  502 -0.61633433887E+02 -0.13733151475E+03  0.11209848733E+03  0.18768243387E+03  0.25500000920E-02 0.  1.
</event>
<event>
 5   0  0.1984297E-01  0.5072173E+03  0.7818609E-02  0.1011912E+00
       -1   -1    0    0    0  501  0.00000000000E+00  0.00000000000E+00  0.65420729727E+02  0.65420729921E+02  0.50400001928E-02 0. -1.
        1   -1    0    0  501    0  0.00000000000E+00  0.00000000000E+00 -0.98313386325E+03  0.98313386326E+03  0.50400001928E-02 0.  1.
    10030    2    1    2    0    0  0.00000000000E+00  0.00000000000E+00 -0.91771313352E+03  0.10485545932E+04  0.50721725074E+03 0.  0.
        3    1    3    3  502    0  0.12008896357E+03 -0.22323084510E+03 -0.44232419190E+03  0.50980787589E+03  0.10100000352E+00 0. -1.
       -3    1    3    3    0  502 -0.12008896357E+03  0.22323084510E+03 -0.47538894162E+03  0.53874671729E+03  0.10100000352E+00 0.  1.
</event>
<event>
 5   0  0.3117389E-01  0.5047343E+03  0.7818609E-02  0.1012551E+00
        2   -1    0    0  501    0  0.00000000000E+00  0.00000000000E+00  0.60835905975E+03  0.60835905976E+03  0.25500000920E-02 0.  1.
       -2   -1    0    0    0  501  0.00000000000E+00  0.00000000000E+00 -0.10469012218E+03  0.10469012221E+03  0.25500000920E-02 0. -1.
    10030    2    1    2    0    0  0.00000000000E+00  0.00000000000E+00  0.50366893758E+03  0.71304918197E+03  0.50473432341E+03 0.  0.
        4    1    3    3  502    0  0.23366413093E+03  0.25806026613E+02  0.12218158932E+03  0.26494307080E+03  0.12699999809E+01 0. -1.
       -4    1    3    3    0  502 -0.23366413093E+03 -0.25806026613E+02  0.38148734825E+03  0.44810611117E+03  0.12699999809E+01 0.  1.
</event>
<event>
 5   0  0.1967161E-01  0.5193186E+03  0.7818609E-02  0.1008856E+00
       -1   -1    0    0    0  501  0.00000000000E+00  0.00000000000E+00  0.50738248625E+02  0.50738248875E+02  0.50400001928E-02 0. -1.
        1   -1    0    0  501    0  0.00000000000E+00  0.00000000000E+00 -0.13288387209E+04  0.13288387209E+04  0.50400001928E-02 0.  1.
    10030    2    1    2    0    0  0.00000000000E+00  0.00000000000E+00 -0.12781004723E+04  0.13795769698E+04  0.51931859039E+03 0.  0.
        1    1    3    3  502    0  0.25429403263E+03  0.42913831236E+02 -0.71944643771E+03  0.76427104400E+03  0.50400001928E-02 0.  1.
       -1    1    3    3    0  502 -0.25429403263E+03 -0.42913831236E+02 -0.55865403456E+03  0.61530592577E+03  0.50400001928E-02 0. -1.
</event>
<event>
 5   0  0.1984680E-01  0.4964263E+03  0.7818609E-02  0.1014716E+00
        1   -1    0    0  501    0  0.00000000000E+00  0.00000000000E+00  0.31603114431E+03  0.31603114435E+03  0.50400001928E-02 0. -1.
       -1   -1    0    0    0  501  0.00000000000E+00  0.00000000000E+00 -0.19494838019E+03  0.19494838026E+03  0.50400001928E-02 0.  1.
    10030    2    1    2    0    0  0.00000000000E+00  0.00000000000E+00  0.12108276412E+03  0.51097952461E+03  0.49642626724E+03 0.  0.
        5    1    3    3  502    0 -0.24257129241E+03 -0.48865995522E+02  0.80042841086E+02  0.26011086834E+03  0.46999998093E+01 0. -1.
       -5    1    3    3    0  502  0.24257129241E+03  0.48865995522E+02  0.41039923032E+02  0.25086865627E+03  0.46999998093E+01 0.  1.
</event>
<event>
 5   0  0.1967161E-01  0.5083780E+03  0.7818609E-02  0.1011615E+00
       -1   -1    0    0    0  501  0.00000000000E+00  0.00000000000E+00  0.63770686444E+02  0.63770686644E+02  0.50400001928E-02 0.  1.
        1   -1    0    0  501    0  0.00000000000E+00  0.00000000000E+00 -0.10131934003E+04  0.10131934003E+04  0.50400001928E-02 0. -1.
    10030    2    1    2    0    0  0.00000000000E+00  0.00000000000E+00 -0.94942271382E+03  0.10769640869E+04  0.50837796471E+03 0.  0.
        1    1    3    3  502    0 -0.11986915782E+03  0.15627843362E+03 -0.13430581950E+03  0.23838963272E+03  0.50400001928E-02 0.  1.
       -1    1    3    3    0  502  0.11986915782E+03 -0.15627843362E+03 -0.81511689432E+03  0.83857445420E+03  0.50400001928E-02 0. -1.
</event>
<event>
 5   0  0.2000612E-01  0.2662095E+03  0.7818609E-02  0.1103469E+00
        1   -1    0    0  501    0  0.00000000000E+00  0.00000000000E+00  0.41166908819E+02  0.41166909127E+02  0.50400001928E-02 0. -1.
       -1   -1    0    0    0  501  0.00000000000E+00  0.00000000000E+00 -0.43036694131E+03  0.43036694134E+03  0.50400001928E-02 0.  1.
    10030    2    1    2    0    0  0.00000000000E+00  0.00000000000E+00 -0.38920003249E+03  0.47153385046E+03  0.26620951682E+03 0.  0.
        2    1    3    3  502    0 -0.12930696184E+03 -0.13163782605E+02 -0.24542399490E+03  0.27771660525E+03  0.25500000920E-02 0.  1.
       -2    1    3    3    0  502  0.12930696184E+03  0.13163782605E+02 -0.14377603759E+03  0.19381724522E+03  0.25500000920E-02 0. -1.
</event>
<event>
 5   0  0.3187123E-01  0.4712529E+03  0.7818609E-02  0.1021567E+00
        2   -1    0    0  501    0  0.00000000000E+00  0.00000000000E+00  0.15709388030E+04  0.15709388030E+04  0.25500000920E-02 0. -1.
       -2   -1    0    0    0  501  0.00000000000E+00  0.00000000000E+00 -0.35341805483E+02  0.35341805575E+02  0.25500000920E-02 0.  1.
    10030    2    1    2    0    0  0.00000000000E+00  0.00000000000E+00  0.15355969975E+04  0.16062806085E+04  0.47125285644E+03 0.  0.
        5    1    3    3  502    0  0.57894864470E+02 -0.22359392849E+03  0.92590677212E+03  0.95429109859E+03  0.46999998093E+01 0.  1.
       -5    1    3    3    0  502 -0.57894864470E+02  0.22359392849E+03  0.60969022536E+03  0.65198950995E+03  0.46999998093E+01 0. -1.
</event>
<event>
 5   0  0.3117389E-01  0.5008798E+03  0.7818609E-02  0.1013550E+00
       -2   -1    0    0    0  501  0.00000000000E+00  0.00000000000E+00  0.33703418820E+03  0.33703418821E+03  0.25500000920E-02 0. -1.
        2   -1    0    0  501    0  0.00000000000E+00  0.00000000000E+00 -0.18609430253E+03  0.18609430254E+03  0.25500000920E-02 0.  1.
    10030    2    1    2    0    0  0.00000000000E+00  0.00000000000E+00  0.15093988567E+03  0.52312849075E+03  0.50087979471E+03 0.  0.
        4    1    3    3  502    0  0.22729277024E+03 -0.10507751773E+03  0.79547346893E+02  0.26274071141E+03  0.12699999809E+01 0. -1.
       -4    1    3    3    0  502 -0.22729277024E+03  0.10507751773E+03  0.71392538782E+02  0.26038777934E+03  0.12699999809E+01 0.  1.
</event>
<event>
 5   0  0.1984297E-01  0.5037302E+03  0.7818609E-02  0.1012810E+00
        1   -1    0    0  501    0  0.00000000000E+00  0.00000000000E+00  0.69138103480E+03  0.69138103482E+03  0.50400001928E-02 0.  1.
       -1   -1    0    0    0  501  0.00000000000E+00  0.00000000000E+00 -0.91752644114E+02  0.91752644253E+02  0.50400001928E-02 0. -1.
    10030    2    1    2    0    0  0.00000000000E+00  0.00000000000E+00  0.59962839069E+03  0.78313367907E+03  0.50373023771E+03 0.  0.
        3    1    3    3  502    0 -0.19714233880E+02  0.16810347741E+03  0.58978638099E+03  0.61359222252E+03  0.10100000352E+00 0.  1.
       -3    1    3    3    0  502  0.19714233880E+02 -0.16810347741E+03  0.98420096976E+01  0.16954145655E+03  0.10100000352E+00 0. -1.
</event>
<event>
 5   0  0.1292375E-01  0.5026904E+03  0.7818609E-02  0.1013079E+00
       -4   -1    0    0    0  501  0.00000000000E+00  0.00000000000E+00  0.64327580122E+03  0.64327705488E+03  0.12699999809E+01 0. -1.
        4   -1    0    0  501    0  0.00000000000E+00  0.00000000000E+00 -0.98201890789E+02  0.98210102609E+02  0.12699999809E+01 0.  1.
    10030    2    1    2    0    0  0.00000000000E+00  0.00000000000E+00  0.54507391043E+03  0.74148715749E+03  0.50269039864E+03 0.  0.
        3    1    3    3  502    0  0.16772224182E+03 -0.16887634441E+03  0.39168153646E+03  0.45832783715E+03  0.10100000352E+00 0. -1.
       -3    1    3    3    0  502 -0.16772224182E+03  0.16887634441E+03  0.15339237397E+03  0.28315932034E+03  0.10100000352E+00 0.  1.
</event>
<event>
 5   0  0.3117389E-01  0.4983749E+03  0.7818609E-02  0.1014204E+00
        2   -1    0    0  501    0  0.00000000000E+00  0.00000000000E+00  0.69226368966E+03  0.69226368966E+03  0.25500000920E-02 0.  1.
       -2   -1    0    0    0  501  0.00000000000E+00  0.00000000000E+00 -0.89697608158E+02  0.89697608194E+02  0.25500000920E-02 0. -1.
    10030    2    1    2    0    0  0.00000000000E+00  0.00000000000E+00  0.60256608150E+03  0.78196129786E+03  0.49837494798E+03 0.  0.
        4    1    3    3  502    0  0.22159031417E+03 -0.71307632958E+01  0.12280259501E+03  0.25344665190E+03  0.12699999809E+01 0. -1.
       -4    1    3    3    0  502 -0.22159031417E+03  0.71307632958E+01  0.47976348649E+03  0.52851464595E+03  0.12699999809E+01 0.  1.
</event>
<event>
 5   0  0.2013450E-01  0.4964781E+03  0.7818609E-02  0.1014702E+00
       -1   -1    0    0    0  501  0.00000000000E+00  0.00000000000E+00  0.60584222466E+02  0.60584222675E+02  0.50400001928E-02 0.  1.
        1   -1    0    0  501    0  0.00000000000E+00  0.00000000000E+00 -0.10171400118E+04  0.10171400118E+04  0.50400001928E-02 0. -1.
    10030    2    1    2    0    0  0.00000000000E+00  0.00000000000E+00 -0.95655578929E+03  0.10777242344E+04  0.49647814401E+03 0.  0.
        4    1    3    3  502    0  0.20700816617E+03 -0.92592820623E+02 -0.69746028505E+03  0.73340184988E+03  0.12699999809E+01 0.  1.
       -4    1    3    3    0  502 -0.20700816617E+03  0.92592820623E+02 -0.25909550425E+03  0.34432238457E+03  0.12699999809E+01 0. -1.
</event>
<event>
 5   0  0.3111146E-01  0.5252877E+03  0.7818609E-02  0.1007381E+00
       -2   -1    0    0    0  501  0.00000000000E+00  0.00000000000E+00  0.29273938474E+03  0.29273938475E+03  0.25500000920E-02 0.  1.
        2   -1    0    0  501    0  0.00000000000E+00  0.00000000000E+00 -0.23564235757E+03  0.23564235759E+03  0.25500000920E-02 0. -1.
    10030    2    1    2    0    0  0.00000000000E+00  0.00000000000E+00  0.57097027168E+02  0.52838174234E+03  0.52528772604E+03 0.  0.
        1    1    3    3  502    0  0.10376074313E+03  0.15994394725E+03  0.21025983321E+03  0.28382662942E+03  0.50400001928E-02 0. -1.
       -1    1    3    3    0  502 -0.10376074313E+03 -0.15994394725E+03 -0.15316280605E+03  0.24455511293E+03  0.50400001928E-02 0.  1.
</event>
<event>
 5   0  0.2013450E-01  0.5017619E+03  0.7818609E-02  0.1013320E+00
       -1   -1    0    0    0  501  0.00000000000E+00  0.00000000000E+00  0.86692018897E+02  0.86692019043E+02  0.50400001928E-02 0.  1.
        1   -1    0    0  501    0  0.00000000000E+00  0.00000000000E+00 -0.72603272869E+03  0.72603272871E+03  0.50400001928E-02 0. -1.
    10030    2    1    2    0    0  0.00000000000E+00  0.00000000000E+00 -0.63934070980E+03  0.81272474776E+03  0.50176186823E+03 0.  0.
        4    1    3    3  502    0 -0.10154220072E+03 -0.15706151204E+03 -0.48826963114E+02  0.19329982493E+03  0.12699999809E+01 0.  1.
       -4    1    3    3    0  502  0.10154220072E+03  0.15706151204E+03 -0.59051374668E+03  0.61942492282E+03  0.12699999809E+01 0. -1.
</event>
<event>
 5   0  0.1967161E-01  0.4579404E+03  0.7818609E-02  0.1025380E+00
        1   -1    0    0  501    0  0.00000000000E+00  0.00000000000E+00  0.12046249524E+04  0.12046249524E+04  0.50400001928E-02 0. -1.
       -1   -1    0    0    0  501  0.00000000000E+00  0.00000000000E+00 -0.43521725125E+02  0.43521725417E+02  0.50400001928E-02 0.  1.
    10030    2    1    2    0    0  0.00000000000E+00  0.00000000000E+00  0.11611032272E+04  0.12481466778E+04  0.45794041641E+03 0.  0.
        1    1    3    3  502    0  0.62381767485E+02 -0.87315960930E+02  0.11318426279E+04  0.11369183332E+04  0.50400001928E-02 0. -1.
       -1    1    3    3    0  502 -0.62381767485E+02  0.87315960930E+02  0.29260599340E+02  0.11122834462E+03  0.50400001928E-02 0.  1.
</event>
<event>
 5   0  0.3178149E-01  0.5178650E+03  0.7818609E-02  0.1009218E+00
       -2   -1    0    0    0  501  0.00000000000E+00  0.00000000000E+00  0.44809591900E+02  0.44809591973E+02  0.25500000920E-02 0. -1.
        2   -1    0    0  501    0  0.00000000000E+00  0.00000000000E+00 -0.14962431218E+04  0.14962431218E+04  0.25500000920E-02 0.  1.
    10030    2    1    2    0    0  0.00000000000E+00  0.00000000000E+00 -0.14514335299E+04  0.15410527138E+04  0.51786501612E+03 0.  0.
        3    1    3    3  502    0  0.21486689623E+03 -0.13040824403E+03 -0.54054905799E+03  0.59612698941E+03  0.10100000352E+00 0.  1.
       -3    1    3    3    0  502 -0.21486689623E+03  0.13040824403E+03 -0.91088447191E+03  0.94492572437E+03  0.10100000352E+00 0. -1.
</event>
<event>
 5   0  0.1984680E-01  0.4957205E+03  0.7818609E-02  0.1014902E+00
        1   -1    0    0  501    0  0.00000000000E+00  0.00000000000E+00  0.67743581794E+03  0.67743581796E+03  0.50400001928E-02 0.  1.
       -1   -1    0    0    0  501  0.00000000000E+00  0.00000000000E+00 -0.90687117146E+02  0.90687117286E+02  0.50400001928E-02 0. -1.
    10030    2    1    2    0    0  0.00000000000E+00  0.00000000000E+00  0.58674870079E+03  0.76812293524E+03  0.49572049157E+03 0.  0.
        5    1    3    3  502    0  0.16169161733E+03  0.58537908928E+01  0.58422889623E+03  0.60623752702E+03  0.46999998093E+01 0.  1.
       -5    1    3    3    0  502 -0.16169161733E+03 -0.58537908928E+01  0.25198045652E+01  0.16188540822E+03  0.46999998093E+01 0. -1.
</event>
<event>
 5   0  0.3178149E-01  0.5244531E+03  0.7818609E-02  0.1007586E+00
       -2   -1    0    0    0  501  0.00000000000E+00  0.00000000000E+00  0.15941397800E+03  0.15941397802E+03  0.25500000920E-02 0. -1.
        2   -1    0    0  501    0  0.00000000000E+00  0.00000000000E+00 -0.43134716882E+03  0.43134716882E+03  0.25500000920E-02 0.  1.
    10030    2    1    2    0    0  0.00000000000E+00  0.00000000000E+00 -0.27193319081E+03  0.59076114685E+03  0.52445311741E+03 0.  0.
        3    1    3    3  502    0  0.78195377504E+02 -0.10176581709E+03  0.12161967494E+03  0.17681106901E+03  0.10100000352E+00 0. -1.
       -3    1    3    3    0  502 -0.78195377504E+02  0.10176581709E+03 -0.39355286576E+03  0.41395007783E+03  0.10100000352E+00 0.  1.
</event>
<event>
 5   0  0.3117389E-01  0.4799803E+03  0.7818609E-02  0.1019141E+00
       -2   -1    0    0    0  501  0.00000000000E+00  0.00000000000E+00  0.41737945418E+02  0.41737945495E+02  0.25500000920E-02 0. -1.
        2   -1    0    0  501    0  0.00000000000E+00  0.00000000000E+00 -0.13799256308E+04  0.13799256308E+04  0.25500000920E-02 0.  1.
    10030    2    1    2    0    0  0.00000000000E+00  0.00000000000E+00 -0.13381876854E+04  0.14216635763E+04  0.47998025258E+03 0.  0.
        4    1    3    3  502    0  0.18080425392E+03  0.66929324633E+02 -0.10923888807E+04  0.11092721903E+04  0.12699999809E+01 0. -1.
       -4    1    3    3    0  502 -0.18080425392E+03 -0.66929324633E+02 -0.24579880475E+03  0.31239138600E+03  0.12699999809E+01 0.  1.
</event>
<event>
 5   0  0.3178149E-01  0.5436210E+03  0.7818609E-02  0.1002981E+00
        2   -1    0    0  501    0  0.00000000000E+00  0.00000000000E+00  0.40866323833E+03  0.40866323834E+03  0.25500000920E-02 0.  1.
       -2   -1    0    0    0  501  0.00000000000E+00  0.00000000000E+00 -0.18078684388E+03  0.18078684389E+03  0.25500000920E-02 0. -1.
    10030    2    1    2    0    0  0.00000000000E+00  0.00000000000E+00  0.22787639445E+03  0.58945008223E+03  0.54362096013E+03 0.  0.
        3    1    3    3  502    0 -0.10933480055E+03  0.17276418821E+03 -0.80268280175E+02  0.21964646672E+03  0.10100000352E+00 0. -1.
       -3    1    3    3    0  502  0.10933480055E+03 -0.17276418821E+03  0.30814467463E+03  0.36980361551E+03  0.10100000352E+00 0.  1.
</event>
<event>
 5   0  0.3111146E-01  0.5020503E+03  0.7818609E-02  0.1013245E+00
       -2   -1    0    0    0  501  0.00000000000E+00  0.00000000000E+00  0.27009145593E+02  0.27009145714E+02  0.25500000920E-02 0.  1.
        2   -1    0    0  501    0  0.00000000000E+00  0.00000000000E+00 -0.23330474124E+04  0.23330474124E+04  0.25500000920E-02 0. -1.
    10030    2    1    2    0    0  0.00000000000E+00  0.00000000000E+00 -0.23060382668E+04  0.23600565582E+04  0.50205026594E+03 0.  0.
        1    1    3    3  502    0 -0.41359363780E+02 -0.18389785046E+03 -0.37369176593E+03  0.41853859120E+03  0.50400001928E-02 0.  1.
       -1    1    3    3    0  502  0.41359363780E+02  0.18389785046E+03 -0.19323465009E+04  0.19415179669E+04  0.50400001928E-02 0. -1.
</event>
<event>
 5   0  0.1292375E-01  0.5368330E+03  0.7818609E-02  0.1004588E+00
       -4   -1    0    0    0  501  0.00000000000E+00  0.00000000000E+00  0.82920057391E+03  0.82920154647E+03  0.12699999809E+01 0. -1.
        4   -1    0    0  501    0  0.00000000000E+00  0.00000000000E+00 -0.86882128845E+02  0.86891410465E+02  0.12699999809E+01 0.  1.
    10030    2    1    2    0    0  0.00000000000E+00  0.00000000000E+00  0.74231844507E+03  0.91609295694E+03  0.53683296459E+03 0.  0.
        3    1    3    3  502    0  0.25517396176E+03 -0.70026293043E+02  0.29427368163E+03  0.39574542623E+03  0.10100000352E+00 0.  1.
       -3    1    3    3    0  502 -0.25517396176E+03  0.70026293043E+02  0.44804476343E+03  0.52034753071E+03  0.10100000352E+00 0. -1.
</event>
<event>
 5   0  0.2013450E-01  0.4925285E+03  0.7818609E-02  0.1015748E+00
       -1   -1    0    0    0  501  0.00000000000E+00  0.00000000000E+00  0.39792207715E+03  0.39792207718E+03  0.50400001928E-02 0.  1.
        1   -1    0    0  501    0  0.00000000000E+00  0.00000000000E+00 -0.15240692403E+03  0.15240692411E+03  0.50400001928E-02 0. -1.
    10030    2    1    2    0    0  0.00000000000E+00  0.00000000000E+00  0.24551515312E+03  0.55032900129E+03  0.49252849587E+03 0.  0.
        4    1    3    3  502    0 -0.67165371385E+02  0.23092687749E+03  0.63568810506E+02  0.24875895246E+03  0.12699999809E+01 0. -1.
       -4    1    3    3    0  502  0.67165371385E+02 -0.23092687749E+03  0.18194634261E+03  0.30157004883E+03  0.12699999809E+01 0.  1.
</event>
<event>
 5   0  0.3187123E-01  0.4996233E+03  0.7818609E-02  0.1013877E+00
       -2   -1    0    0    0  501  0.00000000000E+00  0.00000000000E+00  0.55104091925E+02  0.55104091984E+02  0.25500000920E-02 0. -1.
        2   -1    0    0  501    0  0.00000000000E+00  0.00000000000E+00 -0.11325087184E+04  0.11325087184E+04  0.25500000920E-02 0.  1.
    10030    2    1    2    0    0  0.00000000000E+00  0.00000000000E+00 -0.10774046264E+04  0.11876128103E+04  0.49962331635E+03 0.  0.
        5    1    3    3  502    0 -0.99866347567E+02 -0.22536187013E+03 -0.63444960361E+03  0.68066853123E+03  0.46999998093E+01 0.  1.
       -5    1    3    3    0  502  0.99866347567E+02  0.22536187013E+03 -0.44295502282E+03  0.50694427912E+03  0.46999998093E+01 0. -1.
</event>
<event>
 5   0  0.1967161E-01  0.4966786E+03  0.7818609E-02  0.1014649E+00
       -1   -1    0    0    0  501  0.00000000000E+00  0.00000000000E+00  0.11614113385E+03  0.11614113395E+03  0.50400001928E-02 0.  1.
        1   -1    0    0  501    0  0.00000000000E+00  0.00000000000E+00 -0.53101270291E+03  0.53101270293E+03  0.50400001928E-02 0. -1.
    10030    2    1    2    0    0  0.00000000000E+00  0.00000000000E+00 -0.41487156906E+03  0.64715383689E+03  0.49667863834E+03 0.  0.
        1    1    3    3  502    0 -0.21422219685E+03 -0.51955807908E+01 -0.43893054883E+02  0.21873441425E+03  0.50400001928E-02 0.  1.
       -1    1    3    3    0  502  0.21422219685E+03  0.51955807908E+01 -0.37097851418E+03  0.42841942264E+03  0.50400001928E-02 0. -1.
</event>
<event>
 5   0  0.1292375E-01  0.2706953E+03  0.7818609E-02  0.1100882E+00
       -3   -1    0    0    0  501  0.00000000000E+00  0.00000000000E+00  0.55447551416E+03  0.55447552336E+03  0.10100000352E+00 0. -1.
        3   -1    0    0  501    0  0.00000000000E+00  0.00000000000E+00 -0.33038308910E+02  0.33038463292E+02  0.10100000352E+00 0.  1.
    10030    2    1    2    0    0  0.00000000000E+00  0.00000000000E+00  0.52143720525E+03  0.58751398665E+03  0.27069526315E+03 0.  0.
        3    1    3    3  502    0  0.32394405322E+02  0.28677305803E+02 -0.17626351838E+02  0.46717061599E+02  0.10100000352E+00 0.  1.
       -3    1    3    3    0  502 -0.32394405322E+02 -0.28677305803E+02  0.53906355709E+03  0.54079692505E+03  0.10100000352E+00 0. -1.
</event>
<event>
 5   0  0.2013450E-01  0.5022770E+03  0.7818609E-02  0.1013186E+00
       -1   -1    0    0    0  501  0.00000000000E+00  0.00000000000E+00  0.65350818202E+02  0.65350818396E+02  0.50400001928E-02 0.  1.
        1   -1    0    0  501    0  0.00000000000E+00  0.00000000000E+00 -0.96510732752E+03  0.96510732753E+03  0.50400001928E-02 0. -1.
    10030    2    1    2    0    0  0.00000000000E+00  0.00000000000E+00 -0.89975650931E+03  0.10304581459E+04  0.50227702959E+03 0.  0.
        4    1    3    3  502    0  0.22646698477E+03  0.10255769138E+03 -0.52280484561E+03  0.57890577363E+03  0.12699999809E+01 0.  1.
       -4    1    3    3    0  502 -0.22646698477E+03 -0.10255769138E+03 -0.37695166370E+03  0.45155237229E+03  0.12699999809E+01 0. -1.
</event>
<event>
 5   0  0.1984680E-01  0.5014068E+03  0.7818609E-02  0.1013412E+00
       -1   -1    0    0    0  501  0.00000000000E+00  0.00000000000E+00  0.37970434341E+03  0.37970434345E+03  0.50400001928E-02 0. -1.
        1   -1    0    0  501    0  0.00000000000E+00  0.00000000000E+00 -0.16552928174E+03  0.16552928181E+03  0.50400001928E-02 0.  1.
    10030    2    1    2    0    0  0.00000000000E+00  0.00000000000E+00  0.21417506168E+03  0.54523362526E+03  0.50140677007E+03 0.  0.
        5    1    3    3  502    0 -0.74663076702E+02  0.12079648709E+03 -0.11751872790E+03  0.18438846960E+03  0.46999998093E+01 0.  1.
       -5    1    3    3    0  502  0.74663076702E+02 -0.12079648709E+03  0.33169378958E+03  0.36084515566E+03  0.46999998093E+01 0. -1.
</event>
<event>
 5   0  0.3117389E-01  0.5001926E+03  0.7818609E-02  0.1013729E+00
       -2   -1    0    0    0  501  0.00000000000E+00  0.00000000000E+00  0.25586664876E+03  0.25586664877E+03  0.25500000920E-02 0.  1.
        2   -1    0    0  501    0  0.00000000000E+00  0.00000000000E+00 -0.24445609049E+03  0.24445609050E+03  0.25500000920E-02 0. -1.
    10030    2    1    2    0    0  0.00000000000E+00  0.00000000000E+00  0.11410558270E+02  0.50032273928E+03  0.50019260550E+03 0.  0.
        4    1    3    3  502    0 -0.74393543275E+02  0.64081188088E+02 -0.22436706183E+03  0.24491424884E+03  0.12699999809E+01 0. -1.
       -4    1    3    3    0  502  0.74393543275E+02 -0.64081188088E+02  0.23577762010E+03  0.25540849044E+03  0.12699999809E+01 0.  1.
</event>
<event>
 5   0  0.1967161E-01  0.4512602E+03  0.7818609E-02  0.1027347E+00
        1   -1    0    0  501    0  0.00000000000E+00  0.00000000000E+00  0.30598808965E+03  0.30598808970E+03  0.50400001928E-02 0.  1.
       -1   -1    0    0    0  501  0.00000000000E+00  0.00000000000E+00 -0.16637556713E+03  0.16637556721E+03  0.50400001928E-02 0. -1.
    10030    2    1    2    0    0  0.00000000000E+00  0.00000000000E+00  0.13961252252E+03  0.47236365691E+03  0.45126019980E+03 0.  0.
        1    1    3    3  502    0  0.42220145353E+02  0.22969517635E+02  0.30056716389E+03  0.30438587261E+03  0.50400001928E-02 0.  1.
       -1    1    3    3    0  502 -0.42220145353E+02 -0.22969517635E+02 -0.16095464137E+03  0.16797778429E+03  0.50400001928E-02 0. -1.
</event>
<event>
 5   0  0.3329246E-01  0.5003773E+03  0.7818609E-02  0.1013680E+00
       -2   -1    0    0    0  501  0.00000000000E+00  0.00000000000E+00  0.10027672510E+03  0.10027672513E+03  0.25500000920E-02 0.  1.
        2   -1    0    0  501    0  0.00000000000E+00  0.00000000000E+00 -0.62421621556E+03  0.62421621557E+03  0.25500000920E-02 0. -1.
    10030    2    1    2    0    0  0.00000000000E+00  0.00000000000E+00 -0.52393949046E+03  0.72449294070E+03  0.50037728910E+03 0.  0.
        2    1    3    3  502    0 -0.16590931078E+03 -0.18717979527E+03 -0.25375587599E+03  0.35630635662E+03  0.25500000920E-02 0.  1.
       -2    1    3    3    0  502  0.16590931078E+03  0.18717979527E+03 -0.27018361447E+03  0.36818658408E+03  0.25500000920E-02 0. -1.
</event>
<event>
 5   0  0.3187123E-01  0.5445715E+03  0.7818609E-02  0.1002758E+00
        2   -1    0    0  501    0  0.00000000000E+00  0.00000000000E+00  0.21368423913E+04  0.21368423913E+04  0.25500000920E-02 0. -1.
       -2   -1    0    0    0  501  0.00000000000E+00  0.00000000000E+00 -0.34695830717E+02  0.34695830810E+02  0.25500000920E-02 0.  1.
    10030    2    1    2    0    0  0.00000000000E+00  0.00000000000E+00  0.21021465606E+04  0.21715382222E+04  0.54457147182E+03 0.  0.
        5    1    3    3  502    0 -0.20238297921E+03 -0.14675519895E+03  0.62119729358E+03  0.66962984271E+03  0.46999998093E+01 0.  1.
       -5    1    3    3    0  502  0.20238297921E+03  0.14675519895E+03  0.14809492670E+04  0.15019083794E+04  0.46999998093E+01 0. -1.
</event>
<event>
 5   0  0.1984297E-01  0.4950577E+03  0.7818609E-02  0.1015077E+00
        1   -1    0    0  501    0  0.00000000000E+00  0.00000000000E+00  0.82322684441E+02  0.82322684595E+02  0.50400001928E-02 0. -1.
       -1   -1    0    0    0  501  0.00000000000E+00  0.00000000000E+00 -0.74427270837E+03  0.74427270839E+03  0.50400001928E-02 0.  1.
    10030    2    1    2    0    0  0.00000000000E+00  0.00000000000E+00 -0.66195002393E+03  0.82659539298E+03  0.49505768302E+03 0.  0.
        3    1    3    3  502    0  0.29901122115E+02  0.24530982687E+03 -0.35456024093E+03  0.43218510260E+03  0.10100000352E+00 0.  1.
       -3    1    3    3    0  502 -0.29901122115E+02 -0.24530982687E+03 -0.30738978300E+03  0.39441029038E+03  0.10100000352E+00 0. -1.
</event>
<event>
 5   0  0.1292375E-01  0.5051676E+03  0.7818609E-02  0.1012439E+00
       -3   -1    0    0    0  501  0.00000000000E+00  0.00000000000E+00  0.22876852603E+03  0.22876854832E+03  0.10100000352E+00 0. -1.
        3   -1    0    0  501    0  0.00000000000E+00  0.00000000000E+00 -0.27887827122E+03  0.27887828951E+03  0.10100000352E+00 0.  1.
    10030    2    1    2    0    0  0.00000000000E+00  0.00000000000E+00 -0.50109745192E+02  0.50764683783E+03  0.50516762109E+03 0.  0.
        2    1    3    3  502    0 -0.17708827368E+03 -0.53196975841E+02  0.14786053613E+03  0.23675496419E+03  0.25500000920E-02 0. -1.
       -2    1    3    3    0  502  0.17708827368E+03  0.53196975841E+02 -0.19797028133E+03  0.27089187365E+03  0.25500000920E-02 0.  1.
</event>
<event>
 5   0  0.1984680E-01  0.5056609E+03  0.7818609E-02  0.1012312E+00
        1   -1    0    0  501    0  0.00000000000E+00  0.00000000000E+00  0.61276312582E+03  0.61276312584E+03  0.50400001928E-02 0. -1.
       -1   -1    0    0    0  501  0.00000000000E+00  0.00000000000E+00 -0.10431963499E+03  0.10431963511E+03  0.50400001928E-02 0.  1.
    10030    2    1    2    0    0  0.00000000000E+00  0.00000000000E+00  0.50844349083E+03  0.71708276096E+03  0.50566085739E+03 0.  0.
        5    1    3    3  502    0 -0.13137788276E+03 -0.12150068095E+03  0.50741922344E+03  0.53806962548E+03  0.46999998093E+01 0. -1.
       -5    1    3    3    0  502  0.13137788276E+03  0.12150068095E+03  0.10242673873E+01  0.17901313547E+03  0.46999998093E+01 0.  1.
</event>
<event>
 5   0  0.3329246E-01  0.3418681E+03  0.7818609E-02  0.1066003E+00
       -2   -1    0    0    0  501  0.00000000000E+00  0.00000000000E+00  0.10388672790E+03  0.10388672793E+03  0.25500000920E-02 0.  1.
        2   -1    0    0  501    0  0.00000000000E+00  0.00000000000E+00 -0.28125302877E+03  0.28125302878E+03  0.25500000920E-02 0. -1.
    10030    2    1    2    0    0  0.00000000000E+00  0.00000000000E+00 -0.17736630087E+03  0.38513975671E+03  0.34186814346E+03 0.  0.
        2    1    3    3  502    0 -0.20526357447E+02  0.13503863227E+03  0.27094969902E+02  0.13925121528E+03  0.25500000920E-02 0.  1.
       -2    1    3    3    0  502  0.20526357447E+02 -0.13503863227E+03 -0.20446127077E+03  0.24588854143E+03  0.25500000920E-02 0. -1.
</event>
<event>
 5   0  0.2013450E-01  0.5283569E+03  0.7818609E-02  0.1006631E+00
        1   -1    0    0  501    0  0.00000000000E+00  0.00000000000E+00  0.16629005897E+04  0.16629005897E+04  0.50400001928E-02 0. -1.
       -1   -1    0    0    0  501  0.00000000000E+00  0.00000000000E+00 -0.41968991218E+02  0.41968991520E+02  0.50400001928E-02 0.  1.
    10030    2    1    2    0    0  0.00000000000E+00  0.00000000000E+00  0.16209315985E+04  0.17048695812E+04  0.52835692674E+03 0.  0.
        4    1    3    3  502    0 -0.19916820549E+02  0.85124396842E+02  0.60702380835E+01  0.87643045183E+02  0.12699999809E+01 0.  1.
       -4    1    3    3    0  502  0.19916820549E+02 -0.85124396842E+02  0.16148613604E+04  0.16172265360E+04  0.12699999809E+01 0. -1.
</event>
<event>
 5   0  0.3178149E-01  0.4584324E+03  0.7818609E-02  0.1025237E+00
        2   -1    0    0  501    0  0.00000000000E+00  0.00000000000E+00  0.63358454182E+03  0.63358454182E+03  0.25500000920E-02 0.  1.
       -2   -1    0    0    0  501  0.00000000000E+00  0.00000000000E+00 -0.82925094243E+02  0.82925094282E+02  0.25500000920E-02 0. -1.
    10030    2    1    2    0    0  0.00000000000E+00  0.00000000000E+00  0.55065944758E+03  0.71650963611E+03  0.45843236298E+03 0.  0.
        3    1    3    3  502    0  0.90450460543E+02 -0.12783925101E+03  0.13722964610E+02  0.15720206701E+03  0.10100000352E+00 0. -1.
       -3    1    3    3    0  502 -0.90450460543E+02  0.12783925101E+03  0.53693648297E+03  0.55930756910E+03  0.10100000352E+00 0.  1.
</event>
<event>
 5   0  0.3187123E-01  0.4884559E+03  0.7818609E-02  0.1016837E+00
       -2   -1    0    0    0  501  0.00000000000E+00  0.00000000000E+00  0.40370085965E+03  0.40370085966E+03  0.25500000920E-02 0. -1.
        2   -1    0    0  501    0  0.00000000000E+00  0.00000000000E+00 -0.14775120584E+03  0.14775120586E+03  0.25500000920E-02 0.  1.
    10030    2    1    2    0    0  0.00000000000E+00  0.00000000000E+00  0.25594965382E+03  0.55145206552E+03  0.48845588878E+03 0.  0.
        5    1    3    3  502    0  0.12116377989E+03 -0.44258687114E+02 -0.10609446933E+03  0.16708566475E+03  0.46999998093E+01 0.  1.
       -5    1    3    3    0  502 -0.12116377989E+03  0.44258687114E+02  0.36204412315E+03  0.38436640078E+03  0.46999998093E+01 0. -1.
</event>
<event>
 5   0  0.3111146E-01  0.4236127E+03  0.7818609E-02  0.1035897E+00
        2   -1    0    0  501    0  0.00000000000E+00  0.00000000000E+00  0.21780860580E+03  0.21780860581E+03  0.25500000920E-02 0.  1.
       -2   -1    0    0    0  501  0.00000000000E+00  0.00000000000E+00 -0.20596950862E+03  0.20596950863E+03  0.25500000920E-02 0. -1.
    10030    2    1    2    0    0  0.00000000000E+00  0.00000000000E+00  0.11839097180E+02  0.42377811445E+03  0.42361270762E+03 0.  0.
        1    1    3    3  502    0  0.18493657902E+03  0.10173649914E+03 -0.11696358180E+02  0.21139692130E+03  0.50400001928E-02 0. -1.
       -1    1    3    3    0  502 -0.18493657902E+03 -0.10173649914E+03  0.23535455359E+02  0.21238119314E+03  0.50400001928E-02 0.  1.
</event>
<event>
 5   0  0.2013450E-01  0.4995915E+03  0.7818609E-02  0.1013886E+00
       -1   -1    0    0    0  501  0.00000000000E+00  0.00000000000E+00  0.17139519193E+03  0.17139519201E+03  0.50400001928E-02 0.  1.
        1   -1    0    0  501    0  0.00000000000E+00  0.00000000000E+00 -0.36405872378E+03  0.36405872382E+03  0.50400001928E-02 0. -1.
    10030    2    1    2    0    0  0.00000000000E+00  0.00000000000E+00 -0.19266353185E+03  0.53545391582E+03  0.49959149259E+03 0.  0.
        4    1    3    3  502    0  0.11487110617E+03  0.21965266870E+03 -0.63234021436E+02  0.25581794360E+03  0.12699999809E+01 0. -1.
       -4    1    3    3    0  502 -0.11487110617E+03 -0.21965266870E+03 -0.12942951042E+03  0.27963597223E+03  0.12699999809E+01 0.  1.
</event>
<event>
 5   0  0.3111146E-01  0.4804459E+03  0.7818609E-02  0.1019013E+00
       -2   -1    0    0    0  501  0.00000000000E+00  0.00000000000E+00  0.28256539525E+03  0.28256539526E+03  0.25500000920E-02 0. -1.
        2   -1    0    0  501    0  0.00000000000E+00  0.00000000000E+00 -0.20422554379E+03  0.20422554381E+03  0.25500000920E-02 0.  1.
    10030    2    1    2    0    0  0.00000000000E+00  0.00000000000E+00  0.78339851460E+02  0.48679093907E+03  0.48044592415E+03 0.  0.
        1    1    3    3  502    0 -0.52963691894E+02  0.22274736971E+03  0.11283169840E+03  0.25524994723E+03  0.50400001928E-02 0. -1.
       -1    1    3    3    0  502  0.52963691894E+02 -0.22274736971E+03 -0.34491846940E+02  0.23154099184E+03  0.50400001928E-02 0.  1.
</event>
<event>
 5   0  0.2013450E-01  0.5225131E+03  0.7818609E-02  0.1008064E+00
        1   -1    0    0  501    0  0.00000000000E+00  0.00000000000E+00  0.10321636821E+03  0.10321636833E+03  0.50400001928E-02 0.  1.
       -1   -1    0    0    0  501  0.00000000000E+00  0.00000000000E+00 -0.66128056162E+03  0.66128056164E+03  0.50400001928E-02 0. -1.
    10030    2    1    2    0    0  0.00000000000E+00  0.00000000000E+00 -0.55806419341E+03  0.76449692997E+03  0.52251307348E+03 0.  0.
        4    1    3    3  502    0 -0.15797716916E+03  0.12665127009E+03 -0.52058369914E+03  0.55857526879E+03  0.12699999809E+01 0. -1.
       -4    1    3    3    0  502  0.15797716916E+03 -0.12665127009E+03 -0.37480494275E+02  0.20592166118E+03  0.12699999809E+01 0.  1.
</event>
<event>
 5   0  0.3117389E-01  0.5055001E+03  0.7818609E-02  0.1012353E+00
        2   -1    0    0  501    0  0.00000000000E+00  0.00000000000E+00  0.14156736376E+03  0.14156736379E+03  0.25500000920E-02 0.  1.
       -2   -1    0    0    0  501  0.00000000000E+00  0.00000000000E+00 -0.45125221661E+03  0.45125221662E+03  0.25500000920E-02 0. -1.
    10030    2    1    2    0    0  0.00000000000E+00  0.00000000000E+00 -0.30968485285E+03  0.59281958041E+03  0.50550009578E+03 0.  0.
        4    1    3    3  502    0 -0.23010347717E+03 -0.13171358632E+02 -0.33194421858E+02  0.23286171312E+03  0.12699999809E+01 0.  1.
       -4    1    3    3    0  502  0.23010347717E+03  0.13171358632E+02 -0.27649043099E+03  0.35995786729E+03  0.12699999809E+01 0. -1.
</event>
<event>
 5   0  0.1967161E-01  0.5014754E+03  0.7818609E-02  0.1013395E+00
       -1   -1    0    0    0  501  0.00000000000E+00  0.00000000000E+00  0.13322438099E+03  0.13322438108E+03  0.50400001928E-02 0. -1.
        1   -1    0    0  501    0  0.00000000000E+00  0.00000000000E+00 -0.47190602401E+03  0.47190602404E+03  0.50400001928E-02 0.  1.
    10030    2    1    2    0    0  0.00000000000E+00  0.00000000000E+00 -0.33868164302E+03  0.60513040512E+03  0.50147537515E+03 0.  0.
        1    1    3    3  502    0  0.20441565862E+03  0.13312014012E+03 -0.23931543413E+03  0.34172885484E+03  0.50400001928E-02 0.  1.
       -1    1    3    3    0  502 -0.20441565862E+03 -0.13312014012E+03 -0.99366208895E+02  0.26340155028E+03  0.50400001928E-02 0. -1.
</event>
<event>
 5   0  0.3187123E-01  0.4844226E+03  0.7818609E-02  0.1017927E+00
       -2   -1    0    0    0  501  0.00000000000E+00  0.00000000000E+00  0.54388578628E+03  0.54388578629E+03  0.25500000920E-02 0.  1.
        2   -1    0    0  501    0  0.00000000000E+00  0.00000000000E+00 -0.10786514614E+03  0.10786514617E+03  0.25500000920E-02 0. -1.
    10030    2    1    2    0    0  0.00000000000E+00  0.00000000000E+00  0.43602064014E+03  0.65175093246E+03  0.48442262471E+03 0.  0.
        5    1    3    3  502    0  0.13791388604E+03 -0.18099751242E+03  0.10654432129E+03  0.25130483853E+03  0.46999998093E+01 0. -1.
       -5    1    3    3    0  502 -0.13791388604E+03  0.18099751242E+03  0.32947631885E+03  0.40044609393E+03  0.46999998093E+01 0.  1.
</event>
<event>
 5   0  0.3187123E-01  0.2854615E+03  0.7818609E-02  0.1092743E+00
       -2   -1    0    0    0  501  0.00000000000E+00  0.00000000000E+00  0.12945686539E+03  0.12945686542E+03  0.25500000920E-02 0. -1.
        2   -1    0    0  501    0  0.00000000000E+00  0.00000000000E+00 -0.15736565892E+03  0.15736565894E+03  0.25500000920E-02 0.  1.
    10030    2    1    2    0    0  0.00000000000E+00  0.00000000000E+00 -0.27908793524E+02  0.28682252436E+03  0.28546148553E+03 0.  0.
        5    1    3    3  502    0 -0.10532614427E+03  0.55339929744E+01  0.82554343817E+02  0.13402063806E+03  0.46999998093E+01 0. -1.
       -5    1    3    3    0  502  0.10532614427E+03 -0.55339929744E+01 -0.11046313734E+03  0.15280188629E+03  0.46999998093E+01 0.  1.
</event>
<event>
 5   0  0.3329246E-01  0.4930372E+03  0.7818609E-02  0.1015612E+00
        2   -1    0    0  501    0  0.00000000000E+00  0.00000000000E+00  0.26310493905E+04  0.26310493905E+04  0.25500000920E-02 0. -1.
       -2   -1    0    0    0  501  0.00000000000E+00  0.00000000000E+00 -0.23097786236E+02  0.23097786376E+02  0.25500000920E-02 0.  1.
    10030    2    1    2    0    0  0.00000000000E+00  0.00000000000E+00  0.26079516043E+04  0.26541471769E+04  0.49303718556E+03 0.  0.
        2    1    3    3  502    0  0.21019862362E+03  0.43527850587E+02  0.65143942946E+03  0.68589464600E+03  0.25500000920E-02 0.  1.
       -2    1    3    3    0  502 -0.21019862362E+03 -0.43527850587E+02  0.19565121749E+04  0.19682525309E+04  0.25500000920E-02 0. -1.
</event>
<event>
 5   0  0.3329246E-01  0.4773483E+03  0.7818609E-02  0.1019866E+00
       -2   -1    0    0    0  501  0.00000000000E+00  0.00000000000E+00  0.11554633461E+03  0.11554633464E+03  0.25500000920E-02 0. -1.
        2   -1    0    0  501    0  0.00000000000E+00  0.00000000000E+00 -0.49300861623E+03  0.49300861624E+03  0.25500000920E-02 0.  1.
    10030    2    1    2    0    0  0.00000000000E+00  0.00000000000E+00 -0.37746228163E+03  0.60855495087E+03  0.47734825252E+03 0.  0.
        2    1    3    3  502    0 -0.36033917133E+02 -0.55361355342E+02 -0.48112325543E+03  0.48563660259E+03  0.25500000920E-02 0.  1.
       -2    1    3    3    0  502  0.36033917133E+02  0.55361355342E+02  0.10366097380E+03  0.12291834829E+03  0.25500000920E-02 0. -1.
</event>
<event>
 5   0  0.3111146E-01  0.5051443E+03  0.7818609E-02  0.1012445E+00
       -2   -1    0    0    0  501  0.00000000000E+00  0.00000000000E+00  0.90342709649E+02  0.90342709685E+02  0.25500000920E-02 0.  1.
        2   -1    0    0  501    0  0.00000000000E+00  0.00000000000E+00 -0.70611882430E+03  0.70611882430E+03  0.25500000920E-02 0. -1.
    10030    2    1    2    0    0  0.00000000000E+00  0.00000000000E+00 -0.61577611465E+03  0.79646153399E+03  0.50514428805E+03 0.  0.
        1    1    3    3  502    0 -0.82935224413E+02 -0.23106857359E+02 -0.68226910721E+03  0.68767965870E+03  0.50400001928E-02 0. -1.
       -1    1    3    3    0  502  0.82935224413E+02  0.23106857359E+02  0.66492992566E+02  0.10878187529E+03  0.50400001928E-02 0.  1.
</event>
<event>
 5   0  0.1984297E-01  0.5346583E+03  0.7818609E-02  0.1005109E+00
       -1   -1    0    0    0  501  0.00000000000E+00  0.00000000000E+00  0.45478628941E+02  0.45478629220E+02  0.50400001928E-02 0. -1.
        1   -1    0    0  501    0  0.00000000000E+00  0.00000000000E+00 -0.15713944158E+04  0.15713944158E+04  0.50400001928E-02 0.  1.
    10030    2    1    2    0    0  0.00000000000E+00  0.00000000000E+00 -0.15259157869E+04  0.16168730450E+04  0.53465826016E+03 0.  0.
        3    1    3    3  502    0  0.19530838220E+03  0.63466979782E+02 -0.12805289018E+04  0.12968915530E+04  0.10100000352E+00 0.  1.
       -3    1    3    3    0  502 -0.19530838220E+03 -0.63466979782E+02 -0.24538688503E+03  0.31998149200E+03  0.10100000352E+00 0. -1.
</event>
<event>
 5   0  0.1984297E-01  0.4836355E+03  0.7818609E-02  0.1018141E+00
        1   -1    0    0  501    0  0.00000000000E+00  0.00000000000E+00  0.59438257030E+03  0.59438257032E+03  0.50400001928E-02 0. -1.
       -1   -1    0    0    0  501  0.00000000000E+00  0.00000000000E+00 -0.98380803236E+02  0.98380803365E+02  0.50400001928E-02 0.  1.
    10030    2    1    2    0    0  0.00000000000E+00  0.00000000000E+00  0.49600176706E+03  0.69276337368E+03  0.48363554356E+03 0.  0.
        3    1    3    3  502    0 -0.26902491918E+02 -0.23842182049E+03  0.29114266934E+03  0.37727015873E+03  0.10100000352E+00 0. -1.
       -3    1    3    3    0  502  0.26902491918E+02  0.23842182049E+03  0.20485909772E+03  0.31549321495E+03  0.10100000352E+00 0.  1.
</event>
<event>
 5   0  0.1292375E-01  0.4926645E+03  0.7818609E-02  0.1015712E+00
        3   -1    0    0  501    0  0.00000000000E+00  0.00000000000E+00  0.12402673183E+04  0.12402673225E+04  0.10100000352E+00 0.  1.
       -3   -1    0    0    0  501  0.00000000000E+00  0.00000000000E+00 -0.48924537597E+02  0.48924641850E+02  0.10100000352E+00 0. -1.
    10030    2    1    2    0    0  0.00000000000E+00  0.00000000000E+00  0.11913427807E+04  0.12891919643E+04  0.49266448988E+03 0.  0.
        2    1    3    3  502    0  0.23358706074E+03 -0.25226056901E+02  0.78938883593E+03  0.82361034670E+03  0.25500000920E-02 0.  1.
       -2    1    3    3    0  502 -0.23358706074E+03  0.25226056901E+02  0.40195394482E+03  0.46558161761E+03  0.25500000920E-02 0. -1.
</event>
<event>
 5   0  0.3178149E-01  0.3676221E+03  0.7818609E-02  0.1055606E+00
        2   -1    0    0  501    0  0.00000000000E+00  0.00000000000E+00  0.49167596646E+03  0.49167596647E+03  0.25500000920E-02 0. -1.
       -2   -1    0    0    0  501  0.00000000000E+00  0.00000000000E+00 -0.68716992676E+02  0.68716992724E+02  0.25500000920E-02 0.  1.
    10030    2    1    2    0    0  0.00000000000E+00  0.00000000000E+00  0.42295897379E+03  0.56039295919E+03  0.36762205484E+03 0.  0.
        3    1    3    3  502    0 -0.91560986461E+02 -0.11553664648E+03  0.37884387681E+03  0.40651546603E+03  0.10100000352E+00 0. -1.
       -3    1    3    3    0  502  0.91560986461E+02  0.11553664648E+03  0.44115096972E+02  0.15387749316E+03  0.10100000352E+00 0.  1.
</event>
<event>
 5   0  0.1292375E-01  0.5460921E+03  0.7818609E-02  0.1002403E+00
        3   -1    0    0  501    0  0.00000000000E+00  0.00000000000E+00  0.32237311949E+03  0.32237313531E+03  0.10100000352E+00 0. -1.
       -3   -1    0    0    0  501  0.00000000000E+00  0.00000000000E+00 -0.23126656846E+03  0.23126659051E+03  0.10100000352E+00 0.  1.
    10030    2    1    2    0    0  0.00000000000E+00  0.00000000000E+00  0.91106551033E+02  0.55363972582E+03  0.54609206400E+03 0.  0.
        5    1    3    3  502    0 -0.16917395081E+03  0.21340176197E+03  0.65104731795E+02  0.28003723635E+03  0.46999998093E+01 0. -1.
       -5    1    3    3    0  502  0.16917395081E+03 -0.21340176197E+03  0.26001819238E+02  0.27360248947E+03  0.46999998093E+01 0.  1.
</event>
<event>
 5   0  0.2013450E-01  0.4913382E+03  0.7818609E-02  0.1016065E+00
       -1   -1    0    0    0  501  0.00000000000E+00  0.00000000000E+00  0.17427365638E+03  0.17427365645E+03  0.50400001928E-02 0.  1.
        1   -1    0    0  501    0  0.00000000000E+00  0.00000000000E+00 -0.34631339398E+03  0.34631339401E+03  0.50400001928E-02 0. -1.
    10030    2    1    2    0    0  0.00000000000E+00  0.00000000000E+00 -0.17203973760E+03  0.52058705046E+03  0.49133817865E+03 0.  0.
        4    1    3    3  502    0 -0.10237490014E+02  0.67646063892E+02  0.16397260883E+03  0.17767787005E+03  0.12699999809E+01 0.  1.
       -4    1    3    3    0  502  0.10237490014E+02 -0.67646063892E+02 -0.33601234642E+03  0.34290918041E+03  0.12699999809E+01 0. -1.
</event>
<event>
 5   0  0.3329246E-01  0.5210391E+03  0.7818609E-02  0.1008429E+00
        2   -1    0    0  501    0  0.00000000000E+00  0.00000000000E+00  0.68677045054E+03  0.68677045055E+03  0.25500000920E-02 0. -1.
       -2   -1    0    0    0  501  0.00000000000E+00  0.00000000000E+00 -0.98825514511E+02  0.98825514544E+02  0.25500000920E-02 0.  1.
    10030    2    1    2    0    0  0.00000000000E+00  0.00000000000E+00  0.58794493603E+03  0.78559596509E+03  0.52103912767E+03 0.  0.
        2    1    3    3  502    0  0.23362760616E+03 -0.90582576726E+02  0.40147167516E+03  0.47325106183E+03  0.25500000920E-02 0.  1.
       -2    1    3    3    0  502 -0.23362760616E+03  0.90582576726E+02  0.18647326087E+03  0.31234490326E+03  0.25500000920E-02 0. -1.
</event>
<event>
 5   0  0.2013450E-01  0.3326035E+03  0.7818609E-02  0.1069991E+00
       -1   -1    0    0    0  501  0.00000000000E+00  0.00000000000E+00  0.27043056345E+02  0.27043056815E+02  0.50400001928E-02 0. -1.
        1   -1    0    0  501    0  0.00000000000E+00  0.00000000000E+00 -0.10226757953E+04  0.10226757953E+04  0.50400001928E-02 0.  1.
    10030    2    1    2    0    0  0.00000000000E+00  0.00000000000E+00 -0.99563273894E+03  0.10497188521E+04  0.33260354423E+03 0.  0.
        4    1    3    3  502    0  0.38411818138E+02 -0.12647482510E+03 -0.81630267517E+03  0.82693592228E+03  0.12699999809E+01 0.  1.
       -4    1    3    3    0  502 -0.38411818138E+02  0.12647482510E+03 -0.17933006376E+03  0.22278292983E+03  0.12699999809E+01 0. -1.
</event>
<event>
 5   0  0.1967161E-01  0.4923807E+03  0.7818609E-02  0.1015787E+00
        1   -1    0    0  501    0  0.00000000000E+00  0.00000000000E+00  0.40243397320E+03  0.40243397323E+03  0.50400001928E-02 0.  1.
       -1   -1    0    0    0  501  0.00000000000E+00  0.00000000000E+00 -0.15060775478E+03  0.15060775487E+03  0.50400001928E-02 0. -1.
    10030    2    1    2    0    0  0.00000000000E+00  0.00000000000E+00  0.25182621841E+03  0.55304172809E+03  0.49238065430E+03 0.  0.
        1    1    3    3  502    0 -0.20600119433E+03  0.11962513348E+03  0.56102733000E+02  0.24473287744E+03  0.50400001928E-02 0.  1.
       -1    1    3    3    0  502  0.20600119433E+03 -0.11962513348E+03  0.19572348541E+03  0.30830885065E+03  0.50400001928E-02 0. -1.
</event>
<event>
 5   0  0.2000612E-01  0.5202243E+03  0.7818609E-02  0.1008631E+00
       -1   -1    0    0    0  501  0.00000000000E+00  0.00000000000E+00  0.63649160850E+03  0.63649160852E+03  0.50400001928E-02 0.  1.
        1   -1    0    0  501    0  0.00000000000E+00  0.00000000000E+00 -0.10629883895E+03  0.10629883907E+03  0.50400001928E-02 0. -1.
    10030    2    1    2    0    0  0.00000000000E+00  0.00000000000E+00  0.53019276955E+03  0.74279044759E+03  0.52022425563E+03 0.  0.
        2    1    3    3  502    0  0.17379321541E+03  0.19101755184E+03  0.22070651456E+03  0.33971039491E+03  0.25500000920E-02 0. -1.
       -2    1    3    3    0  502 -0.17379321541E+03 -0.19101755184E+03  0.30948625499E+03  0.40308005268E+03  0.25500000920E-02 0.  1.
</event>
<event>
 5   0  0.1984297E-01  0.4786072E+03  0.7818609E-02  0.1019519E+00
       -1   -1    0    0    0  501  0.00000000000E+00  0.00000000000E+00  0.18200859271E+03  0.18200859278E+03  0.50400001928E-02 0.  1.
        1   -1    0    0  501    0  0.00000000000E+00  0.00000000000E+00 -0.31463461787E+03  0.31463461791E+03  0.50400001928E-02 0. -1.
    10030    2    1    2    0    0  0.00000000000E+00  0.00000000000E+00 -0.13262602516E+03  0.49664321068E+03  0.47860716268E+03 0.  0.
        3    1    3    3  502    0  0.94266791027E+02 -0.65158525074E+02 -0.28431155539E+03  0.30653699942E+03  0.10100000352E+00 0. -1.
       -3    1    3    3    0  502 -0.94266791027E+02  0.65158525074E+02  0.15168553023E+03  0.19010621127E+03  0.10100000352E+00 0.  1.
</event>
<event>
 5   0  0.3117389E-01  0.4992035E+03  0.7818609E-02  0.1013987E+00
        2   -1    0    0  501    0  0.00000000000E+00  0.00000000000E+00  0.20649528986E+03  0.20649528987E+03  0.25500000920E-02 0. -1.
       -2   -1    0    0    0  501  0.00000000000E+00  0.00000000000E+00 -0.30170678008E+03  0.30170678009E+03  0.25500000920E-02 0.  1.
    10030    2    1    2    0    0  0.00000000000E+00  0.00000000000E+00 -0.95211490225E+02  0.50820206996E+03  0.49920348160E+03 0.  0.
        4    1    3    3  502    0 -0.21732087982E+03 -0.10672067929E+03 -0.10937691819E+03  0.26567384389E+03  0.12699999809E+01 0.  1.
       -4    1    3    3    0  502  0.21732087982E+03  0.10672067929E+03  0.14165427961E+02  0.24252822608E+03  0.12699999809E+01 0. -1.
</event>
<event>
 5   0  0.3117389E-01  0.2731189E+03  0.7818609E-02  0.1099508E+00
        2   -1    0    0  501    0  0.00000000000E+00  0.00000000000E+00  0.21170448010E+03  0.21170448011E+03  0.25500000920E-02 0. -1.
       -2   -1    0    0    0  501  0.00000000000E+00  0.00000000000E+00 -0.88087337568E+02  0.88087337605E+02  0.25500000920E-02 0.  1.
    10030    2    1    2    0    0  0.00000000000E+00  0.00000000000E+00  0.12361714253E+03  0.29979181772E+03  0.27311890459E+03 0.  0.
        4    1    3    3  502    0 -0.16384541119E+02  0.13337604043E+03  0.35163448749E+02  0.13890897155E+03  0.12699999809E+01 0. -1.
       -4    1    3    3    0  502  0.16384541119E+02 -0.13337604043E+03  0.88453693780E+02  0.16088284617E+03  0.12699999809E+01 0.  1.
</event>
<event>
 5   0  0.2000612E-01  0.4571661E+03  0.7818609E-02  0.1025606E+00
        1   -1    0    0  501    0  0.00000000000E+00  0.00000000000E+00  0.10907019604E+03  0.10907019616E+03  0.50400001928E-02 0.  1.
       -1   -1    0    0    0  501  0.00000000000E+00  0.00000000000E+00 -0.47905114907E+03  0.47905114909E+03  0.50400001928E-02 0. -1.
    10030    2    1    2    0    0  0.00000000000E+00  0.00000000000E+00 -0.36998095303E+03  0.58812134525E+03  0.45716606516E+03 0.  0.
        2    1    3    3  502    0  0.20398442293E+03  0.86835184900E+02 -0.11336155414E+03  0.24899967088E+03  0.25500000920E-02 0.  1.
       -2    1    3    3    0  502 -0.20398442293E+03 -0.86835184900E+02 -0.25661939889E+03  0.33912167437E+03  0.25500000920E-02 0. -1.
</event>
<event>
 5   0  0.3117389E-01  0.4998556E+03  0.7818609E-02  0.1013817E+00
        2   -1    0    0  501    0  0.00000000000E+00  0.00000000000E+00  0.32588708059E+03  0.32588708060E+03  0.25500000920E-02 0.  1.
       -2   -1    0    0    0  501  0.00000000000E+00  0.00000000000E+00 -0.19167345835E+03  0.19167345836E+03  0.25500000920E-02 0. -1.
    10030    2    1    2    0    0  0.00000000000E+00  0.00000000000E+00  0.13421362225E+03  0.51756053897E+03  0.49985559425E+03 0.  0.
        4    1    3    3  502    0 -0.12090301070E+03 -0.15379139263E+03 -0.93943329014E+02  0.21701680213E+03  0.12699999809E+01 0. -1.
       -4    1    3    3    0  502  0.12090301070E+03  0.15379139263E+03  0.22815695126E+03  0.30054373683E+03  0.12699999809E+01 0.  1.
</event>
<event>
 5   0  0.3111146E-01  0.4935818E+03  0.7818609E-02  0.1015468E+00
        2   -1    0    0  501    0  0.00000000000E+00  0.00000000000E+00  0.38313918791E+03  0.38313918792E+03  0.25500000920E-02 0. -1.
       -2   -1    0    0    0  501  0.00000000000E+00  0.00000000000E+00 -0.15896508501E+03  0.15896508503E+03  0.25500000920E-02 0.  1.
    10030    2    1    2    0    0  0.00000000000E+00  0.00000000000E+00  0.22417410291E+03  0.54210427295E+03  0.49358182132E+03 0.  0.
        1    1    3    3  502    0 -0.47893335988E+02 -0.79589859497E+01  0.37784243250E+03  0.38094884290E+03  0.50400001928E-02 0. -1.
       -1    1    3    3    0  502  0.47893335988E+02  0.79589859497E+01 -0.15366832959E+03  0.16115543004E+03  0.50400001928E-02 0.  1.
</event>
<event>
 5   0  0.1292375E-01  0.5095977E+03  0.7818609E-02  0.1011304E+00
       -3   -1    0    0    0  501  0.00000000000E+00  0.00000000000E+00  0.96507419723E+03  0.96507420251E+03  0.10100000352E+00 0. -1.
        3   -1    0    0  501    0  0.00000000000E+00  0.00000000000E+00 -0.67271934894E+02  0.67272010714E+02  0.10100000352E+00 0.  1.
    10030    2    1    2    0    0  0.00000000000E+00  0.00000000000E+00  0.89780226233E+03  0.10323462132E+04  0.50959768613E+03 0.  0.
        1    1    3    3  502    0  0.47596946095E+02  0.22976158958E+02 -0.56045377125E+02  0.77035430034E+02  0.50400001928E-02 0.  1.
       -1    1    3    3    0  502 -0.47596946095E+02 -0.22976158958E+02  0.95384763946E+03  0.95531078319E+03  0.50400001928E-02 0. -1.
</event>
<event>
 5   0  0.3117389E-01  0.4006729E+03  0.7818609E-02  0.1043547E+00
       -2   -1    0    0    0  501  0.00000000000E+00  0.00000000000E+00  0.51672757274E+03  0.51672757275E+03  0.25500000920E-02 0.  1.
        2   -1    0    0  501    0  0.00000000000E+00  0.00000000000E+00 -0.77670896530E+02  0.77670896572E+02  0.25500000920E-02 0. -1.
    10030    2    1    2    0    0  0.00000000000E+00  0.00000000000E+00  0.43905667621E+03  0.59439846932E+03  0.40067290326E+03 0.  0.
        4    1    3    3  502    0 -0.16713557891E+03  0.68304788176E+00  0.55681679221E+02  0.17617272943E+03  0.12699999809E+01 0. -1.
       -4    1    3    3    0  502  0.16713557891E+03 -0.68304788176E+00  0.38337499699E+03  0.41822573990E+03  0.12699999809E+01 0.  1.
</event>
<event>
 5   0  0.1984297E-01  0.5078608E+03  0.7818609E-02  0.1011747E+00
        1   -1    0    0  501    0  0.00000000000E+00  0.00000000000E+00  0.21024019629E+03  0.21024019635E+03  0.50400001928E-02 0.  1.
       -1   -1    0    0    0  501  0.00000000000E+00  0.00000000000E+00 -0.30669984592E+03  0.30669984596E+03  0.50400001928E-02 0. -1.
    10030    2    1    2    0    0  0.00000000000E+00  0.00000000000E+00 -0.96459649626E+02  0.51694004231E+03  0.50786075191E+03 0.  0.
        3    1    3    3  502    0  0.63811513349E+02  0.18360007837E+03 -0.21455153354E+03  0.28950521370E+03  0.10100000352E+00 0.  1.
       -3    1    3    3    0  502 -0.63811513349E+02 -0.18360007837E+03  0.11809188392E+03  0.22743482861E+03  0.10100000352E+00 0. -1.
</event>
<event>
 5   0  0.3187123E-01  0.5016720E+03  0.7818609E-02  0.1013343E+00
        2   -1    0    0  501    0  0.00000000000E+00  0.00000000000E+00  0.96587372274E+03  0.96587372274E+03  0.25500000920E-02 0.  1.
       -2   -1    0    0    0  501  0.00000000000E+00  0.00000000000E+00 -0.65141743456E+02  0.65141743506E+02  0.25500000920E-02 0. -1.
    10030    2    1    2    0    0  0.00000000000E+00  0.00000000000E+00  0.90073197928E+03  0.10310154662E+04  0.50167199756E+03 0.  0.
        5    1    3    3  502    0  0.11185932186E+03 -0.21707869592E+03  0.33300689892E+03  0.41297863484E+03  0.46999998093E+01 0. -1.
       -5    1    3    3    0  502 -0.11185932186E+03  0.21707869592E+03  0.56772508036E+03  0.61803683141E+03  0.46999998093E+01 0.  1.
</event>
<event>
 5   0  0.1984297E-01  0.4949423E+03  0.7818609E-02  0.1015108E+00
       -1   -1    0    0    0  501  0.00000000000E+00  0.00000000000E+00  0.33785165835E+03  0.33785165839E+03  0.50400001928E-02 0.  1.
        1   -1    0    0  501    0  0.00000000000E+00  0.00000000000E+00 -0.18126879907E+03  0.18126879914E+03  0.50400001928E-02 0. -1.
    10030    2    1    2    0    0  0.00000000000E+00  0.00000000000E+00  0.15658285928E+03  0.51912045753E+03  0.49494227704E+03 0.  0.
        3    1    3    3  502    0 -0.40967723555E+02 -0.23249816812E+01  0.33425865039E+03  0.33676789555E+03  0.10100000352E+00 0.  1.
       -3    1    3    3    0  502  0.40967723555E+02  0.23249816812E+01 -0.17767579111E+03  0.18235256198E+03  0.10100000352E+00 0. -1.
</event>
<event>
 5   0  0.1984297E-01  0.5085983E+03  0.7818609E-02  0.1011559E+00
        1   -1    0    0  501    0  0.00000000000E+00  0.00000000000E+00  0.44325698908E+03  0.44325698911E+03  0.50400001928E-02 0.  1.
       -1   -1    0    0    0  501  0.00000000000E+00  0.00000000000E+00 -0.14589294510E+03  0.14589294519E+03  0.50400001928E-02 0. -1.
    10030    2    1    2    0    0  0.00000000000E+00  0.00000000000E+00  0.29736404397E+03  0.58914993430E+03  0.50859833900E+03 0.  0.
        3    1    3    3  502    0 -0.14312287175E+03  0.17859834202E+02  0.39129252769E+03  0.41702875503E+03  0.10100000352E+00 0.  1.
       -3    1    3    3    0  502  0.14312287175E+03 -0.17859834202E+02 -0.93928483719E+02  0.17212117926E+03  0.10100000352E+00 0. -1.
</event>
<event>
 5   0  0.3178149E-01  0.5005932E+03  0.7818609E-02  0.1013624E+00
       -2   -1    0    0    0  501  0.00000000000E+00  0.00000000000E+00  0.52946216600E+02  0.52946216661E+02  0.25500000920E-02 0.  1.
        2   -1    0    0  501    0  0.00000000000E+00  0.00000000000E+00 -0.11832458764E+04  0.11832458764E+04  0.25500000920E-02 0. -1.
    10030    2    1    2    0    0  0.00000000000E+00  0.00000000000E+00 -0.11302996598E+04  0.12361920930E+04  0.50059321809E+03 0.  0.
        3    1    3    3  502    0  0.63473537332E+02 -0.68875136890E+02 -0.11383383643E+04  0.11421851497E+04  0.10100000352E+00 0. -1.
       -3    1    3    3    0  502 -0.63473537332E+02  0.68875136890E+02  0.80387045047E+01  0.94006943330E+02  0.10100000352E+00 0.  1.
</event>
<event>
 5   0  0.1292375E-01  0.4944150E+03  0.7818609E-02  0.1015247E+00
        3   -1    0    0  501    0  0.00000000000E+00  0.00000000000E+00  0.45297663377E+03  0.45297664503E+03  0.10100000352E+00 0. -1.
       -3   -1    0    0    0  501  0.00000000000E+00  0.00000000000E+00 -0.13491103089E+03  0.13491106870E+03  0.10100000352E+00 0.  1.
    10030    2    1    2    0    0  0.00000000000E+00  0.00000000000E+00  0.31806560287E+03  0.58788771373E+03  0.49441504449E+03 0.  0.
        3    1    3    3  502    0  0.94898791261E+02  0.88901296944E+02  0.40902432102E+03  0.42919707195E+03  0.10100000352E+00 0. -1.
       -3    1    3    3    0  502 -0.94898791261E+02 -0.88901296944E+02 -0.90958718145E+02  0.15869064178E+03  0.10100000352E+00 0.  1.
</event>
<event>
 5   0  0.1967161E-01  0.4938390E+03  0.7818609E-02  0.1015400E+00
       -1   -1    0    0    0  501  0.00000000000E+00  0.00000000000E+00  0.86946379616E+02  0.86946379762E+02  0.50400001928E-02 0. -1.
        1   -1    0    0  501    0  0.00000000000E+00  0.00000000000E+00 -0.70122807854E+03  0.70122807856E+03  0.50400001928E-02 0.  1.
    10030    2    1    2    0    0  0.00000000000E+00  0.00000000000E+00 -0.61428169892E+03  0.78817445832E+03  0.49383901336E+03 0.  0.
        1    1    3    3  502    0 -0.21314146022E+03 -0.10932481033E+03 -0.40274263290E+03  0.46859665449E+03  0.50400001928E-02 0. -1.
       -1    1    3    3    0  502  0.21314146022E+03  0.10932481033E+03 -0.21153906602E+03  0.31957780383E+03  0.50400001928E-02 0.  1.
</event>
<event>
 5   0  0.2013450E-01  0.4999331E+03  0.7818609E-02  0.1013796E+00
        1   -1    0    0  501    0  0.00000000000E+00  0.00000000000E+00  0.10258420850E+03  0.10258420862E+03  0.50400001928E-02 0. -1.
       -1   -1    0    0    0  501  0.00000000000E+00  0.00000000000E+00 -0.60909265307E+03  0.60909265310E+03  0.50400001928E-02 0.  1.
    10030    2    1    2    0    0  0.00000000000E+00  0.00000000000E+00 -0.50650844457E+03  0.71167686172E+03  0.49993314661E+03 0.  0.
        4    1    3    3  502    0  0.16175436018E+02  0.12596300588E+03  0.53232371876E+02  0.13770846705E+03  0.12699999809E+01 0. -1.
       -4    1    3    3    0  502 -0.16175436018E+02 -0.12596300588E+03 -0.55974081645E+03  0.57396839467E+03  0.12699999809E+01 0.  1.
</event>
<event>
 5   0  0.1984680E-01  0.4859836E+03  0.7818609E-02  0.1017504E+00
        1   -1    0    0  501    0  0.00000000000E+00  0.00000000000E+00  0.12406553862E+03  0.12406553872E+03  0.50400001928E-02 0. -1.
       -1   -1    0    0    0  501  0.00000000000E+00  0.00000000000E+00 -0.47591790838E+03  0.47591790841E+03  0.50400001928E-02 0.  1.
    10030    2    1    2    0    0  0.00000000000E+00  0.00000000000E+00 -0.35185236976E+03  0.59998344713E+03  0.48598358688E+03 0.  0.
        5    1    3    3  502    0 -0.43804535473E+02 -0.82103806978E+02  0.10113371635E+03  0.13751360307E+03  0.46999998093E+01 0. -1.
       -5    1    3    3    0  502  0.43804535473E+02  0.82103806978E+02 -0.45298608612E+03  0.46246984406E+03  0.46999998093E+01 0.  1.
</event>
<event>
 5   0  0.1292375E-01  0.4987202E+03  0.7818609E-02  0.1014114E+00
       -3   -1    0    0    0  501  0.00000000000E+00  0.00000000000E+00  0.39106494481E+03  0.39106495785E+03  0.10100000352E+00 0.  1.
        3   -1    0    0  501    0  0.00000000000E+00  0.00000000000E+00 -0.15900285010E+03  0.15900288218E+03  0.10100000352E+00 0. -1.
    10030    2    1    2    0    0  0.00000000000E+00  0.00000000000E+00  0.23206209471E+03  0.55006784003E+03  0.49872017488E+03 0.  0.
        3    1    3    3  502    0  0.16403977563E+03 -0.18604145012E+03  0.14436601247E+03  0.28698784802E+03  0.10100000352E+00 0.  1.
       -3    1    3    3    0  502 -0.16403977563E+03  0.18604145012E+03  0.87696082246E+02  0.26307999201E+03  0.10100000352E+00 0. -1.
</event>
<event>
 5   0  0.2013450E-01  0.5227739E+03  0.7818609E-02  0.1008000E+00
       -1   -1    0    0    0  501  0.00000000000E+00  0.00000000000E+00  0.13005148322E+03  0.13005148332E+03  0.50400001928E-02 0. -1.
        1   -1    0    0  501    0  0.00000000000E+00  0.00000000000E+00 -0.52535447718E+03  0.52535447721E+03  0.50400001928E-02 0.  1.
    10030    2    1    2    0    0  0.00000000000E+00  0.00000000000E+00 -0.39530299396E+03  0.65540596052E+03  0.52277386703E+03 0.  0.
        4    1    3    3  502    0  0.22590815669E+03  0.24351312731E+01 -0.36246094151E+03  0.42710651147E+03  0.12699999809E+01 0.  1.
       -4    1    3    3    0  502 -0.22590815669E+03 -0.24351312731E+01 -0.32842052457E+02  0.22829944905E+03  0.12699999809E+01 0. -1.
</event>
<event>
 5   0  0.1967161E-01  0.5855173E+03  0.7818609E-02  0.9935917E-01
        1   -1    0    0  501    0  0.00000000000E+00  0.00000000000E+00  0.24379998313E+03  0.24379998318E+03  0.50400001928E-02 0. -1.
       -1   -1    0    0    0  501  0.00000000000E+00  0.00000000000E+00 -0.35154893600E+03  0.35154893604E+03  0.50400001928E-02 0.  1.
    10030    2    1    2    0    0  0.00000000000E+00  0.00000000000E+00 -0.10774895287E+03  0.59534891922E+03  0.58551729160E+03 0.  0.
        1    1    3    3  502    0 -0.51380247022E+02 -0.10113797574E+03 -0.32829289017E+03  0.34733995118E+03  0.50400001928E-02 0.  1.
       -1    1    3    3    0  502  0.51380247022E+02  0.10113797574E+03  0.22054393730E+03  0.24800896804E+03  0.50400001928E-02 0. -1.
</event>
<event>
 5   0  0.3117389E-01  0.4846858E+03  0.7818609E-02  0.1017855E+00
       -2   -1    0    0    0  501  0.00000000000E+00  0.00000000000E+00  0.19035159608E+03  0.19035159610E+03  0.25500000920E-02 0. -1.
        2   -1    0    0  501    0  0.00000000000E+00  0.00000000000E+00 -0.30853472053E+03  0.30853472054E+03  0.25500000920E-02 0.  1.
    10030    2    1    2    0    0  0.00000000000E+00  0.00000000000E+00 -0.11818312445E+03  0.49888631664E+03  0.48468578071E+03 0.  0.
        4    1    3    3  502    0 -0.17098975813E+03  0.38768146747E+02  0.11310608879E+03  0.20865058546E+03  0.12699999809E+01 0. -1.
       -4    1    3    3    0  502  0.17098975813E+03 -0.38768146747E+02 -0.23128921325E+03  0.29023573118E+03  0.12699999809E+01 0.  1.
</event>
<event>
 5   0  0.2013450E-01  0.4986812E+03  0.7818609E-02  0.1014124E+00
       -1   -1    0    0    0  501  0.00000000000E+00  0.00000000000E+00  0.25203657437E+02  0.25203657941E+02  0.50400001928E-02 0.  1.
        1   -1    0    0  501    0  0.00000000000E+00  0.00000000000E+00 -0.24667348509E+04  0.24667348509E+04  0.50400001928E-02 0. -1.
    10030    2    1    2    0    0  0.00000000000E+00  0.00000000000E+00 -0.24415311935E+04  0.24919385088E+04  0.49868122405E+03 0.  0.
        4    1    3    3  502    0 -0.23191629472E+03  0.68049500413E+02 -0.91462801881E+03  0.94602427451E+03  0.12699999809E+01 0. -1.
       -4    1    3    3    0  502  0.23191629472E+03 -0.68049500413E+02 -0.15269031747E+04  0.15459142343E+04  0.12699999809E+01 0.  1.
</event>
<event>
 5   0  0.2013450E-01  0.4986024E+03  0.7818609E-02  0.1014144E+00
        1   -1    0    0  501    0  0.00000000000E+00  0.00000000000E+00  0.60879234359E+03  0.60879234362E+03  0.50400001928E-02 0.  1.
       -1   -1    0    0    0  501  0.00000000000E+00  0.00000000000E+00 -0.10208915618E+03  0.10208915630E+03  0.50400001928E-02 0. -1.
    10030    2    1    2    0    0  0.00000000000E+00  0.00000000000E+00  0.50670318742E+03  0.71088149992E+03  0.49860243359E+03 0.  0.
        4    1    3    3  502    0  0.74728240779E+02  0.23086948289E+03  0.17189088056E+03  0.29737706001E+03  0.12699999809E+01 0. -1.
       -4    1    3    3    0  502 -0.74728240779E+02 -0.23086948289E+03  0.33481230686E+03  0.41350443991E+03  0.12699999809E+01 0.  1.
</event>
<event>
 5   0  0.1984297E-01  0.5066970E+03  0.7818609E-02  0.1012046E+00
        1   -1    0    0  501    0  0.00000000000E+00  0.00000000000E+00  0.40467213739E+02  0.40467214053E+02  0.50400001928E-02 0.  1.
       -1   -1    0    0    0  501  0.00000000000E+00  0.00000000000E+00 -0.15861099490E+04  0.15861099490E+04  0.50400001928E-02 0. -1.
    10030    2    1    2    0    0  0.00000000000E+00  0.00000000000E+00 -0.15456427353E+04  0.16265771631E+04  0.50669695314E+03 0.  0.
        3    1    3    3  502    0  0.11408027809E+03 -0.56332853810E+02 -0.69527593764E+02  0.14498895393E+03  0.10100000352E+00 0.  1.
       -3    1    3    3    0  502 -0.11408027809E+03  0.56332853810E+02 -0.14761151415E+04  0.14815882091E+04  0.10100000352E+00 0. -1.
</event>
<event>
 5   0  0.1984297E-01  0.5173773E+03  0.7818609E-02  0.1009340E+00
        1   -1    0    0  501    0  0.00000000000E+00  0.00000000000E+00  0.55135777589E+03  0.55135777591E+03  0.50400001928E-02 0. -1.
       -1   -1    0    0    0  501  0.00000000000E+00  0.00000000000E+00 -0.12137275374E+03  0.12137275385E+03  0.50400001928E-02 0.  1.
    10030    2    1    2    0    0  0.00000000000E+00  0.00000000000E+00  0.42998502215E+03  0.67273052976E+03  0.51737727665E+03 0.  0.
        3    1    3    3  502    0  0.25111821285E+03  0.56424913135E+02  0.24879139115E+03  0.35796828652E+03  0.10100000352E+00 0.  1.
       -3    1    3    3    0  502 -0.25111821285E+03 -0.56424913135E+02  0.18119363100E+03  0.31476224323E+03  0.10100000352E+00 0. -1.
</event>
<event>
 5   0  0.1292375E-01  0.3744413E+03  0.7818609E-02  0.1053008E+00
       -3   -1    0    0    0  501  0.00000000000E+00  0.00000000000E+00  0.22044903884E+03  0.22044906197E+03  0.10100000352E+00 0.  1.
        3   -1    0    0  501    0  0.00000000000E+00  0.00000000000E+00 -0.15900072922E+03  0.15900076130E+03  0.10100000352E+00 0. -1.
    10030    2    1    2    0    0  0.00000000000E+00  0.00000000000E+00  0.61448309618E+02  0.37944982327E+03  0.37444128195E+03 0.  0.
        1    1    3    3  502    0 -0.44303841596E+02  0.17865746875E+03 -0.39422954829E+01  0.18411100792E+03  0.50400001928E-02 0.  1.
       -1    1    3    3    0  502  0.44303841596E+02 -0.17865746875E+03  0.65390605101E+02  0.19533881535E+03  0.50400001928E-02 0. -1.
</event>
<event>
 5   0  0.3117389E-01  0.5284878E+03  0.7818609E-02  0.1006600E+00
        2   -1    0    0  501    0  0.00000000000E+00  0.00000000000E+00  0.52021131133E+03  0.52021131133E+03  0.25500000920E-02 0.  1.
       -2   -1    0    0    0  501  0.00000000000E+00  0.00000000000E+00 -0.13422398666E+03  0.13422398669E+03  0.25500000920E-02 0. -1.
    10030    2    1    2    0    0  0.00000000000E+00  0.00000000000E+00  0.38598732466E+03  0.65443529802E+03  0.52848779030E+03 0.  0.
        4    1    3    3  502    0 -0.12954163590E+03  0.14108513166E+03 -0.32424802481E+02  0.19426536110E+03  0.12699999809E+01 0. -1.
       -4    1    3    3    0  502  0.12954163590E+03 -0.14108513166E+03  0.41841212714E+03  0.46016993692E+03  0.12699999809E+01 0.  1.
</event>
<event>
 5   0  0.2000612E-01  0.5367217E+03  0.7818609E-02  0.1004615E+00
       -1   -1    0    0    0  501  0.00000000000E+00  0.00000000000E+00  0.60696807840E+03  0.60696807842E+03  0.50400001928E-02 0.  1.
        1   -1    0    0  501    0  0.00000000000E+00  0.00000000000E+00 -0.11865126901E+03  0.11865126912E+03  0.50400001928E-02 0. -1.
    10030    2    1    2    0    0  0.00000000000E+00  0.00000000000E+00  0.48831680939E+03  0.72561934753E+03  0.53672165150E+03 0.  0.
        2    1    3    3  502    0  0.14884125439E+03 -0.17257591906E+03  0.52575671842E+02  0.23388109826E+03  0.25500000920E-02 0. -1.
       -2    1    3    3    0  502 -0.14884125439E+03  0.17257591906E+03  0.43574113754E+03  0.49173824928E+03  0.25500000920E-02 0.  1.
</event>
<event>
 5   0  0.2013450E-01  0.4998632E+03  0.7818609E-02  0.1013815E+00
       -1   -1    0    0    0  501  0.00000000000E+00  0.00000000000E+00  0.10611372782E+03  0.10611372794E+03  0.50400001928E-02 0. -1.
        1   -1    0    0  501    0  0.00000000000E+00  0.00000000000E+00 -0.58866835091E+03  0.58866835093E+03  0.50400001928E-02 0.  1.
    10030    2    1    2    0    0  0.00000000000E+00  0.00000000000E+00 -0.48255462308E+03  0.69478207887E+03  0.49986315413E+03 0.  0.
        4    1    3    3  502    0 -0.12624155537E+02 -0.23116792346E+03 -0.37215520543E+03  0.43829109958E+03  0.12699999809E+01 0.  1.
       -4    1    3    3    0  502  0.12624155537E+02  0.23116792346E+03 -0.11039941765E+03  0.25649097929E+03  0.12699999809E+01 0. -1.
</event>
<event>
 5   0  0.3117389E-01  0.5026104E+03  0.7818609E-02  0.1013100E+00
        2   -1    0    0  501    0  0.00000000000E+00  0.00000000000E+00  0.54721438733E+03  0.54721438734E+03  0.25500000920E-02 0.  1.
       -2   -1    0    0    0  501  0.00000000000E+00  0.00000000000E+00 -0.11541053819E+03  0.11541053822E+03  0.25500000920E-02 0. -1.
    10030    2    1    2    0    0  0.00000000000E+00  0.00000000000E+00  0.43180384914E+03  0.66262492555E+03  0.50261041357E+03 0.  0.
        4    1    3    3  502    0  0.16788713799E+03 -0.76713813127E+02 -0.89234824007E+01  0.18480352179E+03  0.12699999809E+01 0. -1.
       -4    1    3    3    0  502 -0.16788713799E+03  0.76713813127E+02  0.44072733154E+03  0.47782140377E+03  0.12699999809E+01 0.  1.
</event>
<event>
 5   0  0.3187123E-01  0.3314692E+03  0.7818609E-02  0.1070489E+00
       -2   -1    0    0    0  501  0.00000000000E+00  0.00000000000E+00  0.13633878908E+03  0.13633878910E+03  0.25500000920E-02 0.  1.
        2   -1    0    0  501    0  0.00000000000E+00  0.00000000000E+00 -0.20146837084E+03  0.20146837086E+03  0.25500000920E-02 0. -1.
    10030    2    1    2    0    0  0.00000000000E+00  0.00000000000E+00 -0.65129581762E+02  0.33780715996E+03  0.33146917639E+03 0.  0.
        5    1    3    3  502    0  0.15304265122E+02 -0.15394510106E+03 -0.92964785553E+02  0.18054876356E+03  0.46999998093E+01 0. -1.
       -5    1    3    3    0  502 -0.15304265122E+02  0.15394510106E+03  0.27835203791E+02  0.15725839640E+03  0.46999998093E+01 0.  1.
</event>
<event>
 5   0  0.2013450E-01  0.5002859E+03  0.7818609E-02  0.1013704E+00
        1   -1    0    0  501    0  0.00000000000E+00  0.00000000000E+00  0.31546212081E+03  0.31546212085E+03  0.50400001928E-02 0. -1.
       -1   -1    0    0    0  501  0.00000000000E+00  0.00000000000E+00 -0.19834866910E+03  0.19834866916E+03  0.50400001928E-02 0.  1.
    10030    2    1    2    0    0  0.00000000000E+00  0.00000000000E+00  0.11711345171E+03  0.51381079001E+03  0.50028588563E+03 0.  0.
        4    1    3    3  502    0 -0.25282686322E+02 -0.15250294602E+03  0.26052902046E+03  0.30294115959E+03  0.12699999809E+01 0. -1.
       -4    1    3    3    0  502  0.25282686322E+02  0.15250294602E+03 -0.14341556875E+03  0.21086963042E+03  0.12699999809E+01 0.  1.
</event>
<event>
 5   0  0.3117389E-01  0.4546185E+03  0.7818609E-02  0.1026354E+00
        2   -1    0    0  501    0  0.00000000000E+00  0.00000000000E+00  0.46364600266E+03  0.46364600267E+03  0.25500000920E-02 0.  1.
       -2   -1    0    0    0  501  0.00000000000E+00  0.00000000000E+00 -0.11144170508E+03  0.11144170511E+03  0.25500000920E-02 0. -1.
    10030    2    1    2    0    0  0.00000000000E+00  0.00000000000E+00  0.35220429758E+03  0.57508770778E+03  0.45461852624E+03 0.  0.
        4    1    3    3  502    0 -0.19893639289E+03  0.12794617982E+02  0.37942943111E+02  0.20293021090E+03  0.12699999809E+01 0. -1.
       -4    1    3    3    0  502  0.19893639289E+03 -0.12794617982E+02  0.31426135447E+03  0.37215749687E+03  0.12699999809E+01 0.  1.
</event>
<event>
 5   0  0.3178149E-01  0.5220965E+03  0.7818609E-02  0.1008167E+00
       -2   -1    0    0    0  501  0.00000000000E+00  0.00000000000E+00  0.50292202230E+03  0.50292202231E+03  0.25500000920E-02 0. -1.
        2   -1    0    0  501    0  0.00000000000E+00  0.00000000000E+00 -0.13550053128E+03  0.13550053130E+03  0.25500000920E-02 0.  1.
    10030    2    1    2    0    0  0.00000000000E+00  0.00000000000E+00  0.36742149102E+03  0.63842255361E+03  0.52209654748E+03 0.  0.
        3    1    3    3  502    0  0.78995560152E+02 -0.17642890144E+02  0.48718984942E+03  0.49386792736E+03  0.10100000352E+00 0. -1.
       -3    1    3    3    0  502 -0.78995560152E+02  0.17642890144E+02 -0.11976835840E+03  0.14455462625E+03  0.10100000352E+00 0.  1.
</event>
<event>
 5   0  0.1984680E-01  0.4395205E+03  0.7818609E-02  0.1030894E+00
       -1   -1    0    0    0  501  0.00000000000E+00  0.00000000000E+00  0.82309990663E+02  0.82309990818E+02  0.50400001928E-02 0.  1.
        1   -1    0    0  501    0  0.00000000000E+00  0.00000000000E+00 -0.58674002542E+03  0.58674002544E+03  0.50400001928E-02 0. -1.
    10030    2    1    2    0    0  0.00000000000E+00  0.00000000000E+00 -0.50443003476E+03  0.66905001626E+03  0.43952049360E+03 0.  0.
        5    1    3    3  502    0  0.20856372867E+03  0.27997155850E+02 -0.15606367136E+03  0.26203173313E+03  0.46999998093E+01 0.  1.
       -5    1    3    3    0  502 -0.20856372867E+03 -0.27997155850E+02 -0.34836636340E+03  0.40701828313E+03  0.46999998093E+01 0. -1.
</event>
<event>
 5   0  0.3329246E-01  0.5162490E+03  0.7818609E-02  0.1009623E+00
       -2   -1    0    0    0  501  0.00000000000E+00  0.00000000000E+00  0.43302495089E+02  0.43302495164E+02  0.25500000920E-02 0.  1.
        2   -1    0    0  501    0  0.00000000000E+00  0.00000000000E+00 -0.15386703806E+04  0.15386703806E+04  0.25500000920E-02 0. -1.
    10030    2    1    2    0    0  0.00000000000E+00  0.00000000000E+00 -0.14953678855E+04  0.15819728757E+04  0.51624903548E+03 0.  0.
        2    1    3    3  502    0 -0.13917985170E+03  0.16011326517E+03 -0.29709820029E+03  0.36506797919E+03  0.25500000920E-02 0.  1.
       -2    1    3    3    0  502  0.13917985170E+03 -0.16011326517E+03 -0.11982696852E+04  0.12169048965E+04  0.25500000920E-02 0. -1.
</event>
<event>
 5   0  0.1984680E-01  0.4922151E+03  0.7818609E-02  0.1015831E+00
       -1   -1    0    0    0  501  0.00000000000E+00  0.00000000000E+00  0.10226515608E+03  0.10226515621E+03  0.50400001928E-02 0.  1.
        1   -1    0    0  501    0  0.00000000000E+00  0.00000000000E+00 -0.59227332863E+03  0.59227332866E+03  0.50400001928E-02 0. -1.
    10030    2    1    2    0    0  0.00000000000E+00  0.00000000000E+00 -0.49000817255E+03  0.69453848486E+03  0.49221509301E+03 0.  0.
        5    1    3    3  502    0 -0.70195092429E+02 -0.74214689237E+02  0.70867672081E+02  0.12441659071E+03  0.46999998093E+01 0.  1.
       -5    1    3    3    0  502  0.70195092429E+02  0.74214689237E+02 -0.56087584463E+03  0.57012189415E+03  0.46999998093E+01 0. -1.
</event>
<event>
 5   0  0.3329246E-01  0.5479733E+03  0.7818609E-02  0.1001964E+00
        2   -1    0    0  501    0  0.00000000000E+00  0.00000000000E+00  0.65951634859E+03  0.65951634860E+03  0.25500000920E-02 0. -1.
       -2   -1    0    0    0  501  0.00000000000E+00  0.00000000000E+00 -0.11382385920E+03  0.11382385923E+03  0.25500000920E-02 0.  1.
    10030    2    1    2    0    0  0.00000000000E+00  0.00000000000E+00  0.54569248939E+03  0.77334020783E+03  0.54797334249E+03 0.  0.
        2    1    3    3  502    0  0.19640111337E+03 -0.19014359922E+03  0.24679647875E+03  0.36828859280E+03  0.25500000920E-02 0. -1.
       -2    1    3    3    0  502 -0.19640111337E+03  0.19014359922E+03  0.29889601064E+03  0.40505161503E+03  0.25500000920E-02 0.  1.
</event>
<event>
 5   0  0.1984297E-01  0.4976419E+03  0.7818609E-02  0.1014396E+00
       -1   -1    0    0    0  501  0.00000000000E+00  0.00000000000E+00  0.16145003655E+03  0.16145003662E+03  0.50400001928E-02 0. -1.
        1   -1    0    0  501    0  0.00000000000E+00  0.00000000000E+00 -0.38347380329E+03  0.38347380333E+03  0.50400001928E-02 0.  1.
    10030    2    1    2    0    0  0.00000000000E+00  0.00000000000E+00 -0.22202376675E+03  0.54492383995E+03  0.49764187761E+03 0.  0.
        3    1    3    3  502    0 -0.13658450892E+02  0.17305645382E+03  0.84185366472E+02  0.19293075343E+03  0.10100000352E+00 0.  1.
       -3    1    3    3    0  502  0.13658450892E+02 -0.17305645382E+03 -0.30620913322E+03  0.35199308652E+03  0.10100000352E+00 0. -1.
</event>
<event>
 5   0  0.3178149E-01  0.5748999E+03  0.7818609E-02  0.9958894E-01
       -2   -1    0    0    0  501  0.00000000000E+00  0.00000000000E+00  0.87423108830E+02  0.87423108868E+02  0.25500000920E-02 0.  1.
        2   -1    0    0  501    0  0.00000000000E+00  0.00000000000E+00 -0.94514464487E+03  0.94514464487E+03  0.25500000920E-02 0. -1.
    10030    2    1    2    0    0  0.00000000000E+00  0.00000000000E+00 -0.85772153604E+03  0.10325677537E+04  0.57489993275E+03 0.  0.
        3    1    3    3  502    0 -0.22296977323E+03 -0.57203408274E+02 -0.11964376063E+03  0.25942704052E+03  0.10100000352E+00 0.  1.
       -3    1    3    3    0  502  0.22296977323E+03  0.57203408274E+02 -0.73807777541E+03  0.77314071322E+03  0.10100000352E+00 0. -1.
</event>
<event>
 5   0  0.2000612E-01  0.4766375E+03  0.7818609E-02  0.1020063E+00
        1   -1    0    0  501    0  0.00000000000E+00  0.00000000000E+00  0.62320115936E+03  0.62320115938E+03  0.50400001928E-02 0.  1.
       -1   -1    0    0    0  501  0.00000000000E+00  0.00000000000E+00 -0.91135636097E+02  0.91135636236E+02  0.50400001928E-02 0. -1.
    10030    2    1    2    0    0  0.00000000000E+00  0.00000000000E+00  0.53206552326E+03  0.71433679562E+03  0.47663753160E+03 0.  0.
        2    1    3    3  502    0 -0.15292631117E+03 -0.58122380565E+02  0.63154586067E+01  0.16372096015E+03  0.25500000920E-02 0. -1.
       -2    1    3    3    0  502  0.15292631117E+03  0.58122380565E+02  0.52575006466E+03  0.55061583546E+03  0.25500000920E-02 0.  1.
</event>
<event>
 5   0  0.1967161E-01  0.4924462E+03  0.7818609E-02  0.1015770E+00
        1   -1    0    0  501    0  0.00000000000E+00  0.00000000000E+00  0.10584494091E+03  0.10584494103E+03  0.50400001928E-02 0.  1.
       -1   -1    0    0    0  501  0.00000000000E+00  0.00000000000E+00 -0.57277954996E+03  0.57277954999E+03  0.50400001928E-02 0. -1.
    10030    2    1    2    0    0  0.00000000000E+00  0.00000000000E+00 -0.46693460905E+03  0.67862449102E+03  0.49244621095E+03 0.  0.
        1    1    3    3  502    0 -0.19545719622E+03  0.14199099482E+03 -0.29899237757E+03  0.38439745061E+03  0.50400001928E-02 0. -1.
       -1    1    3    3    0  502  0.19545719622E+03 -0.14199099482E+03 -0.16794223148E+03  0.29422704040E+03  0.50400001928E-02 0.  1.
</event>
<event>
 5   0  0.3329246E-01  0.5019988E+03  0.7818609E-02  0.1013259E+00
       -2   -1    0    0    0  501  0.00000000000E+00  0.00000000000E+00  0.17162413348E+03  0.17162413350E+03  0.25500000920E-02 0. -1.
        2   -1    0    0  501    0  0.00000000000E+00  0.00000000000E+00 -0.36708530110E+03  0.36708530111E+03  0.25500000920E-02 0.  1.
    10030    2    1    2    0    0  0.00000000000E+00  0.00000000000E+00 -0.19546116762E+03  0.53870943461E+03  0.50199879173E+03 0.  0.
        2    1    3    3  502    0  0.71742687195E+02 -0.74096339191E+02 -0.34329526025E+03  0.35845350656E+03  0.25500000920E-02 0.  1.
       -2    1    3    3    0  502 -0.71742687195E+02  0.74096339191E+02  0.14783409263E+03  0.18025592805E+03  0.25500000920E-02 0. -1.
</event>
<event>
 5   0  0.1984297E-01  0.5015356E+03  0.7818609E-02  0.1013379E+00
       -1   -1    0    0    0  501  0.00000000000E+00  0.00000000000E+00  0.18202129240E+03  0.18202129247E+03  0.50400001928E-02 0.  1.
        1   -1    0    0  501    0  0.00000000000E+00  0.00000000000E+00 -0.34547869491E+03  0.34547869495E+03  0.50400001928E-02 0. -1.
    10030    2    1    2    0    0  0.00000000000E+00  0.00000000000E+00 -0.16345740251E+03  0.52749998741E+03  0.50153555635E+03 0.  0.
        3    1    3    3  502    0  0.77302268154E+02 -0.23676730433E+03 -0.51063317406E+02  0.25424765416E+03  0.10100000352E+00 0. -1.
       -3    1    3    3    0  502 -0.77302268154E+02  0.23676730433E+03 -0.11239408511E+03  0.27325233325E+03  0.10100000352E+00 0.  1.
</event>
<event>
 5   0  0.3117389E-01  0.4972007E+03  0.7818609E-02  0.1014512E+00
        2   -1    0    0  501    0  0.00000000000E+00  0.00000000000E+00  0.32015289288E+03  0.32015289289E+03  0.25500000920E-02 0.  1.
       -2   -1    0    0    0  501  0.00000000000E+00  0.00000000000E+00 -0.19303941368E+03  0.19303941370E+03  0.25500000920E-02 0. -1.
    10030    2    1    2    0    0  0.00000000000E+00  0.00000000000E+00  0.12711347921E+03  0.51319230659E+03  0.49720067070E+03 0.  0.
        4    1    3    3  502    0  0.17659444797E+03  0.17349379246E+03  0.86976131454E+02  0.26239694248E+03  0.12699999809E+01 0. -1.
       -4    1    3    3    0  502 -0.17659444797E+03 -0.17349379246E+03  0.40137347751E+02  0.25079536412E+03  0.12699999809E+01 0.  1.
</event>
<event>
 5   0  0.3178149E-01  0.5039834E+03  0.7818609E-02  0.1012744E+00
        2   -1    0    0  501    0  0.00000000000E+00  0.00000000000E+00  0.85133753497E+03  0.85133753497E+03  0.25500000920E-02 0.  1.
       -2   -1    0    0    0  501  0.00000000000E+00  0.00000000000E+00 -0.74588288712E+02  0.74588288755E+02  0.25500000920E-02 0. -1.
    10030    2    1    2    0    0  0.00000000000E+00  0.00000000000E+00  0.77674924626E+03  0.92592582373E+03  0.50398337223E+03 0.  0.
        3    1    3    3  502    0  0.15124857657E+03 -0.10770699635E+03  0.75384832274E+02  0.20039913202E+03  0.10100000352E+00 0. -1.
       -3    1    3    3    0  502 -0.15124857657E+03  0.10770699635E+03  0.70136441398E+03  0.72552669171E+03  0.10100000352E+00 0.  1.
</event>
<event>
 5   0  0.3187123E-01  0.5024139E+03  0.7818609E-02  0.1013151E+00
       -2   -1    0    0    0  501  0.00000000000E+00  0.00000000000E+00  0.22011261367E+03  0.22011261369E+03  0.25500000920E-02 0. -1.
        2   -1    0    0  501    0  0.00000000000E+00  0.00000000000E+00 -0.28669388897E+03  0.28669388898E+03  0.25500000920E-02 0.  1.
    10030    2    1    2    0    0  0.00000000000E+00  0.00000000000E+00 -0.66581275298E+02  0.50680650267E+03  0.50241393783E+03 0.  0.
        5    1    3    3  502    0  0.82123038932E+02  0.11637247673E+01  0.20613934141E+03  0.22194834050E+03  0.46999998093E+01 0. -1.
       -5    1    3    3    0  502 -0.82123038932E+02 -0.11637247673E+01 -0.27272061670E+03  0.28485816217E+03  0.46999998093E+01 0.  1.
</event>
<event>
 5   0  0.2013450E-01  0.5057371E+03  0.7818609E-02  0.1012292E+00
       -1   -1    0    0    0  501  0.00000000000E+00  0.00000000000E+00  0.13197988428E+03  0.13197988438E+03  0.50400001928E-02 0.  1.
        1   -1    0    0  501    0  0.00000000000E+00  0.00000000000E+00 -0.48448665871E+03  0.48448665874E+03  0.50400001928E-02 0. -1.
    10030    2    1    2    0    0  0.00000000000E+00  0.00000000000E+00 -0.35250677443E+03  0.61646654312E+03  0.50573705892E+03 0.  0.
        4    1    3    3  502    0 -0.16847739517E+03 -0.87678685691E+02  0.27236604708E+02  0.19187399548E+03  0.12699999809E+01 0.  1.
       -4    1    3    3    0  502  0.16847739517E+03  0.87678685691E+02 -0.37974337914E+03  0.42459254763E+03  0.12699999809E+01 0. -1.
</event>
<event>
 5   0  0.1967161E-01  0.5002372E+03  0.7818609E-02  0.1013717E+00
       -1   -1    0    0    0  501  0.00000000000E+00  0.00000000000E+00  0.80030107871E+02  0.80030108030E+02  0.50400001928E-02 0. -1.
        1   -1    0    0  501    0  0.00000000000E+00  0.00000000000E+00 -0.78169711684E+03  0.78169711685E+03  0.50400001928E-02 0.  1.
    10030    2    1    2    0    0  0.00000000000E+00  0.00000000000E+00 -0.70166700897E+03  0.86172722488E+03  0.50023716239E+03 0.  0.
        1    1    3    3  502    0 -0.14035831370E+03 -0.10517499150E+03 -0.43657412791E+02  0.18074347783E+03  0.50400001928E-02 0. -1.
       -1    1    3    3    0  502  0.14035831370E+03  0.10517499150E+03 -0.65800959617E+03  0.68098374705E+03  0.50400001928E-02 0.  1.
</event>
<event>
 5   0  0.1984680E-01  0.4971654E+03  0.7818609E-02  0.1014521E+00
       -1   -1    0    0    0  501  0.00000000000E+00  0.00000000000E+00  0.31019509285E+03  0.31019509289E+03  0.50400001928E-02 0. -1.
        1   -1    0    0  501    0  0.00000000000E+00  0.00000000000E+00 -0.19920808496E+03  0.19920808503E+03  0.50400001928E-02 0.  1.
    10030    2    1    2    0    0  0.00000000000E+00  0.00000000000E+00  0.11098700788E+03  0.50940317791E+03  0.49716544706E+03 0.  0.
        5    1    3    3  502    0  0.99682846560E+02 -0.10026638203E+03 -0.15394257351E+03  0.20907037858E+03  0.46999998093E+01 0.  1.
       -5    1    3    3    0  502 -0.99682846560E+02  0.10026638203E+03  0.26492958139E+03  0.30033279934E+03  0.46999998093E+01 0. -1.
</event>
<event>
 5   0  0.3117389E-01  0.5154168E+03  0.7818609E-02  0.1009831E+00
        2   -1    0    0  501    0  0.00000000000E+00  0.00000000000E+00  0.11316250640E+04  0.11316250640E+04  0.25500000920E-02 0.  1.
       -2   -1    0    0    0  501  0.00000000000E+00  0.00000000000E+00 -0.58688704477E+02  0.58688704532E+02  0.25500000920E-02 0. -1.
    10030    2    1    2    0    0  0.00000000000E+00  0.00000000000E+00  0.10729363595E+04  0.11903137685E+04  0.51541675951E+03 0.  0.
        4    1    3    3  502    0 -0.17661843763E+03 -0.76338597551E+02  0.14055018455E+03  0.23828055159E+03  0.12699999809E+01 0. -1.
       -4    1    3    3    0  502  0.17661843763E+03  0.76338597551E+02  0.93238617498E+03  0.95203321696E+03  0.12699999809E+01 0.  1.
</event>
<event>
 5   0  0.3111146E-01  0.4909084E+03  0.7818609E-02  0.1016180E+00
        2   -1    0    0  501    0  0.00000000000E+00  0.00000000000E+00  0.42523705716E+03  0.42523705717E+03  0.25500000920E-02 0.  1.
       -2   -1    0    0    0  501  0.00000000000E+00  0.00000000000E+00 -0.14168041793E+03  0.14168041795E+03  0.25500000920E-02 0. -1.
    10030    2    1    2    0    0  0.00000000000E+00  0.00000000000E+00  0.28355663923E+03  0.56691747512E+03  0.49090839873E+03 0.  0.
        1    1    3    3  502    0  0.24223294050E+03  0.39459867881E+02  0.13747506130E+03  0.28130636527E+03  0.50400001928E-02 0. -1.
       -1    1    3    3    0  502 -0.24223294050E+03 -0.39459867881E+02  0.14608157793E+03  0.28561110985E+03  0.50400001928E-02 0.  1.
</event>
<event>
 5   0  0.3187123E-01  0.5059478E+03  0.7818609E-02  0.1012238E+00
        2   -1    0    0  501    0  0.00000000000E+00  0.00000000000E+00  0.26965480918E+03  0.26965480919E+03  0.25500000920E-02 0.  1.
       -2   -1    0    0    0  501  0.00000000000E+00  0.00000000000E+00 -0.23732486274E+03  0.23732486275E+03  0.25500000920E-02 0. -1.
    10030    2    1    2    0    0  0.00000000000E+00  0.00000000000E+00  0.32329946440E+02  0.50697967195E+03  0.50594778617E+03 0.  0.
        5    1    3    3  502    0  0.15473432546E+03 -0.85881926757E+02 -0.16491131230E+03  0.24194265384E+03  0.46999998093E+01 0. -1.
       -5    1    3    3    0  502 -0.15473432546E+03  0.85881926757E+02  0.19724125874E+03  0.26503701811E+03  0.46999998093E+01 0.  1.
</event>
<event>
 5   0  0.3117389E-01  0.4933784E+03  0.7818609E-02  0.1015522E+00
        2   -1    0    0  501    0  0.00000000000E+00  0.00000000000E+00  0.64693726366E+03  0.64693726366E+03  0.25500000920E-02 0. -1.
       -2   -1    0    0    0  501  0.00000000000E+00  0.00000000000E+00 -0.94067179105E+02  0.94067179140E+02  0.25500000920E-02 0.  1.
    10030    2    1    2    0    0  0.00000000000E+00  0.00000000000E+00  0.55287008455E+03  0.74100444280E+03  0.49337840838E+03 0.  0.
        4    1    3    3  502    0  0.14545841083E+03 -0.19728866400E+03  0.31819172792E+03  0.40165726041E+03  0.12699999809E+01 0.  1.
       -4    1    3    3    0  502 -0.14545841083E+03  0.19728866400E+03  0.23467835663E+03  0.33934718239E+03  0.12699999809E+01 0. -1.
</event>
<event>
 5   0  0.3329246E-01  0.5165235E+03  0.7818609E-02  0.1009554E+00
        2   -1    0    0  501    0  0.00000000000E+00  0.00000000000E+00  0.79951633843E+02  0.79951633884E+02  0.25500000920E-02 0. -1.
       -2   -1    0    0    0  501  0.00000000000E+00  0.00000000000E+00 -0.83424336428E+03  0.83424336428E+03  0.25500000920E-02 0.  1.
    10030    2    1    2    0    0  0.00000000000E+00  0.00000000000E+00 -0.75429173043E+03  0.91419499817E+03  0.51652345549E+03 0.  0.
        2    1    3    3  502    0  0.43828317454E+02 -0.16760961399E+03 -0.71614167707E+03  0.73679902670E+03  0.25500000920E-02 0.  1.
       -2    1    3    3    0  502 -0.43828317454E+02  0.16760961399E+03 -0.38150053368E+02  0.17739597146E+03  0.25500000920E-02 0. -1.
</event>
<event>
 5   0  0.3187123E-01  0.4793711E+03  0.7818609E-02  0.1019308E+00
       -2   -1    0    0    0  501  0.00000000000E+00  0.00000000000E+00  0.75638112401E+03  0.75638112402E+03  0.25500000920E-02 0. -1.
        2   -1    0    0  501    0  0.00000000000E+00  0.00000000000E+00 -0.75952673032E+02  0.75952673075E+02  0.25500000920E-02 0.  1.
    10030    2    1    2    0    0  0.00000000000E+00  0.00000000000E+00  0.68042845098E+03  0.83233379709E+03  0.47937112228E+03 0.  0.
        5    1    3    3  502    0  0.15013540371E+02  0.11655937731E+03  0.70282984258E+03  0.71260323635E+03  0.46999998093E+01 0. -1.
       -5    1    3    3    0  502 -0.15013540371E+02 -0.11655937731E+03 -0.22401391599E+02  0.11973056074E+03  0.46999998093E+01 0.  1.
</event>
<event>
 5   0  0.3187123E-01  0.5043241E+03  0.7818609E-02  0.1012656E+00
       -2   -1    0    0    0  501  0.00000000000E+00  0.00000000000E+00  0.50361786720E+02  0.50361786785E+02  0.25500000920E-02 0.  1.
        2   -1    0    0  501    0  0.00000000000E+00  0.00000000000E+00 -0.12625781130E+04  0.12625781130E+04  0.25500000920E-02 0. -1.
    10030    2    1    2    0    0  0.00000000000E+00  0.00000000000E+00 -0.12122163263E+04  0.13129398998E+04  0.50432406125E+03 0.  0.
        5    1    3    3  502    0 -0.89070599347E+02 -0.72222377279E+02 -0.21573126181E+02  0.11677813674E+03  0.46999998093E+01 0.  1.
       -5    1    3    3    0  502  0.89070599347E+02  0.72222377279E+02 -0.11906432001E+04  0.11961617630E+04  0.46999998093E+01 0. -1.
</event>
<event>
 5   0  0.1292375E-01  0.5025088E+03  0.7818609E-02  0.1013126E+00
       -4   -1    0    0    0  501  0.00000000000E+00  0.00000000000E+00  0.58333430446E+03  0.58333568694E+03  0.12699999809E+01 0. -1.
        4   -1    0    0  501    0  0.00000000000E+00  0.00000000000E+00 -0.10821532216E+03  0.10822277417E+03  0.12699999809E+01 0.  1.
    10030    2    1    2    0    0  0.00000000000E+00  0.00000000000E+00  0.47511898230E+03  0.69155846112E+03  0.50250876390E+03 0.  0.
        3    1    3    3  502    0 -0.65647506111E+02  0.14962940862E+03 -0.25113870543E+02  0.16531567281E+03  0.10100000352E+00 0.  1.
       -3    1    3    3    0  502  0.65647506111E+02 -0.14962940862E+03  0.50023285284E+03  0.52624278831E+03  0.10100000352E+00 0. -1.
</event>
<event>
 5   0  0.1292375E-01  0.4904136E+03  0.7818609E-02  0.1016312E+00
       -4   -1    0    0    0  501  0.00000000000E+00  0.00000000000E+00  0.64132224665E+03  0.64132350413E+03  0.12699999809E+01 0. -1.
        4   -1    0    0  501    0  0.00000000000E+00  0.00000000000E+00 -0.93748123231E+02  0.93756725141E+02  0.12699999809E+01 0.  1.
    10030    2    1    2    0    0  0.00000000000E+00  0.00000000000E+00  0.54757412342E+03  0.73508022927E+03  0.49041362422E+03 0.  0.
        5    1    3    3  502    0 -0.43242839199E+02  0.77335463069E+02 -0.68846747295E+02  0.11230619574E+03  0.46999998093E+01 0.  1.
       -5    1    3    3    0  502  0.43242839199E+02 -0.77335463069E+02  0.61642087072E+03  0.62277403353E+03  0.46999998093E+01 0. -1.
</event>
<event>
 5   0  0.1292375E-01  0.5233301E+03  0.7818609E-02  0.1007863E+00
        4   -1    0    0  501    0  0.00000000000E+00  0.00000000000E+00  0.39449127008E+03  0.39449331435E+03  0.12699999809E+01 0. -1.
       -4   -1    0    0    0  501  0.00000000000E+00  0.00000000000E+00 -0.17355693309E+03  0.17356157963E+03  0.12699999809E+01 0.  1.
    10030    2    1    2    0    0  0.00000000000E+00  0.00000000000E+00  0.22093433699E+03  0.56805489399E+03  0.52333008830E+03 0.  0.
        4    1    3    3  502    0 -0.89403146125E+02 -0.84882308535E+02 -0.14005842030E+03  0.18659020027E+03  0.12699999809E+01 0.  1.
       -4    1    3    3    0  502  0.89403146125E+02  0.84882308535E+02  0.36099275729E+03  0.38146469372E+03  0.12699999809E+01 0. -1.
</event>
<event>
 5   0  0.1984297E-01  0.5047134E+03  0.7818609E-02  0.1012556E+00
        1   -1    0    0  501    0  0.00000000000E+00  0.00000000000E+00  0.43359084958E+03  0.43359084961E+03  0.50400001928E-02 0.  1.
       -1   -1    0    0    0  501  0.00000000000E+00  0.00000000000E+00 -0.14687557149E+03  0.14687557158E+03  0.50400001928E-02 0. -1.
    10030    2    1    2    0    0  0.00000000000E+00  0.00000000000E+00  0.28671527809E+03  0.58046642119E+03  0.50471339930E+03 0.  0.
        3    1    3    3  502    0 -0.51096728972E+02  0.23928870648E+03  0.21438387355E+03  0.32531587142E+03  0.10100000352E+00 0. -1.
       -3    1    3    3    0  502  0.51096728972E+02 -0.23928870648E+03  0.72331404540E+02  0.25515054976E+03  0.10100000352E+00 0.  1.
</event>
<event>
 5   0  0.3178149E-01  0.5339376E+03  0.7818609E-02  0.1005282E+00
        2   -1    0    0  501    0  0.00000000000E+00  0.00000000000E+00  0.28073333170E+03  0.28073333171E+03  0.25500000920E-02 0. -1.
       -2   -1    0    0    0  501  0.00000000000E+00  0.00000000000E+00 -0.25387912773E+03  0.25387912774E+03  0.25500000920E-02 0.  1.
    10030    2    1    2    0    0  0.00000000000E+00  0.00000000000E+00  0.26854203978E+02  0.53461245945E+03  0.53393757456E+03 0.  0.
        3    1    3    3  502    0  0.45805532708E+02  0.15909617112E+03  0.22312578433E+03  0.27783963779E+03  0.10100000352E+00 0. -1.
       -3    1    3    3    0  502 -0.45805532708E+02 -0.15909617112E+03 -0.19627158035E+03  0.25677282167E+03  0.10100000352E+00 0.  1.
</event>
<event>
 5   0  0.1967161E-01  0.4937180E+03  0.7818609E-02  0.1015432E+00
        1   -1    0    0  501    0  0.00000000000E+00  0.00000000000E+00  0.37207700921E+03  0.37207700924E+03  0.50400001928E-02 0.  1.
       -1   -1    0    0    0  501  0.00000000000E+00  0.00000000000E+00 -0.16378157099E+03  0.16378157107E+03  0.50400001928E-02 0. -1.
    10030    2    1    2    0    0  0.00000000000E+00  0.00000000000E+00  0.20829543822E+03  0.53585858031E+03  0.49371796454E+03 0.  0.
        1    1    3    3  502    0  0.13559964235E+02  0.23688962969E+03  0.30225752348E+02  0.23919482732E+03  0.50400001928E-02 0. -1.
       -1    1    3    3    0  502 -0.13559964235E+02 -0.23688962969E+03  0.17806968587E+03  0.29666375299E+03  0.50400001928E-02 0.  1.
</event>
<event>
 5   0  0.2000612E-01  0.4711221E+03  0.7818609E-02  0.1021604E+00
        1   -1    0    0  501    0  0.00000000000E+00  0.00000000000E+00  0.42421818674E+03  0.42421818677E+03  0.50400001928E-02 0.  1.
       -1   -1    0    0    0  501  0.00000000000E+00  0.00000000000E+00 -0.13080297825E+03  0.13080297835E+03  0.50400001928E-02 0. -1.
    10030    2    1    2    0    0  0.00000000000E+00  0.00000000000E+00  0.29341520848E+03  0.55502116512E+03  0.47112207459E+03 0.  0.
        2    1    3    3  502    0  0.10101014475E+03  0.11660408691E+03  0.35642447670E+03  0.38837864260E+03  0.25500000920E-02 0.  1.
       -2    1    3    3    0  502 -0.10101014475E+03 -0.11660408691E+03 -0.63009268216E+02  0.16664252253E+03  0.25500000920E-02 0. -1.
</event>
<event>
 5   0  0.1984680E-01  0.4400180E+03  0.7818609E-02  0.1030741E+00
       -1   -1    0    0    0  501  0.00000000000E+00  0.00000000000E+00  0.11485676953E+03  0.11485676964E+03  0.50400001928E-02 0.  1.
        1   -1    0    0  501    0  0.00000000000E+00  0.00000000000E+00 -0.42142887029E+03  0.42142887032E+03  0.50400001928E-02 0. -1.
    10030    2    1    2    0    0  0.00000000000E+00  0.00000000000E+00 -0.30657210076E+03  0.53628563996E+03  0.44001799357E+03 0.  0.
        5    1    3    3  502    0 -0.17403378584E+03 -0.33650759163E+01 -0.31717829637E+03  0.36183317155E+03  0.46999998093E+01 0. -1.
       -5    1    3    3    0  502  0.17403378584E+03  0.33650759163E+01  0.10606195608E+02  0.17445246841E+03  0.46999998093E+01 0.  1.
</event>
<event>
 5   0  0.3329246E-01  0.4965200E+03  0.7818609E-02  0.1014691E+00
       -2   -1    0    0    0  501  0.00000000000E+00  0.00000000000E+00  0.29514582235E+03  0.29514582236E+03  0.25500000920E-02 0. -1.
        2   -1    0    0  501    0  0.00000000000E+00  0.00000000000E+00 -0.20882225477E+03  0.20882225479E+03  0.25500000920E-02 0.  1.
    10030    2    1    2    0    0  0.00000000000E+00  0.00000000000E+00  0.86323567574E+02  0.50396807714E+03  0.49651995374E+03 0.  0.
        2    1    3    3  502    0  0.61833472810E+01 -0.37331632907E+02 -0.20587795296E+03  0.20932657768E+03  0.25500000920E-02 0.  1.
       -2    1    3    3    0  502 -0.61833472810E+01  0.37331632907E+02  0.29220152054E+03  0.29464149947E+03  0.25500000920E-02 0. -1.
</event>
<event>
 5   0  0.3117389E-01  0.5067477E+03  0.7818609E-02  0.1012033E+00
        2   -1    0    0  501    0  0.00000000000E+00  0.00000000000E+00  0.42730130429E+03  0.42730130429E+03  0.25500000920E-02 0. -1.
       -2   -1    0    0    0  501  0.00000000000E+00  0.00000000000E+00 -0.15024132150E+03  0.15024132152E+03  0.25500000920E-02 0.  1.
    10030    2    1    2    0    0  0.00000000000E+00  0.00000000000E+00  0.27705998279E+03  0.57754262581E+03  0.50674771886E+03 0.  0.
        4    1    3    3  502    0  0.17597525479E+03 -0.16236736141E+03  0.44090850533E+02  0.24346676642E+03  0.12699999809E+01 0.  1.
       -4    1    3    3    0  502 -0.17597525479E+03  0.16236736141E+03  0.23296913226E+03  0.33407585940E+03  0.12699999809E+01 0. -1.
</event>
<event>
 5   0  0.1984297E-01  0.5018917E+03  0.7818609E-02  0.1013286E+00
       -1   -1    0    0    0  501  0.00000000000E+00  0.00000000000E+00  0.75126993422E+03  0.75126993424E+03  0.50400001928E-02 0.  1.
        1   -1    0    0  501    0  0.00000000000E+00  0.00000000000E+00 -0.83823168361E+02  0.83823168513E+02  0.50400001928E-02 0. -1.
    10030    2    1    2    0    0  0.00000000000E+00  0.00000000000E+00  0.66744676586E+03  0.83509310275E+03  0.50189172638E+03 0.  0.
        3    1    3    3  502    0  0.19379022303E+03  0.15768159085E+03  0.37294611085E+03  0.44889525107E+03  0.10100000352E+00 0. -1.
       -3    1    3    3    0  502 -0.19379022303E+03 -0.15768159085E+03  0.29450065501E+03  0.38619785168E+03  0.10100000352E+00 0.  1.
</event>
<event>
 5   0  0.3329246E-01  0.4557211E+03  0.7818609E-02  0.1026030E+00
        2   -1    0    0  501    0  0.00000000000E+00  0.00000000000E+00  0.16340491604E+04  0.16340491604E+04  0.25500000920E-02 0.  1.
       -2   -1    0    0    0  501  0.00000000000E+00  0.00000000000E+00 -0.31774090009E+02  0.31774090111E+02  0.25500000920E-02 0. -1.
    10030    2    1    2    0    0  0.00000000000E+00  0.00000000000E+00  0.16022750704E+04  0.16658232505E+04  0.45572107781E+03 0.  0.
        2    1    3    3  502    0 -0.18549881362E+03  0.10081151382E+03  0.11144691035E+04  0.11342901542E+04  0.25500000920E-02 0.  1.
       -2    1    3    3    0  502  0.18549881362E+03 -0.10081151382E+03  0.48780596690E+03  0.53153309636E+03  0.25500000920E-02 0. -1.
</event>
<event>
 5   0  0.1984680E-01  0.5000072E+03  0.7818609E-02  0.1013777E+00
       -1   -1    0    0    0  501  0.00000000000E+00  0.00000000000E+00  0.39133156734E+02  0.39133157059E+02  0.50400001928E-02 0. -1.
        1   -1    0    0  501    0  0.00000000000E+00  0.00000000000E+00 -0.15971569776E+04  0.15971569776E+04  0.50400001928E-02 0.  1.
    10030    2    1    2    0    0  0.00000000000E+00  0.00000000000E+00 -0.15580238209E+04  0.16362901347E+04  0.50000717837E+03 0.  0.
        5    1    3    3  502    0 -0.21111032888E+00 -0.24840945294E+03 -0.86996265394E+03  0.90474549467E+03  0.46999998093E+01 0.  1.
       -5    1    3    3    0  502  0.21111032888E+00  0.24840945294E+03 -0.68806116693E+03  0.73154464000E+03  0.46999998093E+01 0. -1.
</event>
<event>
 5   0  0.1292375E-01  0.4872392E+03  0.7818609E-02  0.1017164E+00
       -3   -1    0    0    0  501  0.00000000000E+00  0.00000000000E+00  0.16783612843E+03  0.16783615882E+03  0.10100000352E+00 0. -1.
        3   -1    0    0  501    0  0.00000000000E+00  0.00000000000E+00 -0.35362175508E+03  0.35362176951E+03  0.10100000352E+00 0.  1.
    10030    2    1    2    0    0  0.00000000000E+00  0.00000000000E+00 -0.18578562665E+03  0.52145792833E+03  0.48723923482E+03 0.  0.
        2    1    3    3  502    0  0.16132343631E+02 -0.17975615481E+03 -0.26802501693E+03  0.32312526581E+03  0.25500000920E-02 0.  1.
       -2    1    3    3    0  502 -0.16132343631E+02  0.17975615481E+03  0.82239390275E+02  0.19833266252E+03  0.25500000920E-02 0. -1.
</event>
<event>
 5   0  0.2013450E-01  0.5035158E+03  0.7818609E-02  0.1012865E+00
        1   -1    0    0  501    0  0.00000000000E+00  0.00000000000E+00  0.85173940320E+03  0.85173940322E+03  0.50400001928E-02 0.  1.
       -1   -1    0    0    0  501  0.00000000000E+00  0.00000000000E+00 -0.74414833027E+02  0.74414833198E+02  0.50400001928E-02 0. -1.
    10030    2    1    2    0    0  0.00000000000E+00  0.00000000000E+00  0.77732457018E+03  0.92615423642E+03  0.50351582123E+03 0.  0.
        4    1    3    3  502    0  0.23611770740E+03 -0.74433287492E+02  0.30460172421E+03  0.39252478817E+03  0.12699999809E+01 0. -1.
       -4    1    3    3    0  502 -0.23611770740E+03  0.74433287492E+02  0.47272284596E+03  0.53362944824E+03  0.12699999809E+01 0.  1.
</event>
<event>
 5   0  0.2000612E-01  0.5006039E+03  0.7818609E-02  0.1013621E+00
        1   -1    0    0  501    0  0.00000000000E+00  0.00000000000E+00  0.39481249382E+03  0.39481249385E+03  0.50400001928E-02 0.  1.
       -1   -1    0    0    0  501  0.00000000000E+00  0.00000000000E+00 -0.15868560728E+03  0.15868560736E+03  0.50400001928E-02 0. -1.
    10030    2    1    2    0    0  0.00000000000E+00  0.00000000000E+00  0.23612688653E+03  0.55349810121E+03  0.50060387684E+03 0.  0.
        2    1    3    3  502    0 -0.76719249405E+02  0.10471969696E+03  0.35468261781E+03  0.37769275548E+03  0.25500000920E-02 0.  1.
       -2    1    3    3    0  502  0.76719249405E+02 -0.10471969696E+03 -0.11855573128E+03  0.17580534573E+03  0.25500000920E-02 0. -1.
</event>
<event>
 5   0  0.1984680E-01  0.5053426E+03  0.7818609E-02  0.1012394E+00
        1   -1    0    0  501    0  0.00000000000E+00  0.00000000000E+00  0.12913107595E+03  0.12913107605E+03  0.50400001928E-02 0. -1.
       -1   -1    0    0    0  501  0.00000000000E+00  0.00000000000E+00 -0.49440301939E+03  0.49440301941E+03  0.50400001928E-02 0.  1.
    10030    2    1    2    0    0  0.00000000000E+00  0.00000000000E+00 -0.36527194344E+03  0.62353409546E+03  0.50534263182E+03 0.  0.
        5    1    3    3  502    0 -0.12548701699E+03  0.87252909147E+02  0.65557671837E+02  0.16637295430E+03  0.46999998093E+01 0. -1.
       -5    1    3    3    0  502  0.12548701699E+03 -0.87252909147E+02 -0.43082961528E+03  0.45716114116E+03  0.46999998093E+01 0.  1.
</event>
<event>
 5   0  0.1967161E-01  0.5649073E+03  0.7818609E-02  0.9981012E-01
        1   -1    0    0  501    0  0.00000000000E+00  0.00000000000E+00  0.85094029212E+03  0.85094029214E+03  0.50400001928E-02 0. -1.
       -1   -1    0    0    0  501  0.00000000000E+00  0.00000000000E+00 -0.93755186033E+02  0.93755186169E+02  0.50400001928E-02 0.  1.
    10030    2    1    2    0    0  0.00000000000E+00  0.00000000000E+00  0.75718510609E+03  0.94469547831E+03  0.56490730377E+03 0.  0.
        1    1    3    3  502    0  0.22601846864E+03 -0.14134533782E+03  0.22245640192E+03  0.34720268356E+03  0.50400001928E-02 0.  1.
       -1    1    3    3    0  502 -0.22601846864E+03  0.14134533782E+03  0.53472870417E+03  0.59749279475E+03  0.50400001928E-02 0. -1.
</event>
<event>
 5   0  0.3178149E-01  0.5377139E+03  0.7818609E-02  0.1004378E+00
       -2   -1    0    0    0  501  0.00000000000E+00  0.00000000000E+00  0.13125702866E+03  0.13125702869E+03  0.25500000920E-02 0.  1.
        2   -1    0    0  501    0  0.00000000000E+00  0.00000000000E+00 -0.55070623149E+03  0.55070623150E+03  0.25500000920E-02 0. -1.
    10030    2    1    2    0    0  0.00000000000E+00  0.00000000000E+00 -0.41944920283E+03  0.68196326019E+03  0.53771391510E+03 0.  0.
        3    1    3    3  502    0  0.18346126645E+02  0.23658254514E+03 -0.37002923362E+03  0.43957880404E+03  0.10100000352E+00 0.  1.
       -3    1    3    3    0  502 -0.18346126645E+02 -0.23658254514E+03 -0.49419969210E+02  0.24238445615E+03  0.10100000352E+00 0. -1.
</event>
<event>
 5   0  0.3178149E-01  0.4904927E+03  0.7818609E-02  0.1016291E+00
        2   -1    0    0  501    0  0.00000000000E+00  0.00000000000E+00  0.18091190105E+04  0.18091190105E+04  0.25500000920E-02 0.  1.
       -2   -1    0    0    0  501  0.00000000000E+00  0.00000000000E+00 -0.33245889483E+02  0.33245889581E+02  0.25500000920E-02 0. -1.
    10030    2    1    2    0    0  0.00000000000E+00  0.00000000000E+00  0.17758731210E+04  0.18423649001E+04  0.49049269425E+03 0.  0.
        3    1    3    3  502    0  0.81227859328E+02 -0.10378705385E+03  0.11107539636E+03  0.17235855521E+03  0.10100000352E+00 0. -1.
       -3    1    3    3    0  502 -0.81227859328E+02  0.10378705385E+03  0.16647977247E+04  0.16700063449E+04  0.10100000352E+00 0.  1.
</event>
<event>
 5   0  0.1984680E-01  0.5117529E+03  0.7818609E-02  0.1010756E+00
        1   -1    0    0  501    0  0.00000000000E+00  0.00000000000E+00  0.53210053713E+03  0.53210053715E+03  0.50400001928E-02 0. -1.
       -1   -1    0    0    0  501  0.00000000000E+00  0.00000000000E+00 -0.12304581758E+03  0.12304581768E+03  0.50400001928E-02 0.  1.
    10030    2    1    2    0    0  0.00000000000E+00  0.00000000000E+00  0.40905471955E+03  0.65514635483E+03  0.51175285311E+03 0.  0.
        5    1    3    3  502    0  0.14216088938E+03  0.49355067311E+02 -0.60338132752E+02  0.16219870962E+03  0.46999998093E+01 0.  1.
       -5    1    3    3    0  502 -0.14216088938E+03 -0.49355067311E+02  0.46939285230E+03  0.49294764522E+03  0.46999998093E+01 0. -1.
</event>
<event>
 5   0  0.1967161E-01  0.4962747E+03  0.7818609E-02  0.1014756E+00
        1   -1    0    0  501    0  0.00000000000E+00  0.00000000000E+00  0.85719174974E+02  0.85719175122E+02  0.50400001928E-02 0.  1.
       -1   -1    0    0    0  501  0.00000000000E+00  0.00000000000E+00 -0.71830078966E+03  0.71830078967E+03  0.50400001928E-02 0. -1.
    10030    2    1    2    0    0  0.00000000000E+00  0.00000000000E+00 -0.63258161468E+03  0.80401996480E+03  0.49627472690E+03 0.  0.
        1    1    3    3  502    0  0.19932644272E+03 -0.23502465215E+02 -0.55267574527E+03  0.58799139115E+03  0.50400001928E-02 0. -1.
       -1    1    3    3    0  502 -0.19932644272E+03  0.23502465215E+02 -0.79905869415E+02  0.21602857364E+03  0.50400001928E-02 0.  1.
</event>
<event>
 5   0  0.1984297E-01  0.5026747E+03  0.7818609E-02  0.1013083E+00
       -1   -1    0    0    0  501  0.00000000000E+00  0.00000000000E+00  0.33485641442E+03  0.33485641446E+03  0.50400001928E-02 0. -1.
        1   -1    0    0  501    0  0.00000000000E+00  0.00000000000E+00 -0.18864938013E+03  0.18864938019E+03  0.50400001928E-02 0.  1.
    10030    2    1    2    0    0  0.00000000000E+00  0.00000000000E+00  0.14620703429E+03  0.52350579465E+03  0.50267466632E+03 0.  0.
        3    1    3    3  502    0  0.11802783059E+03 -0.18563723927E+03  0.19970899180E+03  0.29711183922E+03  0.10100000352E+00 0. -1.
       -3    1    3    3    0  502 -0.11802783059E+03  0.18563723927E+03 -0.53501957512E+02  0.22639395543E+03  0.10100000352E+00 0.  1.
</event>
<event>
 5   0  0.3329246E-01  0.5100348E+03  0.7818609E-02  0.1011192E+00
       -2   -1    0    0    0  501  0.00000000000E+00  0.00000000000E+00  0.12160035711E+03  0.12160035714E+03  0.25500000920E-02 0. -1.
        2   -1    0    0  501    0  0.00000000000E+00  0.00000000000E+00 -0.53481639862E+03  0.53481639862E+03  0.25500000920E-02 0.  1.
    10030    2    1    2    0    0  0.00000000000E+00  0.00000000000E+00 -0.41321604151E+03  0.65641675576E+03  0.51003476381E+03 0.  0.
        2    1    3    3  502    0 -0.37150241377E+02  0.14103951356E+03 -0.47583983513E+03  0.49769049973E+03  0.25500000920E-02 0.  1.
       -2    1    3    3    0  502  0.37150241377E+02 -0.14103951356E+03  0.62623793629E+02  0.15872625603E+03  0.25500000920E-02 0. -1.
</event>
<event>
 5   0  0.3329246E-01  0.4833178E+03  0.7818609E-02  0.1018227E+00
       -2   -1    0    0    0  501  0.00000000000E+00  0.00000000000E+00  0.73874380581E+02  0.73874380625E+02  0.25500000920E-02 0. -1.
        2   -1    0    0  501    0  0.00000000000E+00  0.00000000000E+00 -0.79051780095E+03  0.79051780095E+03  0.25500000920E-02 0.  1.
    10030    2    1    2    0    0  0.00000000000E+00  0.00000000000E+00 -0.71664342037E+03  0.86439218158E+03  0.48331775430E+03 0.  0.
        2    1    3    3  502    0 -0.23560610585E+03  0.52176963554E+02 -0.38138794822E+03  0.45131966464E+03  0.25500000920E-02 0.  1.
       -2    1    3    3    0  502  0.23560610585E+03 -0.52176963554E+02 -0.33525547215E+03  0.41307251694E+03  0.25500000920E-02 0. -1.
</event>
<event>
 5   0  0.2013450E-01  0.3364265E+03  0.7818609E-02  0.1068328E+00
        1   -1    0    0  501    0  0.00000000000E+00  0.00000000000E+00  0.97271673615E+03  0.97271673616E+03  0.50400001928E-02 0.  1.
       -1   -1    0    0    0  501  0.00000000000E+00  0.00000000000E+00 -0.29089346609E+02  0.29089347046E+02  0.50400001928E-02 0. -1.
    10030    2    1    2    0    0  0.00000000000E+00  0.00000000000E+00  0.94362738954E+03  0.10018060832E+04  0.33642648240E+03 0.  0.
        4    1    3    3  502    0 -0.12100896199E+03 -0.44019974663E+02  0.14953586764E+03  0.19734111498E+03  0.12699999809E+01 0. -1.
       -4    1    3    3    0  502  0.12100896199E+03  0.44019974663E+02  0.79409152190E+03  0.80446496823E+03  0.12699999809E+01 0.  1.
</event>
<event>
 5   0  0.3111146E-01  0.5100280E+03  0.7818609E-02  0.1011194E+00
        2   -1    0    0  501    0  0.00000000000E+00  0.00000000000E+00  0.18751245023E+04  0.18751245023E+04  0.25500000920E-02 0. -1.
       -2   -1    0    0    0  501  0.00000000000E+00  0.00000000000E+00 -0.34681499327E+02  0.34681499421E+02  0.25500000920E-02 0.  1.
    10030    2    1    2    0    0  0.00000000000E+00  0.00000000000E+00  0.18404430030E+04  0.19098060018E+04  0.51002795710E+03 0.  0.
        1    1    3    3  502    0  0.69085414423E+02  0.13219508971E+03  0.14569744127E+03  0.20850918600E+03  0.50400001928E-02 0.  1.
       -1    1    3    3    0  502 -0.69085414423E+02 -0.13219508971E+03  0.16947455617E+04  0.17012968157E+04  0.50400001928E-02 0. -1.
</event>
<event>
 5   0  0.1984680E-01  0.4992078E+03  0.7818609E-02  0.1013986E+00
        1   -1    0    0  501    0  0.00000000000E+00  0.00000000000E+00  0.76435615383E+02  0.76435615549E+02  0.50400001928E-02 0. -1.
       -1   -1    0    0    0  501  0.00000000000E+00  0.00000000000E+00 -0.81509262530E+03  0.81509262531E+03  0.50400001928E-02 0.  1.
    10030    2    1    2    0    0  0.00000000000E+00  0.00000000000E+00 -0.73865700991E+03  0.89152824086E+03  0.49920779838E+03 0.  0.
        5    1    3    3  502    0 -0.94191228098E+01 -0.21576671986E+03 -0.59264296304E+03  0.63078662708E+03  0.46999998093E+01 0.  1.
       -5    1    3    3    0  502  0.94191228098E+01  0.21576671986E+03 -0.14601404688E+03  0.26074161378E+03  0.46999998093E+01 0. -1.
</event>
<event>
 5   0  0.3187123E-01  0.4979307E+03  0.7818609E-02  0.1014320E+00
       -2   -1    0    0    0  501  0.00000000000E+00  0.00000000000E+00  0.10449269675E+03  0.10449269678E+03  0.25500000920E-02 0.  1.
        2   -1    0    0  501    0  0.00000000000E+00  0.00000000000E+00 -0.59318734303E+03  0.59318734303E+03  0.25500000920E-02 0. -1.
    10030    2    1    2    0    0  0.00000000000E+00  0.00000000000E+00 -0.48869464628E+03  0.69768003981E+03  0.49793069864E+03 0.  0.
        5    1    3    3  502    0  0.18527890370E+03 -0.88789991408E+02 -0.44125736842E+03  0.48676697701E+03  0.46999998093E+01 0. -1.
       -5    1    3    3    0  502 -0.18527890370E+03  0.88789991408E+02 -0.47437277867E+02  0.21091306280E+03  0.46999998093E+01 0.  1.
</event>
<event>
 5   0  0.3187123E-01  0.5016637E+03  0.7818609E-02  0.1013346E+00
       -2   -1    0    0    0  501  0.00000000000E+00  0.00000000000E+00  0.83230416437E+02  0.83230416476E+02  0.25500000920E-02 0. -1.
        2   -1    0    0  501    0  0.00000000000E+00  0.00000000000E+00 -0.75593298262E+03  0.75593298263E+03  0.25500000920E-02 0.  1.
    10030    2    1    2    0    0  0.00000000000E+00  0.00000000000E+00 -0.67270256619E+03  0.83916339910E+03  0.50166369994E+03 0.  0.
        5    1    3    3  502    0 -0.16312956919E+03  0.19042025877E+03 -0.34444227136E+03  0.42606771714E+03  0.46999998093E+01 0.  1.
       -5    1    3    3    0  502  0.16312956919E+03 -0.19042025877E+03 -0.32826029483E+03  0.41309568196E+03  0.46999998093E+01 0. -1.
</event>
<event>
 5   0  0.1292375E-01  0.4449424E+03  0.7818609E-02  0.1029241E+00
        3   -1    0    0  501    0  0.00000000000E+00  0.00000000000E+00  0.40713685938E+03  0.40713687191E+03  0.10100000352E+00 0.  1.
       -3   -1    0    0    0  501  0.00000000000E+00  0.00000000000E+00 -0.12156460282E+03  0.12156464478E+03  0.10100000352E+00 0. -1.
    10030    2    1    2    0    0  0.00000000000E+00  0.00000000000E+00  0.28557225657E+03  0.52870151669E+03  0.44494244575E+03 0.  0.
        1    1    3    3  502    0 -0.39410104796E+02  0.20735652725E+03  0.22633230676E+03  0.30947729943E+03  0.50400001928E-02 0.  1.
       -1    1    3    3    0  502  0.39410104796E+02 -0.20735652725E+03  0.59239949809E+02  0.21922421726E+03  0.50400001928E-02 0. -1.
</event>
<event>
 5   0  0.3329246E-01  0.5053711E+03  0.7818609E-02  0.1012386E+00
        2   -1    0    0  501    0  0.00000000000E+00  0.00000000000E+00  0.27618076715E+04  0.27618076715E+04  0.25500000920E-02 0.  1.
       -2   -1    0    0    0  501  0.00000000000E+00  0.00000000000E+00 -0.23118907551E+02  0.23118907692E+02  0.25500000920E-02 0. -1.
    10030    2    1    2    0    0  0.00000000000E+00  0.00000000000E+00  0.27386887639E+04  0.27849265792E+04  0.50537105745E+03 0.  0.
        2    1    3    3  502    0  0.17519850582E+02 -0.24071818525E+03  0.17816426883E+04  0.17979162546E+04  0.25500000920E-02 0.  1.
       -2    1    3    3    0  502 -0.17519850582E+02  0.24071818525E+03  0.95704607563E+03  0.98701032455E+03  0.25500000920E-02 0. -1.
</event>
<event>
 5   0  0.1984680E-01  0.4990742E+03  0.7818609E-02  0.1014021E+00
        1   -1    0    0  501    0  0.00000000000E+00  0.00000000000E+00  0.59255225092E+03  0.59255225094E+03  0.50400001928E-02 0. -1.
       -1   -1    0    0    0  501  0.00000000000E+00  0.00000000000E+00 -0.10508570521E+03  0.10508570533E+03  0.50400001928E-02 0.  1.
    10030    2    1    2    0    0  0.00000000000E+00  0.00000000000E+00  0.48746654571E+03  0.69763795627E+03  0.49907422780E+03 0.  0.
        5    1    3    3  502    0  0.14566227997E+03  0.57178981434E+02 -0.27897823719E+02  0.15901985502E+03  0.46999998093E+01 0.  1.
       -5    1    3    3    0  502 -0.14566227997E+03 -0.57178981434E+02  0.51536436943E+03  0.53861810125E+03  0.46999998093E+01 0. -1.
</event>
<event>
 5   0  0.3178149E-01  0.4781725E+03  0.7818609E-02  0.1019639E+00
       -2   -1    0    0    0  501  0.00000000000E+00  0.00000000000E+00  0.13137763705E+03  0.13137763708E+03  0.25500000920E-02 0.  1.
        2   -1    0    0  501    0  0.00000000000E+00  0.00000000000E+00 -0.43509857754E+03  0.43509857754E+03  0.25500000920E-02 0. -1.
    10030    2    1    2    0    0  0.00000000000E+00  0.00000000000E+00 -0.30372094048E+03  0.56647621462E+03  0.47817245011E+03 0.  0.
        3    1    3    3  502    0 -0.10103190631E+03 -0.15155834916E+03 -0.33533064845E+03  0.38160717143E+03  0.10100000352E+00 0. -1.
       -3    1    3    3    0  502  0.10103190631E+03  0.15155834916E+03  0.31609707970E+02  0.18486904320E+03  0.10100000352E+00 0.  1.
</event>
<event>
 5   0  0.1984297E-01  0.5013819E+03  0.7818609E-02  0.1013419E+00
       -1   -1    0    0    0  501  0.00000000000E+00  0.00000000000E+00  0.67201153048E+02  0.67201153237E+02  0.50400001928E-02 0. -1.
        1   -1    0    0  501    0  0.00000000000E+00  0.00000000000E+00 -0.93519155961E+03  0.93519155962E+03  0.50400001928E-02 0.  1.
    10030    2    1    2    0    0  0.00000000000E+00  0.00000000000E+00 -0.86799040656E+03  0.10023927129E+04  0.50138189528E+03 0.  0.
        3    1    3    3  502    0  0.28627058865E+01 -0.13145851628E+03 -0.72742455846E+01  0.13169077962E+03  0.10100000352E+00 0. -1.
       -3    1    3    3    0  502 -0.28627058865E+01  0.13145851628E+03 -0.86071616097E+03  0.87070193324E+03  0.10100000352E+00 0.  1.
</event>
<event>
 5   0  0.3117389E-01  0.4925483E+03  0.7818609E-02  0.1015742E+00
        2   -1    0    0  501    0  0.00000000000E+00  0.00000000000E+00  0.78504819959E+02  0.78504820001E+02  0.25500000920E-02 0. -1.
       -2   -1    0    0    0  501  0.00000000000E+00  0.00000000000E+00 -0.77257612161E+03  0.77257612162E+03  0.25500000920E-02 0.  1.
    10030    2    1    2    0    0  0.00000000000E+00  0.00000000000E+00 -0.69407130165E+03  0.85108094162E+03  0.49254826911E+03 0.  0.
        4    1    3    3  502    0 -0.11684162475E+03 -0.45882298726E+02 -0.71314215474E+03  0.72410668853E+03  0.12699999809E+01 0.  1.
       -4    1    3    3    0  502  0.11684162475E+03  0.45882298726E+02  0.19070853086E+02  0.12697425309E+03  0.12699999809E+01 0. -1.
</event>
<event>
 5   0  0.2000612E-01  0.4841788E+03  0.7818609E-02  0.1017993E+00
       -1   -1    0    0    0  501  0.00000000000E+00  0.00000000000E+00  0.10904312469E+03  0.10904312480E+03  0.50400001928E-02 0. -1.
        1   -1    0    0  501    0  0.00000000000E+00  0.00000000000E+00 -0.53746869445E+03  0.53746869447E+03  0.50400001928E-02 0.  1.
    10030    2    1    2    0    0  0.00000000000E+00  0.00000000000E+00 -0.42842556976E+03  0.64651181928E+03  0.48417875174E+03 0.  0.
        2    1    3    3  502    0  0.16700012610E+03  0.78196792189E+02 -0.47682365331E+01  0.18446277812E+03  0.25500000920E-02 0. -1.
       -2    1    3    3    0  502 -0.16700012610E+03 -0.78196792189E+02 -0.42365733323E+03  0.46204904115E+03  0.25500000920E-02 0.  1.
</event>
<event>
 5   0  0.1967161E-01  0.4942196E+03  0.7818609E-02  0.1015299E+00
        1   -1    0    0  501    0  0.00000000000E+00  0.00000000000E+00  0.85613764835E+03  0.85613764836E+03  0.50400001928E-02 0. -1.
       -1   -1    0    0    0  501  0.00000000000E+00  0.00000000000E+00 -0.71324112383E+02  0.71324112561E+02  0.50400001928E-02 0.  1.
    10030    2    1    2    0    0  0.00000000000E+00  0.00000000000E+00  0.78481353596E+03  0.92746176092E+03  0.49421961894E+03 0.  0.
        1    1    3    3  502    0 -0.68532409494E+02 -0.14415184365E+03  0.38392653408E+02  0.16416589488E+03  0.50400001928E-02 0.  1.
       -1    1    3    3    0  502  0.68532409494E+02  0.14415184365E+03  0.74642088256E+03  0.76329586604E+03  0.50400001928E-02 0. -1.
</event>
<event>
 5   0  0.3187123E-01  0.5006221E+03  0.7818609E-02  0.1013617E+00
       -2   -1    0    0    0  501  0.00000000000E+00  0.00000000000E+00  0.65660894550E+02  0.65660894599E+02  0.25500000920E-02 0.  1.
        2   -1    0    0  501    0  0.00000000000E+00  0.00000000000E+00 -0.95423056702E+03  0.95423056702E+03  0.25500000920E-02 0. -1.
    10030    2    1    2    0    0  0.00000000000E+00  0.00000000000E+00 -0.88856967247E+03  0.10198914616E+04  0.50062214359E+03 0.  0.
        5    1    3    3  502    0 -0.60919770915E+02  0.12372482557E+03 -0.18824275385E+02  0.13926770729E+03  0.46999998093E+01 0.  1.
       -5    1    3    3    0  502  0.60919770915E+02 -0.12372482557E+03 -0.86974539708E+03  0.88062375433E+03  0.46999998093E+01 0. -1.
</event>
<event>
 5   0  0.1984680E-01  0.4654480E+03  0.7818609E-02  0.1023213E+00
        1   -1    0    0  501    0  0.00000000000E+00  0.00000000000E+00  0.47309451868E+03  0.47309451870E+03  0.50400001928E-02 0.  1.
       -1   -1    0    0    0  501  0.00000000000E+00  0.00000000000E+00 -0.11448128239E+03  0.11448128250E+03  0.50400001928E-02 0. -1.
    10030    2    1    2    0    0  0.00000000000E+00  0.00000000000E+00  0.35861323628E+03  0.58757580121E+03  0.46544803032E+03 0.  0.
        5    1    3    3  502    0 -0.71550694230E+02 -0.21261669221E+01 -0.10017570833E+03  0.12321235720E+03  0.46999998093E+01 0. -1.
       -5    1    3    3    0  502  0.71550694230E+02  0.21261669221E+01  0.45878894461E+03  0.46436344400E+03  0.46999998093E+01 0.  1.
</event>
<event>
 5   0  0.3178149E-01  0.4995544E+03  0.7818609E-02  0.1013895E+00
       -2   -1    0    0    0  501  0.00000000000E+00  0.00000000000E+00  0.14930941671E+03  0.14930941674E+03  0.25500000920E-02 0.  1.
        2   -1    0    0  501    0  0.00000000000E+00  0.00000000000E+00 -0.41784811067E+03  0.41784811068E+03  0.25500000920E-02 0. -1.
    10030    2    1    2    0    0  0.00000000000E+00  0.00000000000E+00 -0.26853869395E+03  0.56715752741E+03  0.49955443222E+03 0.  0.
        3    1    3    3  502    0  0.18833657985E+03  0.71924523085E+02  0.33147448048E+02  0.20430997980E+03  0.10100000352E+00 0.  1.
       -3    1    3    3    0  502 -0.18833657985E+03 -0.71924523085E+02 -0.30168614200E+03  0.36284754761E+03  0.10100000352E+00 0. -1.
</event>
<event>
 5   0  0.3111146E-01  0.4135420E+03  0.7818609E-02  0.1039189E+00
       -2   -1    0    0    0  501  0.00000000000E+00  0.00000000000E+00  0.12553452393E+03  0.12553452396E+03  0.25500000920E-02 0.  1.
        2   -1    0    0  501    0  0.00000000000E+00  0.00000000000E+00 -0.34057764129E+03  0.34057764130E+03  0.25500000920E-02 0. -1.
    10030    2    1    2    0    0  0.00000000000E+00  0.00000000000E+00 -0.21504311736E+03  0.46611216526E+03  0.41354202722E+03 0.  0.
        1    1    3    3  502    0 -0.11996475047E+02  0.18322562059E+03 -0.21467940537E+03  0.28249387705E+03  0.50400001928E-02 0. -1.
       -1    1    3    3    0  502  0.11996475047E+02 -0.18322562059E+03 -0.36371198442E+00  0.18361828821E+03  0.50400001928E-02 0.  1.
</event>
<event>
 5   0  0.2000612E-01  0.4926429E+03  0.7818609E-02  0.1015717E+00
       -1   -1    0    0    0  501  0.00000000000E+00  0.00000000000E+00  0.29094401638E+03  0.29094401643E+03  0.50400001928E-02 0. -1.
        1   -1    0    0  501    0  0.00000000000E+00  0.00000000000E+00 -0.20854273731E+03  0.20854273737E+03  0.50400001928E-02 0.  1.
    10030    2    1    2    0    0  0.00000000000E+00  0.00000000000E+00  0.82401279078E+02  0.49948675380E+03  0.49264291979E+03 0.  0.
        2    1    3    3  502    0 -0.12692011235E+03  0.10916288362E+03  0.22440117910E+03  0.27996631809E+03  0.25500000920E-02 0. -1.
       -2    1    3    3    0  502  0.12692011235E+03 -0.10916288362E+03 -0.14199990002E+03  0.21952043570E+03  0.25500000920E-02 0.  1.
</event>
<event>
 5   0  0.1292375E-01  0.4975471E+03  0.7818609E-02  0.1014421E+00
       -4   -1    0    0    0  501  0.00000000000E+00  0.00000000000E+00  0.47863037571E+02  0.47879883724E+02  0.12699999809E+01 0. -1.
        4   -1    0    0  501    0  0.00000000000E+00  0.00000000000E+00 -0.12927842074E+04  0.12927848312E+04  0.12699999809E+01 0.  1.
    10030    2    1    2    0    0  0.00000000000E+00  0.00000000000E+00 -0.12449211698E+04  0.13406647149E+04  0.49754714226E+03 0.  0.
        3    1    3    3  502    0 -0.19591834119E+03 -0.14106268566E+03 -0.78425920873E+03  0.82057613564E+03  0.10100000352E+00 0.  1.
       -3    1    3    3    0  502  0.19591834119E+03  0.14106268566E+03 -0.46066196107E+03  0.52008857926E+03  0.10100000352E+00 0. -1.
</event>
<event>
 5   0  0.3178149E-01  0.4940922E+03  0.7818609E-02  0.1015333E+00
        2   -1    0    0  501    0  0.00000000000E+00  0.00000000000E+00  0.29936224593E+04  0.29936224593E+04  0.25500000920E-02 0.  1.
       -2   -1    0    0    0  501  0.00000000000E+00  0.00000000000E+00 -0.20387262850E+02  0.20387263009E+02  0.25500000920E-02 0. -1.
    10030    2    1    2    0    0  0.00000000000E+00  0.00000000000E+00  0.29732351965E+04  0.30140097223E+04  0.49409217032E+03 0.  0.
        3    1    3    3  502    0 -0.75895826683E+02  0.15341283664E+03  0.25733267861E+04  0.25790126858E+04  0.10100000352E+00 0.  1.
       -3    1    3    3    0  502  0.75895826683E+02 -0.15341283664E+03  0.39990841036E+03  0.43499703658E+03  0.10100000352E+00 0. -1.
</event>
<event>
 5   0  0.3178149E-01  0.5174529E+03  0.7818609E-02  0.1009321E+00
       -2   -1    0    0    0  501  0.00000000000E+00  0.00000000000E+00  0.47834197874E+02  0.47834197942E+02  0.25500000920E-02 0.  1.
        2   -1    0    0  501    0  0.00000000000E+00  0.00000000000E+00 -0.13994042908E+04  0.13994042908E+04  0.25500000920E-02 0. -1.
    10030    2    1    2    0    0  0.00000000000E+00  0.00000000000E+00 -0.13515700929E+04  0.14472384887E+04  0.51745292269E+03 0.  0.
        3    1    3    3  502    0 -0.13197645301E+03 -0.70126783748E+02 -0.85100927117E+02  0.17198176632E+03  0.10100000352E+00 0.  1.
       -3    1    3    3    0  502  0.13197645301E+03  0.70126783748E+02 -0.12664691658E+04  0.12752567224E+04  0.10100000352E+00 0. -1.
</event>
<event>
 5   0  0.2000612E-01  0.4762842E+03  0.7818609E-02  0.1020161E+00
       -1   -1    0    0    0  501  0.00000000000E+00  0.00000000000E+00  0.47902101615E+03  0.47902101618E+03  0.50400001928E-02 0.  1.
        1   -1    0    0  501    0  0.00000000000E+00  0.00000000000E+00 -0.11839077074E+03  0.11839077085E+03  0.50400001928E-02 0. -1.
    10030    2    1    2    0    0  0.00000000000E+00  0.00000000000E+00  0.36063024541E+03  0.59741178703E+03  0.47628423171E+03 0.  0.
        2    1    3    3  502    0 -0.86192405701E+02  0.21137511756E+03  0.95214525126E+02  0.24733454455E+03  0.25500000920E-02 0. -1.
       -2    1    3    3    0  502  0.86192405701E+02 -0.21137511756E+03  0.26541572028E+03  0.35007724248E+03  0.25500000920E-02 0.  1.
</event>
<event>
 5   0  0.2013450E-01  0.5038854E+03  0.7818609E-02  0.1012770E+00
        1   -1    0    0  501    0  0.00000000000E+00  0.00000000000E+00  0.28774885852E+03  0.28774885857E+03  0.50400001928E-02 0. -1.
       -1   -1    0    0    0  501  0.00000000000E+00  0.00000000000E+00 -0.22059213874E+03  0.22059213880E+03  0.50400001928E-02 0.  1.
    10030    2    1    2    0    0  0.00000000000E+00  0.00000000000E+00  0.67156719780E+02  0.50834099737E+03  0.50388544789E+03 0.  0.
        4    1    3    3  502    0 -0.44754101319E+02  0.86574763528E+02 -0.20080202940E+03  0.22320660200E+03  0.12699999809E+01 0.  1.
       -4    1    3    3    0  502  0.44754101319E+02 -0.86574763528E+02  0.26795874918E+03  0.28513439537E+03  0.12699999809E+01 0. -1.
</event>
<event>
 5   0  0.1967161E-01  0.4990065E+03  0.7818609E-02  0.1014039E+00
       -1   -1    0    0    0  501  0.00000000000E+00  0.00000000000E+00  0.13583117919E+03  0.13583117928E+03  0.50400001928E-02 0. -1.
        1   -1    0    0  501    0  0.00000000000E+00  0.00000000000E+00 -0.45830330937E+03  0.45830330940E+03  0.50400001928E-02 0.  1.
    10030    2    1    2    0    0  0.00000000000E+00  0.00000000000E+00 -0.32247213018E+03  0.59413448868E+03  0.49900652891E+03 0.  0.
        1    1    3    3  502    0  0.22577215878E+03 -0.13759900973E+02 -0.35854393424E+02  0.22901515257E+03  0.50400001928E-02 0. -1.
       -1    1    3    3    0  502 -0.22577215878E+03  0.13759900973E+02 -0.28661773676E+03  0.36511933611E+03  0.50400001928E-02 0.  1.
</event>
<event>
 5   0  0.1967161E-01  0.5050186E+03  0.7818609E-02  0.1012477E+00
       -1   -1    0    0    0  501  0.00000000000E+00  0.00000000000E+00  0.37180747736E+03  0.37180747740E+03  0.50400001928E-02 0. -1.
        1   -1    0    0  501    0  0.00000000000E+00  0.00000000000E+00 -0.17148916951E+03  0.17148916959E+03  0.50400001928E-02 0.  1.
    10030    2    1    2    0    0  0.00000000000E+00  0.00000000000E+00  0.20031830785E+03  0.54329664698E+03  0.50501863546E+03 0.  0.
        1    1    3    3  502    0 -0.10703716152E+03  0.98067181555E+02 -0.12210865596E+03  0.18969620431E+03  0.50400001928E-02 0.  1.
       -1    1    3    3    0  502  0.10703716152E+03 -0.98067181555E+02  0.32242696381E+03  0.35360044267E+03  0.50400001928E-02 0. -1.
</event>
<event>
 5   0  0.2000612E-01  0.5124250E+03  0.7818609E-02  0.1010586E+00
       -1   -1    0    0    0  501  0.00000000000E+00  0.00000000000E+00  0.30739345487E+03  0.30739345491E+03  0.50400001928E-02 0.  1.
        1   -1    0    0  501    0  0.00000000000E+00  0.00000000000E+00 -0.21355313960E+03  0.21355313966E+03  0.50400001928E-02 0. -1.
    10030    2    1    2    0    0  0.00000000000E+00  0.00000000000E+00  0.93840315270E+02  0.52094659457E+03  0.51242496976E+03 0.  0.
        2    1    3    3  502    0 -0.10008898421E+03  0.16568294234E+03 -0.12372897820E+03  0.22973354608E+03  0.25500000920E-02 0. -1.
       -2    1    3    3    0  502  0.10008898421E+03 -0.16568294234E+03  0.21756929347E+03  0.29121304849E+03  0.25500000920E-02 0.  1.
</event>
<event>
 5   0  0.1984680E-01  0.4710501E+03  0.7818609E-02  0.1021624E+00
       -1   -1    0    0    0  501  0.00000000000E+00  0.00000000000E+00  0.13968066387E+03  0.13968066396E+03  0.50400001928E-02 0. -1.
        1   -1    0    0  501    0  0.00000000000E+00  0.00000000000E+00 -0.39713484602E+03  0.39713484605E+03  0.50400001928E-02 0.  1.
    10030    2    1    2    0    0  0.00000000000E+00  0.00000000000E+00 -0.25745418214E+03  0.53681551001E+03  0.47105014158E+03 0.  0.
        5    1    3    3  502    0 -0.85391001601E+02 -0.10409416809E+03  0.91436111700E+02  0.16281852323E+03  0.46999998093E+01 0. -1.
       -5    1    3    3    0  502  0.85391001601E+02  0.10409416809E+03 -0.34889029385E+03  0.37399698678E+03  0.46999998093E+01 0.  1.
</event>
<event>
 5   0  0.1292375E-01  0.4960047E+03  0.7818609E-02  0.1014827E+00
       -3   -1    0    0    0  501  0.00000000000E+00  0.00000000000E+00  0.14713784919E+03  0.14713788385E+03  0.10100000352E+00 0.  1.
        3   -1    0    0  501    0  0.00000000000E+00  0.00000000000E+00 -0.41801045165E+03  0.41801046386E+03  0.10100000352E+00 0. -1.
    10030    2    1    2    0    0  0.00000000000E+00  0.00000000000E+00 -0.27087260246E+03  0.56514834771E+03  0.49600472594E+03 0.  0.
        1    1    3    3  502    0  0.19345711116E+03  0.15347415786E+03 -0.10932434379E+03  0.27005885129E+03  0.50400001928E-02 0.  1.
       -1    1    3    3    0  502 -0.19345711116E+03 -0.15347415786E+03 -0.16154825868E+03  0.29508949642E+03  0.50400001928E-02 0. -1.
</event>
<event>
 5   0  0.2000612E-01  0.4209825E+03  0.7818609E-02  0.1036747E+00
        1   -1    0    0  501    0  0.00000000000E+00  0.00000000000E+00  0.62812512539E+03  0.62812512541E+03  0.50400001928E-02 0. -1.
       -1   -1    0    0    0  501  0.00000000000E+00  0.00000000000E+00 -0.70537808081E+02  0.70537808261E+02  0.50400001928E-02 0.  1.
    10030    2    1    2    0    0  0.00000000000E+00  0.00000000000E+00  0.55758731731E+03  0.69866293367E+03  0.42098251563E+03 0.  0.
        2    1    3    3  502    0  0.13739720867E+03 -0.13932912059E+03  0.15007053301E+03  0.24660040892E+03  0.25500000920E-02 0. -1.
       -2    1    3    3    0  502 -0.13739720867E+03  0.13932912059E+03  0.40751678430E+03  0.45206252475E+03  0.25500000920E-02 0.  1.
</event>
<event>
 5   0  0.3111146E-01  0.4980527E+03  0.7818609E-02  0.1014288E+00
       -2   -1    0    0    0  501  0.00000000000E+00  0.00000000000E+00  0.79144723327E+02  0.79144723368E+02  0.25500000920E-02 0.  1.
        2   -1    0    0  501    0  0.00000000000E+00  0.00000000000E+00 -0.78355338902E+03  0.78355338902E+03  0.25500000920E-02 0. -1.
    10030    2    1    2    0    0  0.00000000000E+00  0.00000000000E+00 -0.70440866569E+03  0.86269811239E+03  0.49805267274E+03 0.  0.
        1    1    3    3  502    0 -0.11780744816E+03  0.14917106593E+03 -0.73531139207E+02  0.20380733601E+03  0.50400001928E-02 0.  1.
       -1    1    3    3    0  502  0.11780744816E+03 -0.14917106593E+03 -0.63087752648E+03  0.65889077638E+03  0.50400001928E-02 0. -1.
</event>
<event>
 5   0  0.3111146E-01  0.4999371E+03  0.7818609E-02  0.1013795E+00
       -2   -1    0    0    0  501  0.00000000000E+00  0.00000000000E+00  0.68984408315E+02  0.68984408362E+02  0.25500000920E-02 0. -1.
        2   -1    0    0  501    0  0.00000000000E+00  0.00000000000E+00 -0.90577378905E+03  0.90577378905E+03  0.25500000920E-02 0.  1.
    10030    2    1    2    0    0  0.00000000000E+00  0.00000000000E+00 -0.83678938073E+03  0.97475819741E+03  0.49993707176E+03 0.  0.
        1    1    3    3  502    0 -0.27272982808E+02 -0.12334059849E+03 -0.83896309850E+03  0.84841958929E+03  0.50400001928E-02 0.  1.
       -1    1    3    3    0  502  0.27272982808E+02  0.12334059849E+03  0.21737177620E+01  0.12633860812E+03  0.50400001928E-02 0. -1.
</event>
<event>
 5   0  0.3329246E-01  0.5155955E+03  0.7818609E-02  0.1009787E+00
        2   -1    0    0  501    0  0.00000000000E+00  0.00000000000E+00  0.19719658304E+03  0.19719658305E+03  0.25500000920E-02 0.  1.
       -2   -1    0    0    0  501  0.00000000000E+00  0.00000000000E+00 -0.33702248238E+03  0.33702248239E+03  0.25500000920E-02 0. -1.
    10030    2    1    2    0    0  0.00000000000E+00  0.00000000000E+00 -0.13982589934E+03  0.53421906544E+03  0.51559550789E+03 0.  0.
        2    1    3    3  502    0  0.17127003698E+03 -0.13245089819E+03 -0.21490695497E+03  0.30506010113E+03  0.25500000920E-02 0. -1.
       -2    1    3    3    0  502 -0.17127003698E+03  0.13245089819E+03  0.75081055631E+02  0.22915896431E+03  0.25500000920E-02 0.  1.
</event>
<event>
 5   0  0.2000612E-01  0.5024274E+03  0.7818609E-02  0.1013147E+00
        1   -1    0    0  501    0  0.00000000000E+00  0.00000000000E+00  0.53349149232E+03  0.53349149234E+03  0.50400001928E-02 0.  1.
       -1   -1    0    0    0  501  0.00000000000E+00  0.00000000000E+00 -0.11829302740E+03  0.11829302750E+03  0.50400001928E-02 0. -1.
    10030    2    1    2    0    0  0.00000000000E+00  0.00000000000E+00  0.41519846492E+03  0.65178451985E+03  0.50242740276E+03 0.  0.
        2    1    3    3  502    0 -0.14190536783E+03 -0.81840252750E+02  0.45467186161E+03  0.48328196960E+03  0.25500000920E-02 0.  1.
       -2    1    3    3    0  502  0.14190536783E+03  0.81840252750E+02 -0.39473396689E+02  0.16850255025E+03  0.25500000920E-02 0. -1.
</event>
<event>
 5   0  0.2013450E-01  0.5033956E+03  0.7818609E-02  0.1012896E+00
        1   -1    0    0  501    0  0.00000000000E+00  0.00000000000E+00  0.35468141516E+03  0.35468141519E+03  0.50400001928E-02 0.  1.
       -1   -1    0    0    0  501  0.00000000000E+00  0.00000000000E+00 -0.17861601897E+03  0.17861601904E+03  0.50400001928E-02 0. -1.
    10030    2    1    2    0    0  0.00000000000E+00  0.00000000000E+00  0.17606539618E+03  0.53329743424E+03  0.50339559954E+03 0.  0.
        4    1    3    3  502    0  0.60628432536E+02  0.20776086198E+03  0.22415547913E+03  0.31158895091E+03  0.12699999809E+01 0.  1.
       -4    1    3    3    0  502 -0.60628432536E+02 -0.20776086198E+03 -0.48090082944E+02  0.22170848333E+03  0.12699999809E+01 0. -1.
</event>
<event>
 5   0  0.1967161E-01  0.4980763E+03  0.7818609E-02  0.1014282E+00
        1   -1    0    0  501    0  0.00000000000E+00  0.00000000000E+00  0.19341745462E+04  0.19341745462E+04  0.50400001928E-02 0.  1.
       -1   -1    0    0    0  501  0.00000000000E+00  0.00000000000E+00 -0.32065362425E+02  0.32065362821E+02  0.50400001928E-02 0. -1.
    10030    2    1    2    0    0  0.00000000000E+00  0.00000000000E+00  0.19021091838E+04  0.19662399091E+04  0.49807633236E+03 0.  0.
        1    1    3    3  502    0  0.16989233938E+03 -0.17431295390E+03  0.74322589696E+03  0.78206978385E+03  0.50400001928E-02 0.  1.
       -1    1    3    3    0  502 -0.16989233938E+03  0.17431295390E+03  0.11588832869E+04  0.11841701252E+04  0.50400001928E-02 0. -1.
</event>
<event>
 5   0  0.2000612E-01  0.4795835E+03  0.7818609E-02  0.1019250E+00
        1   -1    0    0  501    0  0.00000000000E+00  0.00000000000E+00  0.26383188331E+03  0.26383188336E+03  0.50400001928E-02 0.  1.
       -1   -1    0    0    0  501  0.00000000000E+00  0.00000000000E+00 -0.21794210164E+03  0.21794210170E+03  0.50400001928E-02 0. -1.
    10030    2    1    2    0    0  0.00000000000E+00  0.00000000000E+00  0.45889781672E+02  0.48177398506E+03  0.47958346574E+03 0.  0.
        2    1    3    3  502    0  0.10441905034E+03  0.80448246004E+02  0.22417162302E+03  0.26005417692E+03  0.25500000920E-02 0.  1.
       -2    1    3    3    0  502 -0.10441905034E+03 -0.80448246004E+02 -0.17828184135E+03  0.22171980814E+03  0.25500000920E-02 0. -1.
</event>
<event>
 5   0  0.1292375E-01  0.4934219E+03  0.7818609E-02  0.1015510E+00
        4   -1    0    0  501    0  0.00000000000E+00  0.00000000000E+00  0.81605572161E+02  0.81615453853E+02  0.12699999809E+01 0. -1.
       -4   -1    0    0    0  501  0.00000000000E+00  0.00000000000E+00 -0.74580404422E+03  0.74580512554E+03  0.12699999809E+01 0.  1.
    10030    2    1    2    0    0  0.00000000000E+00  0.00000000000E+00 -0.66419847206E+03  0.82742057939E+03  0.49342193396E+03 0.  0.
        1    1    3    3  502    0 -0.23765983209E+03  0.46698886974E+02 -0.41081225926E+03  0.47689589453E+03  0.50400001928E-02 0.  1.
       -1    1    3    3    0  502  0.23765983209E+03 -0.46698886974E+02 -0.25338621280E+03  0.35052468486E+03  0.50400001928E-02 0. -1.
</event>
<event>
 5   0  0.3178149E-01  0.4817362E+03  0.7818609E-02  0.1018659E+00
        2   -1    0    0  501    0  0.00000000000E+00  0.00000000000E+00  0.94613914827E+03  0.94613914828E+03  0.25500000920E-02 0. -1.
       -2   -1    0    0    0  501  0.00000000000E+00  0.00000000000E+00 -0.61320188757E+02  0.61320188810E+02  0.25500000920E-02 0.  1.
    10030    2    1    2    0    0  0.00000000000E+00  0.00000000000E+00  0.88481895952E+03  0.10074593371E+04  0.48173615680E+03 0.  0.
        3    1    3    3  502    0 -0.11956300082E+03 -0.17956911256E+03  0.21836548939E+03  0.30695907628E+03  0.10100000352E+00 0. -1.
       -3    1    3    3    0  502  0.11956300082E+03  0.17956911256E+03  0.66645347012E+03  0.70050026081E+03  0.10100000352E+00 0.  1.
</event>
<event>
 5   0  0.3111146E-01  0.5034054E+03  0.7818609E-02  0.1012894E+00
       -2   -1    0    0    0  501  0.00000000000E+00  0.00000000000E+00  0.14156150436E+03  0.14156150439E+03  0.25500000920E-02 0. -1.
        2   -1    0    0  501    0  0.00000000000E+00  0.00000000000E+00 -0.44753859938E+03  0.44753859939E+03  0.25500000920E-02 0.  1.
    10030    2    1    2    0    0  0.00000000000E+00  0.00000000000E+00 -0.30597709502E+03  0.58910010378E+03  0.50340535316E+03 0.  0.
        1    1    3    3  502    0 -0.20920858168E+03 -0.13670614366E+03 -0.18804542713E+03  0.31275850596E+03  0.50400001928E-02 0. -1.
       -1    1    3    3    0  502  0.20920858168E+03  0.13670614366E+03 -0.11793166789E+03  0.27634159781E+03  0.50400001928E-02 0.  1.
</event>
<event>
 5   0  0.3178149E-01  0.4709742E+03  0.7818609E-02  0.1021646E+00
       -2   -1    0    0    0  501  0.00000000000E+00  0.00000000000E+00  0.26867428004E+03  0.26867428005E+03  0.25500000920E-02 0. -1.
        2   -1    0    0  501    0  0.00000000000E+00  0.00000000000E+00 -0.20639924777E+03  0.20639924779E+03  0.25500000920E-02 0.  1.
    10030    2    1    2    0    0  0.00000000000E+00  0.00000000000E+00  0.62275032264E+02  0.47507352784E+03  0.47097417892E+03 0.  0.
        3    1    3    3  502    0 -0.22608112471E+03 -0.32678968843E+02  0.88850628148E+02  0.24510208950E+03  0.10100000352E+00 0. -1.
       -3    1    3    3    0  502  0.22608112471E+03  0.32678968843E+02 -0.26575595884E+02  0.22997143834E+03  0.10100000352E+00 0.  1.
</event>
<event>
 5   0  0.2013450E-01  0.4967727E+03  0.7818609E-02  0.1014625E+00
       -1   -1    0    0    0  501  0.00000000000E+00  0.00000000000E+00  0.59718403108E+02  0.59718403320E+02  0.50400001928E-02 0. -1.
        1   -1    0    0  501    0  0.00000000000E+00  0.00000000000E+00 -0.10331117998E+04  0.10331117999E+04  0.50400001928E-02 0.  1.
    10030    2    1    2    0    0  0.00000000000E+00  0.00000000000E+00 -0.97339339673E+03  0.10928302032E+04  0.49677273291E+03 0.  0.
        4    1    3    3  502    0 -0.13109103092E+02  0.13539900166E+03 -0.94387299487E+03  0.95362601767E+03  0.12699999809E+01 0.  1.
       -4    1    3    3    0  502  0.13109103092E+02 -0.13539900166E+03 -0.29520401860E+02  0.13920418550E+03  0.12699999809E+01 0. -1.
</event>
<event>
 5   0  0.3329246E-01  0.4487435E+03  0.7818609E-02  0.1028097E+00
        2   -1    0    0  501    0  0.00000000000E+00  0.00000000000E+00  0.12511648562E+04  0.12511648562E+04  0.25500000920E-02 0. -1.
       -2   -1    0    0    0  501  0.00000000000E+00  0.00000000000E+00 -0.40236646165E+02  0.40236646246E+02  0.25500000920E-02 0.  1.
    10030    2    1    2    0    0  0.00000000000E+00  0.00000000000E+00  0.12109282100E+04  0.12914015024E+04  0.44874347980E+03 0.  0.
        2    1    3    3  502    0  0.20344603192E+03  0.74422239809E+02  0.43732176663E+03  0.48803615159E+03  0.25500000920E-02 0.  1.
       -2    1    3    3    0  502 -0.20344603192E+03 -0.74422239809E+02  0.77360644339E+03  0.80336535084E+03  0.25500000920E-02 0. -1.
</event>
<event>
 5   0  0.3329246E-01  0.5006839E+03  0.7818609E-02  0.1013601E+00
        2   -1    0    0  501    0  0.00000000000E+00  0.00000000000E+00  0.32194895881E+03  0.32194895882E+03  0.25500000920E-02 0.  1.
       -2   -1    0    0    0  501  0.00000000000E+00  0.00000000000E+00 -0.19466160609E+03  0.19466160610E+03  0.25500000920E-02 0. -1.
    10030    2    1    2    0    0  0.00000000000E+00  0.00000000000E+00  0.12728735273E+03  0.51661056492E+03  0.50068393786E+03 0.  0.
        2    1    3    3  502    0 -0.44865940180E+02  0.24209743796E+03  0.11032641808E+03  0.26980741388E+03  0.25500000920E-02 0. -1.
       -2    1    3    3    0  502  0.44865940180E+02 -0.24209743796E+03  0.16960934646E+02  0.24680315104E+03  0.25500000920E-02 0.  1.
</event>
<event>
 5   0  0.2013450E-01  0.4999865E+03  0.7818609E-02  0.1013782E+00
        1   -1    0    0  501    0  0.00000000000E+00  0.00000000000E+00  0.73627866112E+03  0.73627866113E+03  0.50400001928E-02 0.  1.
       -1   -1    0    0    0  501  0.00000000000E+00  0.00000000000E+00 -0.84881753693E+02  0.84881753842E+02  0.50400001928E-02 0. -1.
    10030    2    1    2    0    0  0.00000000000E+00  0.00000000000E+00  0.65139690742E+03  0.82116041498E+03  0.49998649594E+03 0.  0.
        4    1    3    3  502    0 -0.10967334926E+03  0.17809910386E+03  0.10082347088E+03  0.23219500321E+03  0.12699999809E+01 0.  1.
       -4    1    3    3    0  502  0.10967334926E+03 -0.17809910386E+03  0.55057343654E+03  0.58896541177E+03  0.12699999809E+01 0. -1.
</event>
<event>
 5   0  0.2000612E-01  0.4972973E+03  0.7818609E-02  0.1014487E+00
        1   -1    0    0  501    0  0.00000000000E+00  0.00000000000E+00  0.58103399159E+03  0.58103399161E+03  0.50400001928E-02 0.  1.
       -1   -1    0    0    0  501  0.00000000000E+00  0.00000000000E+00 -0.10640710972E+03  0.10640710984E+03  0.50400001928E-02 0. -1.
    10030    2    1    2    0    0  0.00000000000E+00  0.00000000000E+00  0.47462688187E+03  0.68744110145E+03  0.49729728631E+03 0.  0.
        2    1    3    3  502    0 -0.19777915935E+03  0.11931361604E+03  0.36456374842E+03  0.43157741080E+03  0.25500000920E-02 0.  1.
       -2    1    3    3    0  502  0.19777915935E+03 -0.11931361604E+03  0.11006313345E+03  0.25586369066E+03  0.25500000920E-02 0. -1.
</event>
<event>
 5   0  0.1984680E-01  0.5296960E+03  0.7818609E-02  0.1006306E+00
        1   -1    0    0  501    0  0.00000000000E+00  0.00000000000E+00  0.96009865829E+02  0.96009865961E+02  0.50400001928E-02 0.  1.
       -1   -1    0    0    0  501  0.00000000000E+00  0.00000000000E+00 -0.73059650775E+03  0.73059650777E+03  0.50400001928E-02 0. -1.
    10030    2    1    2    0    0  0.00000000000E+00  0.00000000000E+00 -0.63458664192E+03  0.82660637373E+03  0.52969603641E+03 0.  0.
        5    1    3    3  502    0 -0.70557673310E+02  0.10101295257E+03  0.48484913624E+02  0.13249482517E+03  0.46999998093E+01 0.  1.
       -5    1    3    3    0  502  0.70557673310E+02 -0.10101295257E+03 -0.68307155555E+03  0.69411154856E+03  0.46999998093E+01 0. -1.
</event>
<event>
 5   0  0.3117389E-01  0.4982352E+03  0.7818609E-02  0.1014241E+00
       -2   -1    0    0    0  501  0.00000000000E+00  0.00000000000E+00  0.29748284295E+03  0.29748284296E+03  0.25500000920E-02 0.  1.
        2   -1    0    0  501    0  0.00000000000E+00  0.00000000000E+00 -0.20861566256E+03  0.20861566257E+03  0.25500000920E-02 0. -1.
    10030    2    1    2    0    0  0.00000000000E+00  0.00000000000E+00  0.88867180386E+02  0.50609850553E+03  0.49823520706E+03 0.  0.
        4    1    3    3  502    0  0.55987967766E+02  0.28782746943E+02  0.28926634999E+03  0.29604008714E+03  0.12699999809E+01 0.  1.
       -4    1    3    3    0  502 -0.55987967766E+02 -0.28782746943E+02 -0.20039916961E+03  0.21005841839E+03  0.12699999809E+01 0. -1.
</event>
<event>
 5   0  0.1984680E-01  0.5029235E+03  0.7818609E-02  0.1013019E+00
        1   -1    0    0  501    0  0.00000000000E+00  0.00000000000E+00  0.65840009887E+03  0.65840009889E+03  0.50400001928E-02 0.  1.
       -1   -1    0    0    0  501  0.00000000000E+00  0.00000000000E+00 -0.96040394018E+02  0.96040394150E+02  0.50400001928E-02 0. -1.
    10030    2    1    2    0    0  0.00000000000E+00  0.00000000000E+00  0.56235970486E+03  0.75444049304E+03  0.50292347320E+03 0.  0.
        5    1    3    3  502    0 -0.59222128634E+02 -0.74730536444E+02 -0.67798084768E+02  0.11709220253E+03  0.46999998093E+01 0. -1.
       -5    1    3    3    0  502  0.59222128634E+02  0.74730536444E+02  0.63015778962E+03  0.63734829051E+03  0.46999998093E+01 0.  1.
</event>
<event>
 5   0  0.3111146E-01  0.5260853E+03  0.7818609E-02  0.1007186E+00
       -2   -1    0    0    0  501  0.00000000000E+00  0.00000000000E+00  0.86208144105E+02  0.86208144142E+02  0.25500000920E-02 0. -1.
        2   -1    0    0  501    0  0.00000000000E+00  0.00000000000E+00 -0.80260913841E+03  0.80260913841E+03  0.25500000920E-02 0.  1.
    10030    2    1    2    0    0  0.00000000000E+00  0.00000000000E+00 -0.71640099430E+03  0.88881728255E+03  0.52608533255E+03 0.  0.
        1    1    3    3  502    0 -0.13385344401E+03 -0.22388944848E+03 -0.41544948821E+03  0.49055224685E+03  0.50400001928E-02 0. -1.
       -1    1    3    3    0  502  0.13385344401E+03  0.22388944848E+03 -0.30095150610E+03  0.39826503570E+03  0.50400001928E-02 0.  1.
</event>
<event>
 5   0  0.1984680E-01  0.5079907E+03  0.7818609E-02  0.1011714E+00
        1   -1    0    0  501    0  0.00000000000E+00  0.00000000000E+00  0.91959715103E+03  0.91959715105E+03  0.50400001928E-02 0. -1.
       -1   -1    0    0    0  501  0.00000000000E+00  0.00000000000E+00 -0.70154245944E+02  0.70154246125E+02  0.50400001928E-02 0.  1.
    10030    2    1    2    0    0  0.00000000000E+00  0.00000000000E+00  0.84944290509E+03  0.98975139717E+03  0.50799072747E+03 0.  0.
        5    1    3    3  502    0  0.43755874148E+02  0.31920728305E+02 -0.58685340710E+02  0.79997303895E+02  0.46999998093E+01 0.  1.
       -5    1    3    3    0  502 -0.43755874148E+02 -0.31920728305E+02  0.90812824580E+03  0.90975409328E+03  0.46999998093E+01 0. -1.
</event>
<event>
 5   0  0.1967161E-01  0.4638947E+03  0.7818609E-02  0.1023658E+00
        1   -1    0    0  501    0  0.00000000000E+00  0.00000000000E+00  0.98447803193E+03  0.98447803194E+03  0.50400001928E-02 0. -1.
       -1   -1    0    0    0  501  0.00000000000E+00  0.00000000000E+00 -0.54647809776E+02  0.54647810008E+02  0.50400001928E-02 0.  1.
    10030    2    1    2    0    0  0.00000000000E+00  0.00000000000E+00  0.92983022216E+03  0.10391258420E+04  0.46389467919E+03 0.  0.
        1    1    3    3  502    0  0.20881599032E+03  0.84573510736E+02  0.58847668868E+03  0.63012824859E+03  0.50400001928E-02 0. -1.
       -1    1    3    3    0  502 -0.20881599032E+03 -0.84573510736E+02  0.34135353348E+03  0.40899759336E+03  0.50400001928E-02 0.  1.
</event>
<event>
 5   0  0.1967161E-01  0.5015384E+03  0.7818609E-02  0.1013378E+00
       -1   -1    0    0    0  501  0.00000000000E+00  0.00000000000E+00  0.32588187976E+02  0.32588188366E+02  0.50400001928E-02 0. -1.
        1   -1    0    0  501    0  0.00000000000E+00  0.00000000000E+00 -0.19296930643E+04  0.19296930643E+04  0.50400001928E-02 0.  1.
    10030    2    1    2    0    0  0.00000000000E+00  0.00000000000E+00 -0.18971048764E+04  0.19622812527E+04  0.50153843603E+03 0.  0.
        1    1    3    3  502    0 -0.17958748649E+02  0.78924003730E+02 -0.19925845066E+02  0.83357989088E+02  0.50400001928E-02 0. -1.
       -1    1    3    3    0  502  0.17958748649E+02 -0.78924003730E+02 -0.18771790313E+04  0.18789232636E+04  0.50400001928E-02 0.  1.
</event>
<event>
 5   0  0.1984680E-01  0.5054518E+03  0.7818609E-02  0.1012366E+00
        1   -1    0    0  501    0  0.00000000000E+00  0.00000000000E+00  0.56765615459E+03  0.56765615461E+03  0.50400001928E-02 0.  1.
       -1   -1    0    0    0  501  0.00000000000E+00  0.00000000000E+00 -0.11251595231E+03  0.11251595242E+03  0.50400001928E-02 0. -1.
    10030    2    1    2    0    0  0.00000000000E+00  0.00000000000E+00  0.45514020228E+03  0.68017210703E+03  0.50545176966E+03 0.  0.
        5    1    3    3  502    0 -0.18261289205E+03  0.15494280736E+03  0.33600769920E+03  0.41264755641E+03  0.46999998093E+01 0. -1.
       -5    1    3    3    0  502  0.18261289205E+03 -0.15494280736E+03  0.11913250308E+03  0.26752455062E+03  0.46999998093E+01 0.  1.
</event>
<event>
 5   0  0.3117389E-01  0.4742755E+03  0.7818609E-02  0.1020720E+00
        2   -1    0    0  501    0  0.00000000000E+00  0.00000000000E+00  0.86408095424E+03  0.86408095425E+03  0.25500000920E-02 0. -1.
       -2   -1    0    0    0  501  0.00000000000E+00  0.00000000000E+00 -0.65079906227E+02  0.65079906277E+02  0.25500000920E-02 0.  1.
    10030    2    1    2    0    0  0.00000000000E+00  0.00000000000E+00  0.79900104802E+03  0.92916086053E+03  0.47427547902E+03 0.  0.
        4    1    3    3  502    0  0.42693351807E+02 -0.17213885163E+03  0.70788677594E+03  0.72976695389E+03  0.12699999809E+01 0. -1.
       -4    1    3    3    0  502 -0.42693351807E+02  0.17213885163E+03  0.91114272076E+02  0.19939390664E+03  0.12699999809E+01 0.  1.
</event>
<event>
 5   0  0.3178149E-01  0.4998746E+03  0.7818609E-02  0.1013812E+00
        2   -1    0    0  501    0  0.00000000000E+00  0.00000000000E+00  0.38482141505E+03  0.38482141506E+03  0.25500000920E-02 0. -1.
       -2   -1    0    0    0  501  0.00000000000E+00  0.00000000000E+00 -0.16233151435E+03  0.16233151437E+03  0.25500000920E-02 0.  1.
    10030    2    1    2    0    0  0.00000000000E+00  0.00000000000E+00  0.22248990070E+03  0.54715292942E+03  0.49987455653E+03 0.  0.
        3    1    3    3  502    0 -0.22015388257E+03  0.10287825493E+03  0.47261450064E+02  0.24755872477E+03  0.10100000352E+00 0.  1.
       -3    1    3    3    0  502  0.22015388257E+03 -0.10287825493E+03  0.17522845064E+03  0.29959420465E+03  0.10100000352E+00 0. -1.
</event>
<event>
 5   0  0.3329246E-01  0.4964353E+03  0.7818609E-02  0.1014714E+00
       -2   -1    0    0    0  501  0.00000000000E+00  0.00000000000E+00  0.65888054323E+02  0.65888054373E+02  0.25500000920E-02 0.  1.
        2   -1    0    0  501    0  0.00000000000E+00  0.00000000000E+00 -0.93510139539E+03  0.93510139539E+03  0.25500000920E-02 0. -1.
    10030    2    1    2    0    0  0.00000000000E+00  0.00000000000E+00 -0.86921334106E+03  0.10009894498E+04  0.49643533945E+03 0.  0.
        2    1    3    3  502    0 -0.19243778316E+02  0.23220113921E+03 -0.26204257051E+03  0.35064797279E+03  0.25500000920E-02 0.  1.
       -2    1    3    3    0  502  0.19243778316E+02 -0.23220113921E+03 -0.60717077055E+03  0.65034147697E+03  0.25500000920E-02 0. -1.
</event>
<event>
 5   0  0.3111146E-01  0.4651085E+03  0.7818609E-02  0.1023310E+00
        2   -1    0    0  501    0  0.00000000000E+00  0.00000000000E+00  0.84147910184E+03  0.84147910184E+03  0.25500000920E-02 0. -1.
       -2   -1    0    0    0  501  0.00000000000E+00  0.00000000000E+00 -0.64269536911E+02  0.64269536962E+02  0.25500000920E-02 0.  1.
    10030    2    1    2    0    0  0.00000000000E+00  0.00000000000E+00  0.77720956492E+03  0.90574863880E+03  0.46510847002E+03 0.  0.
        1    1    3    3  502    0 -0.22260547698E+03 -0.60182416376E+02  0.44723230573E+03  0.50318173351E+03  0.50400001928E-02 0. -1.
       -1    1    3    3    0  502  0.22260547698E+03  0.60182416376E+02  0.32997725919E+03  0.40256690529E+03  0.50400001928E-02 0.  1.
</event>
<event>
 5   0  0.3187123E-01  0.4925712E+03  0.7818609E-02  0.1015736E+00
       -2   -1    0    0    0  501  0.00000000000E+00  0.00000000000E+00  0.58287117392E+02  0.58287117448E+02  0.25500000920E-02 0. -1.
        2   -1    0    0  501    0  0.00000000000E+00  0.00000000000E+00 -0.10406518128E+04  0.10406518128E+04  0.25500000920E-02 0.  1.
    10030    2    1    2    0    0  0.00000000000E+00  0.00000000000E+00 -0.98236469537E+03  0.10989389302E+04  0.49257119042E+03 0.  0.
        5    1    3    3  502    0 -0.34261698266E+02  0.16534503925E+03 -0.89103826870E+03  0.90690910915E+03  0.46999998093E+01 0.  1.
       -5    1    3    3    0  502  0.34261698266E+02 -0.16534503925E+03 -0.91326426674E+02  0.19202982107E+03  0.46999998093E+01 0. -1.
</event>
<event>
 5   0  0.3178149E-01  0.5159880E+03  0.7818609E-02  0.1009688E+00
        2   -1    0    0  501    0  0.00000000000E+00  0.00000000000E+00  0.53069391816E+03  0.53069391817E+03  0.25500000920E-02 0. -1.
       -2   -1    0    0    0  501  0.00000000000E+00  0.00000000000E+00 -0.12542240792E+03  0.12542240794E+03  0.25500000920E-02 0.  1.
    10030    2    1    2    0    0  0.00000000000E+00  0.00000000000E+00  0.40527151025E+03  0.65611632611E+03  0.51598801960E+03 0.  0.
        3    1    3    3  502    0  0.43166092630E+02  0.16939251285E+03  0.44391234108E+03  0.47709046493E+03  0.10100000352E+00 0. -1.
       -3    1    3    3    0  502 -0.43166092630E+02 -0.16939251285E+03 -0.38640830835E+02  0.17902586118E+03  0.10100000352E+00 0.  1.
</event>
<event>
 5   0  0.1967161E-01  0.5157203E+03  0.7818609E-02  0.1009755E+00
       -1   -1    0    0    0  501  0.00000000000E+00  0.00000000000E+00  0.16814908049E+03  0.16814908057E+03  0.50400001928E-02 0.  1.
        1   -1    0    0  501    0  0.00000000000E+00  0.00000000000E+00 -0.39543390685E+03  0.39543390688E+03  0.50400001928E-02 0. -1.
    10030    2    1    2    0    0  0.00000000000E+00  0.00000000000E+00 -0.22728482635E+03  0.56358298745E+03  0.51572026472E+03 0.  0.
        1    1    3    3  502    0  0.52683041526E+01 -0.16522018360E+03 -0.32991447234E+03  0.36901087136E+03  0.50400001928E-02 0. -1.
       -1    1    3    3    0  502 -0.52683041526E+01  0.16522018360E+03  0.10262964599E+03  0.19457211608E+03  0.50400001928E-02 0.  1.
</event>
<event>
 5   0  0.1984297E-01  0.5242743E+03  0.7818609E-02  0.1007630E+00
        1   -1    0    0  501    0  0.00000000000E+00  0.00000000000E+00  0.65556190856E+02  0.65556191050E+02  0.50400001928E-02 0. -1.
       -1   -1    0    0    0  501  0.00000000000E+00  0.00000000000E+00 -0.10481981278E+04  0.10481981278E+04  0.50400001928E-02 0.  1.
    10030    2    1    2    0    0  0.00000000000E+00  0.00000000000E+00 -0.98264193694E+03  0.11137543189E+04  0.52427426652E+03 0.  0.
        3    1    3    3  502    0 -0.51892436899E+02  0.16470404973E+03 -0.72352639398E+02  0.18723024231E+03  0.10100000352E+00 0. -1.
       -3    1    3    3    0  502  0.51892436899E+02 -0.16470404973E+03 -0.91028929754E+03  0.92652407655E+03  0.10100000352E+00 0.  1.
</event>
<event>
 5   0  0.1984680E-01  0.5124857E+03  0.7818609E-02  0.1010570E+00
        1   -1    0    0  501    0  0.00000000000E+00  0.00000000000E+00  0.77489158482E+03  0.77489158484E+03  0.50400001928E-02 0. -1.
       -1   -1    0    0    0  501  0.00000000000E+00  0.00000000000E+00 -0.84734940992E+02  0.84734941142E+02  0.50400001928E-02 0.  1.
    10030    2    1    2    0    0  0.00000000000E+00  0.00000000000E+00  0.69015664383E+03  0.85962652598E+03  0.51248567897E+03 0.  0.
        5    1    3    3  502    0  0.23896081619E+02  0.12566870005E+03  0.71741848388E+03  0.72874893886E+03  0.46999998093E+01 0. -1.
       -5    1    3    3    0  502 -0.23896081619E+02 -0.12566870005E+03 -0.27261840046E+02  0.13087758712E+03  0.46999998093E+01 0.  1.
</event>
<event>
 5   0  0.1984297E-01  0.5052192E+03  0.7818609E-02  0.1012426E+00
       -1   -1    0    0    0  501  0.00000000000E+00  0.00000000000E+00  0.97884201254E+02  0.97884201383E+02  0.50400001928E-02 0. -1.
        1   -1    0    0  501    0  0.00000000000E+00  0.00000000000E+00 -0.65190925085E+03  0.65190925087E+03  0.50400001928E-02 0.  1.
    10030    2    1    2    0    0  0.00000000000E+00  0.00000000000E+00 -0.55402504960E+03  0.74979345226E+03  0.50521922515E+03 0.  0.
        3    1    3    3  502    0 -0.14387394690E+03  0.13831199978E+03 -0.47185224433E+02  0.20507651617E+03  0.10100000352E+00 0. -1.
       -3    1    3    3    0  502  0.14387394690E+03 -0.13831199978E+03 -0.50683982517E+03  0.54471693608E+03  0.10100000352E+00 0.  1.
</event>
<event>
 5   0  0.3329246E-01  0.4987575E+03  0.7818609E-02  0.1014104E+00
       -2   -1    0    0    0  501  0.00000000000E+00  0.00000000000E+00  0.69241728492E+02  0.69241728539E+02  0.25500000920E-02 0.  1.
        2   -1    0    0  501    0  0.00000000000E+00  0.00000000000E+00 -0.89815445742E+03  0.89815445743E+03  0.25500000920E-02 0. -1.
    10030    2    1    2    0    0  0.00000000000E+00  0.00000000000E+00 -0.82891272893E+03  0.96739618596E+03  0.49875752469E+03 0.  0.
        2    1    3    3  502    0  0.29679266627E+01 -0.24739873692E+03 -0.35389747520E+03  0.43180825209E+03  0.25500000920E-02 0.  1.
       -2    1    3    3    0  502 -0.29679266627E+01  0.24739873692E+03 -0.47501525373E+03  0.53558793387E+03  0.25500000920E-02 0. -1.
</event>
<event>
 5   0  0.3178149E-01  0.5064980E+03  0.7818609E-02  0.1012097E+00
        2   -1    0    0  501    0  0.00000000000E+00  0.00000000000E+00  0.41061527012E+03  0.41061527013E+03  0.25500000920E-02 0.  1.
       -2   -1    0    0    0  501  0.00000000000E+00  0.00000000000E+00 -0.15619257453E+03  0.15619257456E+03  0.25500000920E-02 0. -1.
    10030    2    1    2    0    0  0.00000000000E+00  0.00000000000E+00  0.25442269559E+03  0.56680784469E+03  0.50649800075E+03 0.  0.
        3    1    3    3  502    0 -0.41080662631E+02 -0.24699652448E+03  0.16967924735E+03  0.30246646282E+03  0.10100000352E+00 0.  1.
       -3    1    3    3    0  502  0.41080662631E+02  0.24699652448E+03  0.84743448242E+02  0.26434138187E+03  0.10100000352E+00 0. -1.
</event>
<event>
 5   0  0.1984297E-01  0.5704452E+03  0.7818609E-02  0.9968694E-01
        1   -1    0    0  501    0  0.00000000000E+00  0.00000000000E+00  0.28269476517E+03  0.28269476521E+03  0.50400001928E-02 0.  1.
       -1   -1    0    0    0  501  0.00000000000E+00  0.00000000000E+00 -0.28777306601E+03  0.28777306605E+03  0.50400001928E-02 0. -1.
    10030    2    1    2    0    0  0.00000000000E+00  0.00000000000E+00 -0.50783008406E+01  0.57046783127E+03  0.57044522732E+03 0.  0.
        3    1    3    3  502    0 -0.64110544045E+02  0.20878096044E+03 -0.18599199135E+03  0.28686701160E+03  0.10100000352E+00 0. -1.
       -3    1    3    3    0  502  0.64110544045E+02 -0.20878096044E+03  0.18091369051E+03  0.28360081966E+03  0.10100000352E+00 0.  1.
</event>
<event>
 5   0  0.2000612E-01  0.5000319E+03  0.7818609E-02  0.1013771E+00
       -1   -1    0    0    0  501  0.00000000000E+00  0.00000000000E+00  0.23989327965E+03  0.23989327971E+03  0.50400001928E-02 0.  1.
        1   -1    0    0  501    0  0.00000000000E+00  0.00000000000E+00 -0.26056578088E+03  0.26056578093E+03  0.50400001928E-02 0. -1.
    10030    2    1    2    0    0  0.00000000000E+00  0.00000000000E+00 -0.20672501232E+02  0.50045906064E+03  0.50003191805E+03 0.  0.
        2    1    3    3  502    0  0.23652280218E+03  0.76286924810E+02  0.16986316742E+02  0.24910091491E+03  0.25500000920E-02 0.  1.
       -2    1    3    3    0  502 -0.23652280218E+03 -0.76286924810E+02 -0.37658817973E+02  0.25135814573E+03  0.25500000920E-02 0. -1.
</event>
<event>
 5   0  0.3329246E-01  0.4988675E+03  0.7818609E-02  0.1014075E+00
       -2   -1    0    0    0  501  0.00000000000E+00  0.00000000000E+00  0.15816158903E+03  0.15816158905E+03  0.25500000920E-02 0.  1.
        2   -1    0    0  501    0  0.00000000000E+00  0.00000000000E+00 -0.39337740456E+03  0.39337740457E+03  0.25500000920E-02 0. -1.
    10030    2    1    2    0    0  0.00000000000E+00  0.00000000000E+00 -0.23521581553E+03  0.55153899362E+03  0.49886749905E+03 0.  0.
        2    1    3    3  502    0 -0.22971294169E+02 -0.12422367431E+02 -0.39186181220E+03  0.39273104720E+03  0.25500000920E-02 0. -1.
       -2    1    3    3    0  502  0.22971294169E+02  0.12422367431E+02  0.15664599667E+03  0.15880794642E+03  0.25500000920E-02 0.  1.
</event>
<event>
 5   0  0.2000612E-01  0.4586335E+03  0.7818609E-02  0.1025178E+00
        1   -1    0    0  501    0  0.00000000000E+00  0.00000000000E+00  0.14922039921E+03  0.14922039929E+03  0.50400001928E-02 0.  1.
       -1   -1    0    0    0  501  0.00000000000E+00  0.00000000000E+00 -0.35240612179E+03  0.35240612183E+03  0.50400001928E-02 0. -1.
    10030    2    1    2    0    0  0.00000000000E+00  0.00000000000E+00 -0.20318572258E+03  0.50162652112E+03  0.45863354525E+03 0.  0.
        2    1    3    3  502    0  0.15969056478E+03  0.13185166175E+03  0.61295398132E+01  0.20717989393E+03  0.25500000920E-02 0.  1.
       -2    1    3    3    0  502 -0.15969056478E+03 -0.13185166175E+03 -0.20931526240E+03  0.29444662719E+03  0.25500000920E-02 0. -1.
</event>
<event>
 5   0  0.1292375E-01  0.5055573E+03  0.7818609E-02  0.1012338E+00
       -3   -1    0    0    0  501  0.00000000000E+00  0.00000000000E+00  0.11380908012E+03  0.11380912493E+03  0.10100000352E+00 0. -1.
        3   -1    0    0  501    0  0.00000000000E+00  0.00000000000E+00 -0.56144050310E+03  0.56144051219E+03  0.10100000352E+00 0.  1.
    10030    2    1    2    0    0  0.00000000000E+00  0.00000000000E+00 -0.44763142299E+03  0.67524963712E+03  0.50555729803E+03 0.  0.
        2    1    3    3  502    0 -0.17957789061E+03 -0.90331702125E+02 -0.42851971360E+03  0.47332565973E+03  0.25500000920E-02 0.  1.
       -2    1    3    3    0  502  0.17957789061E+03  0.90331702125E+02 -0.19111709389E+02  0.20192397740E+03  0.25500000920E-02 0. -1.
</event>
<event>
 5   0  0.3111146E-01  0.4995217E+03  0.7818609E-02  0.1013904E+00
       -2   -1    0    0    0  501  0.00000000000E+00  0.00000000000E+00  0.63441497681E+02  0.63441497733E+02  0.25500000920E-02 0.  1.
        2   -1    0    0  501    0  0.00000000000E+00  0.00000000000E+00 -0.98327586892E+03  0.98327586892E+03  0.25500000920E-02 0. -1.
    10030    2    1    2    0    0  0.00000000000E+00  0.00000000000E+00 -0.91983437123E+03  0.10467173667E+04  0.49952174642E+03 0.  0.
        1    1    3    3  502    0 -0.21898230690E+03 -0.65105779776E+02 -0.67142661748E+03  0.70922895878E+03  0.50400001928E-02 0.  1.
       -1    1    3    3    0  502  0.21898230690E+03  0.65105779776E+02 -0.24840775376E+03  0.33748840787E+03  0.50400001928E-02 0. -1.
</event>
<event>
 5   0  0.2000612E-01  0.4793958E+03  0.7818609E-02  0.1019301E+00
        1   -1    0    0  501    0  0.00000000000E+00  0.00000000000E+00  0.16150087505E+04  0.16150087505E+04  0.50400001928E-02 0. -1.
       -1   -1    0    0    0  501  0.00000000000E+00  0.00000000000E+00 -0.35575712546E+02  0.35575712903E+02  0.50400001928E-02 0.  1.
    10030    2    1    2    0    0  0.00000000000E+00  0.00000000000E+00  0.15794330379E+04  0.16505844634E+04  0.47939581712E+03 0.  0.
        2    1    3    3  502    0 -0.21688723771E+03 -0.47683028879E+02  0.47905209795E+03  0.52801956184E+03  0.25500000920E-02 0. -1.
       -2    1    3    3    0  502  0.21688723771E+03  0.47683028879E+02  0.11003809400E+04  0.11225649016E+04  0.25500000920E-02 0.  1.
</event>
<event>
 5   0  0.1967161E-01  0.5086954E+03  0.7818609E-02  0.1011534E+00
       -1   -1    0    0    0  501  0.00000000000E+00  0.00000000000E+00  0.78194441503E+02  0.78194441665E+02  0.50400001928E-02 0. -1.
        1   -1    0    0  501    0  0.00000000000E+00  0.00000000000E+00 -0.82733198886E+03  0.82733198888E+03  0.50400001928E-02 0.  1.
    10030    2    1    2    0    0  0.00000000000E+00  0.00000000000E+00 -0.74913754736E+03  0.90552643054E+03  0.50869544086E+03 0.  0.
        1    1    3    3  502    0  0.66219126417E+02 -0.31289592767E+02  0.59017864897E+02  0.94059128857E+02  0.50400001928E-02 0. -1.
       -1    1    3    3    0  502 -0.66219126417E+02  0.31289592767E+02 -0.80815541226E+03  0.81146730169E+03  0.50400001928E-02 0.  1.
</event>
<event>
 5   0  0.2000612E-01  0.3936444E+03  0.7818609E-02  0.1046003E+00
        1   -1    0    0  501    0  0.00000000000E+00  0.00000000000E+00  0.44757985791E+03  0.44757985794E+03  0.50400001928E-02 0.  1.
       -1   -1    0    0    0  501  0.00000000000E+00  0.00000000000E+00 -0.86552111213E+02  0.86552111360E+02  0.50400001928E-02 0. -1.
    10030    2    1    2    0    0  0.00000000000E+00  0.00000000000E+00  0.36102774670E+03  0.53413196930E+03  0.39364441663E+03 0.  0.
        2    1    3    3  502    0  0.15193684298E+02 -0.79518392482E+02 -0.62914364905E+02  0.10252921585E+03  0.25500000920E-02 0. -1.
       -2    1    3    3    0  502 -0.15193684298E+02  0.79518392482E+02  0.42394211160E+03  0.43160275345E+03  0.25500000920E-02 0.  1.
</event>
<event>
 5   0  0.3111146E-01  0.4805848E+03  0.7818609E-02  0.1018975E+00
       -2   -1    0    0    0  501  0.00000000000E+00  0.00000000000E+00  0.45243001842E+02  0.45243001913E+02  0.25500000920E-02 0. -1.
        2   -1    0    0  501    0  0.00000000000E+00  0.00000000000E+00 -0.12762290057E+04  0.12762290057E+04  0.25500000920E-02 0.  1.
    10030    2    1    2    0    0  0.00000000000E+00  0.00000000000E+00 -0.12309860038E+04  0.13214720076E+04  0.48058477422E+03 0.  0.
        1    1    3    3  502    0  0.46388579033E+02 -0.15695416625E+03 -0.10992706440E+04  0.11113876278E+04  0.50400001928E-02 0.  1.
       -1    1    3    3    0  502 -0.46388579033E+02  0.15695416625E+03 -0.13171535985E+03  0.21008437975E+03  0.50400001928E-02 0. -1.
</event>
<event>
 5   0  0.3187123E-01  0.5020592E+03  0.7818609E-02  0.1013243E+00
        2   -1    0    0  501    0  0.00000000000E+00  0.00000000000E+00  0.79977263206E+03  0.79977263206E+03  0.25500000920E-02 0.  1.
       -2   -1    0    0    0  501  0.00000000000E+00  0.00000000000E+00 -0.78792207909E+02  0.78792207951E+02  0.25500000920E-02 0. -1.
    10030    2    1    2    0    0  0.00000000000E+00  0.00000000000E+00  0.72098042415E+03  0.87856484001E+03  0.50205916594E+03 0.  0.
        5    1    3    3  502    0  0.16266445852E+03 -0.13503301460E+02  0.26847794528E+02  0.16548401520E+03  0.46999998093E+01 0. -1.
       -5    1    3    3    0  502 -0.16266445852E+03  0.13503301460E+02  0.69413262962E+03  0.71308082481E+03  0.46999998093E+01 0.  1.
</event>
<event>
 5   0  0.1984297E-01  0.5015690E+03  0.7818609E-02  0.1013370E+00
        1   -1    0    0  501    0  0.00000000000E+00  0.00000000000E+00  0.87776167531E+03  0.87776167532E+03  0.50400001928E-02 0.  1.
       -1   -1    0    0    0  501  0.00000000000E+00  0.00000000000E+00 -0.71651410689E+02  0.71651410866E+02  0.50400001928E-02 0. -1.
    10030    2    1    2    0    0  0.00000000000E+00  0.00000000000E+00  0.80611026462E+03  0.94941308619E+03  0.50156898778E+03 0.  0.
        3    1    3    3  502    0 -0.65385525882E+02  0.59350890826E+02 -0.41249514691E+02  0.97464495586E+02  0.10100000352E+00 0. -1.
       -3    1    3    3    0  502  0.65385525882E+02 -0.59350890826E+02  0.84735977931E+03  0.85194859060E+03  0.10100000352E+00 0.  1.
</event>
<event>
 5   0  0.3117389E-01  0.5793870E+03  0.7818609E-02  0.9949119E-01
        2   -1    0    0  501    0  0.00000000000E+00  0.00000000000E+00  0.70083518044E+03  0.70083518044E+03  0.25500000920E-02 0. -1.
       -2   -1    0    0    0  501  0.00000000000E+00  0.00000000000E+00 -0.11974616925E+03  0.11974616927E+03  0.25500000920E-02 0.  1.
    10030    2    1    2    0    0  0.00000000000E+00  0.00000000000E+00  0.58108901119E+03  0.82058134972E+03  0.57938701450E+03 0.  0.
        4    1    3    3  502    0 -0.26701290125E+03 -0.13722823040E+02  0.13260086463E+03  0.29844397716E+03  0.12699999809E+01 0.  1.
       -4    1    3    3    0  502  0.26701290125E+03  0.13722823040E+02  0.44848814657E+03  0.52213737255E+03  0.12699999809E+01 0. -1.
</event>
<event>
 5   0  0.2013450E-01  0.5058630E+03  0.7818609E-02  0.1012260E+00
       -1   -1    0    0    0  501  0.00000000000E+00  0.00000000000E+00  0.88445413576E+02  0.88445413719E+02  0.50400001928E-02 0.  1.
        1   -1    0    0  501    0  0.00000000000E+00  0.00000000000E+00 -0.72332012620E+03  0.72332012621E+03  0.50400001928E-02 0. -1.
    10030    2    1    2    0    0  0.00000000000E+00  0.00000000000E+00 -0.63487471262E+03  0.81176553993E+03  0.50586301614E+03 0.  0.
        4    1    3    3  502    0  0.24004209587E+03  0.76415113937E+02 -0.28108225895E+03  0.37744976702E+03  0.12699999809E+01 0.  1.
       -4    1    3    3    0  502 -0.24004209587E+03 -0.76415113937E+02 -0.35379245367E+03  0.43431577291E+03  0.12699999809E+01 0. -1.
</event>
<event>
 5   0  0.1984680E-01  0.4961185E+03  0.7818609E-02  0.1014797E+00
        1   -1    0    0  501    0  0.00000000000E+00  0.00000000000E+00  0.10489657864E+03  0.10489657876E+03  0.50400001928E-02 0.  1.
       -1   -1    0    0    0  501  0.00000000000E+00  0.00000000000E+00 -0.58661003096E+03  0.58661003098E+03  0.50400001928E-02 0. -1.
    10030    2    1    2    0    0  0.00000000000E+00  0.00000000000E+00 -0.48171345232E+03  0.69150660973E+03  0.49611847492E+03 0.  0.
        5    1    3    3  502    0  0.17920880023E+03 -0.12148811298E+03 -0.72230854572E+02  0.22828609688E+03  0.46999998093E+01 0.  1.
       -5    1    3    3    0  502 -0.17920880023E+03  0.12148811298E+03 -0.40948259775E+03  0.46322051286E+03  0.46999998093E+01 0. -1.
</event>
<event>
 5   0  0.2000612E-01  0.5037055E+03  0.7818609E-02  0.1012816E+00
       -1   -1    0    0    0  501  0.00000000000E+00  0.00000000000E+00  0.12067070892E+03  0.12067070903E+03  0.50400001928E-02 0.  1.
        1   -1    0    0  501    0  0.00000000000E+00  0.00000000000E+00 -0.52564387197E+03  0.52564387200E+03  0.50400001928E-02 0. -1.
    10030    2    1    2    0    0  0.00000000000E+00  0.00000000000E+00 -0.40497316305E+03  0.64631458103E+03  0.50370554380E+03 0.  0.
        2    1    3    3  502    0 -0.19928723542E+03  0.10162749953E+03 -0.35094231613E+03  0.41617791883E+03  0.25500000920E-02 0. -1.
       -2    1    3    3    0  502  0.19928723542E+03 -0.10162749953E+03 -0.54030846921E+02  0.23013666220E+03  0.25500000920E-02 0.  1.
</event>
<event>
 5   0  0.2000612E-01  0.4916853E+03  0.7818609E-02  0.1015972E+00
       -1   -1    0    0    0  501  0.00000000000E+00  0.00000000000E+00  0.29580530287E+03  0.29580530291E+03  0.50400001928E-02 0. -1.
        1   -1    0    0  501    0  0.00000000000E+00  0.00000000000E+00 -0.20431888781E+03  0.20431888787E+03  0.50400001928E-02 0.  1.
    10030    2    1    2    0    0  0.00000000000E+00  0.00000000000E+00  0.91486415061E+02  0.50012419078E+03  0.49168530796E+03 0.  0.
        2    1    3    3  502    0 -0.10833448478E+03  0.72944949716E+02 -0.16611331167E+03  0.21130773436E+03  0.25500000920E-02 0.  1.
       -2    1    3    3    0  502  0.10833448478E+03 -0.72944949716E+02  0.25759972673E+03  0.28881645642E+03  0.25500000920E-02 0. -1.
</event>
<event>
 5   0  0.1984680E-01  0.4916640E+03  0.7818609E-02  0.1015978E+00
       -1   -1    0    0    0  501  0.00000000000E+00  0.00000000000E+00  0.24194558503E+03  0.24194558508E+03  0.50400001928E-02 0. -1.
        1   -1    0    0  501    0  0.00000000000E+00  0.00000000000E+00 -0.24978081981E+03  0.24978081986E+03  0.50400001928E-02 0.  1.
    10030    2    1    2    0    0  0.00000000000E+00  0.00000000000E+00 -0.78352347822E+01  0.49172640494E+03  0.49166397714E+03 0.  0.
        5    1    3    3  502    0 -0.33485530721E+02 -0.14830926663E+03 -0.19705960813E+03  0.24894075297E+03  0.46999998093E+01 0.  1.
       -5    1    3    3    0  502  0.33485530721E+02  0.14830926663E+03  0.18922437335E+03  0.24278565197E+03  0.46999998093E+01 0. -1.
</event>
<event>
 5   0  0.1984680E-01  0.4987941E+03  0.7818609E-02  0.1014094E+00
       -1   -1    0    0    0  501  0.00000000000E+00  0.00000000000E+00  0.54520105837E+02  0.54520106070E+02  0.50400001928E-02 0. -1.
        1   -1    0    0  501    0  0.00000000000E+00  0.00000000000E+00 -0.11408431477E+04  0.11408431477E+04  0.50400001928E-02 0.  1.
    10030    2    1    2    0    0  0.00000000000E+00  0.00000000000E+00 -0.10863230418E+04  0.11953632538E+04  0.49879410301E+03 0.  0.
        5    1    3    3  502    0 -0.10900877870E+03  0.10579544341E+03 -0.69275729683E+02  0.16702337082E+03  0.46999998093E+01 0. -1.
       -5    1    3    3    0  502  0.10900877870E+03 -0.10579544341E+03 -0.10170473122E+04  0.10283398829E+04  0.46999998093E+01 0.  1.
</event>
<event>
 5   0  0.2000612E-01  0.5034129E+03  0.7818609E-02  0.1012892E+00
       -1   -1    0    0    0  501  0.00000000000E+00  0.00000000000E+00  0.37940585551E+03  0.37940585554E+03  0.50400001928E-02 0. -1.
        1   -1    0    0  501    0  0.00000000000E+00  0.00000000000E+00 -0.16698773877E+03  0.16698773884E+03  0.50400001928E-02 0.  1.
    10030    2    1    2    0    0  0.00000000000E+00  0.00000000000E+00  0.21241811674E+03  0.54639359438E+03  0.50341285608E+03 0.  0.
        2    1    3    3  502    0 -0.14788843336E+03 -0.20196576882E+03  0.13482202528E+03  0.28432048643E+03  0.25500000920E-02 0.  1.
       -2    1    3    3    0  502  0.14788843336E+03  0.20196576882E+03  0.77596091460E+02  0.26207310796E+03  0.25500000920E-02 0. -1.
</event>
<event>
 5   0  0.1292375E-01  0.4710747E+03  0.7818609E-02  0.1021617E+00
       -4   -1    0    0    0  501  0.00000000000E+00  0.00000000000E+00  0.49120128105E+02  0.49136543275E+02  0.12699999809E+01 0.  1.
        4   -1    0    0  501    0  0.00000000000E+00  0.00000000000E+00 -0.11292266032E+04  0.11292273173E+04  0.12699999809E+01 0. -1.
    10030    2    1    2    0    0  0.00000000000E+00  0.00000000000E+00 -0.10801064751E+04  0.11783638606E+04  0.47107471860E+03 0.  0.
        3    1    3    3  502    0  0.14340401022E+03 -0.13189690005E+03 -0.20898978570E+03  0.28572406815E+03  0.10100000352E+00 0.  1.
       -3    1    3    3    0  502 -0.14340401022E+03  0.13189690005E+03 -0.87111668935E+03  0.89263979245E+03  0.10100000352E+00 0. -1.
</event>
<event>
 5   0  0.1292375E-01  0.5086095E+03  0.7818609E-02  0.1011556E+00
       -3   -1    0    0    0  501  0.00000000000E+00  0.00000000000E+00  0.72782098591E+03  0.72782099292E+03  0.10100000352E+00 0. -1.
        3   -1    0    0  501    0  0.00000000000E+00  0.00000000000E+00 -0.88855483465E+02  0.88855540867E+02  0.10100000352E+00 0.  1.
    10030    2    1    2    0    0  0.00000000000E+00  0.00000000000E+00  0.63896550245E+03  0.81667653379E+03  0.50860952362E+03 0.  0.
        3    1    3    3  502    0  0.96532980253E+02 -0.18970345671E+03  0.96036518038E+02  0.23351454079E+03  0.10100000352E+00 0.  1.
       -3    1    3    3    0  502 -0.96532980253E+02  0.18970345671E+03  0.54292898441E+03  0.58316199300E+03  0.10100000352E+00 0. -1.
</event>
<event>
 5   0  0.1292375E-01  0.5077094E+03  0.7818609E-02  0.1011786E+00
        4   -1    0    0  501    0  0.00000000000E+00  0.00000000000E+00  0.59696803188E+03  0.59696938279E+03  0.12699999809E+01 0.  1.
       -4   -1    0    0    0  501  0.00000000000E+00  0.00000000000E+00 -0.10794395861E+03  0.10795142936E+03  0.12699999809E+01 0. -1.
    10030    2    1    2    0    0  0.00000000000E+00  0.00000000000E+00  0.48902407327E+03  0.70492081215E+03  0.50770937274E+03 0.  0.
        2    1    3    3  502    0  0.11385477941E+03  0.21361959264E+03  0.13835394689E+03  0.27881545112E+03  0.25500000920E-02 0.  1.
       -2    1    3    3    0  502 -0.11385477941E+03 -0.21361959264E+03  0.35067012639E+03  0.42610536104E+03  0.25500000920E-02 0. -1.
</event>
<event>
 5   0  0.3111146E-01  0.4733157E+03  0.7818609E-02  0.1020989E+00
       -2   -1    0    0    0  501  0.00000000000E+00  0.00000000000E+00  0.80263621331E+02  0.80263621371E+02  0.25500000920E-02 0.  1.
        2   -1    0    0  501    0  0.00000000000E+00  0.00000000000E+00 -0.69778729541E+03  0.69778729542E+03  0.25500000920E-02 0. -1.
    10030    2    1    2    0    0  0.00000000000E+00  0.00000000000E+00 -0.61752367408E+03  0.77805091679E+03  0.47331568859E+03 0.  0.
        1    1    3    3  502    0 -0.68626681344E+02 -0.33666632596E+02  0.59411762133E+02  0.96813330941E+02  0.50400001928E-02 0.  1.
       -1    1    3    3    0  502  0.68626681344E+02  0.33666632596E+02 -0.67693543621E+03  0.68123758585E+03  0.50400001928E-02 0. -1.
</event>
<event>
 5   0  0.1984680E-01  0.5109293E+03  0.7818609E-02  0.1010965E+00
       -1   -1    0    0    0  501  0.00000000000E+00  0.00000000000E+00  0.49098322242E+02  0.49098322501E+02  0.50400001928E-02 0. -1.
        1   -1    0    0  501    0  0.00000000000E+00  0.00000000000E+00 -0.13292139685E+04  0.13292139685E+04  0.50400001928E-02 0.  1.
    10030    2    1    2    0    0  0.00000000000E+00  0.00000000000E+00 -0.12801156463E+04  0.13783122910E+04  0.51092925514E+03 0.  0.
        5    1    3    3  502    0  0.20267899406E+03  0.98742613822E+02 -0.31621293623E+03  0.38838330224E+03  0.46999998093E+01 0. -1.
       -5    1    3    3    0  502 -0.20267899406E+03 -0.98742613822E+02 -0.96390271003E+03  0.98992898878E+03  0.46999998093E+01 0.  1.
</event>
<event>
 5   0  0.2000612E-01  0.4806795E+03  0.7818609E-02  0.1018949E+00
       -1   -1    0    0    0  501  0.00000000000E+00  0.00000000000E+00  0.11515675130E+03  0.11515675141E+03  0.50400001928E-02 0. -1.
        1   -1    0    0  501    0  0.00000000000E+00  0.00000000000E+00 -0.50160488975E+03  0.50160488977E+03  0.50400001928E-02 0.  1.
    10030    2    1    2    0    0  0.00000000000E+00  0.00000000000E+00 -0.38644813844E+03  0.61676164119E+03  0.48067947567E+03 0.  0.
        2    1    3    3  502    0  0.81094893263E+02 -0.45216789010E+02  0.91215029913E+02  0.13015806318E+03  0.25500000920E-02 0. -1.
       -2    1    3    3    0  502 -0.81094893263E+02  0.45216789010E+02 -0.47766316836E+03  0.48660357801E+03  0.25500000920E-02 0.  1.
</event>
<event>
 5   0  0.1967161E-01  0.4825579E+03  0.7818609E-02  0.1018435E+00
       -1   -1    0    0    0  501  0.00000000000E+00  0.00000000000E+00  0.82555520323E+02  0.82555520477E+02  0.50400001928E-02 0. -1.
        1   -1    0    0  501    0  0.00000000000E+00  0.00000000000E+00 -0.70516825622E+03  0.70516825624E+03  0.50400001928E-02 0.  1.
    10030    2    1    2    0    0  0.00000000000E+00  0.00000000000E+00 -0.62261273590E+03  0.78772377671E+03  0.48255790274E+03 0.  0.
        1    1    3    3  502    0 -0.60151513115E+02 -0.15071705689E+03 -0.60277728959E+03  0.62423897399E+03  0.50400001928E-02 0.  1.
       -1    1    3    3    0  502  0.60151513115E+02  0.15071705689E+03 -0.19835446302E+02  0.16348480273E+03  0.50400001928E-02 0. -1.
</event>
<event>
 5   0  0.3187123E-01  0.5435538E+03  0.7818609E-02  0.1002997E+00
       -2   -1    0    0    0  501  0.00000000000E+00  0.00000000000E+00  0.39317088616E+03  0.39317088617E+03  0.25500000920E-02 0. -1.
        2   -1    0    0  501    0  0.00000000000E+00  0.00000000000E+00 -0.18786406481E+03  0.18786406482E+03  0.25500000920E-02 0.  1.
    10030    2    1    2    0    0  0.00000000000E+00  0.00000000000E+00  0.20530682135E+03  0.58103495099E+03  0.54355379070E+03 0.  0.
        5    1    3    3  502    0 -0.13336909172E+03  0.11379039597E+03 -0.11928049906E+03  0.21209784604E+03  0.46999998093E+01 0.  1.
       -5    1    3    3    0  502  0.13336909172E+03 -0.11379039597E+03  0.32458732041E+03  0.36893710495E+03  0.46999998093E+01 0. -1.
</event>
<event>
 5   0  0.3187123E-01  0.5249916E+03  0.7818609E-02  0.1007454E+00
        2   -1    0    0  501    0  0.00000000000E+00  0.00000000000E+00  0.52824563613E+03  0.52824563614E+03  0.25500000920E-02 0.  1.
       -2   -1    0    0    0  501  0.00000000000E+00  0.00000000000E+00 -0.13043937838E+03  0.13043937841E+03  0.25500000920E-02 0. -1.
    10030    2    1    2    0    0  0.00000000000E+00  0.00000000000E+00  0.39780625775E+03  0.65868501454E+03  0.52499155201E+03 0.  0.
        5    1    3    3  502    0 -0.18612649399E+03 -0.18221419131E+03  0.23930349946E+03  0.35374190893E+03  0.46999998093E+01 0. -1.
       -5    1    3    3    0  502  0.18612649399E+03  0.18221419131E+03  0.15850275829E+03  0.30494310562E+03  0.46999998093E+01 0.  1.
</event>
<event>
 5   0  0.3117389E-01  0.5123361E+03  0.7818609E-02  0.1010608E+00
        2   -1    0    0  501    0  0.00000000000E+00  0.00000000000E+00  0.29597475225E+03  0.29597475226E+03  0.25500000920E-02 0. -1.
       -2   -1    0    0    0  501  0.00000000000E+00  0.00000000000E+00 -0.22171505146E+03  0.22171505148E+03  0.25500000920E-02 0.  1.
    10030    2    1    2    0    0  0.00000000000E+00  0.00000000000E+00  0.74259700789E+02  0.51768980374E+03  0.51233605157E+03 0.  0.
        4    1    3    3  502    0 -0.32845047094E+02 -0.13030790942E+03  0.25749476440E+03  0.29045501368E+03  0.12699999809E+01 0. -1.
       -4    1    3    3    0  502  0.32845047094E+02  0.13030790942E+03 -0.18323506361E+03  0.22723479006E+03  0.12699999809E+01 0.  1.
</event>
<event>
 5   0  0.1984680E-01  0.4977747E+03  0.7818609E-02  0.1014361E+00
        1   -1    0    0  501    0  0.00000000000E+00  0.00000000000E+00  0.45786630949E+03  0.45786630952E+03  0.50400001928E-02 0. -1.
       -1   -1    0    0    0  501  0.00000000000E+00  0.00000000000E+00 -0.13529037260E+03  0.13529037269E+03  0.50400001928E-02 0.  1.
    10030    2    1    2    0    0  0.00000000000E+00  0.00000000000E+00  0.32257593689E+03  0.59315668221E+03  0.49777466246E+03 0.  0.
        5    1    3    3  502    0  0.62912216962E+02 -0.17918122801E+02 -0.12480881183E+03  0.14099055173E+03  0.46999998093E+01 0.  1.
       -5    1    3    3    0  502 -0.62912216962E+02  0.17918122801E+02  0.44738474872E+03  0.45216613048E+03  0.46999998093E+01 0. -1.
</event>
<event>
 5   0  0.3329246E-01  0.4981949E+03  0.7818609E-02  0.1014251E+00
       -2   -1    0    0    0  501  0.00000000000E+00  0.00000000000E+00  0.66784733993E+02  0.66784734042E+02  0.25500000920E-02 0.  1.
        2   -1    0    0  501    0  0.00000000000E+00  0.00000000000E+00 -0.92909777243E+03  0.92909777243E+03  0.25500000920E-02 0. -1.
    10030    2    1    2    0    0  0.00000000000E+00  0.00000000000E+00 -0.86231303844E+03  0.99588250647E+03  0.49819493218E+03 0.  0.
        2    1    3    3  502    0 -0.20296015075E+03  0.14310729912E+03 -0.46997104688E+03  0.53154990994E+03  0.25500000920E-02 0. -1.
       -2    1    3    3    0  502  0.20296015075E+03 -0.14310729912E+03 -0.39234199156E+03  0.46433259653E+03  0.25500000920E-02 0.  1.
</event>
<event>
 5   0  0.2000612E-01  0.6204589E+03  0.7818609E-02  0.9863846E-01
       -1   -1    0    0    0  501  0.00000000000E+00  0.00000000000E+00  0.15375111700E+04  0.15375111700E+04  0.50400001928E-02 0.  1.
        1   -1    0    0  501    0  0.00000000000E+00  0.00000000000E+00 -0.62596170090E+02  0.62596170293E+02  0.50400001928E-02 0. -1.
    10030    2    1    2    0    0  0.00000000000E+00  0.00000000000E+00  0.14749149999E+04  0.16001073403E+04  0.62045889754E+03 0.  0.
        2    1    3    3  502    0 -0.28034989915E+03  0.12758978853E+03  0.64210440845E+03  0.71216100107E+03  0.25500000920E-02 0.  1.
       -2    1    3    3    0  502  0.28034989915E+03 -0.12758978853E+03  0.83281059148E+03  0.88794633925E+03  0.25500000920E-02 0. -1.
</event>
<event>
 5   0  0.3329246E-01  0.5018490E+03  0.7818609E-02  0.1013297E+00
       -2   -1    0    0    0  501  0.00000000000E+00  0.00000000000E+00  0.32466159078E+02  0.32466159178E+02  0.25500000920E-02 0. -1.
        2   -1    0    0  501    0  0.00000000000E+00  0.00000000000E+00 -0.19393454906E+04  0.19393454906E+04  0.25500000920E-02 0.  1.
    10030    2    1    2    0    0  0.00000000000E+00  0.00000000000E+00 -0.19068793315E+04  0.19718116498E+04  0.50184897850E+03 0.  0.
        2    1    3    3  502    0 -0.12936325703E+03  0.20170488375E+03 -0.12459761107E+04  0.12688089615E+04  0.25500000920E-02 0.  1.
       -2    1    3    3    0  502  0.12936325703E+03 -0.20170488375E+03 -0.66090322087E+03  0.70300268830E+03  0.25500000920E-02 0. -1.
</event>
<event>
 5   0  0.1984680E-01  0.4898593E+03  0.7818609E-02  0.1016460E+00
        1   -1    0    0  501    0  0.00000000000E+00  0.00000000000E+00  0.51048606856E+03  0.51048606858E+03  0.50400001928E-02 0.  1.
       -1   -1    0    0    0  501  0.00000000000E+00  0.00000000000E+00 -0.11751647852E+03  0.11751647863E+03  0.50400001928E-02 0. -1.
    10030    2    1    2    0    0  0.00000000000E+00  0.00000000000E+00  0.39296959003E+03  0.62800254721E+03  0.48985926613E+03 0.  0.
        5    1    3    3  502    0 -0.15161226017E+02 -0.25887711307E+02  0.50806343466E+03  0.50897011701E+03  0.46999998093E+01 0.  1.
       -5    1    3    3    0  502  0.15161226017E+02  0.25887711307E+02 -0.11509384463E+03  0.11903243021E+03  0.46999998093E+01 0. -1.
</event>
<event>
 5   0  0.3117389E-01  0.4974213E+03  0.7818609E-02  0.1014454E+00
       -2   -1    0    0    0  501  0.00000000000E+00  0.00000000000E+00  0.81934349428E+02  0.81934349468E+02  0.25500000920E-02 0.  1.
        2   -1    0    0  501    0  0.00000000000E+00  0.00000000000E+00 -0.75495779114E+03  0.75495779115E+03  0.25500000920E-02 0. -1.
    10030    2    1    2    0    0  0.00000000000E+00  0.00000000000E+00 -0.67302344172E+03  0.83689214062E+03  0.49742125198E+03 0.  0.
        4    1    3    3  502    0  0.65195303545E+02 -0.79531463837E+02  0.44481994189E+02  0.11205330005E+03  0.12699999809E+01 0.  1.
       -4    1    3    3    0  502 -0.65195303545E+02  0.79531463837E+02 -0.71750543591E+03  0.72483884057E+03  0.12699999809E+01 0. -1.
</event>
<event>
 5   0  0.1967161E-01  0.4964827E+03  0.7818609E-02  0.1014701E+00
        1   -1    0    0  501    0  0.00000000000E+00  0.00000000000E+00  0.11732346471E+04  0.11732346471E+04  0.50400001928E-02 0.  1.
       -1   -1    0    0    0  501  0.00000000000E+00  0.00000000000E+00 -0.52524677906E+02  0.52524678147E+02  0.50400001928E-02 0. -1.
    10030    2    1    2    0    0  0.00000000000E+00  0.00000000000E+00  0.11207099691E+04  0.12257593252E+04  0.49648271712E+03 0.  0.
        1    1    3    3  502    0  0.13890410105E+03  0.13495600684E+03  0.17695119533E+03  0.26233413546E+03  0.50400001928E-02 0. -1.
       -1    1    3    3    0  502 -0.13890410105E+03 -0.13495600684E+03  0.94375877382E+03  0.96342518975E+03  0.50400001928E-02 0.  1.
</event>
<event>
 5   0  0.1984680E-01  0.5060614E+03  0.7818609E-02  0.1012209E+00
        1   -1    0    0  501    0  0.00000000000E+00  0.00000000000E+00  0.53661578881E+03  0.53661578884E+03  0.50400001928E-02 0. -1.
       -1   -1    0    0    0  501  0.00000000000E+00  0.00000000000E+00 -0.11931166951E+03  0.11931166962E+03  0.50400001928E-02 0.  1.
    10030    2    1    2    0    0  0.00000000000E+00  0.00000000000E+00  0.41730411930E+03  0.65592745845E+03  0.50606136265E+03 0.  0.
        5    1    3    3  502    0 -0.16625740949E+03 -0.51016055480E+02  0.44679775318E+03  0.47947313415E+03  0.46999998093E+01 0. -1.
       -5    1    3    3    0  502  0.16625740949E+03  0.51016055480E+02 -0.29493633878E+02  0.17645432430E+03  0.46999998093E+01 0.  1.
</event>
<event>
 5   0  0.2013450E-01  0.5135631E+03  0.7818609E-02  0.1010298E+00
        1   -1    0    0  501    0  0.00000000000E+00  0.00000000000E+00  0.69146019145E+03  0.69146019147E+03  0.50400001928E-02 0. -1.
       -1   -1    0    0    0  501  0.00000000000E+00  0.00000000000E+00 -0.95358741911E+02  0.95358742044E+02  0.50400001928E-02 0.  1.
    10030    2    1    2    0    0  0.00000000000E+00  0.00000000000E+00  0.59610144954E+03  0.78681893352E+03  0.51356313730E+03 0.  0.
        4    1    3    3  502    0  0.75903449334E+01  0.87547750977E+02  0.66770073452E+03  0.67345980267E+03  0.12699999809E+01 0. -1.
       -4    1    3    3    0  502 -0.75903449334E+01 -0.87547750977E+02 -0.71599284975E+02  0.11335913085E+03  0.12699999809E+01 0.  1.
</event>
<event>
 5   0  0.3329246E-01  0.4966616E+03  0.7818609E-02  0.1014654E+00
        2   -1    0    0  501    0  0.00000000000E+00  0.00000000000E+00  0.20269630345E+03  0.20269630347E+03  0.25500000920E-02 0. -1.
       -2   -1    0    0    0  501  0.00000000000E+00  0.00000000000E+00 -0.30423930722E+03  0.30423930723E+03  0.25500000920E-02 0.  1.
    10030    2    1    2    0    0  0.00000000000E+00  0.00000000000E+00 -0.10154300377E+03  0.50693561070E+03  0.49666158678E+03 0.  0.
        2    1    3    3  502    0 -0.75611407308E+02 -0.61105113192E+02  0.18246648337E+03  0.20674848811E+03  0.25500000920E-02 0. -1.
       -2    1    3    3    0  502  0.75611407308E+02  0.61105113192E+02 -0.28400948715E+03  0.30018712259E+03  0.25500000920E-02 0.  1.
</event>
<event>
 5   0  0.3178149E-01  0.5035954E+03  0.7818609E-02  0.1012845E+00
       -2   -1    0    0    0  501  0.00000000000E+00  0.00000000000E+00  0.43367960236E+02  0.43367960311E+02  0.25500000920E-02 0.  1.
        2   -1    0    0  501    0  0.00000000000E+00  0.00000000000E+00 -0.14619564764E+04  0.14619564764E+04  0.25500000920E-02 0. -1.
    10030    2    1    2    0    0  0.00000000000E+00  0.00000000000E+00 -0.14185885161E+04  0.15053244367E+04  0.50359535499E+03 0.  0.
        3    1    3    3  502    0 -0.18666393142E+03 -0.16878086965E+03 -0.68399129033E+03  0.72881719293E+03  0.10100000352E+00 0.  1.
       -3    1    3    3    0  502  0.18666393142E+03  0.16878086965E+03 -0.73459722580E+03  0.77650724376E+03  0.10100000352E+00 0. -1.
</event>
<event>
 5   0  0.1984297E-01  0.5177670E+03  0.7818609E-02  0.1009243E+00
        1   -1    0    0  501    0  0.00000000000E+00  0.00000000000E+00  0.68394202607E+03  0.68394202609E+03  0.50400001928E-02 0.  1.
       -1   -1    0    0    0  501  0.00000000000E+00  0.00000000000E+00 -0.97991723542E+02  0.97991723671E+02  0.50400001928E-02 0. -1.
    10030    2    1    2    0    0  0.00000000000E+00  0.00000000000E+00  0.58595030253E+03  0.78193374976E+03  0.51776696687E+03 0.  0.
        3    1    3    3  502    0  0.74300557107E+02 -0.10911779428E+03 -0.43340812296E+02  0.13894496042E+03  0.10100000352E+00 0. -1.
       -3    1    3    3    0  502 -0.74300557107E+02  0.10911779428E+03  0.62929111483E+03  0.64298878934E+03  0.10100000352E+00 0.  1.
</event>
<event>
 5   0  0.3187123E-01  0.4323078E+03  0.7818609E-02  0.1033133E+00
        2   -1    0    0  501    0  0.00000000000E+00  0.00000000000E+00  0.57634802223E+03  0.57634802223E+03  0.25500000920E-02 0.  1.
       -2   -1    0    0    0  501  0.00000000000E+00  0.00000000000E+00 -0.81066480851E+02  0.81066480891E+02  0.25500000920E-02 0. -1.
    10030    2    1    2    0    0  0.00000000000E+00  0.00000000000E+00  0.49528154138E+03  0.65741450313E+03  0.43230778814E+03 0.  0.
        5    1    3    3  502    0  0.40074997229E+02 -0.17482901482E+03  0.43094287989E+03  0.46680300508E+03  0.46999998093E+01 0. -1.
       -5    1    3    3    0  502 -0.40074997229E+02  0.17482901482E+03  0.64338661486E+02  0.19061149804E+03  0.46999998093E+01 0.  1.
</event>
<event>
 5   0  0.3187123E-01  0.4986485E+03  0.7818609E-02  0.1014132E+00
       -2   -1    0    0    0  501  0.00000000000E+00  0.00000000000E+00  0.15424844575E+03  0.15424844578E+03  0.25500000920E-02 0. -1.
        2   -1    0    0  501    0  0.00000000000E+00  0.00000000000E+00 -0.40300302271E+03  0.40300302272E+03  0.25500000920E-02 0.  1.
    10030    2    1    2    0    0  0.00000000000E+00  0.00000000000E+00 -0.24875457696E+03  0.55725146850E+03  0.49864853312E+03 0.  0.
        5    1    3    3  502    0  0.16672629302E+03  0.14286732136E+02 -0.33085842000E+03  0.37079799296E+03  0.46999998093E+01 0.  1.
       -5    1    3    3    0  502 -0.16672629302E+03 -0.14286732136E+02  0.82103843041E+02  0.18645347554E+03  0.46999998093E+01 0. -1.
</event>
<event>
 5   0  0.3187123E-01  0.5161039E+03  0.7818609E-02  0.1009659E+00
        2   -1    0    0  501    0  0.00000000000E+00  0.00000000000E+00  0.76237145197E+03  0.76237145198E+03  0.25500000920E-02 0.  1.
       -2   -1    0    0    0  501  0.00000000000E+00  0.00000000000E+00 -0.87346943227E+02  0.87346943264E+02  0.25500000920E-02 0. -1.
    10030    2    1    2    0    0  0.00000000000E+00  0.00000000000E+00  0.67502450875E+03  0.84971839524E+03  0.51610392733E+03 0.  0.
        5    1    3    3  502    0 -0.87983185414E+02 -0.19470660212E+03  0.57562783034E+03  0.61402051341E+03  0.46999998093E+01 0.  1.
       -5    1    3    3    0  502  0.87983185414E+02  0.19470660212E+03  0.99396678406E+02  0.23569788183E+03  0.46999998093E+01 0. -1.
</event>
<event>
 5   0  0.2013450E-01  0.4990020E+03  0.7818609E-02  0.1014040E+00
       -1   -1    0    0    0  501  0.00000000000E+00  0.00000000000E+00  0.19433367385E+03  0.19433367392E+03  0.50400001928E-02 0.  1.
        1   -1    0    0  501    0  0.00000000000E+00  0.00000000000E+00 -0.32032921682E+03  0.32032921685E+03  0.50400001928E-02 0. -1.
    10030    2    1    2    0    0  0.00000000000E+00  0.00000000000E+00 -0.12599554296E+03  0.51466289077E+03  0.49900201833E+03 0.  0.
        4    1    3    3  502    0  0.12924166105E+03  0.20794187262E+03 -0.13470790602E+02  0.24520665660E+03  0.12699999809E+01 0. -1.
       -4    1    3    3    0  502 -0.12924166105E+03 -0.20794187262E+03 -0.11252475236E+03  0.26945623417E+03  0.12699999809E+01 0.  1.
</event>
<event>
 5   0  0.3117389E-01  0.4784162E+03  0.7818609E-02  0.1019571E+00
       -2   -1    0    0    0  501  0.00000000000E+00  0.00000000000E+00  0.13570732764E+03  0.13570732766E+03  0.25500000920E-02 0.  1.
        2   -1    0    0  501    0  0.00000000000E+00  0.00000000000E+00 -0.42164651941E+03  0.42164651941E+03  0.25500000920E-02 0. -1.
    10030    2    1    2    0    0  0.00000000000E+00  0.00000000000E+00 -0.28593919177E+03  0.55735384707E+03  0.47841623034E+03 0.  0.
        4    1    3    3  502    0 -0.31534570245E+02 -0.23307372044E+03 -0.92173539218E+02  0.25261702736E+03  0.12699999809E+01 0.  1.
       -4    1    3    3    0  502  0.31534570245E+02  0.23307372044E+03 -0.19376565255E+03  0.30473681971E+03  0.12699999809E+01 0. -1.
</event>
<event>
 5   0  0.2013450E-01  0.5037106E+03  0.7818609E-02  0.1012815E+00
        1   -1    0    0  501    0  0.00000000000E+00  0.00000000000E+00  0.29282240456E+03  0.29282240460E+03  0.50400001928E-02 0. -1.
       -1   -1    0    0    0  501  0.00000000000E+00  0.00000000000E+00 -0.21661963432E+03  0.21661963438E+03  0.50400001928E-02 0.  1.
    10030    2    1    2    0    0  0.00000000000E+00  0.00000000000E+00  0.76202770232E+02  0.50944203898E+03  0.50371056063E+03 0.  0.
        4    1    3    3  502    0  0.12728543270E+03 -0.28390282369E+02 -0.17980757346E+03  0.22212601352E+03  0.12699999809E+01 0.  1.
       -4    1    3    3    0  502 -0.12728543270E+03  0.28390282369E+02  0.25601034369E+03  0.28731602546E+03  0.12699999809E+01 0. -1.
</event>
<event>
 5   0  0.1292375E-01  0.4837139E+03  0.7818609E-02  0.1018119E+00
       -3   -1    0    0    0  501  0.00000000000E+00  0.00000000000E+00  0.39064555038E+03  0.39064556343E+03  0.10100000352E+00 0. -1.
        3   -1    0    0  501    0  0.00000000000E+00  0.00000000000E+00 -0.14973875671E+03  0.14973879078E+03  0.10100000352E+00 0.  1.
    10030    2    1    2    0    0  0.00000000000E+00  0.00000000000E+00  0.24090679366E+03  0.54038435421E+03  0.48371393100E+03 0.  0.
        4    1    3    3  502    0  0.15834948563E+03 -0.17413689577E+03  0.18260348469E+03  0.29789908289E+03  0.12699999809E+01 0.  1.
       -4    1    3    3    0  502 -0.15834948563E+03  0.17413689577E+03  0.58303308971E+02  0.24248527132E+03  0.12699999809E+01 0. -1.
</event>
<event>
 5   0  0.1967161E-01  0.5057893E+03  0.7818609E-02  0.1012279E+00
       -1   -1    0    0    0  501  0.00000000000E+00  0.00000000000E+00  0.78991772660E+02  0.78991772821E+02  0.50400001928E-02 0.  1.
        1   -1    0    0  501    0  0.00000000000E+00  0.00000000000E+00 -0.80965023240E+03  0.80965023241E+03  0.50400001928E-02 0. -1.
    10030    2    1    2    0    0  0.00000000000E+00  0.00000000000E+00 -0.73065845974E+03  0.88864200523E+03  0.50578931254E+03 0.  0.
        1    1    3    3  502    0  0.14043976474E+03  0.15538701302E+03 -0.61433963501E+03  0.64906212222E+03  0.50400001928E-02 0. -1.
       -1    1    3    3    0  502 -0.14043976474E+03 -0.15538701302E+03 -0.11631882473E+03  0.23957988302E+03  0.50400001928E-02 0.  1.
</event>
<event>
 5   0  0.2000612E-01  0.4920680E+03  0.7818609E-02  0.1015870E+00
       -1   -1    0    0    0  501  0.00000000000E+00  0.00000000000E+00  0.44233461415E+02  0.44233461702E+02  0.50400001928E-02 0. -1.
        1   -1    0    0  501    0  0.00000000000E+00  0.00000000000E+00 -0.13684828757E+04  0.13684828757E+04  0.50400001928E-02 0.  1.
    10030    2    1    2    0    0  0.00000000000E+00  0.00000000000E+00 -0.13242494143E+04  0.14127163374E+04  0.49206802249E+03 0.  0.
        2    1    3    3  502    0 -0.10207447880E+03 -0.15376694400E+03 -0.11292148951E+04  0.11441983009E+04  0.25500000920E-02 0.  1.
       -2    1    3    3    0  502  0.10207447880E+03  0.15376694400E+03 -0.19503451918E+03  0.26851803658E+03  0.25500000920E-02 0. -1.
</event>
<event>
 5   0  0.3117389E-01  0.5008912E+03  0.7818609E-02  0.1013547E+00
       -2   -1    0    0    0  501  0.00000000000E+00  0.00000000000E+00  0.21578947993E+03  0.21578947994E+03  0.25500000920E-02 0.  1.
        2   -1    0    0  501    0  0.00000000000E+00  0.00000000000E+00 -0.29066759038E+03  0.29066759039E+03  0.25500000920E-02 0. -1.
    10030    2    1    2    0    0  0.00000000000E+00  0.00000000000E+00 -0.74878110452E+02  0.50645707033E+03  0.50089123836E+03 0.  0.
        4    1    3    3  502    0  0.19901927230E+03 -0.94252697721E+02 -0.15805055991E+03  0.27106057286E+03  0.12699999809E+01 0.  1.
       -4    1    3    3    0  502 -0.19901927230E+03  0.94252697721E+02  0.83172449455E+02  0.23539649747E+03  0.12699999809E+01 0. -1.
</event>
<event>
 5   0  0.2013450E-01  0.5027959E+03  0.7818609E-02  0.1013052E+00
       -1   -1    0    0    0  501  0.00000000000E+00  0.00000000000E+00  0.53459747129E+03  0.53459747131E+03  0.50400001928E-02 0.  1.
        1   -1    0    0  501    0  0.00000000000E+00  0.00000000000E+00 -0.11822153854E+03  0.11822153865E+03  0.50400001928E-02 0. -1.
    10030    2    1    2    0    0  0.00000000000E+00  0.00000000000E+00  0.41637593275E+03  0.65281900996E+03  0.50279592519E+03 0.  0.
        4    1    3    3  502    0  0.74797160643E+02 -0.10454963598E+03 -0.72315951311E+02  0.14750068250E+03  0.12699999809E+01 0. -1.
       -4    1    3    3    0  502 -0.74797160643E+02  0.10454963598E+03  0.48869188406E+03  0.50531832746E+03  0.12699999809E+01 0.  1.
</event>
<event>
 5   0  0.1967161E-01  0.5099745E+03  0.7818609E-02  0.1011208E+00
        1   -1    0    0  501    0  0.00000000000E+00  0.00000000000E+00  0.60075415610E+02  0.60075415821E+02  0.50400001928E-02 0. -1.
       -1   -1    0    0    0  501  0.00000000000E+00  0.00000000000E+00 -0.10822814716E+04  0.10822814716E+04  0.50400001928E-02 0.  1.
    10030    2    1    2    0    0  0.00000000000E+00  0.00000000000E+00 -0.10222060560E+04  0.11423568875E+04  0.50997454580E+03 0.  0.
        1    1    3    3  502    0 -0.13601709678E+03 -0.92916115166E+02 -0.75105705480E+02  0.18103845474E+03  0.50400001928E-02 0. -1.
       -1    1    3    3    0  502  0.13601709678E+03  0.92916115166E+02 -0.94710035053E+03  0.96131843271E+03  0.50400001928E-02 0.  1.
</event>
<event>
 5   0  0.3111146E-01  0.3471032E+03  0.7818609E-02  0.1063810E+00
       -2   -1    0    0    0  501  0.00000000000E+00  0.00000000000E+00  0.27660469273E+02  0.27660469391E+02  0.25500000920E-02 0.  1.
        2   -1    0    0  501    0  0.00000000000E+00  0.00000000000E+00 -0.10889242900E+04  0.10889242900E+04  0.25500000920E-02 0. -1.
    10030    2    1    2    0    0  0.00000000000E+00  0.00000000000E+00 -0.10612638207E+04  0.11165847594E+04  0.34710319463E+03 0.  0.
        1    1    3    3  502    0  0.12074175929E+03 -0.12425850721E+03 -0.49823758898E+03  0.52750302762E+03  0.50400001928E-02 0.  1.
       -1    1    3    3    0  502 -0.12074175929E+03  0.12425850721E+03 -0.56302623172E+03  0.58908173175E+03  0.50400001928E-02 0. -1.
</event>
<event>
 5   0  0.1292375E-01  0.5159992E+03  0.7818609E-02  0.1009685E+00
       -3   -1    0    0    0  501  0.00000000000E+00  0.00000000000E+00  0.70580620163E+02  0.70580692427E+02  0.10100000352E+00 0.  1.
        3   -1    0    0  501    0  0.00000000000E+00  0.00000000000E+00 -0.94308822872E+03  0.94308823413E+03  0.10100000352E+00 0. -1.
    10030    2    1    2    0    0  0.00000000000E+00  0.00000000000E+00 -0.87250760856E+03  0.10136689266E+04  0.51599919154E+03 0.  0.
        3    1    3    3  502    0  0.17728852483E+03 -0.18734123982E+03 -0.44801117398E+03  0.51695452738E+03  0.10100000352E+00 0. -1.
       -3    1    3    3    0  502 -0.17728852483E+03  0.18734123982E+03 -0.42449643458E+03  0.49671439917E+03  0.10100000352E+00 0.  1.
</event>
<event>
 5   0  0.3187123E-01  0.4930158E+03  0.7818609E-02  0.1015618E+00
        2   -1    0    0  501    0  0.00000000000E+00  0.00000000000E+00  0.12821172746E+04  0.12821172746E+04  0.25500000920E-02 0. -1.
       -2   -1    0    0    0  501  0.00000000000E+00  0.00000000000E+00 -0.47395145526E+02  0.47395145594E+02  0.25500000920E-02 0.  1.
    10030    2    1    2    0    0  0.00000000000E+00  0.00000000000E+00  0.12347221290E+04  0.13295124202E+04  0.49301575981E+03 0.  0.
        5    1    3    3  502    0 -0.42223321902E+02  0.22730856820E+03  0.38708094912E+03  0.45089438370E+03  0.46999998093E+01 0.  1.
       -5    1    3    3    0  502  0.42223321902E+02 -0.22730856820E+03  0.84764117992E+03  0.87861803646E+03  0.46999998093E+01 0. -1.
</event>
<event>
 5   0  0.2013450E-01  0.5725611E+03  0.7818609E-02  0.9964027E-01
        1   -1    0    0  501    0  0.00000000000E+00  0.00000000000E+00  0.47043224101E+03  0.47043224104E+03  0.50400001928E-02 0.  1.
       -1   -1    0    0    0  501  0.00000000000E+00  0.00000000000E+00 -0.17421542430E+03  0.17421542437E+03  0.50400001928E-02 0. -1.
    10030    2    1    2    0    0  0.00000000000E+00  0.00000000000E+00  0.29621681671E+03  0.64464766541E+03  0.57256109719E+03 0.  0.
        4    1    3    3  502    0  0.25088311289E+03 -0.13736750436E+03  0.13465531601E+03  0.31614211143E+03  0.12699999809E+01 0. -1.
       -4    1    3    3    0  502 -0.25088311289E+03  0.13736750436E+03  0.16156150070E+03  0.32850555398E+03  0.12699999809E+01 0.  1.
</event>
<event>
 5   0  0.3117389E-01  0.5651221E+03  0.7818609E-02  0.9980531E-01
        2   -1    0    0  501    0  0.00000000000E+00  0.00000000000E+00  0.96935227726E+03  0.96935227726E+03  0.25500000920E-02 0. -1.
       -2   -1    0    0    0  501  0.00000000000E+00  0.00000000000E+00 -0.82365039930E+02  0.82365039970E+02  0.25500000920E-02 0.  1.
    10030    2    1    2    0    0  0.00000000000E+00  0.00000000000E+00  0.88698723733E+03  0.10517173172E+04  0.56512207193E+03 0.  0.
        4    1    3    3  502    0  0.19430469396E+03  0.15807373036E+03  0.68683902960E+03  0.73108897120E+03  0.12699999809E+01 0. -1.
       -4    1    3    3    0  502 -0.19430469396E+03 -0.15807373036E+03  0.20014820773E+03  0.32062834603E+03  0.12699999809E+01 0.  1.
</event>
<event>
 5   0  0.3329246E-01  0.4725960E+03  0.7818609E-02  0.1021190E+00
        2   -1    0    0  501    0  0.00000000000E+00  0.00000000000E+00  0.95432492507E+03  0.95432492507E+03  0.25500000920E-02 0.  1.
       -2   -1    0    0    0  501  0.00000000000E+00  0.00000000000E+00 -0.58509146746E+02  0.58509146801E+02  0.25500000920E-02 0. -1.
    10030    2    1    2    0    0  0.00000000000E+00  0.00000000000E+00  0.89581577832E+03  0.10128340719E+04  0.47259596746E+03 0.  0.
        2    1    3    3  502    0 -0.64327891108E+02  0.20289046703E+03  0.22794603148E+03  0.31186858204E+03  0.25500000920E-02 0.  1.
       -2    1    3    3    0  502  0.64327891108E+02 -0.20289046703E+03  0.66786974684E+03  0.70096548984E+03  0.25500000920E-02 0. -1.
</event>
<event>
 5   0  0.1967161E-01  0.4933662E+03  0.7818609E-02  0.1015525E+00
       -1   -1    0    0    0  501  0.00000000000E+00  0.00000000000E+00  0.34745012114E+03  0.34745012118E+03  0.50400001928E-02 0. -1.
        1   -1    0    0  501    0  0.00000000000E+00  0.00000000000E+00 -0.17514038698E+03  0.17514038705E+03  0.50400001928E-02 0.  1.
    10030    2    1    2    0    0  0.00000000000E+00  0.00000000000E+00  0.17230973416E+03  0.52259050823E+03  0.49336618734E+03 0.  0.
        1    1    3    3  502    0  0.23996832345E+02  0.16617650481E+03 -0.10527689098E+03  0.19817593828E+03  0.50400001928E-02 0.  1.
       -1    1    3    3    0  502 -0.23996832345E+02 -0.16617650481E+03  0.27758662514E+03  0.32441456995E+03  0.50400001928E-02 0. -1.
</event>
<event>
 5   0  0.3329246E-01  0.4665674E+03  0.7818609E-02  0.1022894E+00
        2   -1    0    0  501    0  0.00000000000E+00  0.00000000000E+00  0.24574429440E+03  0.24574429441E+03  0.25500000920E-02 0.  1.
       -2   -1    0    0    0  501  0.00000000000E+00  0.00000000000E+00 -0.22145492005E+03  0.22145492006E+03  0.25500000920E-02 0. -1.
    10030    2    1    2    0    0  0.00000000000E+00  0.00000000000E+00  0.24289374348E+02  0.46719921447E+03  0.46656739309E+03 0.  0.
        2    1    3    3  502    0  0.22176831326E+03  0.52419932535E+01 -0.60151558475E+02  0.22984097383E+03  0.25500000920E-02 0.  1.
       -2    1    3    3    0  502 -0.22176831326E+03 -0.52419932535E+01  0.84440932823E+02  0.23735824064E+03  0.25500000920E-02 0. -1.
</event>
<event>
 5   0  0.2000612E-01  0.4910154E+03  0.7818609E-02  0.1016151E+00
        1   -1    0    0  501    0  0.00000000000E+00  0.00000000000E+00  0.30097341635E+03  0.30097341640E+03  0.50400001928E-02 0. -1.
       -1   -1    0    0    0  501  0.00000000000E+00  0.00000000000E+00 -0.20026363101E+03  0.20026363108E+03  0.50400001928E-02 0.  1.
    10030    2    1    2    0    0  0.00000000000E+00  0.00000000000E+00  0.10070978534E+03  0.50123704747E+03  0.49101539374E+03 0.  0.
        2    1    3    3  502    0  0.99942867688E+02 -0.22259267701E+03  0.78085684850E+02  0.25619026298E+03  0.25500000920E-02 0. -1.
       -2    1    3    3    0  502 -0.99942867688E+02  0.22259267701E+03  0.22624100491E+02  0.24504678449E+03  0.25500000920E-02 0.  1.
</event>
<event>
 5   0  0.2013450E-01  0.4793832E+03  0.7818609E-02  0.1019305E+00
        1   -1    0    0  501    0  0.00000000000E+00  0.00000000000E+00  0.26924923215E+03  0.26924923220E+03  0.50400001928E-02 0. -1.
       -1   -1    0    0    0  501  0.00000000000E+00  0.00000000000E+00 -0.21337873156E+03  0.21337873162E+03  0.50400001928E-02 0.  1.
    10030    2    1    2    0    0  0.00000000000E+00  0.00000000000E+00  0.55870500592E+02  0.48262796382E+03  0.47938318559E+03 0.  0.
        4    1    3    3  502    0 -0.12556809323E+03  0.17030026299E+03 -0.85436561076E+02  0.22818971160E+03  0.12699999809E+01 0.  1.
       -4    1    3    3    0  502  0.12556809323E+03 -0.17030026299E+03  0.14130706167E+03  0.25443825221E+03  0.12699999809E+01 0. -1.
</event>
<event>
 5   0  0.3111146E-01  0.4949426E+03  0.7818609E-02  0.1015107E+00
       -2   -1    0    0    0  501  0.00000000000E+00  0.00000000000E+00  0.52335706674E+02  0.52335706736E+02  0.25500000920E-02 0.  1.
        2   -1    0    0  501    0  0.00000000000E+00  0.00000000000E+00 -0.11701771401E+04  0.11701771401E+04  0.25500000920E-02 0. -1.
    10030    2    1    2    0    0  0.00000000000E+00  0.00000000000E+00 -0.11178414334E+04  0.12225128468E+04  0.49494261324E+03 0.  0.
        1    1    3    3  502    0  0.17365540598E+03  0.17368599670E+03 -0.63379997976E+03  0.67972453232E+03  0.50400001928E-02 0. -1.
       -1    1    3    3    0  502 -0.17365540598E+03 -0.17368599670E+03 -0.48404145364E+03  0.54278831448E+03  0.50400001928E-02 0.  1.
</event>
<event>
 5   0  0.3329246E-01  0.4949225E+03  0.7818609E-02  0.1015113E+00
        2   -1    0    0  501    0  0.00000000000E+00  0.00000000000E+00  0.11157091962E+04  0.11157091962E+04  0.25500000920E-02 0. -1.
       -2   -1    0    0    0  501  0.00000000000E+00  0.00000000000E+00 -0.54886236231E+02  0.54886236290E+02  0.25500000920E-02 0.  1.
    10030    2    1    2    0    0  0.00000000000E+00  0.00000000000E+00  0.10608229600E+04  0.11705954325E+04  0.49492253351E+03 0.  0.
        2    1    3    3  502    0  0.12277132044E+03 -0.21009553814E+03  0.42399949513E+03  0.48886450490E+03  0.25500000920E-02 0.  1.
       -2    1    3    3    0  502 -0.12277132044E+03  0.21009553814E+03  0.63682346482E+03  0.68173092758E+03  0.25500000920E-02 0. -1.
</event>
<event>
 5   0  0.1967161E-01  0.5034016E+03  0.7818609E-02  0.1012895E+00
       -1   -1    0    0    0  501  0.00000000000E+00  0.00000000000E+00  0.17469360333E+03  0.17469360340E+03  0.50400001928E-02 0. -1.
        1   -1    0    0  501    0  0.00000000000E+00  0.00000000000E+00 -0.36265374453E+03  0.36265374456E+03  0.50400001928E-02 0.  1.
    10030    2    1    2    0    0  0.00000000000E+00  0.00000000000E+00 -0.18796014120E+03  0.53734734796E+03  0.50340158689E+03 0.  0.
        1    1    3    3  502    0 -0.13701108003E+02 -0.53707611354E+02  0.16809817644E+03  0.17700063510E+03  0.50400001928E-02 0. -1.
       -1    1    3    3    0  502  0.13701108003E+02  0.53707611354E+02 -0.35605831764E+03  0.36034671286E+03  0.50400001928E-02 0.  1.
</event>
<event>
 5   0  0.2000612E-01  0.5432418E+03  0.7818609E-02  0.1003070E+00
       -1   -1    0    0    0  501  0.00000000000E+00  0.00000000000E+00  0.91993639946E+02  0.91993640084E+02  0.50400001928E-02 0. -1.
        1   -1    0    0  501    0  0.00000000000E+00  0.00000000000E+00 -0.80198919199E+03  0.80198919200E+03  0.50400001928E-02 0.  1.
    10030    2    1    2    0    0  0.00000000000E+00  0.00000000000E+00 -0.70999555204E+03  0.89398283209E+03  0.54324176952E+03 0.  0.
        2    1    3    3  502    0  0.20890772093E+03 -0.14799927146E+03 -0.50430485195E+03  0.56557015827E+03  0.25500000920E-02 0.  1.
       -2    1    3    3    0  502 -0.20890772093E+03  0.14799927146E+03 -0.20569070009E+03  0.32841267382E+03  0.25500000920E-02 0. -1.
</event>
<event>
 5   0  0.3111146E-01  0.5110389E+03  0.7818609E-02  0.1010937E+00
        2   -1    0    0  501    0  0.00000000000E+00  0.00000000000E+00  0.67585069336E+03  0.67585069336E+03  0.25500000920E-02 0. -1.
       -2   -1    0    0    0  501  0.00000000000E+00  0.00000000000E+00 -0.96604456625E+02  0.96604456659E+02  0.25500000920E-02 0.  1.
    10030    2    1    2    0    0  0.00000000000E+00  0.00000000000E+00  0.57924623673E+03  0.77245515002E+03  0.51103889874E+03 0.  0.
        1    1    3    3  502    0 -0.12121950221E+03  0.21321568642E+03  0.39793932516E+03  0.46745139126E+03  0.50400001928E-02 0. -1.
       -1    1    3    3    0  502  0.12121950221E+03 -0.21321568642E+03  0.18130691157E+03  0.30500375876E+03  0.50400001928E-02 0.  1.
</event>
<event>
 5   0  0.1292375E-01  0.4939025E+03  0.7818609E-02  0.1015383E+00
       -4   -1    0    0    0  501  0.00000000000E+00  0.00000000000E+00  0.66920444324E+02  0.66932494115E+02  0.12699999809E+01 0. -1.
        4   -1    0    0  501    0  0.00000000000E+00  0.00000000000E+00 -0.91121030328E+03  0.91121118831E+03  0.12699999809E+01 0.  1.
    10030    2    1    2    0    0  0.00000000000E+00  0.00000000000E+00 -0.84428985895E+03  0.97814368242E+03  0.49390251825E+03 0.  0.
        5    1    3    3  502    0 -0.10987971297E+03 -0.16231501788E+03 -0.12479461217E+03  0.23241235246E+03  0.46999998093E+01 0. -1.
       -5    1    3    3    0  502  0.10987971297E+03  0.16231501788E+03 -0.71949524678E+03  0.74573132996E+03  0.46999998093E+01 0.  1.
</event>
<event>
 5   0  0.1967161E-01  0.5033450E+03  0.7818609E-02  0.1012909E+00
       -1   -1    0    0    0  501  0.00000000000E+00  0.00000000000E+00  0.49584603509E+02  0.49584603765E+02  0.50400001928E-02 0. -1.
        1   -1    0    0  501    0  0.00000000000E+00  0.00000000000E+00 -0.12773935887E+04  0.12773935887E+04  0.50400001928E-02 0.  1.
    10030    2    1    2    0    0  0.00000000000E+00  0.00000000000E+00 -0.12278089852E+04  0.13269781925E+04  0.50334502996E+03 0.  0.
        1    1    3    3  502    0  0.36471024958E+02 -0.22234765253E+03 -0.31832571427E+03  0.38999983928E+03  0.50400001928E-02 0.  1.
       -1    1    3    3    0  502 -0.36471024958E+02  0.22234765253E+03 -0.90948327092E+03  0.93697835319E+03  0.50400001928E-02 0. -1.
</event>
<event>
 5   0  0.1292375E-01  0.5267257E+03  0.7818609E-02  0.1007029E+00
       -3   -1    0    0    0  501  0.00000000000E+00  0.00000000000E+00  0.86317307109E+03  0.86317307700E+03  0.10100000352E+00 0.  1.
        3   -1    0    0  501    0  0.00000000000E+00  0.00000000000E+00 -0.80354640926E+02  0.80354704401E+02  0.10100000352E+00 0. -1.
    10030    2    1    2    0    0  0.00000000000E+00  0.00000000000E+00  0.78281843017E+03  0.94352778140E+03  0.52672571579E+03 0.  0.
        3    1    3    3  502    0 -0.23198705308E+03  0.11293142041E+03  0.48600121771E+03  0.55024421154E+03  0.10100000352E+00 0.  1.
       -3    1    3    3    0  502  0.23198705308E+03 -0.11293142041E+03  0.29681721246E+03  0.39328356987E+03  0.10100000352E+00 0. -1.
</event>
<event>
 5   0  0.3117389E-01  0.4980984E+03  0.7818609E-02  0.1014276E+00
        2   -1    0    0  501    0  0.00000000000E+00  0.00000000000E+00  0.79990331833E+03  0.79990331833E+03  0.25500000920E-02 0. -1.
       -2   -1    0    0    0  501  0.00000000000E+00  0.00000000000E+00 -0.77541245880E+02  0.77541245922E+02  0.25500000920E-02 0.  1.
    10030    2    1    2    0    0  0.00000000000E+00  0.00000000000E+00  0.72236207245E+03  0.87744456425E+03  0.49809838348E+03 0.  0.
        4    1    3    3  502    0 -0.35837262989E+02  0.77579113770E+02 -0.50899214545E+02  0.99474475385E+02  0.12699999809E+01 0.  1.
       -4    1    3    3    0  502  0.35837262989E+02 -0.77579113770E+02  0.77326128699E+03  0.77797008887E+03  0.12699999809E+01 0. -1.
</event>
<event>
 5   0  0.3117389E-01  0.5238960E+03  0.7818609E-02  0.1007723E+00
        2   -1    0    0  501    0  0.00000000000E+00  0.00000000000E+00  0.68049106203E+03  0.68049106203E+03  0.25500000920E-02 0.  1.
       -2   -1    0    0    0  501  0.00000000000E+00  0.00000000000E+00 -0.10083418072E+03  0.10083418075E+03  0.25500000920E-02 0. -1.
    10030    2    1    2    0    0  0.00000000000E+00  0.00000000000E+00  0.57965688131E+03  0.78132524278E+03  0.52389601541E+03 0.  0.
        4    1    3    3  502    0 -0.23941954262E+03  0.10263500410E+03  0.33092885353E+03  0.42115458023E+03  0.12699999809E+01 0.  1.
       -4    1    3    3    0  502  0.23941954262E+03 -0.10263500410E+03  0.24872802778E+03  0.36017066255E+03  0.12699999809E+01 0. -1.
</event>
<event>
 5   0  0.3117389E-01  0.4987831E+03  0.7818609E-02  0.1014097E+00
        2   -1    0    0  501    0  0.00000000000E+00  0.00000000000E+00  0.53326374943E+03  0.53326374944E+03  0.25500000920E-02 0. -1.
       -2   -1    0    0    0  501  0.00000000000E+00  0.00000000000E+00 -0.11663299520E+03  0.11663299523E+03  0.25500000920E-02 0.  1.
    10030    2    1    2    0    0  0.00000000000E+00  0.00000000000E+00  0.41663075423E+03  0.64989674467E+03  0.49878311254E+03 0.  0.
        4    1    3    3  502    0 -0.10486202200E+03 -0.12353723455E+03  0.45531926717E+03  0.48329570652E+03  0.12699999809E+01 0. -1.
       -4    1    3    3    0  502  0.10486202200E+03  0.12353723455E+03 -0.38688512940E+02  0.16660103815E+03  0.12699999809E+01 0.  1.
</event>
<event>
 5   0  0.3178149E-01  0.5051003E+03  0.7818609E-02  0.1012456E+00
       -2   -1    0    0    0  501  0.00000000000E+00  0.00000000000E+00  0.37322309038E+03  0.37322309039E+03  0.25500000920E-02 0. -1.
        2   -1    0    0  501    0  0.00000000000E+00  0.00000000000E+00 -0.17089397324E+03  0.17089397326E+03  0.25500000920E-02 0.  1.
    10030    2    1    2    0    0  0.00000000000E+00  0.00000000000E+00  0.20232911714E+03  0.54411706364E+03  0.50510029430E+03 0.  0.
        3    1    3    3  502    0 -0.11172470167E+03  0.63967441612E+02 -0.13289124586E+03  0.18502523065E+03  0.10100000352E+00 0.  1.
       -3    1    3    3    0  502  0.11172470167E+03 -0.63967441612E+02  0.33522036300E+03  0.35909183299E+03  0.10100000352E+00 0. -1.
</event>
<event>
 5   0  0.1967161E-01  0.5008201E+03  0.7818609E-02  0.1013565E+00
        1   -1    0    0  501    0  0.00000000000E+00  0.00000000000E+00  0.60993365216E+03  0.60993365218E+03  0.50400001928E-02 0. -1.
       -1   -1    0    0    0  501  0.00000000000E+00  0.00000000000E+00 -0.10280659318E+03  0.10280659330E+03  0.50400001928E-02 0.  1.
    10030    2    1    2    0    0  0.00000000000E+00  0.00000000000E+00  0.50712705899E+03  0.71274024548E+03  0.50082013096E+03 0.  0.
        1    1    3    3  502    0  0.20576023153E+03  0.57139603316E+02  0.67446731145E+02  0.22394478943E+03  0.50400001928E-02 0. -1.
       -1    1    3    3    0  502 -0.20576023153E+03 -0.57139603316E+02  0.43968032784E+03  0.48879545605E+03  0.50400001928E-02 0.  1.
</event>
<event>
 5   0  0.3329246E-01  0.4916958E+03  0.7818609E-02  0.1015969E+00
       -2   -1    0    0    0  501  0.00000000000E+00  0.00000000000E+00  0.61253219503E+03  0.61253219504E+03  0.25500000920E-02 0. -1.
        2   -1    0    0  501    0  0.00000000000E+00  0.00000000000E+00 -0.98674287315E+02  0.98674287348E+02  0.25500000920E-02 0.  1.
    10030    2    1    2    0    0  0.00000000000E+00  0.00000000000E+00  0.51385790771E+03  0.71120648238E+03  0.49169575071E+03 0.  0.
        2    1    3    3  502    0  0.53329987139E+02 -0.23986329468E+03  0.26838141663E+03  0.36387782629E+03  0.25500000920E-02 0.  1.
       -2    1    3    3    0  502 -0.53329987139E+02  0.23986329468E+03  0.24547649108E+03  0.34732865610E+03  0.25500000920E-02 0. -1.
</event>
<event>
 5   0  0.3111146E-01  0.4582964E+03  0.7818609E-02  0.1025276E+00
        2   -1    0    0  501    0  0.00000000000E+00  0.00000000000E+00  0.11122401457E+04  0.11122401457E+04  0.25500000920E-02 0. -1.
       -2   -1    0    0    0  501  0.00000000000E+00  0.00000000000E+00 -0.47210026515E+02  0.47210026584E+02  0.25500000920E-02 0.  1.
    10030    2    1    2    0    0  0.00000000000E+00  0.00000000000E+00  0.10650301192E+04  0.11594501723E+04  0.45829635309E+03 0.  0.
        1    1    3    3  502    0  0.12457630870E+03  0.14301305034E+03  0.85785149641E+03  0.87856768617E+03  0.50400001928E-02 0. -1.
       -1    1    3    3    0  502 -0.12457630870E+03 -0.14301305034E+03  0.20717862282E+03  0.28088248616E+03  0.50400001928E-02 0.  1.
</event>
<event>
 5   0  0.2000612E-01  0.5093099E+03  0.7818609E-02  0.1011377E+00
        1   -1    0    0  501    0  0.00000000000E+00  0.00000000000E+00  0.24850515235E+03  0.24850515240E+03  0.50400001928E-02 0.  1.
       -1   -1    0    0    0  501  0.00000000000E+00  0.00000000000E+00 -0.26095697564E+03  0.26095697569E+03  0.50400001928E-02 0. -1.
    10030    2    1    2    0    0  0.00000000000E+00  0.00000000000E+00 -0.12451823297E+02  0.50946212809E+03  0.50930993713E+03 0.  0.
        2    1    3    3  502    0  0.11260416219E+03 -0.16006259468E+03 -0.16921453305E+03  0.25871468795E+03  0.25500000920E-02 0. -1.
       -2    1    3    3    0  502 -0.11260416219E+03  0.16006259468E+03  0.15676270976E+03  0.25074744014E+03  0.25500000920E-02 0.  1.
</event>
<event>
 5   0  0.2000612E-01  0.4976592E+03  0.7818609E-02  0.1014392E+00
        1   -1    0    0  501    0  0.00000000000E+00  0.00000000000E+00  0.11757450411E+04  0.11757450411E+04  0.50400001928E-02 0.  1.
       -1   -1    0    0    0  501  0.00000000000E+00  0.00000000000E+00 -0.52661230891E+02  0.52661231132E+02  0.50400001928E-02 0. -1.
    10030    2    1    2    0    0  0.00000000000E+00  0.00000000000E+00  0.11230838102E+04  0.12284062723E+04  0.49765924581E+03 0.  0.
        2    1    3    3  502    0 -0.72028907143E+02 -0.19590513069E+03  0.22717869490E+03  0.30850793039E+03  0.25500000920E-02 0.  1.
       -2    1    3    3    0  502  0.72028907143E+02  0.19590513069E+03  0.89590511533E+03  0.91989834187E+03  0.25500000920E-02 0. -1.
</event>
<event>
 5   0  0.3111146E-01  0.4912331E+03  0.7818609E-02  0.1016093E+00
        2   -1    0    0  501    0  0.00000000000E+00  0.00000000000E+00  0.44624762735E+03  0.44624762736E+03  0.25500000920E-02 0.  1.
       -2   -1    0    0    0  501  0.00000000000E+00  0.00000000000E+00 -0.13518838734E+03  0.13518838736E+03  0.25500000920E-02 0. -1.
    10030    2    1    2    0    0  0.00000000000E+00  0.00000000000E+00  0.31105924001E+03  0.58143601472E+03  0.49123313041E+03 0.  0.
        1    1    3    3  502    0 -0.41025172094E+02 -0.35149904416E+02  0.43912813659E+03  0.44243881035E+03  0.50400001928E-02 0.  1.
       -1    1    3    3    0  502  0.41025172094E+02  0.35149904416E+02 -0.12806889658E+03  0.13899720437E+03  0.50400001928E-02 0. -1.
</event>
<event>
 5   0  0.3117389E-01  0.5076775E+03  0.7818609E-02  0.1011794E+00
       -2   -1    0    0    0  501  0.00000000000E+00  0.00000000000E+00  0.32233888131E+03  0.32233888132E+03  0.25500000920E-02 0.  1.
        2   -1    0    0  501    0  0.00000000000E+00  0.00000000000E+00 -0.19989552317E+03  0.19989552319E+03  0.25500000920E-02 0. -1.
    10030    2    1    2    0    0  0.00000000000E+00  0.00000000000E+00  0.12244335814E+03  0.52223440451E+03  0.50767745400E+03 0.  0.
        4    1    3    3  502    0 -0.37825409251E+02  0.14076178982E+03  0.27499739105E+03  0.31123917016E+03  0.12699999809E+01 0.  1.
       -4    1    3    3    0  502  0.37825409251E+02 -0.14076178982E+03 -0.15255403292E+03  0.21099523435E+03  0.12699999809E+01 0. -1.
</event>
<event>
 5   0  0.3117389E-01  0.4993756E+03  0.7818609E-02  0.1013942E+00
        2   -1    0    0  501    0  0.00000000000E+00  0.00000000000E+00  0.10135863280E+03  0.10135863283E+03  0.25500000920E-02 0.  1.
       -2   -1    0    0    0  501  0.00000000000E+00  0.00000000000E+00 -0.61508319794E+03  0.61508319795E+03  0.25500000920E-02 0. -1.
    10030    2    1    2    0    0  0.00000000000E+00  0.00000000000E+00 -0.51372456515E+03  0.71644183078E+03  0.49937557816E+03 0.  0.
        4    1    3    3  502    0  0.13038360544E+02  0.22373106132E+03 -0.98938524474E+02  0.24498169558E+03  0.12699999809E+01 0.  1.
       -4    1    3    3    0  502 -0.13038360544E+02 -0.22373106132E+03 -0.41478604067E+03  0.47146013520E+03  0.12699999809E+01 0. -1.
</event>
<event>
 5   0  0.1984297E-01  0.5054871E+03  0.7818609E-02  0.1012357E+00
       -1   -1    0    0    0  501  0.00000000000E+00  0.00000000000E+00  0.11731905387E+03  0.11731905398E+03  0.50400001928E-02 0.  1.
        1   -1    0    0  501    0  0.00000000000E+00  0.00000000000E+00 -0.54449215348E+03  0.54449215350E+03  0.50400001928E-02 0. -1.
    10030    2    1    2    0    0  0.00000000000E+00  0.00000000000E+00 -0.42717309961E+03  0.66181120748E+03  0.50548710895E+03 0.  0.
        3    1    3    3  502    0  0.10310333650E+03 -0.19694084940E+03 -0.56131099017E+02  0.22927430436E+03  0.10100000352E+00 0.  1.
       -3    1    3    3    0  502 -0.10310333650E+03  0.19694084940E+03 -0.37104200059E+03  0.43253690312E+03  0.10100000352E+00 0. -1.
</event>
<event>
 5   0  0.1292375E-01  0.4890941E+03  0.7818609E-02  0.1016665E+00
        3   -1    0    0  501    0  0.00000000000E+00  0.00000000000E+00  0.16480483819E+04  0.16480483850E+04  0.10100000352E+00 0.  1.
       -3   -1    0    0    0  501  0.00000000000E+00  0.00000000000E+00 -0.36287251358E+02  0.36287391916E+02  0.10100000352E+00 0. -1.
    10030    2    1    2    0    0  0.00000000000E+00  0.00000000000E+00  0.16117611306E+04  0.16843357769E+04  0.48909412945E+03 0.  0.
        4    1    3    3  502    0 -0.75374037119E+02  0.23122323471E+03  0.71766152009E+03  0.75775002478E+03  0.12699999809E+01 0.  1.
       -4    1    3    3    0  502  0.75374037119E+02 -0.23122323471E+03  0.89409961047E+03  0.92658575215E+03  0.12699999809E+01 0. -1.
</event>
<event>
 5   0  0.1984297E-01  0.4917775E+03  0.7818609E-02  0.1015948E+00
       -1   -1    0    0    0  501  0.00000000000E+00  0.00000000000E+00  0.48499404527E+03  0.48499404530E+03  0.50400001928E-02 0.  1.
        1   -1    0    0  501    0  0.00000000000E+00  0.00000000000E+00 -0.12466397221E+03  0.12466397231E+03  0.50400001928E-02 0. -1.
    10030    2    1    2    0    0  0.00000000000E+00  0.00000000000E+00  0.36033007306E+03  0.60965801761E+03  0.49177752784E+03 0.  0.
        3    1    3    3  502    0 -0.22124012850E+03  0.47335058434E+02  0.29954701941E+03  0.37538810484E+03  0.10100000352E+00 0.  1.
       -3    1    3    3    0  502  0.22124012850E+03 -0.47335058434E+02  0.60783053647E+02  0.23426991277E+03  0.10100000352E+00 0. -1.
</event>
<event>
 5   0  0.3329246E-01  0.4940279E+03  0.7818609E-02  0.1015350E+00
       -2   -1    0    0    0  501  0.00000000000E+00  0.00000000000E+00  0.13486309237E+03  0.13486309239E+03  0.25500000920E-02 0.  1.
        2   -1    0    0  501    0  0.00000000000E+00  0.00000000000E+00 -0.45242833292E+03  0.45242833293E+03  0.25500000920E-02 0. -1.
    10030    2    1    2    0    0  0.00000000000E+00  0.00000000000E+00 -0.31756524056E+03  0.58729142532E+03  0.49402786991E+03 0.  0.
        2    1    3    3  502    0  0.17610972574E+03  0.15639828832E+03 -0.24727164051E+03  0.34149425222E+03  0.25500000920E-02 0. -1.
       -2    1    3    3    0  502 -0.17610972574E+03 -0.15639828832E+03 -0.70293600050E+02  0.24579717310E+03  0.25500000920E-02 0.  1.
</event>
<event>
 5   0  0.1292375E-01  0.5048465E+03  0.7818609E-02  0.1012522E+00
       -4   -1    0    0    0  501  0.00000000000E+00  0.00000000000E+00  0.16324962565E+03  0.16325456556E+03  0.12699999809E+01 0.  1.
        4   -1    0    0  501    0  0.00000000000E+00  0.00000000000E+00 -0.39029535128E+03  0.39029741753E+03  0.12699999809E+01 0. -1.
    10030    2    1    2    0    0  0.00000000000E+00  0.00000000000E+00 -0.22704572563E+03  0.55355198309E+03  0.50484654744E+03 0.  0.
        5    1    3    3  502    0  0.20368825977E+03  0.10135982652E+03  0.62527320133E+01  0.22764865090E+03  0.46999998093E+01 0.  1.
       -5    1    3    3    0  502 -0.20368825977E+03 -0.10135982652E+03 -0.23329845764E+03  0.32590333220E+03  0.46999998093E+01 0. -1.
</event>
<event>
 5   0  0.2000612E-01  0.5188260E+03  0.7818609E-02  0.1008979E+00
        1   -1    0    0  501    0  0.00000000000E+00  0.00000000000E+00  0.42805681641E+03  0.42805681644E+03  0.50400001928E-02 0. -1.
       -1   -1    0    0    0  501  0.00000000000E+00  0.00000000000E+00 -0.15721066503E+03  0.15721066511E+03  0.50400001928E-02 0.  1.
    10030    2    1    2    0    0  0.00000000000E+00  0.00000000000E+00  0.27084615138E+03  0.58526748155E+03  0.51882597010E+03 0.  0.
        2    1    3    3  502    0  0.83472344531E+02  0.16731175770E+02  0.41184995442E+03  0.42055671378E+03  0.25500000920E-02 0. -1.
       -2    1    3    3    0  502 -0.83472344531E+02 -0.16731175770E+02 -0.14100380304E+03  0.16471076778E+03  0.25500000920E-02 0.  1.
</event>
<event>
 5   0  0.1967161E-01  0.4353930E+03  0.7818609E-02  0.1032170E+00
       -1   -1    0    0    0  501  0.00000000000E+00  0.00000000000E+00  0.50312731735E+02  0.50312731987E+02  0.50400001928E-02 0. -1.
        1   -1    0    0  501    0  0.00000000000E+00  0.00000000000E+00 -0.94194387156E+03  0.94194387157E+03  0.50400001928E-02 0.  1.
    10030    2    1    2    0    0  0.00000000000E+00  0.00000000000E+00 -0.89163113982E+03  0.99225660356E+03  0.43539301534E+03 0.  0.
        1    1    3    3  502    0  0.10856061908E+02  0.21697078806E+03 -0.41378034783E+03  0.46734179487E+03  0.50400001928E-02 0. -1.
       -1    1    3    3    0  502 -0.10856061908E+02 -0.21697078806E+03 -0.47785079199E+03  0.52491480869E+03  0.50400001928E-02 0.  1.
</event>
<event>
 5   0  0.3329246E-01  0.5018321E+03  0.7818609E-02  0.1013302E+00
        2   -1    0    0  501    0  0.00000000000E+00  0.00000000000E+00  0.99871615149E+03  0.99871615149E+03  0.25500000920E-02 0. -1.
       -2   -1    0    0    0  501  0.00000000000E+00  0.00000000000E+00 -0.63039805323E+02  0.63039805375E+02  0.25500000920E-02 0.  1.
    10030    2    1    2    0    0  0.00000000000E+00  0.00000000000E+00  0.93567634616E+03  0.10617559569E+04  0.50183213047E+03 0.  0.
        2    1    3    3  502    0 -0.14741732081E+03 -0.11355820354E+03  0.82396224532E+03  0.84471362827E+03  0.25500000920E-02 0.  1.
       -2    1    3    3    0  502  0.14741732081E+03  0.11355820354E+03  0.11171410084E+03  0.21704232859E+03  0.25500000920E-02 0. -1.
</event>
<event>
 5   0  0.3117389E-01  0.4993055E+03  0.7818609E-02  0.1013960E+00
        2   -1    0    0  501    0  0.00000000000E+00  0.00000000000E+00  0.10891567615E+04  0.10891567615E+04  0.25500000920E-02 0.  1.
       -2   -1    0    0    0  501  0.00000000000E+00  0.00000000000E+00 -0.57224540070E+02  0.57224540126E+02  0.25500000920E-02 0. -1.
    10030    2    1    2    0    0  0.00000000000E+00  0.00000000000E+00  0.10319322214E+04  0.11463813016E+04  0.49930549676E+03 0.  0.
        4    1    3    3  502    0 -0.20672189382E+03 -0.13880254135E+03  0.47458830876E+03  0.53594380543E+03  0.12699999809E+01 0.  1.
       -4    1    3    3    0  502  0.20672189382E+03  0.13880254135E+03  0.55734391265E+03  0.61043749617E+03  0.12699999809E+01 0. -1.
</event>
<event>
 5   0  0.1967161E-01  0.5100124E+03  0.7818609E-02  0.1011198E+00
       -1   -1    0    0    0  501  0.00000000000E+00  0.00000000000E+00  0.46732860007E+02  0.46732860279E+02  0.50400001928E-02 0.  1.
        1   -1    0    0  501    0  0.00000000000E+00  0.00000000000E+00 -0.13914871439E+04  0.13914871439E+04  0.50400001928E-02 0. -1.
    10030    2    1    2    0    0  0.00000000000E+00  0.00000000000E+00 -0.13447542839E+04  0.14382200042E+04  0.51001244729E+03 0.  0.
        1    1    3    3  502    0 -0.17564142257E+03 -0.53242921451E+02 -0.17312723743E+03  0.25230489170E+03  0.50400001928E-02 0. -1.
       -1    1    3    3    0  502  0.17564142257E+03  0.53242921451E+02 -0.11716270464E+04  0.11859151125E+04  0.50400001928E-02 0.  1.
</event>
<event>
 5   0  0.3111146E-01  0.4682107E+03  0.7818609E-02  0.1022426E+00
        2   -1    0    0  501    0  0.00000000000E+00  0.00000000000E+00  0.13741269559E+03  0.13741269562E+03  0.25500000920E-02 0.  1.
       -2   -1    0    0    0  501  0.00000000000E+00  0.00000000000E+00 -0.39883730454E+03  0.39883730454E+03  0.25500000920E-02 0. -1.
    10030    2    1    2    0    0  0.00000000000E+00  0.00000000000E+00 -0.26142460894E+03  0.53625000016E+03  0.46821067535E+03 0.  0.
        1    1    3    3  502    0 -0.97183374609E+02  0.99351803310E+02  0.85051456595E+02  0.16293906657E+03  0.50400001928E-02 0.  1.
       -1    1    3    3    0  502  0.97183374609E+02 -0.99351803310E+02 -0.34647606554E+03  0.37331093359E+03  0.50400001928E-02 0. -1.
</event>
<event>
 5   0  0.2000612E-01  0.5070659E+03  0.7818609E-02  0.1011951E+00
       -1   -1    0    0    0  501  0.00000000000E+00  0.00000000000E+00  0.68792401995E+02  0.68792402180E+02  0.50400001928E-02 0.  1.
        1   -1    0    0  501    0  0.00000000000E+00  0.00000000000E+00 -0.93439027126E+03  0.93439027127E+03  0.50400001928E-02 0. -1.
    10030    2    1    2    0    0  0.00000000000E+00  0.00000000000E+00 -0.86559786926E+03  0.10031826735E+04  0.50706587840E+03 0.  0.
        2    1    3    3  502    0 -0.17213394661E+03  0.12553309748E+03 -0.16088276739E+03  0.26696801117E+03  0.25500000920E-02 0.  1.
       -2    1    3    3    0  502  0.17213394661E+03 -0.12553309748E+03 -0.70471510187E+03  0.73621466228E+03  0.25500000920E-02 0. -1.
</event>
<event>
 5   0  0.2013450E-01  0.4922130E+03  0.7818609E-02  0.1015832E+00
        1   -1    0    0  501    0  0.00000000000E+00  0.00000000000E+00  0.53835525825E+03  0.53835525827E+03  0.50400001928E-02 0.  1.
       -1   -1    0    0    0  501  0.00000000000E+00  0.00000000000E+00 -0.11250639720E+03  0.11250639732E+03  0.50400001928E-02 0. -1.
    10030    2    1    2    0    0  0.00000000000E+00  0.00000000000E+00  0.42584886104E+03  0.65086165559E+03  0.49221300497E+03 0.  0.
        4    1    3    3  502    0 -0.14651128754E+03 -0.13588051767E+03  0.22962525992E+02  0.20114164899E+03  0.12699999809E+01 0. -1.
       -4    1    3    3    0  502  0.14651128754E+03  0.13588051767E+03  0.40288633505E+03  0.44972000659E+03  0.12699999809E+01 0.  1.
</event>
<event>
 5   0  0.1967161E-01  0.5001975E+03  0.7818609E-02  0.1013727E+00
        1   -1    0    0  501    0  0.00000000000E+00  0.00000000000E+00  0.83997852296E+03  0.83997852298E+03  0.50400001928E-02 0.  1.
       -1   -1    0    0    0  501  0.00000000000E+00  0.00000000000E+00 -0.74465445136E+02  0.74465445307E+02  0.50400001928E-02 0. -1.
    10030    2    1    2    0    0  0.00000000000E+00  0.00000000000E+00  0.76551307783E+03  0.91444396829E+03  0.50019745982E+03 0.  0.
        1    1    3    3  502    0  0.13635419017E+03  0.80160871021E+02  0.28586743601E+02  0.16073404230E+03  0.50400001928E-02 0. -1.
       -1    1    3    3    0  502 -0.13635419017E+03 -0.80160871021E+02  0.73692633423E+03  0.75370992598E+03  0.50400001928E-02 0.  1.
</event>
<event>
 5   0  0.1967161E-01  0.5384795E+03  0.7818609E-02  0.1004196E+00
        1   -1    0    0  501    0  0.00000000000E+00  0.00000000000E+00  0.12092616322E+04  0.12092616322E+04  0.50400001928E-02 0. -1.
       -1   -1    0    0    0  501  0.00000000000E+00  0.00000000000E+00 -0.59945715189E+02  0.59945715401E+02  0.50400001928E-02 0.  1.
    10030    2    1    2    0    0  0.00000000000E+00  0.00000000000E+00  0.11493159170E+04  0.12692073476E+04  0.53847953920E+03 0.  0.
        1    1    3    3  502    0  0.13847720753E+03  0.16262453761E+02  0.11175389425E+04  0.11262032199E+04  0.50400001928E-02 0. -1.
       -1    1    3    3    0  502 -0.13847720753E+03 -0.16262453761E+02  0.31776974472E+02  0.14300412771E+03  0.50400001928E-02 0.  1.
</event>
<event>
 5   0  0.1967161E-01  0.5201710E+03  0.7818609E-02  0.1008644E+00
        1   -1    0    0  501    0  0.00000000000E+00  0.00000000000E+00  0.14457806088E+04  0.14457806088E+04  0.50400001928E-02 0.  1.
       -1   -1    0    0    0  501  0.00000000000E+00  0.00000000000E+00 -0.46787505399E+02  0.46787505671E+02  0.50400001928E-02 0. -1.
    10030    2    1    2    0    0  0.00000000000E+00  0.00000000000E+00  0.13989931034E+04  0.14925681145E+04  0.52017100361E+03 0.  0.
        1    1    3    3  502    0 -0.19075386182E+03  0.77315754228E+02  0.24327685156E+03  0.31866657839E+03  0.50400001928E-02 0. -1.
       -1    1    3    3    0  502  0.19075386182E+03 -0.77315754228E+02  0.11557162518E+04  0.11739015361E+04  0.50400001928E-02 0.  1.
</event>
<event>
 5   0  0.1292375E-01  0.4920638E+03  0.7818609E-02  0.1015871E+00
        3   -1    0    0  501    0  0.00000000000E+00  0.00000000000E+00  0.61299065116E+03  0.61299065948E+03  0.10100000352E+00 0. -1.
       -3   -1    0    0    0  501  0.00000000000E+00  0.00000000000E+00 -0.98748136153E+02  0.98748187805E+02  0.10100000352E+00 0.  1.
    10030    2    1    2    0    0  0.00000000000E+00  0.00000000000E+00  0.51424251501E+03  0.71173884729E+03  0.49206383986E+03 0.  0.
        3    1    3    3  502    0 -0.99437882097E+02  0.17321789113E+03  0.49320375144E+02  0.20573001679E+03  0.10100000352E+00 0.  1.
       -3    1    3    3    0  502  0.99437882097E+02 -0.17321789113E+03  0.46492213987E+03  0.50600883050E+03  0.10100000352E+00 0. -1.
</event>
<event>
 5   0  0.2000612E-01  0.5131122E+03  0.7818609E-02  0.1010412E+00
       -1   -1    0    0    0  501  0.00000000000E+00  0.00000000000E+00  0.13965861921E+03  0.13965861930E+03  0.50400001928E-02 0.  1.
        1   -1    0    0  501    0  0.00000000000E+00  0.00000000000E+00 -0.47129949631E+03  0.47129949634E+03  0.50400001928E-02 0. -1.
    10030    2    1    2    0    0  0.00000000000E+00  0.00000000000E+00 -0.33164087710E+03  0.61095811564E+03  0.51311221746E+03 0.  0.
        2    1    3    3  502    0  0.11999427203E+03 -0.20177967360E+03 -0.28902891506E+03  0.37235920258E+03  0.25500000920E-02 0. -1.
       -2    1    3    3    0  502 -0.11999427203E+03  0.20177967360E+03 -0.42611962045E+02  0.23859891306E+03  0.25500000920E-02 0.  1.
</event>
<event>
 5   0  0.2013450E-01  0.4896153E+03  0.7818609E-02  0.1016526E+00
        1   -1    0    0  501    0  0.00000000000E+00  0.00000000000E+00  0.12848512754E+03  0.12848512764E+03  0.50400001928E-02 0.  1.
       -1   -1    0    0    0  501  0.00000000000E+00  0.00000000000E+00 -0.46644140551E+03  0.46644140554E+03  0.50400001928E-02 0. -1.
    10030    2    1    2    0    0  0.00000000000E+00  0.00000000000E+00 -0.33795627797E+03  0.59492653318E+03  0.48961529190E+03 0.  0.
        4    1    3    3  502    0 -0.93183928928E+02 -0.22612726000E+03 -0.18185971197E+03  0.30478082299E+03  0.12699999809E+01 0.  1.
       -4    1    3    3    0  502  0.93183928928E+02  0.22612726000E+03 -0.15609656600E+03  0.29014571019E+03  0.12699999809E+01 0. -1.
</event>
<event>
 5   0  0.3329246E-01  0.4939182E+03  0.7818609E-02  0.1015379E+00
       -2   -1    0    0    0  501  0.00000000000E+00  0.00000000000E+00  0.13157409676E+03  0.13157409678E+03  0.25500000920E-02 0. -1.
        2   -1    0    0  501    0  0.00000000000E+00  0.00000000000E+00 -0.46353185894E+03  0.46353185894E+03  0.25500000920E-02 0.  1.
    10030    2    1    2    0    0  0.00000000000E+00  0.00000000000E+00 -0.33195776218E+03  0.59510595573E+03  0.49391815382E+03 0.  0.
        2    1    3    3  502    0  0.18136196831E+03 -0.62653455620E+02  0.21342828961E+02  0.19306251683E+03  0.25500000920E-02 0. -1.
       -2    1    3    3    0  502 -0.18136196831E+03  0.62653455620E+02 -0.35330059114E+03  0.40204343889E+03  0.25500000920E-02 0.  1.
</event>
<event>
 5   0  0.1292375E-01  0.4957950E+03  0.7818609E-02  0.1014882E+00
       -4   -1    0    0    0  501  0.00000000000E+00  0.00000000000E+00  0.54987572131E+03  0.54987718791E+03  0.12699999809E+01 0. -1.
        4   -1    0    0  501    0  0.00000000000E+00  0.00000000000E+00 -0.11175304657E+03  0.11176026270E+03  0.12699999809E+01 0.  1.
    10030    2    1    2    0    0  0.00000000000E+00  0.00000000000E+00  0.43812267473E+03  0.66163745061E+03  0.49579495554E+03 0.  0.
        3    1    3    3  502    0  0.17180082904E+03  0.89829407650E+02  0.12889786662E+02  0.19429617634E+03  0.10100000352E+00 0.  1.
       -3    1    3    3    0  502 -0.17180082904E+03 -0.89829407650E+02  0.42523288807E+03  0.46734127427E+03  0.10100000352E+00 0. -1.
</event>
<event>
 5   0  0.1984680E-01  0.4930279E+03  0.7818609E-02  0.1015615E+00
        1   -1    0    0  501    0  0.00000000000E+00  0.00000000000E+00  0.28525656090E+03  0.28525656095E+03  0.50400001928E-02 0. -1.
       -1   -1    0    0    0  501  0.00000000000E+00  0.00000000000E+00 -0.21303323412E+03  0.21303323418E+03  0.50400001928E-02 0.  1.
    10030    2    1    2    0    0  0.00000000000E+00  0.00000000000E+00  0.72223326782E+02  0.49828979513E+03  0.49302790083E+03 0.  0.
        5    1    3    3  502    0 -0.80452145067E+01 -0.63370605028E+02 -0.20447614111E+03  0.21427351992E+03  0.46999998093E+01 0.  1.
       -5    1    3    3    0  502  0.80452145067E+01  0.63370605028E+02  0.27669946789E+03  0.28401627521E+03  0.46999998093E+01 0. -1.
</event>
<event>
 5   0  0.3111146E-01  0.5406190E+03  0.7818609E-02  0.1003689E+00
       -2   -1    0    0    0  501  0.00000000000E+00  0.00000000000E+00  0.15516335716E+03  0.15516335718E+03  0.25500000920E-02 0. -1.
        2   -1    0    0  501    0  0.00000000000E+00  0.00000000000E+00 -0.47090524700E+03  0.47090524701E+03  0.25500000920E-02 0.  1.
    10030    2    1    2    0    0  0.00000000000E+00  0.00000000000E+00 -0.31574188984E+03  0.62606860419E+03  0.54061904900E+03 0.  0.
        1    1    3    3  502    0 -0.24939059622E+03 -0.62150588268E+02 -0.60919406536E+02  0.26413924211E+03  0.50400001928E-02 0. -1.
       -1    1    3    3    0  502  0.24939059622E+03  0.62150588268E+02 -0.25482248331E+03  0.36192936207E+03  0.50400001928E-02 0.  1.
</event>
<event>
 5   0  0.3111146E-01  0.5015640E+03  0.7818609E-02  0.1013371E+00
       -2   -1    0    0    0  501  0.00000000000E+00  0.00000000000E+00  0.24361697148E+03  0.24361697149E+03  0.25500000920E-02 0.  1.
        2   -1    0    0  501    0  0.00000000000E+00  0.00000000000E+00 -0.25815777215E+03  0.25815777216E+03  0.25500000920E-02 0. -1.
    10030    2    1    2    0    0  0.00000000000E+00  0.00000000000E+00 -0.14540800669E+02  0.50177474366E+03  0.50156401235E+03 0.  0.
        1    1    3    3  502    0  0.10104582423E+03 -0.14406910473E+02 -0.23643824223E+03  0.25752836752E+03  0.50400001928E-02 0. -1.
       -1    1    3    3    0  502 -0.10104582423E+03  0.14406910473E+02  0.22189744156E+03  0.24424637614E+03  0.50400001928E-02 0.  1.
</event>
<event>
 5   0  0.3329246E-01  0.5322454E+03  0.7818609E-02  0.1005689E+00
       -2   -1    0    0    0  501  0.00000000000E+00  0.00000000000E+00  0.15332076509E+03  0.15332076511E+03  0.25500000920E-02 0.  1.
        2   -1    0    0  501    0  0.00000000000E+00  0.00000000000E+00 -0.46191576658E+03  0.46191576658E+03  0.25500000920E-02 0. -1.
    10030    2    1    2    0    0  0.00000000000E+00  0.00000000000E+00 -0.30859500149E+03  0.61523653169E+03  0.53224535224E+03 0.  0.
        2    1    3    3  502    0  0.24406275512E+03 -0.53697918169E+02 -0.26005804535E+03  0.36066644121E+03  0.25500000920E-02 0. -1.
       -2    1    3    3    0  502 -0.24406275512E+03  0.53697918169E+02 -0.48536956136E+02  0.25457009049E+03  0.25500000920E-02 0.  1.
</event>
<event>
 5   0  0.3187123E-01  0.5051075E+03  0.7818609E-02  0.1012454E+00
       -2   -1    0    0    0  501  0.00000000000E+00  0.00000000000E+00  0.92242100357E+02  0.92242100393E+02  0.25500000920E-02 0.  1.
        2   -1    0    0  501    0  0.00000000000E+00  0.00000000000E+00 -0.69147806251E+03  0.69147806252E+03  0.25500000920E-02 0. -1.
    10030    2    1    2    0    0  0.00000000000E+00  0.00000000000E+00 -0.59923596215E+03  0.78372016291E+03  0.50510746917E+03 0.  0.
        5    1    3    3  502    0 -0.21866114104E+02 -0.22377355798E+03 -0.47794004232E+03  0.52820593167E+03  0.46999998093E+01 0. -1.
       -5    1    3    3    0  502  0.21866114104E+02  0.22377355798E+03 -0.12129591983E+03  0.25551423124E+03  0.46999998093E+01 0.  1.
</event>
<event>
 5   0  0.2000612E-01  0.4988016E+03  0.7818609E-02  0.1014092E+00
        1   -1    0    0  501    0  0.00000000000E+00  0.00000000000E+00  0.63050580793E+03  0.63050580795E+03  0.50400001928E-02 0. -1.
       -1   -1    0    0    0  501  0.00000000000E+00  0.00000000000E+00 -0.98652155413E+02  0.98652155542E+02  0.50400001928E-02 0.  1.
    10030    2    1    2    0    0  0.00000000000E+00  0.00000000000E+00  0.53185365252E+03  0.72915796350E+03  0.49880159185E+03 0.  0.
        2    1    3    3  502    0 -0.12041224357E+03 -0.21396357525E+03  0.20185246714E+03  0.31784263155E+03  0.25500000920E-02 0. -1.
       -2    1    3    3    0  502  0.12041224357E+03  0.21396357525E+03  0.33000118538E+03  0.41131533195E+03  0.25500000920E-02 0.  1.
</event>
<event>
 5   0  0.3111146E-01  0.5554266E+03  0.7818609E-02  0.1000246E+00
       -2   -1    0    0    0  501  0.00000000000E+00  0.00000000000E+00  0.67682719227E+02  0.67682719275E+02  0.25500000920E-02 0. -1.
        2   -1    0    0  501    0  0.00000000000E+00  0.00000000000E+00 -0.11395032647E+04  0.11395032647E+04  0.25500000920E-02 0.  1.
    10030    2    1    2    0    0  0.00000000000E+00  0.00000000000E+00 -0.10718205455E+04  0.12071859840E+04  0.55542660921E+03 0.  0.
        1    1    3    3  502    0 -0.17148876098E+03 -0.22904060689E+02 -0.63759983351E+02  0.18438635156E+03  0.50400001928E-02 0. -1.
       -1    1    3    3    0  502  0.17148876098E+03  0.22904060689E+02 -0.10080605621E+04  0.10227996324E+04  0.50400001928E-02 0.  1.
</event>
<event>
 5   0  0.1967161E-01  0.5092569E+03  0.7818609E-02  0.1011391E+00
        1   -1    0    0  501    0  0.00000000000E+00  0.00000000000E+00  0.42362529344E+03  0.42362529347E+03  0.50400001928E-02 0.  1.
       -1   -1    0    0    0  501  0.00000000000E+00  0.00000000000E+00 -0.15304952328E+03  0.15304952336E+03  0.50400001928E-02 0. -1.
    10030    2    1    2    0    0  0.00000000000E+00  0.00000000000E+00  0.27057577017E+03  0.57667481683E+03  0.50925690665E+03 0.  0.
        1    1    3    3  502    0  0.12631392990E+03  0.19825155124E+03  0.24471641835E+02  0.23634243744E+03  0.50400001928E-02 0.  1.
       -1    1    3    3    0  502 -0.12631392990E+03 -0.19825155124E+03  0.24610412833E+03  0.34033237939E+03  0.50400001928E-02 0. -1.
</event>
<event>
 5   0  0.1292375E-01  0.5003613E+03  0.7818609E-02  0.1013685E+00
        4   -1    0    0  501    0  0.00000000000E+00  0.00000000000E+00  0.56682545991E+03  0.56682688265E+03  0.12699999809E+01 0. -1.
       -4   -1    0    0    0  501  0.00000000000E+00  0.00000000000E+00 -0.11041740672E+03  0.11042471013E+03  0.12699999809E+01 0.  1.
    10030    2    1    2    0    0  0.00000000000E+00  0.00000000000E+00  0.45640805318E+03  0.67725159278E+03  0.50036127839E+03 0.  0.
        1    1    3    3  502    0 -0.74115229073E+02 -0.23885104971E+03  0.23752873191E+03  0.34490982827E+03  0.50400001928E-02 0.  1.
       -1    1    3    3    0  502  0.74115229073E+02  0.23885104971E+03  0.21887932128E+03  0.33234176451E+03  0.50400001928E-02 0. -1.
</event>
<event>
 5   0  0.1292375E-01  0.4887405E+03  0.7818609E-02  0.1016760E+00
        3   -1    0    0  501    0  0.00000000000E+00  0.00000000000E+00  0.30605898913E+03  0.30605900579E+03  0.10100000352E+00 0. -1.
       -3   -1    0    0    0  501  0.00000000000E+00  0.00000000000E+00 -0.19511538825E+03  0.19511541439E+03  0.10100000352E+00 0.  1.
    10030    2    1    2    0    0  0.00000000000E+00  0.00000000000E+00  0.11094360088E+03  0.50117442018E+03  0.48874054146E+03 0.  0.
        5    1    3    3  502    0 -0.21297752375E+03 -0.78419098174E+02  0.14824873064E+03  0.27112498357E+03  0.46999998093E+01 0. -1.
       -5    1    3    3    0  502  0.21297752375E+03  0.78419098174E+02 -0.37305129763E+02  0.23004943661E+03  0.46999998093E+01 0.  1.
</event>
<event>
 5   0  0.1967161E-01  0.4917128E+03  0.7818609E-02  0.1015965E+00
       -1   -1    0    0    0  501  0.00000000000E+00  0.00000000000E+00  0.22948998112E+03  0.22948998118E+03  0.50400001928E-02 0.  1.
        1   -1    0    0  501    0  0.00000000000E+00  0.00000000000E+00 -0.26339000826E+03  0.26339000831E+03  0.50400001928E-02 0. -1.
    10030    2    1    2    0    0  0.00000000000E+00  0.00000000000E+00 -0.33900027137E+02  0.49287998949E+03  0.49171279442E+03 0.  0.
        1    1    3    3  502    0 -0.16316787341E+03  0.80929810234E+01  0.16721448630E+03  0.23377325705E+03  0.50400001928E-02 0.  1.
       -1    1    3    3    0  502  0.16316787341E+03 -0.80929810234E+01 -0.20111451344E+03  0.25910673244E+03  0.50400001928E-02 0. -1.
</event>
<event>
 5   0  0.1984680E-01  0.4855256E+03  0.7818609E-02  0.1017628E+00
       -1   -1    0    0    0  501  0.00000000000E+00  0.00000000000E+00  0.50920232745E+03  0.50920232748E+03  0.50400001928E-02 0.  1.
        1   -1    0    0  501    0  0.00000000000E+00  0.00000000000E+00 -0.11573744691E+03  0.11573744702E+03  0.50400001928E-02 0. -1.
    10030    2    1    2    0    0  0.00000000000E+00  0.00000000000E+00  0.39346488054E+03  0.62493977449E+03  0.48552560130E+03 0.  0.
        5    1    3    3  502    0  0.16875522794E+03 -0.67127201191E+01  0.42110990307E+03  0.45373894260E+03  0.46999998093E+01 0.  1.
       -5    1    3    3    0  502 -0.16875522794E+03  0.67127201191E+01 -0.27645022530E+02  0.17120083189E+03  0.46999998093E+01 0. -1.
</event>
<event>
 5   0  0.1292375E-01  0.5176913E+03  0.7818609E-02  0.1009262E+00
       -4   -1    0    0    0  501  0.00000000000E+00  0.00000000000E+00  0.13635952759E+03  0.13636544160E+03  0.12699999809E+01 0. -1.
        4   -1    0    0  501    0  0.00000000000E+00  0.00000000000E+00 -0.49133865788E+03  0.49134029921E+03  0.12699999809E+01 0.  1.
    10030    2    1    2    0    0  0.00000000000E+00  0.00000000000E+00 -0.35497913029E+03  0.62770574081E+03  0.51769133092E+03 0.  0.
        1    1    3    3  502    0 -0.70066992239E+02  0.20238295450E+03 -0.35375375427E+03  0.41353350815E+03  0.50400001928E-02 0.  1.
       -1    1    3    3    0  502  0.70066992239E+02 -0.20238295450E+03 -0.12253760169E+01  0.21417223266E+03  0.50400001928E-02 0. -1.
</event>
<event>
 5   0  0.3111146E-01  0.3943308E+03  0.7818609E-02  0.1045761E+00
        2   -1    0    0  501    0  0.00000000000E+00  0.00000000000E+00  0.41873438646E+02  0.41873438724E+02  0.25500000920E-02 0. -1.
       -2   -1    0    0    0  501  0.00000000000E+00  0.00000000000E+00 -0.92837381127E+03  0.92837381128E+03  0.25500000920E-02 0.  1.
    10030    2    1    2    0    0  0.00000000000E+00  0.00000000000E+00 -0.88650037263E+03  0.97024725000E+03  0.39433084519E+03 0.  0.
        1    1    3    3  502    0  0.11610669077E+03  0.13192625880E+03 -0.66317044094E+03  0.68606146603E+03  0.50400001928E-02 0.  1.
       -1    1    3    3    0  502 -0.11610669077E+03 -0.13192625880E+03 -0.22332993169E+03  0.28418578397E+03  0.50400001928E-02 0. -1.
</event>
<event>
 5   0  0.3178149E-01  0.5026952E+03  0.7818609E-02  0.1013078E+00
       -2   -1    0    0    0  501  0.00000000000E+00  0.00000000000E+00  0.46986875319E+02  0.46986875389E+02  0.25500000920E-02 0.  1.
        2   -1    0    0  501    0  0.00000000000E+00  0.00000000000E+00 -0.13445374812E+04  0.13445374812E+04  0.25500000920E-02 0. -1.
    10030    2    1    2    0    0  0.00000000000E+00  0.00000000000E+00 -0.12975506058E+04  0.13915243565E+04  0.50269519607E+03 0.  0.
        3    1    3    3  502    0 -0.19139092899E+03 -0.67075039801E+02 -0.23776611325E+03  0.31250965341E+03  0.10100000352E+00 0.  1.
       -3    1    3    3    0  502  0.19139092899E+03  0.67075039801E+02 -0.10597844926E+04  0.10790147031E+04  0.10100000352E+00 0. -1.
</event>
<event>
 5   0  0.1967161E-01  0.5023366E+03  0.7818609E-02  0.1013171E+00
        1   -1    0    0  501    0  0.00000000000E+00  0.00000000000E+00  0.81803122800E+03  0.81803122801E+03  0.50400001928E-02 0. -1.
       -1   -1    0    0    0  501  0.00000000000E+00  0.00000000000E+00 -0.77118703905E+02  0.77118704070E+02  0.50400001928E-02 0.  1.
    10030    2    1    2    0    0  0.00000000000E+00  0.00000000000E+00  0.74091252409E+03  0.89514993208E+03  0.50233657298E+03 0.  0.
        1    1    3    3  502    0  0.92796213122E+02 -0.19766470704E+03  0.59161501333E+03  0.63062730484E+03  0.50400001928E-02 0. -1.
       -1    1    3    3    0  502 -0.92796213122E+02  0.19766470704E+03  0.14929751076E+03  0.26452262725E+03  0.50400001928E-02 0.  1.
</event>
<event>
 5   0  0.2000612E-01  0.5395416E+03  0.7818609E-02  0.1003944E+00
       -1   -1    0    0    0  501  0.00000000000E+00  0.00000000000E+00  0.64439375358E+02  0.64439375555E+02  0.50400001928E-02 0.  1.
        1   -1    0    0  501    0  0.00000000000E+00  0.00000000000E+00 -0.11293760728E+04  0.11293760728E+04  0.50400001928E-02 0. -1.
    10030    2    1    2    0    0  0.00000000000E+00  0.00000000000E+00 -0.10649366974E+04  0.11938154483E+04  0.53954161581E+03 0.  0.
        2    1    3    3  502    0  0.12613148027E+03  0.22456051045E+03 -0.35490816285E+03  0.43851610829E+03  0.25500000920E-02 0.  1.
       -2    1    3    3    0  502 -0.12613148027E+03 -0.22456051045E+03 -0.71002853456E+03  0.75529934004E+03  0.25500000920E-02 0. -1.
</event>
<event>
 5   0  0.1292375E-01  0.4938548E+03  0.7818609E-02  0.1015395E+00
        3   -1    0    0  501    0  0.00000000000E+00  0.00000000000E+00  0.80194180362E+02  0.80194243964E+02  0.10100000352E+00 0. -1.
       -3   -1    0    0    0  501  0.00000000000E+00  0.00000000000E+00 -0.76031833980E+03  0.76031834651E+03  0.10100000352E+00 0.  1.
    10030    2    1    2    0    0  0.00000000000E+00  0.00000000000E+00 -0.68012415944E+03  0.84051259048E+03  0.49385477875E+03 0.  0.
        2    1    3    3  502    0 -0.18850920669E+03  0.71754127747E+02 -0.97639698595E+02  0.22409347738E+03  0.25500000920E-02 0. -1.
       -2    1    3    3    0  502  0.18850920669E+03 -0.71754127747E+02 -0.58248446085E+03  0.61641911310E+03  0.25500000920E-02 0.  1.
</event>
<event>
 5   0  0.2013450E-01  0.4934874E+03  0.7818609E-02  0.1015493E+00
        1   -1    0    0  501    0  0.00000000000E+00  0.00000000000E+00  0.18523444942E+03  0.18523444949E+03  0.50400001928E-02 0. -1.
       -1   -1    0    0    0  501  0.00000000000E+00  0.00000000000E+00 -0.32867787658E+03  0.32867787661E+03  0.50400001928E-02 0.  1.
    10030    2    1    2    0    0  0.00000000000E+00  0.00000000000E+00 -0.14344342715E+03  0.51391232611E+03  0.49348744881E+03 0.  0.
        4    1    3    3  502    0  0.14642370706E+03  0.29655059468E+02  0.13277674584E+03  0.19987646604E+03  0.12699999809E+01 0. -1.
       -4    1    3    3    0  502 -0.14642370706E+03 -0.29655059468E+02 -0.27622017299E+03  0.31403586007E+03  0.12699999809E+01 0.  1.
</event>
<event>
 5   0  0.2000612E-01  0.4947480E+03  0.7818609E-02  0.1015159E+00
        1   -1    0    0  501    0  0.00000000000E+00  0.00000000000E+00  0.92048498571E+03  0.92048498572E+03  0.50400001928E-02 0.  1.
       -1   -1    0    0    0  501  0.00000000000E+00  0.00000000000E+00 -0.66480050204E+02  0.66480050396E+02  0.50400001928E-02 0. -1.
    10030    2    1    2    0    0  0.00000000000E+00  0.00000000000E+00  0.85400493550E+03  0.98696503612E+03  0.49474796882E+03 0.  0.
        2    1    3    3  502    0  0.17426292507E+03 -0.17525330104E+03  0.44817096270E+03  0.51179927549E+03  0.25500000920E-02 0.  1.
       -2    1    3    3    0  502 -0.17426292507E+03  0.17525330104E+03  0.40583397281E+03  0.47516576063E+03  0.25500000920E-02 0. -1.
</event>
<event>
 5   0  0.1984297E-01  0.5102875E+03  0.7818609E-02  0.1011128E+00
        1   -1    0    0  501    0  0.00000000000E+00  0.00000000000E+00  0.48306121792E+03  0.48306121795E+03  0.50400001928E-02 0. -1.
       -1   -1    0    0    0  501  0.00000000000E+00  0.00000000000E+00 -0.13476208571E+03  0.13476208580E+03  0.50400001928E-02 0.  1.
    10030    2    1    2    0    0  0.00000000000E+00  0.00000000000E+00  0.34829913221E+03  0.61782330375E+03  0.51028751617E+03 0.  0.
        3    1    3    3  502    0  0.23861495291E+02 -0.16903585403E+02 -0.13272649324E+03  0.13590965516E+03  0.10100000352E+00 0.  1.
       -3    1    3    3    0  502 -0.23861495291E+02  0.16903585403E+02  0.48102562545E+03  0.48191364859E+03  0.10100000352E+00 0. -1.
</event>
<event>
 5   0  0.3111146E-01  0.4810057E+03  0.7818609E-02  0.1018859E+00
        2   -1    0    0  501    0  0.00000000000E+00  0.00000000000E+00  0.19040907986E+04  0.19040907986E+04  0.25500000920E-02 0.  1.
       -2   -1    0    0    0  501  0.00000000000E+00  0.00000000000E+00 -0.30377552194E+02  0.30377552301E+02  0.25500000920E-02 0. -1.
    10030    2    1    2    0    0  0.00000000000E+00  0.00000000000E+00  0.18737132464E+04  0.19344683509E+04  0.48100568697E+03 0.  0.
        1    1    3    3  502    0 -0.17241490836E+03 -0.11284382643E+03  0.43808293735E+03  0.48412528318E+03  0.50400001928E-02 0. -1.
       -1    1    3    3    0  502  0.17241490836E+03  0.11284382643E+03  0.14356303091E+04  0.14503430678E+04  0.50400001928E-02 0.  1.
</event>
<event>
 5   0  0.1984680E-01  0.5403864E+03  0.7818609E-02  0.1003744E+00
        1   -1    0    0  501    0  0.00000000000E+00  0.00000000000E+00  0.23025058500E+03  0.23025058506E+03  0.50400001928E-02 0.  1.
       -1   -1    0    0    0  501  0.00000000000E+00  0.00000000000E+00 -0.31706483611E+03  0.31706483615E+03  0.50400001928E-02 0. -1.
    10030    2    1    2    0    0  0.00000000000E+00  0.00000000000E+00 -0.86814251111E+02  0.54731542121E+03  0.54038639519E+03 0.  0.
        5    1    3    3  502    0  0.10024398417E+03 -0.24804246940E+03 -0.81416326283E+02  0.27968666607E+03  0.46999998093E+01 0. -1.
       -5    1    3    3    0  502 -0.10024398417E+03  0.24804246940E+03 -0.53979248280E+01  0.26762875515E+03  0.46999998093E+01 0.  1.
</event>
<event>
 5   0  0.3329246E-01  0.5119237E+03  0.7818609E-02  0.1010713E+00
        2   -1    0    0  501    0  0.00000000000E+00  0.00000000000E+00  0.17998510117E+04  0.17998510117E+04  0.25500000920E-02 0. -1.
       -2   -1    0    0    0  501  0.00000000000E+00  0.00000000000E+00 -0.36401052087E+02  0.36401052176E+02  0.25500000920E-02 0.  1.
    10030    2    1    2    0    0  0.00000000000E+00  0.00000000000E+00  0.17634499596E+04  0.18362520638E+04  0.51192370724E+03 0.  0.
        2    1    3    3  502    0 -0.95731460748E+02  0.21766796658E+03  0.54195378825E+03  0.59182578928E+03  0.25500000920E-02 0.  1.
       -2    1    3    3    0  502  0.95731460748E+02 -0.21766796658E+03  0.12214961713E+04  0.12444262746E+04  0.25500000920E-02 0. -1.
</event>
<event>
 5   0  0.2000612E-01  0.4974952E+03  0.7818609E-02  0.1014435E+00
        1   -1    0    0  501    0  0.00000000000E+00  0.00000000000E+00  0.52284962238E+03  0.52284962240E+03  0.50400001928E-02 0. -1.
       -1   -1    0    0    0  501  0.00000000000E+00  0.00000000000E+00 -0.11834257528E+03  0.11834257539E+03  0.50400001928E-02 0.  1.
    10030    2    1    2    0    0  0.00000000000E+00  0.00000000000E+00  0.40450704710E+03  0.64119219779E+03  0.49749520938E+03 0.  0.
        2    1    3    3  502    0 -0.40093395181E+02  0.39023427260E+02 -0.11012776468E+03  0.12352502893E+03  0.25500000920E-02 0.  1.
       -2    1    3    3    0  502  0.40093395181E+02 -0.39023427260E+02  0.51463481178E+03  0.51766716886E+03  0.25500000920E-02 0. -1.
</event>
<event>
 5   0  0.3178149E-01  0.4960432E+03  0.7818609E-02  0.1014817E+00
       -2   -1    0    0    0  501  0.00000000000E+00  0.00000000000E+00  0.27753180243E+03  0.27753180244E+03  0.25500000920E-02 0. -1.
        2   -1    0    0  501    0  0.00000000000E+00  0.00000000000E+00 -0.22164928189E+03  0.22164928191E+03  0.25500000920E-02 0.  1.
    10030    2    1    2    0    0  0.00000000000E+00  0.00000000000E+00  0.55882520533E+02  0.49918108435E+03  0.49604324294E+03 0.  0.
        3    1    3    3  502    0 -0.54268666493E+02 -0.23525251011E+03 -0.29214877874E+02  0.24319200432E+03  0.10100000352E+00 0.  1.
       -3    1    3    3    0  502  0.54268666493E+02  0.23525251011E+03  0.85097398408E+02  0.25598908003E+03  0.10100000352E+00 0. -1.
</event>
<event>
 5   0  0.1967161E-01  0.4611912E+03  0.7818609E-02  0.1024436E+00
        1   -1    0    0  501    0  0.00000000000E+00  0.00000000000E+00  0.16338257446E+03  0.16338257454E+03  0.50400001928E-02 0. -1.
       -1   -1    0    0    0  501  0.00000000000E+00  0.00000000000E+00 -0.32545894075E+03  0.32545894079E+03  0.50400001928E-02 0.  1.
    10030    2    1    2    0    0  0.00000000000E+00  0.00000000000E+00 -0.16207636629E+03  0.48884151533E+03  0.46119115191E+03 0.  0.
        1    1    3    3  502    0  0.13974748181E+02  0.20483319171E+03 -0.19232020153E+03  0.28131652983E+03  0.50400001928E-02 0.  1.
       -1    1    3    3    0  502 -0.13974748181E+02 -0.20483319171E+03  0.30243835235E+02  0.20752498550E+03  0.50400001928E-02 0. -1.
</event>
<event>
 5   0  0.3178149E-01  0.3757385E+03  0.7818609E-02  0.1052520E+00
       -2   -1    0    0    0  501  0.00000000000E+00  0.00000000000E+00  0.33826711025E+03  0.33826711026E+03  0.25500000920E-02 0.  1.
        2   -1    0    0  501    0  0.00000000000E+00  0.00000000000E+00 -0.10434017249E+03  0.10434017253E+03  0.25500000920E-02 0. -1.
    10030    2    1    2    0    0  0.00000000000E+00  0.00000000000E+00  0.23392693776E+03  0.44260728279E+03  0.37573846565E+03 0.  0.
        3    1    3    3  502    0  0.13514281103E+03  0.13028238945E+03  0.10801107422E+03  0.21657211901E+03  0.10100000352E+00 0.  1.
       -3    1    3    3    0  502 -0.13514281103E+03 -0.13028238945E+03  0.12591586354E+03  0.22603516378E+03  0.10100000352E+00 0. -1.
</event>
<event>
 5   0  0.1984297E-01  0.5022139E+03  0.7818609E-02  0.1013203E+00
        1   -1    0    0  501    0  0.00000000000E+00  0.00000000000E+00  0.36011593660E+03  0.36011593663E+03  0.50400001928E-02 0.  1.
       -1   -1    0    0    0  501  0.00000000000E+00  0.00000000000E+00 -0.17509555237E+03  0.17509555244E+03  0.50400001928E-02 0. -1.
    10030    2    1    2    0    0  0.00000000000E+00  0.00000000000E+00  0.18502038423E+03  0.53521148907E+03  0.50221389413E+03 0.  0.
        3    1    3    3  502    0 -0.20771549088E+02 -0.14857486822E+03  0.30710805146E+03  0.34179133136E+03  0.10100000352E+00 0.  1.
       -3    1    3    3    0  502  0.20771549088E+02  0.14857486822E+03 -0.12208766723E+03  0.19342015771E+03  0.10100000352E+00 0. -1.
</event>
<event>
 5   0  0.1984680E-01  0.4992718E+03  0.7818609E-02  0.1013969E+00
       -1   -1    0    0    0  501  0.00000000000E+00  0.00000000000E+00  0.81254939976E+02  0.81254940132E+02  0.50400001928E-02 0. -1.
        1   -1    0    0  501    0  0.00000000000E+00  0.00000000000E+00 -0.76694518442E+03  0.76694518444E+03  0.50400001928E-02 0.  1.
    10030    2    1    2    0    0  0.00000000000E+00  0.00000000000E+00 -0.68569024445E+03  0.84820012457E+03  0.49927180973E+03 0.  0.
        5    1    3    3  502    0  0.42045713035E+02 -0.19407320753E+03 -0.85962365725E+02  0.21643444777E+03  0.46999998093E+01 0. -1.
       -5    1    3    3    0  502 -0.42045713035E+02  0.19407320753E+03 -0.59972787872E+03  0.63176567680E+03  0.46999998093E+01 0.  1.
</event>
<event>
 5   0  0.1984297E-01  0.4998644E+03  0.7818609E-02  0.1013814E+00
       -1   -1    0    0    0  501  0.00000000000E+00  0.00000000000E+00  0.14259408991E+03  0.14259409000E+03  0.50400001928E-02 0. -1.
        1   -1    0    0  501    0  0.00000000000E+00  0.00000000000E+00 -0.43806936920E+03  0.43806936923E+03  0.50400001928E-02 0.  1.
    10030    2    1    2    0    0  0.00000000000E+00  0.00000000000E+00 -0.29547527929E+03  0.58066345923E+03  0.49986439382E+03 0.  0.
        3    1    3    3  502    0  0.20280221188E+03 -0.13727965609E+03 -0.20572268004E+03  0.31983788457E+03  0.10100000352E+00 0. -1.
       -3    1    3    3    0  502 -0.20280221188E+03  0.13727965609E+03 -0.89752599251E+02  0.26082557466E+03  0.10100000352E+00 0.  1.
</event>
<event>
 5   0  0.3187123E-01  0.5208695E+03  0.7818609E-02  0.1008471E+00
       -2   -1    0    0    0  501  0.00000000000E+00  0.00000000000E+00  0.35024094006E+02  0.35024094099E+02  0.25500000920E-02 0.  1.
        2   -1    0    0  501    0  0.00000000000E+00  0.00000000000E+00 -0.19365598507E+04  0.19365598507E+04  0.25500000920E-02 0. -1.
    10030    2    1    2    0    0  0.00000000000E+00  0.00000000000E+00 -0.19015357567E+04  0.19715839448E+04  0.52086948213E+03 0.  0.
        5    1    3    3  502    0 -0.16960844806E+03  0.16515053964E+03 -0.54024720464E+03  0.58985664235E+03  0.46999998093E+01 0.  1.
       -5    1    3    3    0  502  0.16960844806E+03 -0.16515053964E+03 -0.13612885521E+04  0.13817273025E+04  0.46999998093E+01 0. -1.
</event>
<event>
 5   0  0.3111146E-01  0.5030752E+03  0.7818609E-02  0.1012979E+00
        2   -1    0    0  501    0  0.00000000000E+00  0.00000000000E+00  0.50475879519E+03  0.50475879520E+03  0.25500000920E-02 0. -1.
       -2   -1    0    0    0  501  0.00000000000E+00  0.00000000000E+00 -0.12534930049E+03  0.12534930052E+03  0.25500000920E-02 0.  1.
    10030    2    1    2    0    0  0.00000000000E+00  0.00000000000E+00  0.37940949470E+03  0.63010809572E+03  0.50307519082E+03 0.  0.
        1    1    3    3  502    0 -0.16015569173E+03 -0.87174338937E+02  0.40672567435E+03  0.44572972210E+03  0.50400001928E-02 0. -1.
       -1    1    3    3    0  502  0.16015569173E+03  0.87174338937E+02 -0.27316179648E+02  0.18437837362E+03  0.50400001928E-02 0.  1.
</event>
<event>
 5   0  0.3111146E-01  0.4940835E+03  0.7818609E-02  0.1015335E+00
        2   -1    0    0  501    0  0.00000000000E+00  0.00000000000E+00  0.12006847232E+03  0.12006847235E+03  0.25500000920E-02 0.  1.
       -2   -1    0    0    0  501  0.00000000000E+00  0.00000000000E+00 -0.50829024147E+03  0.50829024148E+03  0.25500000920E-02 0. -1.
    10030    2    1    2    0    0  0.00000000000E+00  0.00000000000E+00 -0.38822176915E+03  0.62835871383E+03  0.49408352654E+03 0.  0.
        1    1    3    3  502    0  0.16460573544E+03 -0.17237650675E+03 -0.11148596252E+03  0.26313081934E+03  0.50400001928E-02 0. -1.
       -1    1    3    3    0  502 -0.16460573544E+03  0.17237650675E+03 -0.27673580663E+03  0.36522789449E+03  0.50400001928E-02 0.  1.
</event>
<event>
 5   0  0.2000612E-01  0.5132543E+03  0.7818609E-02  0.1010376E+00
       -1   -1    0    0    0  501  0.00000000000E+00  0.00000000000E+00  0.35951612156E+02  0.35951612509E+02  0.50400001928E-02 0.  1.
        1   -1    0    0  501    0  0.00000000000E+00  0.00000000000E+00 -0.18318369918E+04  0.18318369918E+04  0.50400001928E-02 0. -1.
    10030    2    1    2    0    0  0.00000000000E+00  0.00000000000E+00 -0.17958853797E+04  0.18677886043E+04  0.51325429720E+03 0.  0.
        2    1    3    3  502    0 -0.50500671882E+02 -0.46806005958E+02 -0.17975933745E+04  0.17989116321E+04  0.25500000920E-02 0. -1.
       -2    1    3    3    0  502  0.50500671882E+02  0.46806005958E+02  0.17079948154E+01  0.68876972255E+02  0.25500000920E-02 0.  1.
</event>
<event>
 5   0  0.1292375E-01  0.4944110E+03  0.7818609E-02  0.1015248E+00
       -4   -1    0    0    0  501  0.00000000000E+00  0.00000000000E+00  0.46793642456E+03  0.46793814797E+03  0.12699999809E+01 0. -1.
        4   -1    0    0  501    0  0.00000000000E+00  0.00000000000E+00 -0.13059080130E+03  0.13059697655E+03  0.12699999809E+01 0.  1.
    10030    2    1    2    0    0  0.00000000000E+00  0.00000000000E+00  0.33734562326E+03  0.59853512453E+03  0.49441098872E+03 0.  0.
        2    1    3    3  502    0 -0.12241362874E+03 -0.21367384342E+03  0.14245695000E+03  0.28449181090E+03  0.25500000920E-02 0. -1.
       -2    1    3    3    0  502  0.12241362874E+03  0.21367384342E+03  0.19488867326E+03  0.31404331363E+03  0.25500000920E-02 0.  1.
</event>
<event>
 5   0  0.3329246E-01  0.4919180E+03  0.7818609E-02  0.1015910E+00
       -2   -1    0    0    0  501  0.00000000000E+00  0.00000000000E+00  0.50513327661E+02  0.50513327726E+02  0.25500000920E-02 0.  1.
        2   -1    0    0  501    0  0.00000000000E+00  0.00000000000E+00 -0.11976210996E+04  0.11976210996E+04  0.25500000920E-02 0. -1.
    10030    2    1    2    0    0  0.00000000000E+00  0.00000000000E+00 -0.11471077719E+04  0.12481344273E+04  0.49191798935E+03 0.  0.
        2    1    3    3  502    0  0.10442584196E+03 -0.29826393051E+01 -0.11385317626E+04  0.11433145793E+04  0.25500000920E-02 0. -1.
       -2    1    3    3    0  502 -0.10442584196E+03  0.29826393051E+01 -0.85760093003E+01  0.10481984807E+03  0.25500000920E-02 0.  1.
</event>
<event>
 5   0  0.1984680E-01  0.4981040E+03  0.7818609E-02  0.1014275E+00
       -1   -1    0    0    0  501  0.00000000000E+00  0.00000000000E+00  0.18051300224E+03  0.18051300231E+03  0.50400001928E-02 0. -1.
        1   -1    0    0  501    0  0.00000000000E+00  0.00000000000E+00 -0.34361453391E+03  0.34361453395E+03  0.50400001928E-02 0.  1.
    10030    2    1    2    0    0  0.00000000000E+00  0.00000000000E+00 -0.16310153167E+03  0.52412753625E+03  0.49810396969E+03 0.  0.
        5    1    3    3  502    0 -0.22705588382E+03 -0.51925377671E+02  0.11107670566E+02  0.23322969273E+03  0.46999998093E+01 0. -1.
       -5    1    3    3    0  502  0.22705588382E+03  0.51925377671E+02 -0.17420920224E+03  0.29089784353E+03  0.46999998093E+01 0.  1.
</event>
<event>
 5   0  0.2013450E-01  0.3641527E+03  0.7818609E-02  0.1056952E+00
       -1   -1    0    0    0  501  0.00000000000E+00  0.00000000000E+00  0.13652930159E+03  0.13652930168E+03  0.50400001928E-02 0. -1.
        1   -1    0    0  501    0  0.00000000000E+00  0.00000000000E+00 -0.24281824587E+03  0.24281824593E+03  0.50400001928E-02 0.  1.
    10030    2    1    2    0    0  0.00000000000E+00  0.00000000000E+00 -0.10628894429E+03  0.37934754760E+03  0.36415274569E+03 0.  0.
        4    1    3    3  502    0 -0.10935319116E+03 -0.47565908195E+02 -0.19647011972E+03  0.22983201884E+03  0.12699999809E+01 0.  1.
       -4    1    3    3    0  502  0.10935319116E+03  0.47565908195E+02  0.90181175436E+02  0.14951552877E+03  0.12699999809E+01 0. -1.
</event>
<event>
 5   0  0.1984297E-01  0.4985270E+03  0.7818609E-02  0.1014164E+00
        1   -1    0    0  501    0  0.00000000000E+00  0.00000000000E+00  0.96013669836E+03  0.96013669837E+03  0.50400001928E-02 0.  1.
       -1   -1    0    0    0  501  0.00000000000E+00  0.00000000000E+00 -0.64711919131E+02  0.64711919327E+02  0.50400001928E-02 0. -1.
    10030    2    1    2    0    0  0.00000000000E+00  0.00000000000E+00  0.89542477923E+03  0.10248486177E+04  0.49852698417E+03 0.  0.
        3    1    3    3  502    0  0.21039120805E+03  0.81680512175E+02  0.66523512805E+03  0.70247701193E+03  0.10100000352E+00 0.  1.
       -3    1    3    3    0  502 -0.21039120805E+03 -0.81680512175E+02  0.23018965118E+03  0.32237160577E+03  0.10100000352E+00 0. -1.
</event>
<event>
 5   0  0.1984297E-01  0.4918754E+03  0.7818609E-02  0.1015922E+00
       -1   -1    0    0    0  501  0.00000000000E+00  0.00000000000E+00  0.39582685542E+02  0.39582685863E+02  0.50400001928E-02 0.  1.
        1   -1    0    0  501    0  0.00000000000E+00  0.00000000000E+00 -0.15280759926E+04  0.15280759926E+04  0.50400001928E-02 0. -1.
    10030    2    1    2    0    0  0.00000000000E+00  0.00000000000E+00 -0.14884933070E+04  0.15676586784E+04  0.49187539786E+03 0.  0.
        3    1    3    3  502    0  0.13401796657E+03 -0.82680754580E+02 -0.13463347826E+04  0.13555125524E+04  0.10100000352E+00 0. -1.
       -3    1    3    3    0  502 -0.13401796657E+03  0.82680754580E+02 -0.14215852440E+03  0.21214612606E+03  0.10100000352E+00 0.  1.
</event>
<event>
 5   0  0.3329246E-01  0.5100214E+03  0.7818609E-02  0.1011196E+00
        2   -1    0    0  501    0  0.00000000000E+00  0.00000000000E+00  0.80950210831E+03  0.80950210832E+03  0.25500000920E-02 0.  1.
       -2   -1    0    0    0  501  0.00000000000E+00  0.00000000000E+00 -0.80333886729E+02  0.80333886769E+02  0.25500000920E-02 0. -1.
    10030    2    1    2    0    0  0.00000000000E+00  0.00000000000E+00  0.72916822158E+03  0.88983599509E+03  0.51002137483E+03 0.  0.
        2    1    3    3  502    0 -0.80189995577E+02 -0.24207300396E+03  0.36314957278E+03  0.44374247808E+03  0.25500000920E-02 0. -1.
       -2    1    3    3    0  502  0.80189995577E+02  0.24207300396E+03  0.36601864880E+03  0.44609351701E+03  0.25500000920E-02 0.  1.
</event>
<event>
 5   0  0.3329246E-01  0.4979551E+03  0.7818609E-02  0.1014314E+00
       -2   -1    0    0    0  501  0.00000000000E+00  0.00000000000E+00  0.17666525059E+03  0.17666525061E+03  0.25500000920E-02 0. -1.
        2   -1    0    0  501    0  0.00000000000E+00  0.00000000000E+00 -0.35088861523E+03  0.35088861524E+03  0.25500000920E-02 0.  1.
    10030    2    1    2    0    0  0.00000000000E+00  0.00000000000E+00 -0.17422336464E+03  0.52755386585E+03  0.49795511905E+03 0.  0.
        2    1    3    3  502    0  0.14594367196E+03  0.14378885028E+03  0.62772153644E+02  0.21427816532E+03  0.25500000920E-02 0. -1.
       -2    1    3    3    0  502 -0.14594367196E+03 -0.14378885028E+03 -0.23699551828E+03  0.31327570053E+03  0.25500000920E-02 0.  1.
</event>
<event>
 5   0  0.2013450E-01  0.4977516E+03  0.7818609E-02  0.1014367E+00
        1   -1    0    0  501    0  0.00000000000E+00  0.00000000000E+00  0.23709430867E+03  0.23709430872E+03  0.50400001928E-02 0. -1.
       -1   -1    0    0    0  501  0.00000000000E+00  0.00000000000E+00 -0.26124273459E+03  0.26124273464E+03  0.50400001928E-02 0.  1.
    10030    2    1    2    0    0  0.00000000000E+00  0.00000000000E+00 -0.24148425921E+02  0.49833704336E+03  0.49775160704E+03 0.  0.
        4    1    3    3  502    0  0.10703737208E+03 -0.14510460639E+03  0.15966531412E+03  0.24084636441E+03  0.12699999809E+01 0. -1.
       -4    1    3    3    0  502 -0.10703737208E+03  0.14510460639E+03 -0.18381374004E+03  0.25749067895E+03  0.12699999809E+01 0.  1.
</event>
<event>
 5   0  0.1967161E-01  0.5037517E+03  0.7818609E-02  0.1012804E+00
       -1   -1    0    0    0  501  0.00000000000E+00  0.00000000000E+00  0.20362783521E+03  0.20362783527E+03  0.50400001928E-02 0.  1.
        1   -1    0    0  501    0  0.00000000000E+00  0.00000000000E+00 -0.31155589223E+03  0.31155589227E+03  0.50400001928E-02 0. -1.
    10030    2    1    2    0    0  0.00000000000E+00  0.00000000000E+00 -0.10792805702E+03  0.51518372754E+03  0.50375173213E+03 0.  0.
        1    1    3    3  502    0 -0.68788031511E+02  0.23109397362E+03  0.20525951036E+02  0.24198663726E+03  0.50400001928E-02 0.  1.
       -1    1    3    3    0  502  0.68788031511E+02 -0.23109397362E+03 -0.12845400806E+03  0.27319709028E+03  0.50400001928E-02 0. -1.
</event>
<event>
 5   0  0.1292375E-01  0.4967492E+03  0.7818609E-02  0.1014631E+00
       -3   -1    0    0    0  501  0.00000000000E+00  0.00000000000E+00  0.99433671184E+02  0.99433722480E+02  0.10100000352E+00 0.  1.
        3   -1    0    0  501    0  0.00000000000E+00  0.00000000000E+00 -0.62041281237E+03  0.62041282059E+03  0.10100000352E+00 0. -1.
    10030    2    1    2    0    0  0.00000000000E+00  0.00000000000E+00 -0.52097914119E+03  0.71984654307E+03  0.49674921240E+03 0.  0.
        5    1    3    3  502    0 -0.23913891720E+03 -0.60650856269E+02 -0.21945359936E+03  0.33022404570E+03  0.46999998093E+01 0.  1.
       -5    1    3    3    0  502  0.23913891720E+03  0.60650856269E+02 -0.30152554183E+03  0.38962249737E+03  0.46999998093E+01 0. -1.
</event>
<event>
 5   0  0.2013450E-01  0.5058932E+03  0.7818609E-02  0.1012252E+00
       -1   -1    0    0    0  501  0.00000000000E+00  0.00000000000E+00  0.59687603622E+03  0.59687603624E+03  0.50400001928E-02 0.  1.
        1   -1    0    0  501    0  0.00000000000E+00  0.00000000000E+00 -0.10719474832E+03  0.10719474844E+03  0.50400001928E-02 0. -1.
    10030    2    1    2    0    0  0.00000000000E+00  0.00000000000E+00  0.48968128790E+03  0.70407078467E+03  0.50589317659E+03 0.  0.
        4    1    3    3  502    0 -0.52186552681E+02  0.19135589980E+03  0.26378342266E+02  0.20009484378E+03  0.12699999809E+01 0. -1.
       -4    1    3    3    0  502  0.52186552681E+02 -0.19135589980E+03  0.46330294563E+03  0.50397594089E+03  0.12699999809E+01 0.  1.
</event>
<event>
 5   0  0.1292375E-01  0.4846479E+03  0.7818609E-02  0.1017866E+00
       -3   -1    0    0    0  501  0.00000000000E+00  0.00000000000E+00  0.95922445452E+02  0.95922498625E+02  0.10100000352E+00 0. -1.
        3   -1    0    0  501    0  0.00000000000E+00  0.00000000000E+00 -0.61217040815E+03  0.61217041648E+03  0.10100000352E+00 0.  1.
    10030    2    1    2    0    0  0.00000000000E+00  0.00000000000E+00 -0.51624796270E+03  0.70809291510E+03  0.48464793142E+03 0.  0.
        1    1    3    3  502    0 -0.34492817587E+02  0.10218259514E+03  0.58925916847E+02  0.12289548778E+03  0.50400001928E-02 0. -1.
       -1    1    3    3    0  502  0.34492817587E+02 -0.10218259514E+03 -0.57517387954E+03  0.58519742733E+03  0.50400001928E-02 0.  1.
</event>
<event>
 5   0  0.1292375E-01  0.4949729E+03  0.7818609E-02  0.1015099E+00
       -3   -1    0    0    0  501  0.00000000000E+00  0.00000000000E+00  0.34268759452E+03  0.34268760940E+03  0.10100000352E+00 0. -1.
        3   -1    0    0  501    0  0.00000000000E+00  0.00000000000E+00 -0.17873285929E+03  0.17873288782E+03  0.10100000352E+00 0.  1.
    10030    2    1    2    0    0  0.00000000000E+00  0.00000000000E+00  0.16395473523E+03  0.52142049723E+03  0.49497290807E+03 0.  0.
        2    1    3    3  502    0 -0.89934305202E+02 -0.17038016118E+02  0.32420056208E+03  0.33687457266E+03  0.25500000920E-02 0. -1.
       -2    1    3    3    0  502  0.89934305202E+02  0.17038016118E+02 -0.16024582685E+03  0.18454592457E+03  0.25500000920E-02 0.  1.
</event>
<event>
 5   0  0.1984680E-01  0.5559312E+03  0.7818609E-02  0.1000130E+00
       -1   -1    0    0    0  501  0.00000000000E+00  0.00000000000E+00  0.72071676368E+02  0.72071676544E+02  0.50400001928E-02 0. -1.
        1   -1    0    0  501    0  0.00000000000E+00  0.00000000000E+00 -0.10720560588E+04  0.10720560588E+04  0.50400001928E-02 0.  1.
    10030    2    1    2    0    0  0.00000000000E+00  0.00000000000E+00 -0.99998438240E+03  0.11441277353E+04  0.55593120950E+03 0.  0.
        5    1    3    3  502    0 -0.21303006447E+03  0.11655193796E+03 -0.22176379241E+03  0.32888817587E+03  0.46999998093E+01 0. -1.
       -5    1    3    3    0  502  0.21303006447E+03 -0.11655193796E+03 -0.77822058999E+03  0.81523955945E+03  0.46999998093E+01 0.  1.
</event>
<event>
 5   0  0.3111146E-01  0.4736470E+03  0.7818609E-02  0.1020896E+00
       -2   -1    0    0    0  501  0.00000000000E+00  0.00000000000E+00  0.34264936281E+02  0.34264936376E+02  0.25500000920E-02 0.  1.
        2   -1    0    0  501    0  0.00000000000E+00  0.00000000000E+00 -0.16368154435E+04  0.16368154435E+04  0.25500000920E-02 0. -1.
    10030    2    1    2    0    0  0.00000000000E+00  0.00000000000E+00 -0.16025505072E+04  0.16710803799E+04  0.47364702873E+03 0.  0.
        1    1    3    3  502    0  0.16825110649E+03  0.20356292451E+02 -0.13848828199E+04  0.13952144059E+04  0.50400001928E-02 0. -1.
       -1    1    3    3    0  502 -0.16825110649E+03 -0.20356292451E+02 -0.21766768726E+03  0.27586597394E+03  0.50400001928E-02 0.  1.
</event>
<event>
 5   0  0.3178149E-01  0.5324583E+03  0.7818609E-02  0.1005638E+00
        2   -1    0    0  501    0  0.00000000000E+00  0.00000000000E+00  0.38050131635E+03  0.38050131636E+03  0.25500000920E-02 0. -1.
       -2   -1    0    0    0  501  0.00000000000E+00  0.00000000000E+00 -0.18627523491E+03  0.18627523492E+03  0.25500000920E-02 0.  1.
    10030    2    1    2    0    0  0.00000000000E+00  0.00000000000E+00  0.19422608144E+03  0.56677655128E+03  0.53245834426E+03 0.  0.
        3    1    3    3  502    0 -0.16487327090E+03 -0.33473954312E+02 -0.12252107260E+03  0.20812285916E+03  0.10100000352E+00 0.  1.
       -3    1    3    3    0  502  0.16487327090E+03  0.33473954312E+02  0.31674715404E+03  0.35865369212E+03  0.10100000352E+00 0. -1.
</event>
<event>
 5   0  0.3111146E-01  0.4806991E+03  0.7818609E-02  0.1018943E+00
        2   -1    0    0  501    0  0.00000000000E+00  0.00000000000E+00  0.17284456781E+04  0.17284456781E+04  0.25500000920E-02 0.  1.
       -2   -1    0    0    0  501  0.00000000000E+00  0.00000000000E+00 -0.33421880306E+02  0.33421880403E+02  0.25500000920E-02 0. -1.
    10030    2    1    2    0    0  0.00000000000E+00  0.00000000000E+00  0.16950237978E+04  0.17618675585E+04  0.48069909364E+03 0.  0.
        1    1    3    3  502    0 -0.18451050179E+03  0.49707663134E+02  0.31318217139E+03  0.36687606837E+03  0.50400001928E-02 0. -1.
       -1    1    3    3    0  502  0.18451050179E+03 -0.49707663134E+02  0.13818416264E+04  0.13949914902E+04  0.50400001928E-02 0.  1.
</event>
<event>
 5   0  0.1292375E-01  0.4990605E+03  0.7818609E-02  0.1014024E+00
       -3   -1    0    0    0  501  0.00000000000E+00  0.00000000000E+00  0.12812901913E+04  0.12812901952E+04  0.10100000352E+00 0.  1.
        3   -1    0    0  501    0  0.00000000000E+00  0.00000000000E+00 -0.48595765717E+02  0.48595870675E+02  0.10100000352E+00 0. -1.
    10030    2    1    2    0    0  0.00000000000E+00  0.00000000000E+00  0.12326944255E+04  0.13298860659E+04  0.49906051893E+03 0.  0.
        1    1    3    3  502    0 -0.20086663503E+03  0.11407863108E+03  0.86779862041E+03  0.89801769735E+03  0.50400001928E-02 0.  1.
       -1    1    3    3    0  502  0.20086663503E+03 -0.11407863108E+03  0.36489580514E+03  0.43186836857E+03  0.50400001928E-02 0. -1.
</event>
<event>
 5   0  0.3178149E-01  0.4853167E+03  0.7818609E-02  0.1017684E+00
       -2   -1    0    0    0  501  0.00000000000E+00  0.00000000000E+00  0.58536371243E+03  0.58536371243E+03  0.25500000920E-02 0. -1.
        2   -1    0    0  501    0  0.00000000000E+00  0.00000000000E+00 -0.10059227187E+03  0.10059227190E+03  0.25500000920E-02 0.  1.
    10030    2    1    2    0    0  0.00000000000E+00  0.00000000000E+00  0.48477144056E+03  0.68595598433E+03  0.48531666246E+03 0.  0.
        3    1    3    3  502    0  0.21789526350E+03  0.90068449050E+01  0.39279098768E+03  0.44927078618E+03  0.10100000352E+00 0. -1.
       -3    1    3    3    0  502 -0.21789526350E+03 -0.90068449050E+01  0.91980452877E+02  0.23668519815E+03  0.10100000352E+00 0.  1.
</event>
<event>
 5   0  0.3187123E-01  0.5032110E+03  0.7818609E-02  0.1012944E+00
       -2   -1    0    0    0  501  0.00000000000E+00  0.00000000000E+00  0.49027291718E+02  0.49027291785E+02  0.25500000920E-02 0. -1.
        2   -1    0    0  501    0  0.00000000000E+00  0.00000000000E+00 -0.12912263512E+04  0.12912263512E+04  0.25500000920E-02 0.  1.
    10030    2    1    2    0    0  0.00000000000E+00  0.00000000000E+00 -0.12421990595E+04  0.13402536430E+04  0.50321101355E+03 0.  0.
        5    1    3    3  502    0 -0.15845181930E+03  0.40041260233E+02 -0.11174882540E+03  0.19804083300E+03  0.46999998093E+01 0. -1.
       -5    1    3    3    0  502  0.15845181930E+03 -0.40041260233E+02 -0.11304502341E+04  0.11422128100E+04  0.46999998093E+01 0.  1.
</event>
<event>
 5   0  0.1292375E-01  0.4932662E+03  0.7818609E-02  0.1015552E+00
       -4   -1    0    0    0  501  0.00000000000E+00  0.00000000000E+00  0.10887072963E+03  0.10887813679E+03  0.12699999809E+01 0. -1.
        4   -1    0    0  501    0  0.00000000000E+00  0.00000000000E+00 -0.55868946269E+03  0.55869090616E+03  0.12699999809E+01 0.  1.
    10030    2    1    2    0    0  0.00000000000E+00  0.00000000000E+00 -0.44981873306E+03  0.66756904295E+03  0.49326619029E+03 0.  0.
        2    1    3    3  502    0 -0.13647060920E+03  0.42244317225E+02 -0.49699650959E+03  0.51712120442E+03  0.25500000920E-02 0.  1.
       -2    1    3    3    0  502  0.13647060920E+03 -0.42244317225E+02  0.47177776523E+02  0.15044783853E+03  0.25500000920E-02 0. -1.
</event>
<event>
 5   0  0.1967161E-01  0.5124139E+03  0.7818609E-02  0.1010589E+00
       -1   -1    0    0    0  501  0.00000000000E+00  0.00000000000E+00  0.41907568357E+02  0.41907568660E+02  0.50400001928E-02 0.  1.
        1   -1    0    0  501    0  0.00000000000E+00  0.00000000000E+00 -0.15663519283E+04  0.15663519283E+04  0.50400001928E-02 0. -1.
    10030    2    1    2    0    0  0.00000000000E+00  0.00000000000E+00 -0.15244443600E+04  0.16082594970E+04  0.51241389817E+03 0.  0.
        1    1    3    3  502    0  0.72101678433E+02 -0.15678738197E+03 -0.13565784095E+04  0.13675108469E+04  0.50400001928E-02 0. -1.
       -1    1    3    3    0  502 -0.72101678433E+02  0.15678738197E+03 -0.16786595043E+03  0.24074865008E+03  0.50400001928E-02 0.  1.
</event>
<event>
 5   0  0.3111146E-01  0.4813001E+03  0.7818609E-02  0.1018778E+00
       -2   -1    0    0    0  501  0.00000000000E+00  0.00000000000E+00  0.63928978077E+02  0.63928978128E+02  0.25500000920E-02 0.  1.
        2   -1    0    0  501    0  0.00000000000E+00  0.00000000000E+00 -0.90588726748E+03  0.90588726748E+03  0.25500000920E-02 0. -1.
    10030    2    1    2    0    0  0.00000000000E+00  0.00000000000E+00 -0.84195828940E+03  0.96981624561E+03  0.48130010301E+03 0.  0.
        1    1    3    3  502    0 -0.43047135072E+02  0.99565055648E+02  0.11874850521E+02  0.10912043000E+03  0.50400001928E-02 0.  1.
       -1    1    3    3    0  502  0.43047135072E+02 -0.99565055648E+02 -0.85383313993E+03  0.86069581561E+03  0.50400001928E-02 0. -1.
</event>
<event>
 5   0  0.1984297E-01  0.4939068E+03  0.7818609E-02  0.1015382E+00
       -1   -1    0    0    0  501  0.00000000000E+00  0.00000000000E+00  0.17123374934E+03  0.17123374942E+03  0.50400001928E-02 0.  1.
        1   -1    0    0  501    0  0.00000000000E+00  0.00000000000E+00 -0.35615636541E+03  0.35615636544E+03  0.50400001928E-02 0. -1.
    10030    2    1    2    0    0  0.00000000000E+00  0.00000000000E+00 -0.18492261607E+03  0.52739011486E+03  0.49390683263E+03 0.  0.
        3    1    3    3  502    0  0.11184752798E+03  0.15131300484E+03  0.78320393264E+02  0.20381263246E+03  0.10100000352E+00 0.  1.
       -3    1    3    3    0  502 -0.11184752798E+03 -0.15131300484E+03 -0.26324300933E+03  0.32357748239E+03  0.10100000352E+00 0. -1.
</event>
<event>
 5   0  0.1292375E-01  0.4660576E+03  0.7818609E-02  0.1023039E+00
       -3   -1    0    0    0  501  0.00000000000E+00  0.00000000000E+00  0.16356892766E+03  0.16356895884E+03  0.10100000352E+00 0. -1.
        3   -1    0    0  501    0  0.00000000000E+00  0.00000000000E+00 -0.33198487321E+03  0.33198488857E+03  0.10100000352E+00 0.  1.
    10030    2    1    2    0    0  0.00000000000E+00  0.00000000000E+00 -0.16841594555E+03  0.49555384741E+03  0.46605759834E+03 0.  0.
        5    1    3    3  502    0 -0.22005172407E+03 -0.25497254385E+02 -0.74781437242E+01  0.22169998620E+03  0.46999998093E+01 0. -1.
       -5    1    3    3    0  502  0.22005172407E+03  0.25497254385E+02 -0.16093780183E+03  0.27385386122E+03  0.46999998093E+01 0.  1.
</event>
<event>
 5   0  0.2000612E-01  0.4329885E+03  0.7818609E-02  0.1032920E+00
       -1   -1    0    0    0  501  0.00000000000E+00  0.00000000000E+00  0.26030034428E+03  0.26030034433E+03  0.50400001928E-02 0. -1.
        1   -1    0    0  501    0  0.00000000000E+00  0.00000000000E+00 -0.18006030870E+03  0.18006030877E+03  0.50400001928E-02 0.  1.
    10030    2    1    2    0    0  0.00000000000E+00  0.00000000000E+00  0.80240035586E+02  0.44036065310E+03  0.43298850041E+03 0.  0.
        2    1    3    3  502    0 -0.90595537620E+02 -0.93254726694E+02 -0.13593354922E+03  0.18810083811E+03  0.25500000920E-02 0.  1.
       -2    1    3    3    0  502  0.90595537620E+02  0.93254726694E+02  0.21617358480E+03  0.25225981499E+03  0.25500000920E-02 0. -1.
</event>
<event>
 5   0  0.2013450E-01  0.5027782E+03  0.7818609E-02  0.1013056E+00
       -1   -1    0    0    0  501  0.00000000000E+00  0.00000000000E+00  0.57856411559E+02  0.57856411779E+02  0.50400001928E-02 0.  1.
        1   -1    0    0  501    0  0.00000000000E+00  0.00000000000E+00 -0.10922986471E+04  0.10922986471E+04  0.50400001928E-02 0. -1.
    10030    2    1    2    0    0  0.00000000000E+00  0.00000000000E+00 -0.10344422355E+04  0.11501550589E+04  0.50277820241E+03 0.  0.
        4    1    3    3  502    0 -0.18502264135E+03  0.84244336127E+02 -0.85547948610E+03  0.87930498124E+03  0.12699999809E+01 0. -1.
       -4    1    3    3    0  502  0.18502264135E+03 -0.84244336127E+02 -0.17896274944E+03  0.27085007766E+03  0.12699999809E+01 0.  1.
</event>
<event>
 5   0  0.3117389E-01  0.5066908E+03  0.7818609E-02  0.1012047E+00
       -2   -1    0    0    0  501  0.00000000000E+00  0.00000000000E+00  0.60392640962E+03  0.60392640962E+03  0.25500000920E-02 0. -1.
        2   -1    0    0  501    0  0.00000000000E+00  0.00000000000E+00 -0.10627767899E+03  0.10627767902E+03  0.25500000920E-02 0.  1.
    10030    2    1    2    0    0  0.00000000000E+00  0.00000000000E+00  0.49764873062E+03  0.71020408865E+03  0.50669082135E+03 0.  0.
        4    1    3    3  502    0 -0.11444056937E+02 -0.18467725189E+03  0.62712477038E+01  0.18514209476E+03  0.12699999809E+01 0.  1.
       -4    1    3    3    0  502  0.11444056937E+02  0.18467725189E+03  0.49137748292E+03  0.52506199389E+03  0.12699999809E+01 0. -1.
</event>
<event>
 5   0  0.1984680E-01  0.4630687E+03  0.7818609E-02  0.1023895E+00
       -1   -1    0    0    0  501  0.00000000000E+00  0.00000000000E+00  0.34429492429E+03  0.34429492433E+03  0.50400001928E-02 0.  1.
        1   -1    0    0  501    0  0.00000000000E+00  0.00000000000E+00 -0.15570418249E+03  0.15570418257E+03  0.50400001928E-02 0. -1.
    10030    2    1    2    0    0  0.00000000000E+00  0.00000000000E+00  0.18859074181E+03  0.49999910690E+03  0.46306871953E+03 0.  0.
        5    1    3    3  502    0  0.10255470044E+03 -0.84615122119E+02 -0.11031363205E+03  0.17282468831E+03  0.46999998093E+01 0. -1.
       -5    1    3    3    0  502 -0.10255470044E+03  0.84615122119E+02  0.29890437386E+03  0.32717441859E+03  0.46999998093E+01 0.  1.
</event>
<event>
 5   0  0.1292375E-01  0.2656285E+03  0.7818609E-02  0.1103808E+00
       -3   -1    0    0    0  501  0.00000000000E+00  0.00000000000E+00  0.16645419844E+03  0.16645422909E+03  0.10100000352E+00 0. -1.
        3   -1    0    0  501    0  0.00000000000E+00  0.00000000000E+00 -0.10597281832E+03  0.10597286645E+03  0.10100000352E+00 0.  1.
    10030    2    1    2    0    0  0.00000000000E+00  0.00000000000E+00  0.60481380125E+02  0.27242709554E+03  0.26562854711E+03 0.  0.
        5    1    3    3  502    0  0.96284885396E+02  0.84615671606E+02 -0.50932287560E+01  0.12836908512E+03  0.46999998093E+01 0. -1.
       -5    1    3    3    0  502 -0.96284885396E+02 -0.84615671606E+02  0.65574608881E+02  0.14405801042E+03  0.46999998093E+01 0.  1.
</event>
<event>
 5   0  0.1984297E-01  0.4968680E+03  0.7818609E-02  0.1014600E+00
        1   -1    0    0  501    0  0.00000000000E+00  0.00000000000E+00  0.21416476233E+04  0.21416476233E+04  0.50400001928E-02 0.  1.
       -1   -1    0    0    0  501  0.00000000000E+00  0.00000000000E+00 -0.28818676925E+02  0.28818677365E+02  0.50400001928E-02 0. -1.
    10030    2    1    2    0    0  0.00000000000E+00  0.00000000000E+00  0.21128289464E+04  0.21704663007E+04  0.49686799627E+03 0.  0.
        3    1    3    3  502    0 -0.17164695614E+03  0.72864391100E+02  0.33932785300E+03  0.38718897074E+03  0.10100000352E+00 0. -1.
       -3    1    3    3    0  502  0.17164695614E+03 -0.72864391100E+02  0.17735010934E+04  0.17832773300E+04  0.10100000352E+00 0.  1.
</event>
<event>
 5   0  0.1984680E-01  0.5066676E+03  0.7818609E-02  0.1012053E+00
       -1   -1    0    0    0  501  0.00000000000E+00  0.00000000000E+00  0.15080615309E+03  0.15080615317E+03  0.50400001928E-02 0.  1.
        1   -1    0    0  501    0  0.00000000000E+00  0.00000000000E+00 -0.42556636204E+03  0.42556636207E+03  0.50400001928E-02 0. -1.
    10030    2    1    2    0    0  0.00000000000E+00  0.00000000000E+00 -0.27476020896E+03  0.57637251524E+03  0.50666764639E+03 0.  0.
        5    1    3    3  502    0 -0.12219446438E+03  0.20388787370E+03 -0.37855712384E+02  0.24074238748E+03  0.46999998093E+01 0.  1.
       -5    1    3    3    0  502  0.12219446438E+03 -0.20388787370E+03 -0.23690449657E+03  0.33563012777E+03  0.46999998093E+01 0. -1.
</event>
<event>
 5   0  0.3187123E-01  0.4911747E+03  0.7818609E-02  0.1016108E+00
        2   -1    0    0  501    0  0.00000000000E+00  0.00000000000E+00  0.54438642142E+03  0.54438642143E+03  0.25500000920E-02 0.  1.
       -2   -1    0    0    0  501  0.00000000000E+00  0.00000000000E+00 -0.11079107613E+03  0.11079107616E+03  0.25500000920E-02 0. -1.
    10030    2    1    2    0    0  0.00000000000E+00  0.00000000000E+00  0.43359534529E+03  0.65517749759E+03  0.49117474476E+03 0.  0.
        5    1    3    3  502    0 -0.21085917009E+03  0.29514477561E+02  0.37993942805E+03  0.43555568299E+03  0.46999998093E+01 0.  1.
       -5    1    3    3    0  502  0.21085917009E+03 -0.29514477561E+02  0.53655917237E+02  0.21962181460E+03  0.46999998093E+01 0. -1.
</event>
<event>
 5   0  0.3111146E-01  0.4956240E+03  0.7818609E-02  0.1014927E+00
       -2   -1    0    0    0  501  0.00000000000E+00  0.00000000000E+00  0.38983299691E+02  0.38983299774E+02  0.25500000920E-02 0.  1.
        2   -1    0    0  501    0  0.00000000000E+00  0.00000000000E+00 -0.15753102161E+04  0.15753102161E+04  0.25500000920E-02 0. -1.
    10030    2    1    2    0    0  0.00000000000E+00  0.00000000000E+00 -0.15363269164E+04  0.16142935158E+04  0.49562401204E+03 0.  0.
        1    1    3    3  502    0 -0.25251648420E+02 -0.24489847353E+03 -0.67616097337E+03  0.71958777784E+03  0.50400001928E-02 0.  1.
       -1    1    3    3    0  502  0.25251648420E+02  0.24489847353E+03 -0.86016594299E+03  0.89470573799E+03  0.50400001928E-02 0. -1.
</event>
<event>
 5   0  0.1292375E-01  0.4772437E+03  0.7818609E-02  0.1019895E+00
       -4   -1    0    0    0  501  0.00000000000E+00  0.00000000000E+00  0.10330061220E+03  0.10330841874E+03  0.12699999809E+01 0.  1.
        4   -1    0    0  501    0  0.00000000000E+00  0.00000000000E+00 -0.55118118572E+03  0.55118264885E+03  0.12699999809E+01 0. -1.
    10030    2    1    2    0    0  0.00000000000E+00  0.00000000000E+00 -0.44788057352E+03  0.65449106759E+03  0.47724370024E+03 0.  0.
        5    1    3    3  502    0  0.16206243189E+03 -0.14572330029E+03 -0.35703504987E+03  0.41832478878E+03  0.46999998093E+01 0. -1.
       -5    1    3    3    0  502 -0.16206243189E+03  0.14572330029E+03 -0.90845523652E+02  0.23616627880E+03  0.46999998093E+01 0.  1.
</event>
<event>
 5   0  0.1292375E-01  0.5008198E+03  0.7818609E-02  0.1013565E+00
        4   -1    0    0  501    0  0.00000000000E+00  0.00000000000E+00  0.25268761879E+03  0.25269081026E+03  0.12699999809E+01 0.  1.
       -4   -1    0    0    0  501  0.00000000000E+00  0.00000000000E+00 -0.24814632062E+03  0.24814957049E+03  0.12699999809E+01 0. -1.
    10030    2    1    2    0    0  0.00000000000E+00  0.00000000000E+00  0.45412981712E+01  0.50084038075E+03  0.50081979154E+03 0.  0.
        2    1    3    3  502    0 -0.18369745596E+03 -0.15364519255E+03  0.75441377916E+02  0.25108365544E+03  0.25500000920E-02 0.  1.
       -2    1    3    3    0  502  0.18369745596E+03  0.15364519255E+03 -0.70900079745E+02  0.24975672531E+03  0.25500000920E-02 0. -1.
</event>
<event>
 5   0  0.3111146E-01  0.4590064E+03  0.7818609E-02  0.1025070E+00
       -2   -1    0    0    0  501  0.00000000000E+00  0.00000000000E+00  0.31798273074E+02  0.31798273176E+02  0.25500000920E-02 0.  1.
        2   -1    0    0  501    0  0.00000000000E+00  0.00000000000E+00 -0.16564331604E+04  0.16564331604E+04  0.25500000920E-02 0. -1.
    10030    2    1    2    0    0  0.00000000000E+00  0.00000000000E+00 -0.16246348873E+04  0.16882314336E+04  0.45900637926E+03 0.  0.
        1    1    3    3  502    0  0.57683296840E+01 -0.96204389023E+02 -0.15783969274E+04  0.15813365925E+04  0.50400001928E-02 0. -1.
       -1    1    3    3    0  502 -0.57683296840E+01  0.96204389023E+02 -0.46237959870E+02  0.10689484110E+03  0.50400001928E-02 0.  1.
</event>
<event>
 5   0  0.1292375E-01  0.4996939E+03  0.7818609E-02  0.1013859E+00
        3   -1    0    0  501    0  0.00000000000E+00  0.00000000000E+00  0.45019008341E+03  0.45019009474E+03  0.10100000352E+00 0. -1.
       -3   -1    0    0    0  501  0.00000000000E+00  0.00000000000E+00 -0.13866028136E+03  0.13866031814E+03  0.10100000352E+00 0.  1.
    10030    2    1    2    0    0  0.00000000000E+00  0.00000000000E+00  0.31152980205E+03  0.58885041288E+03  0.49969389748E+03 0.  0.
        2    1    3    3  502    0 -0.15816428217E+03  0.71587220226E+02 -0.55967206915E+02  0.18240887728E+03  0.25500000920E-02 0.  1.
       -2    1    3    3    0  502  0.15816428217E+03 -0.71587220226E+02  0.36749700897E+03  0.40644153560E+03  0.25500000920E-02 0. -1.
</event>
<event>
 5   0  0.3111146E-01  0.5007363E+03  0.7818609E-02  0.1013587E+00
        2   -1    0    0  501    0  0.00000000000E+00  0.00000000000E+00  0.39225135191E+03  0.39225135192E+03  0.25500000920E-02 0.  1.
       -2   -1    0    0    0  501  0.00000000000E+00  0.00000000000E+00 -0.15980622336E+03  0.15980622338E+03  0.25500000920E-02 0. -1.
    10030    2    1    2    0    0  0.00000000000E+00  0.00000000000E+00  0.23244512855E+03  0.55205757530E+03  0.50073628654E+03 0.  0.
        1    1    3    3  502    0 -0.19569605263E+03 -0.13047700157E+03  0.21082517637E+03  0.31586143793E+03  0.50400001928E-02 0.  1.
       -1    1    3    3    0  502  0.19569605263E+03  0.13047700157E+03  0.21619952178E+02  0.23619613737E+03  0.50400001928E-02 0. -1.
</event>
<event>
 5   0  0.3178149E-01  0.5416504E+03  0.7818609E-02  0.1003445E+00
        2   -1    0    0  501    0  0.00000000000E+00  0.00000000000E+00  0.85593294795E+03  0.85593294795E+03  0.25500000920E-02 0.  1.
       -2   -1    0    0    0  501  0.00000000000E+00  0.00000000000E+00 -0.85691643085E+02  0.85691643123E+02  0.25500000920E-02 0. -1.
    10030    2    1    2    0    0  0.00000000000E+00  0.00000000000E+00  0.77024130487E+03  0.94162459108E+03  0.54165044337E+03 0.  0.
        3    1    3    3  502    0  0.11684182361E+03  0.23678358871E+03  0.28041237674E+03  0.38516177232E+03  0.10100000352E+00 0. -1.
       -3    1    3    3    0  502 -0.11684182361E+03 -0.23678358871E+03  0.48982892812E+03  0.55646281876E+03  0.10100000352E+00 0.  1.
</event>
<event>
 5   0  0.2013450E-01  0.4571844E+03  0.7818609E-02  0.1025601E+00
       -1   -1    0    0    0  501  0.00000000000E+00  0.00000000000E+00  0.46123018604E+03  0.46123018607E+03  0.50400001928E-02 0.  1.
        1   -1    0    0  501    0  0.00000000000E+00  0.00000000000E+00 -0.11329352611E+03  0.11329352622E+03  0.50400001928E-02 0. -1.
    10030    2    1    2    0    0  0.00000000000E+00  0.00000000000E+00  0.34793665993E+03  0.57452371229E+03  0.45718440116E+03 0.  0.
        4    1    3    3  502    0 -0.48208149419E+02 -0.21407630323E+03  0.93502155543E+02  0.23853082666E+03  0.12699999809E+01 0. -1.
       -4    1    3    3    0  502  0.48208149419E+02  0.21407630323E+03  0.25443450439E+03  0.33599288564E+03  0.12699999809E+01 0.  1.
</event>
<event>
 5   0  0.2013450E-01  0.4657102E+03  0.7818609E-02  0.1023138E+00
       -1   -1    0    0    0  501  0.00000000000E+00  0.00000000000E+00  0.24332261873E+03  0.24332261878E+03  0.50400001928E-02 0.  1.
        1   -1    0    0  501    0  0.00000000000E+00  0.00000000000E+00 -0.22283788564E+03  0.22283788569E+03  0.50400001928E-02 0. -1.
    10030    2    1    2    0    0  0.00000000000E+00  0.00000000000E+00  0.20484733091E+02  0.46616050447E+03  0.46571020135E+03 0.  0.
        4    1    3    3  502    0  0.15979570094E+03  0.15433194702E+03  0.80072770858E+02  0.23614884595E+03  0.12699999809E+01 0.  1.
       -4    1    3    3    0  502 -0.15979570094E+03 -0.15433194702E+03 -0.59588037767E+02  0.23001165852E+03  0.12699999809E+01 0. -1.
</event>
<event>
 5   0  0.1967161E-01  0.5093427E+03  0.7818609E-02  0.1011369E+00
       -1   -1    0    0    0  501  0.00000000000E+00  0.00000000000E+00  0.56302935756E+02  0.56302935982E+02  0.50400001928E-02 0. -1.
        1   -1    0    0  501    0  0.00000000000E+00  0.00000000000E+00 -0.11519379055E+04  0.11519379055E+04  0.50400001928E-02 0.  1.
    10030    2    1    2    0    0  0.00000000000E+00  0.00000000000E+00 -0.10956349697E+04  0.12082408415E+04  0.50934265885E+03 0.  0.
        1    1    3    3  502    0 -0.78148588342E+02 -0.24134268954E+03 -0.60107177152E+03  0.65241150373E+03  0.50400001928E-02 0.  1.
       -1    1    3    3    0  502  0.78148588342E+02  0.24134268954E+03 -0.49456319823E+03  0.55582933777E+03  0.50400001928E-02 0. -1.
</event>
<event>
 5   0  0.3187123E-01  0.5028182E+03  0.7818609E-02  0.1013046E+00
        2   -1    0    0  501    0  0.00000000000E+00  0.00000000000E+00  0.77940404412E+03  0.77940404413E+03  0.25500000920E-02 0.  1.
       -2   -1    0    0    0  501  0.00000000000E+00  0.00000000000E+00 -0.81095971055E+02  0.81095971095E+02  0.25500000920E-02 0. -1.
    10030    2    1    2    0    0  0.00000000000E+00  0.00000000000E+00  0.69830807307E+03  0.86050001522E+03  0.50281816921E+03 0.  0.
        5    1    3    3  502    0  0.17131537551E+03 -0.61041947816E+02  0.64610906652E+03  0.67123326282E+03  0.46999998093E+01 0.  1.
       -5    1    3    3    0  502 -0.17131537551E+03  0.61041947816E+02  0.52199006543E+02  0.18926675240E+03  0.46999998093E+01 0. -1.
</event>
<event>
 5   0  0.1967161E-01  0.4997176E+03  0.7818609E-02  0.1013853E+00
       -1   -1    0    0    0  501  0.00000000000E+00  0.00000000000E+00  0.16745612161E+03  0.16745612168E+03  0.50400001928E-02 0.  1.
        1   -1    0    0  501    0  0.00000000000E+00  0.00000000000E+00 -0.37281065296E+03  0.37281065300E+03  0.50400001928E-02 0. -1.
    10030    2    1    2    0    0  0.00000000000E+00  0.00000000000E+00 -0.20535453135E+03  0.54026677468E+03  0.49971762454E+03 0.  0.
        1    1    3    3  502    0  0.13074800268E+03  0.89773108285E+02 -0.31141138218E+03  0.34947288901E+03  0.50400001928E-02 0. -1.
       -1    1    3    3    0  502 -0.13074800268E+03 -0.89773108285E+02  0.10605685083E+03  0.19079388567E+03  0.50400001928E-02 0.  1.
</event>
<event>
 5   0  0.1292375E-01  0.4881931E+03  0.7818609E-02  0.1016907E+00
       -3   -1    0    0    0  501  0.00000000000E+00  0.00000000000E+00  0.56626966491E+03  0.56626967392E+03  0.10100000352E+00 0. -1.
        3   -1    0    0  501    0  0.00000000000E+00  0.00000000000E+00 -0.10522035505E+03  0.10522040353E+03  0.10100000352E+00 0.  1.
    10030    2    1    2    0    0  0.00000000000E+00  0.00000000000E+00  0.46104930986E+03  0.67149007745E+03  0.48819305401E+03 0.  0.
        2    1    3    3  502    0 -0.16402338006E+02  0.12864060018E+02  0.56504321249E+03  0.56542758397E+03  0.25500000920E-02 0. -1.
       -2    1    3    3    0  502  0.16402338006E+02 -0.12864060018E+02 -0.10399390263E+03  0.10606249347E+03  0.25500000920E-02 0.  1.
</event>
<event>
 5   0  0.3187123E-01  0.4939023E+03  0.7818609E-02  0.1015383E+00
       -2   -1    0    0    0  501  0.00000000000E+00  0.00000000000E+00  0.49462838139E+02  0.49462838205E+02  0.25500000920E-02 0. -1.
        2   -1    0    0  501    0  0.00000000000E+00  0.00000000000E+00 -0.12329432778E+04  0.12329432778E+04  0.25500000920E-02 0.  1.
    10030    2    1    2    0    0  0.00000000000E+00  0.00000000000E+00 -0.11834804396E+04  0.12824061160E+04  0.49390231353E+03 0.  0.
        5    1    3    3  502    0  0.17546358211E+03  0.58164527093E+02 -0.10167400264E+04  0.10334180917E+04  0.46999998093E+01 0.  1.
       -5    1    3    3    0  502 -0.17546358211E+03 -0.58164527093E+02 -0.16674041324E+03  0.24898802434E+03  0.46999998093E+01 0. -1.
</event>
<event>
 5   0  0.3111146E-01  0.4986803E+03  0.7818609E-02  0.1014124E+00
        2   -1    0    0  501    0  0.00000000000E+00  0.00000000000E+00  0.55861346549E+03  0.55861346549E+03  0.25500000920E-02 0. -1.
       -2   -1    0    0    0  501  0.00000000000E+00  0.00000000000E+00 -0.11129432933E+03  0.11129432936E+03  0.25500000920E-02 0.  1.
    10030    2    1    2    0    0  0.00000000000E+00  0.00000000000E+00  0.44731913615E+03  0.66990779485E+03  0.49868030243E+03 0.  0.
        1    1    3    3  502    0  0.68038407773E+02 -0.18940743498E+03  0.25924687888E+02  0.20291991234E+03  0.50400001928E-02 0. -1.
       -1    1    3    3    0  502 -0.68038407773E+02  0.18940743498E+03  0.42139444827E+03  0.46698788251E+03  0.50400001928E-02 0.  1.
</event>
<event>
 5   0  0.3117389E-01  0.5330455E+03  0.7818609E-02  0.1005496E+00
       -2   -1    0    0    0  501  0.00000000000E+00  0.00000000000E+00  0.47159229907E+02  0.47159229976E+02  0.25500000920E-02 0. -1.
        2   -1    0    0  501    0  0.00000000000E+00  0.00000000000E+00 -0.15062665852E+04  0.15062665852E+04  0.25500000920E-02 0.  1.
    10030    2    1    2    0    0  0.00000000000E+00  0.00000000000E+00 -0.14591073553E+04  0.15534258152E+04  0.53304548492E+03 0.  0.
        4    1    3    3  502    0  0.56572321828E+02  0.73717461947E+02 -0.14575208898E+04  0.14604805541E+04  0.12699999809E+01 0.  1.
       -4    1    3    3    0  502 -0.56572321828E+02 -0.73717461947E+02 -0.15864655383E+01  0.92945261126E+02  0.12699999809E+01 0. -1.
</event>
<event>
 5   0  0.3187123E-01  0.4998211E+03  0.7818609E-02  0.1013826E+00
        2   -1    0    0  501    0  0.00000000000E+00  0.00000000000E+00  0.80831564042E+03  0.80831564043E+03  0.25500000920E-02 0.  1.
       -2   -1    0    0    0  501  0.00000000000E+00  0.00000000000E+00 -0.77265963402E+02  0.77265963444E+02  0.25500000920E-02 0. -1.
    10030    2    1    2    0    0  0.00000000000E+00  0.00000000000E+00  0.73104967702E+03  0.88558160387E+03  0.49982111484E+03 0.  0.
        5    1    3    3  502    0 -0.12385639370E+03  0.12417620409E+03  0.50199402664E+02  0.18248892007E+03  0.46999998093E+01 0. -1.
       -5    1    3    3    0  502  0.12385639370E+03 -0.12417620409E+03  0.68085027435E+03  0.70309268380E+03  0.46999998093E+01 0.  1.
</event>
<event>
 5   0  0.2013450E-01  0.5010185E+03  0.7818609E-02  0.1013513E+00
       -1   -1    0    0    0  501  0.00000000000E+00  0.00000000000E+00  0.19850845581E+03  0.19850845587E+03  0.50400001928E-02 0.  1.
        1   -1    0    0  501    0  0.00000000000E+00  0.00000000000E+00 -0.31613201858E+03  0.31613201862E+03  0.50400001928E-02 0. -1.
    10030    2    1    2    0    0  0.00000000000E+00  0.00000000000E+00 -0.11762356277E+03  0.51464047450E+03  0.50101847817E+03 0.  0.
        4    1    3    3  502    0  0.53072238477E+02  0.17475190367E+03 -0.23493307338E+03  0.29757360804E+03  0.12699999809E+01 0. -1.
       -4    1    3    3    0  502 -0.53072238477E+02 -0.17475190367E+03  0.11730951061E+03  0.21706686646E+03  0.12699999809E+01 0.  1.
</event>
<event>
 5   0  0.3111146E-01  0.5031112E+03  0.7818609E-02  0.1012970E+00
       -2   -1    0    0    0  501  0.00000000000E+00  0.00000000000E+00  0.33156506773E+03  0.33156506774E+03  0.25500000920E-02 0. -1.
        2   -1    0    0  501    0  0.00000000000E+00  0.00000000000E+00 -0.19085310939E+03  0.19085310940E+03  0.25500000920E-02 0.  1.
    10030    2    1    2    0    0  0.00000000000E+00  0.00000000000E+00  0.14071195835E+03  0.52241817715E+03  0.50311121692E+03 0.  0.
        1    1    3    3  502    0  0.13063355940E+03 -0.21377855474E+03  0.93893605354E+02  0.26754888611E+03  0.50400001928E-02 0. -1.
       -1    1    3    3    0  502 -0.13063355940E+03  0.21377855474E+03  0.46818352992E+02  0.25486929103E+03  0.50400001928E-02 0.  1.
</event>
<event>
 5   0  0.2013450E-01  0.3461649E+03  0.7818609E-02  0.1064200E+00
        1   -1    0    0  501    0  0.00000000000E+00  0.00000000000E+00  0.88218713329E+02  0.88218713473E+02  0.50400001928E-02 0.  1.
       -1   -1    0    0    0  501  0.00000000000E+00  0.00000000000E+00 -0.33958261343E+03  0.33958261347E+03  0.50400001928E-02 0. -1.
    10030    2    1    2    0    0  0.00000000000E+00  0.00000000000E+00 -0.25136390010E+03  0.42780132694E+03  0.34616493909E+03 0.  0.
        4    1    3    3  502    0 -0.28320770010E+01  0.60434412458E+02  0.74719335981E+02  0.96150563902E+02  0.12699999809E+01 0.  1.
       -4    1    3    3    0  502  0.28320770010E+01 -0.60434412458E+02 -0.32608323609E+03  0.33165076304E+03  0.12699999809E+01 0. -1.
</event>
<event>
 5   0  0.2000612E-01  0.5649438E+03  0.7818609E-02  0.9980930E-01
        1   -1    0    0  501    0  0.00000000000E+00  0.00000000000E+00  0.12026428130E+03  0.12026428141E+03  0.50400001928E-02 0.  1.
       -1   -1    0    0    0  501  0.00000000000E+00  0.00000000000E+00 -0.66345873338E+03  0.66345873340E+03  0.50400001928E-02 0. -1.
    10030    2    1    2    0    0  0.00000000000E+00  0.00000000000E+00 -0.54319445208E+03  0.78372301481E+03  0.56494384780E+03 0.  0.
        2    1    3    3  502    0  0.24966388255E+03  0.66709877679E+02 -0.11337602375E+03  0.28219919347E+03  0.25500000920E-02 0.  1.
       -2    1    3    3    0  502 -0.24966388255E+03 -0.66709877679E+02 -0.42981842833E+03  0.50152382133E+03  0.25500000920E-02 0. -1.
</event>
<event>
 5   0  0.1292375E-01  0.4992771E+03  0.7818609E-02  0.1013968E+00
       -4   -1    0    0    0  501  0.00000000000E+00  0.00000000000E+00  0.21712897637E+03  0.21713269049E+03  0.12699999809E+01 0.  1.
        4   -1    0    0  501    0  0.00000000000E+00  0.00000000000E+00 -0.28700802531E+03  0.28701083515E+03  0.12699999809E+01 0. -1.
    10030    2    1    2    0    0  0.00000000000E+00  0.00000000000E+00 -0.69879048937E+02  0.50414352564E+03  0.49927709036E+03 0.  0.
        4    1    3    3  502    0  0.15061722935E+03  0.41453174656E+02 -0.23155225824E+03  0.27932414264E+03  0.12699999809E+01 0. -1.
       -4    1    3    3    0  502 -0.15061722935E+03 -0.41453174656E+02  0.16167320930E+03  0.22481938300E+03  0.12699999809E+01 0.  1.
</event>
<event>
 5   0  0.2013450E-01  0.5059782E+03  0.7818609E-02  0.1012230E+00
       -1   -1    0    0    0  501  0.00000000000E+00  0.00000000000E+00  0.11044055718E+03  0.11044055730E+03  0.50400001928E-02 0.  1.
        1   -1    0    0  501    0  0.00000000000E+00  0.00000000000E+00 -0.57952871107E+03  0.57952871109E+03  0.50400001928E-02 0. -1.
    10030    2    1    2    0    0  0.00000000000E+00  0.00000000000E+00 -0.46908815389E+03  0.68996926839E+03  0.50597815684E+03 0.  0.
        4    1    3    3  502    0  0.73228936392E+02 -0.21671421303E+03 -0.38188182553E+03  0.44515488184E+03  0.12699999809E+01 0. -1.
       -4    1    3    3    0  502 -0.73228936392E+02  0.21671421303E+03 -0.87206328354E+02  0.24481438655E+03  0.12699999809E+01 0.  1.
</event>
<event>
 5   0  0.2013450E-01  0.5056719E+03  0.7818609E-02  0.1012309E+00
       -1   -1    0    0    0  501  0.00000000000E+00  0.00000000000E+00  0.23218736863E+03  0.23218736869E+03  0.50400001928E-02 0.  1.
        1   -1    0    0  501    0  0.00000000000E+00  0.00000000000E+00 -0.27532084684E+03  0.27532084688E+03  0.50400001928E-02 0. -1.
    10030    2    1    2    0    0  0.00000000000E+00  0.00000000000E+00 -0.43133478204E+02  0.50750821557E+03  0.50567192124E+03 0.  0.
        4    1    3    3  502    0  0.16680208836E+03  0.12033978009E+03  0.12600397602E+03  0.24121196949E+03  0.12699999809E+01 0.  1.
       -4    1    3    3    0  502 -0.16680208836E+03 -0.12033978009E+03 -0.16913745422E+03  0.26629624608E+03  0.12699999809E+01 0. -1.
</event>
<event>
 5   0  0.3117389E-01  0.4729509E+03  0.7818609E-02  0.1021091E+00
        2   -1    0    0  501    0  0.00000000000E+00  0.00000000000E+00  0.40427788592E+03  0.40427788593E+03  0.25500000920E-02 0.  1.
       -2   -1    0    0    0  501  0.00000000000E+00  0.00000000000E+00 -0.13832227044E+03  0.13832227046E+03  0.25500000920E-02 0. -1.
    10030    2    1    2    0    0  0.00000000000E+00  0.00000000000E+00  0.26595561548E+03  0.54260015639E+03  0.47295088573E+03 0.  0.
        4    1    3    3  502    0  0.17038114336E+03  0.13934453746E+03  0.33804778294E+02  0.22269039061E+03  0.12699999809E+01 0. -1.
       -4    1    3    3    0  502 -0.17038114336E+03 -0.13934453746E+03  0.23215083719E+03  0.31990976578E+03  0.12699999809E+01 0.  1.
</event>
<event>
 5   0  0.3117389E-01  0.5004490E+03  0.7818609E-02  0.1013662E+00
       -2   -1    0    0    0  501  0.00000000000E+00  0.00000000000E+00  0.17336615117E+03  0.17336615118E+03  0.25500000920E-02 0.  1.
        2   -1    0    0  501    0  0.00000000000E+00  0.00000000000E+00 -0.36115649920E+03  0.36115649921E+03  0.25500000920E-02 0. -1.
    10030    2    1    2    0    0  0.00000000000E+00  0.00000000000E+00 -0.18779034803E+03  0.53452265039E+03  0.50044904732E+03 0.  0.
        4    1    3    3  502    0 -0.16704632256E+02 -0.17293230577E+03  0.98437654771E+02  0.19969028994E+03  0.12699999809E+01 0.  1.
       -4    1    3    3    0  502  0.16704632256E+02  0.17293230577E+03 -0.28622800280E+03  0.33483236045E+03  0.12699999809E+01 0. -1.
</event>
<event>
 5   0  0.1984297E-01  0.5073377E+03  0.7818609E-02  0.1011881E+00
       -1   -1    0    0    0  501  0.00000000000E+00  0.00000000000E+00  0.11653977848E+03  0.11653977859E+03  0.50400001928E-02 0. -1.
        1   -1    0    0  501    0  0.00000000000E+00  0.00000000000E+00 -0.55215392378E+03  0.55215392380E+03  0.50400001928E-02 0.  1.
    10030    2    1    2    0    0  0.00000000000E+00  0.00000000000E+00 -0.43561414530E+03  0.66869370239E+03  0.50733774159E+03 0.  0.
        3    1    3    3  502    0 -0.75554070323E+02 -0.23254680702E+03 -0.12878830869E+03  0.27635642503E+03  0.10100000352E+00 0.  1.
       -3    1    3    3    0  502  0.75554070323E+02  0.23254680702E+03 -0.30682583661E+03  0.39233727737E+03  0.10100000352E+00 0. -1.
</event>
<event>
 5   0  0.3329246E-01  0.4956066E+03  0.7818609E-02  0.1014932E+00
       -2   -1    0    0    0  501  0.00000000000E+00  0.00000000000E+00  0.16708493555E+03  0.16708493557E+03  0.25500000920E-02 0.  1.
        2   -1    0    0  501    0  0.00000000000E+00  0.00000000000E+00 -0.36751653908E+03  0.36751653909E+03  0.25500000920E-02 0. -1.
    10030    2    1    2    0    0  0.00000000000E+00  0.00000000000E+00 -0.20043160353E+03  0.53460147465E+03  0.49560660711E+03 0.  0.
        2    1    3    3  502    0 -0.32086649947E+02 -0.14656733800E+03 -0.31295112890E+03  0.34705899608E+03  0.25500000920E-02 0. -1.
       -2    1    3    3    0  502  0.32086649947E+02  0.14656733800E+03  0.11251952537E+03  0.18754247857E+03  0.25500000920E-02 0.  1.
</event>
<event>
 5   0  0.1984680E-01  0.4870973E+03  0.7818609E-02  0.1017203E+00
        1   -1    0    0  501    0  0.00000000000E+00  0.00000000000E+00  0.12436006059E+04  0.12436006059E+04  0.50400001928E-02 0.  1.
       -1   -1    0    0    0  501  0.00000000000E+00  0.00000000000E+00 -0.47696939418E+02  0.47696939684E+02  0.50400001928E-02 0. -1.
    10030    2    1    2    0    0  0.00000000000E+00  0.00000000000E+00  0.11959036665E+04  0.12912975456E+04  0.48709729188E+03 0.  0.
        5    1    3    3  502    0  0.22964309751E+03 -0.30610295818E+02  0.79670494896E+03  0.82971911400E+03  0.46999998093E+01 0. -1.
       -5    1    3    3    0  502 -0.22964309751E+03  0.30610295818E+02  0.39919871753E+03  0.46157843160E+03  0.46999998093E+01 0.  1.
</event>
<event>
 5   0  0.3111146E-01  0.4832788E+03  0.7818609E-02  0.1018238E+00
       -2   -1    0    0    0  501  0.00000000000E+00  0.00000000000E+00  0.82963177161E+03  0.82963177161E+03  0.25500000920E-02 0.  1.
        2   -1    0    0  501    0  0.00000000000E+00  0.00000000000E+00 -0.70380137006E+02  0.70380137052E+02  0.25500000920E-02 0. -1.
    10030    2    1    2    0    0  0.00000000000E+00  0.00000000000E+00  0.75925163460E+03  0.90001190867E+03  0.48327879231E+03 0.  0.
        1    1    3    3  502    0 -0.10744754668E+03 -0.21623419199E+03  0.39703578509E+03  0.46469303389E+03  0.50400001928E-02 0.  1.
       -1    1    3    3    0  502  0.10744754668E+03  0.21623419199E+03  0.36221584951E+03  0.43531887478E+03  0.50400001928E-02 0. -1.
</event>
<event>
 5   0  0.3117389E-01  0.4943294E+03  0.7818609E-02  0.1015270E+00
        2   -1    0    0  501    0  0.00000000000E+00  0.00000000000E+00  0.39388600289E+03  0.39388600290E+03  0.25500000920E-02 0. -1.
       -2   -1    0    0    0  501  0.00000000000E+00  0.00000000000E+00 -0.15509659182E+03  0.15509659184E+03  0.25500000920E-02 0.  1.
    10030    2    1    2    0    0  0.00000000000E+00  0.00000000000E+00  0.23878941107E+03  0.54898259474E+03  0.49432935022E+03 0.  0.
        4    1    3    3  502    0 -0.11921543275E+03  0.21535789515E+03  0.14416347175E+03  0.28526489776E+03  0.12699999809E+01 0.  1.
       -4    1    3    3    0  502  0.11921543275E+03 -0.21535789515E+03  0.94625939316E+02  0.26371769698E+03  0.12699999809E+01 0. -1.
</event>
<event>
 5   0  0.1984297E-01  0.5003424E+03  0.7818609E-02  0.1013690E+00
       -1   -1    0    0    0  501  0.00000000000E+00  0.00000000000E+00  0.87835924183E+02  0.87835924327E+02  0.50400001928E-02 0. -1.
        1   -1    0    0  501    0  0.00000000000E+00  0.00000000000E+00 -0.71252872741E+03  0.71252872743E+03  0.50400001928E-02 0.  1.
    10030    2    1    2    0    0  0.00000000000E+00  0.00000000000E+00 -0.62469280323E+03  0.80036465175E+03  0.50034236016E+03 0.  0.
        3    1    3    3  502    0 -0.30438609105E+02 -0.12206173357E+03  0.33559549042E+02  0.13019919070E+03  0.10100000352E+00 0. -1.
       -3    1    3    3    0  502  0.30438609105E+02  0.12206173357E+03 -0.65825235227E+03  0.67016546106E+03  0.10100000352E+00 0.  1.
</event>
<event>
 5   0  0.3117389E-01  0.3805343E+03  0.7818609E-02  0.1050736E+00
        2   -1    0    0  501    0  0.00000000000E+00  0.00000000000E+00  0.13911598288E+04  0.13911598288E+04  0.25500000920E-02 0.  1.
       -2   -1    0    0    0  501  0.00000000000E+00  0.00000000000E+00 -0.26022597146E+02  0.26022597271E+02  0.25500000920E-02 0. -1.
    10030    2    1    2    0    0  0.00000000000E+00  0.00000000000E+00  0.13651372316E+04  0.14171824261E+04  0.38053431845E+03 0.  0.
        4    1    3    3  502    0  0.15045274956E+02  0.18874803068E+03  0.61311474357E+03  0.64168799355E+03  0.12699999809E+01 0. -1.
       -4    1    3    3    0  502 -0.15045274956E+02 -0.18874803068E+03  0.75202248807E+03  0.77549443251E+03  0.12699999809E+01 0.  1.
</event>
<event>
 5   0  0.3187123E-01  0.5168657E+03  0.7818609E-02  0.1009468E+00
       -2   -1    0    0    0  501  0.00000000000E+00  0.00000000000E+00  0.42165288702E+02  0.42165288779E+02  0.25500000920E-02 0. -1.
        2   -1    0    0  501    0  0.00000000000E+00  0.00000000000E+00 -0.15839462384E+04  0.15839462384E+04  0.25500000920E-02 0.  1.
    10030    2    1    2    0    0  0.00000000000E+00  0.00000000000E+00 -0.15417809497E+04  0.16261115272E+04  0.51686574850E+03 0.  0.
        5    1    3    3  502    0  0.70550189451E+02 -0.81051413805E+02 -0.31598391516E+02  0.11210356487E+03  0.46999998093E+01 0. -1.
       -5    1    3    3    0  502 -0.70550189451E+02  0.81051413805E+02 -0.15101825582E+04  0.15140079623E+04  0.46999998093E+01 0.  1.
</event>
<event>
 5   0  0.3111146E-01  0.5016360E+03  0.7818609E-02  0.1013353E+00
        2   -1    0    0  501    0  0.00000000000E+00  0.00000000000E+00  0.44140836502E+03  0.44140836503E+03  0.25500000920E-02 0. -1.
       -2   -1    0    0    0  501  0.00000000000E+00  0.00000000000E+00 -0.14252035288E+03  0.14252035290E+03  0.25500000920E-02 0.  1.
    10030    2    1    2    0    0  0.00000000000E+00  0.00000000000E+00  0.29888801215E+03  0.58392871793E+03  0.50163602723E+03 0.  0.
        1    1    3    3  502    0 -0.15416011320E+03 -0.19784925698E+03  0.14934702499E+03  0.29191471852E+03  0.50400001928E-02 0.  1.
       -1    1    3    3    0  502  0.15416011320E+03  0.19784925698E+03  0.14954098715E+03  0.29201399941E+03  0.50400001928E-02 0. -1.
</event>
<event>
 5   0  0.2013450E-01  0.5229724E+03  0.7818609E-02  0.1007951E+00
        1   -1    0    0  501    0  0.00000000000E+00  0.00000000000E+00  0.90099043339E+03  0.90099043340E+03  0.50400001928E-02 0.  1.
       -1   -1    0    0    0  501  0.00000000000E+00  0.00000000000E+00 -0.75888734853E+02  0.75888735021E+02  0.50400001928E-02 0. -1.
    10030    2    1    2    0    0  0.00000000000E+00  0.00000000000E+00  0.82510169853E+03  0.97687916842E+03  0.52297236712E+03 0.  0.
        4    1    3    3  502    0  0.86724883025E+02 -0.55967887299E+02 -0.36219878293E+02  0.10939425135E+03  0.12699999809E+01 0. -1.
       -4    1    3    3    0  502 -0.86724883025E+02  0.55967887299E+02  0.86132157683E+03  0.86748491707E+03  0.12699999809E+01 0.  1.
</event>
<event>
 5   0  0.3111146E-01  0.4894681E+03  0.7818609E-02  0.1016565E+00
        2   -1    0    0  501    0  0.00000000000E+00  0.00000000000E+00  0.11493294258E+04  0.11493294258E+04  0.25500000920E-02 0. -1.
       -2   -1    0    0    0  501  0.00000000000E+00  0.00000000000E+00 -0.52112776066E+02  0.52112776128E+02  0.25500000920E-02 0.  1.
    10030    2    1    2    0    0  0.00000000000E+00  0.00000000000E+00  0.10972166497E+04  0.12014422019E+04  0.48946806649E+03 0.  0.
        1    1    3    3  502    0 -0.16045477527E+02  0.16430685171E+03  0.10514547723E+03  0.19572881820E+03  0.50400001928E-02 0.  1.
       -1    1    3    3    0  502  0.16045477527E+02 -0.16430685171E+03  0.99207117246E+03  0.10057133837E+04  0.50400001928E-02 0. -1.
</event>
<event>
 5   0  0.2000612E-01  0.5167999E+03  0.7818609E-02  0.1009485E+00
        1   -1    0    0  501    0  0.00000000000E+00  0.00000000000E+00  0.57111567293E+03  0.57111567296E+03  0.50400001928E-02 0. -1.
       -1   -1    0    0    0  501  0.00000000000E+00  0.00000000000E+00 -0.11691246225E+03  0.11691246236E+03  0.50400001928E-02 0.  1.
    10030    2    1    2    0    0  0.00000000000E+00  0.00000000000E+00  0.45420321068E+03  0.68802813532E+03  0.51679992105E+03 0.  0.
        2    1    3    3  502    0 -0.15057042458E+03 -0.17958789654E+02  0.50565253887E+03  0.52790004827E+03  0.25500000920E-02 0. -1.
       -2    1    3    3    0  502  0.15057042458E+03  0.17958789654E+02 -0.51449328194E+02  0.16012808705E+03  0.25500000920E-02 0.  1.
</event>
<event>
 5   0  0.3178149E-01  0.5112695E+03  0.7818609E-02  0.1010879E+00
       -2   -1    0    0    0  501  0.00000000000E+00  0.00000000000E+00  0.77735832370E+02  0.77735832412E+02  0.25500000920E-02 0.  1.
        2   -1    0    0  501    0  0.00000000000E+00  0.00000000000E+00 -0.84065625629E+03  0.84065625630E+03  0.25500000920E-02 0. -1.
    10030    2    1    2    0    0  0.00000000000E+00  0.00000000000E+00 -0.76292042392E+03  0.91839208871E+03  0.51126945475E+03 0.  0.
        3    1    3    3  502    0  0.19050708998E+03 -0.65081909344E+02 -0.66445831667E+03  0.69428630337E+03  0.10100000352E+00 0. -1.
       -3    1    3    3    0  502 -0.19050708998E+03  0.65081909344E+02 -0.98462107253E+02  0.22410578534E+03  0.10100000352E+00 0.  1.
</event>
<event>
 5   0  0.2013450E-01  0.5135826E+03  0.7818609E-02  0.1010293E+00
        1   -1    0    0  501    0  0.00000000000E+00  0.00000000000E+00  0.80853748103E+03  0.80853748105E+03  0.50400001928E-02 0.  1.
       -1   -1    0    0    0  501  0.00000000000E+00  0.00000000000E+00 -0.81556865107E+02  0.81556865262E+02  0.50400001928E-02 0. -1.
    10030    2    1    2    0    0  0.00000000000E+00  0.00000000000E+00  0.72698061592E+03  0.89009434631E+03  0.51358264126E+03 0.  0.
        4    1    3    3  502    0  0.14612941010E+03  0.18597358626E+03  0.19017782848E+03  0.30349497298E+03  0.12699999809E+01 0. -1.
       -4    1    3    3    0  502 -0.14612941010E+03 -0.18597358626E+03  0.53680278744E+03  0.58659937333E+03  0.12699999809E+01 0.  1.
</event>
<event>
 5   0  0.2013450E-01  0.5116110E+03  0.7818609E-02  0.1010792E+00
        1   -1    0    0  501    0  0.00000000000E+00  0.00000000000E+00  0.17889787386E+04  0.17889787386E+04  0.50400001928E-02 0. -1.
       -1   -1    0    0    0  501  0.00000000000E+00  0.00000000000E+00 -0.36577542339E+02  0.36577542686E+02  0.50400001928E-02 0.  1.
    10030    2    1    2    0    0  0.00000000000E+00  0.00000000000E+00  0.17524011962E+04  0.18255562813E+04  0.51161096891E+03 0.  0.
        4    1    3    3  502    0 -0.20360326914E+03 -0.14950716445E+03  0.73222047968E+03  0.77456770343E+03  0.12699999809E+01 0. -1.
       -4    1    3    3    0  502  0.20360326914E+03  0.14950716445E+03  0.10201807165E+04  0.10509885778E+04  0.12699999809E+01 0.  1.
</event>
<event>
 5   0  0.3111146E-01  0.5067865E+03  0.7818609E-02  0.1012023E+00
       -2   -1    0    0    0  501  0.00000000000E+00  0.00000000000E+00  0.57565539791E+03  0.57565539791E+03  0.25500000920E-02 0.  1.
        2   -1    0    0  501    0  0.00000000000E+00  0.00000000000E+00 -0.11153919007E+03  0.11153919010E+03  0.25500000920E-02 0. -1.
    10030    2    1    2    0    0  0.00000000000E+00  0.00000000000E+00  0.46411620784E+03  0.68719458802E+03  0.50678649096E+03 0.  0.
        1    1    3    3  502    0 -0.13572754994E+03 -0.13528133202E+02 -0.57510960588E+02  0.14802867564E+03  0.50400001928E-02 0. -1.
       -1    1    3    3    0  502  0.13572754994E+03  0.13528133202E+02  0.52162716843E+03  0.53916591237E+03  0.50400001928E-02 0.  1.
</event>
<event>
 5   0  0.3117389E-01  0.4840789E+03  0.7818609E-02  0.1018020E+00
       -2   -1    0    0    0  501  0.00000000000E+00  0.00000000000E+00  0.50776218760E+02  0.50776218824E+02  0.25500000920E-02 0.  1.
        2   -1    0    0  501    0  0.00000000000E+00  0.00000000000E+00 -0.11537504537E+04  0.11537504537E+04  0.25500000920E-02 0. -1.
    10030    2    1    2    0    0  0.00000000000E+00  0.00000000000E+00 -0.11029742349E+04  0.12045266725E+04  0.48407885916E+03 0.  0.
        4    1    3    3  502    0 -0.22586448560E+03 -0.51503848691E+02 -0.37705737283E+03  0.44253958873E+03  0.12699999809E+01 0.  1.
       -4    1    3    3    0  502  0.22586448560E+03  0.51503848691E+02 -0.72591686212E+03  0.76198708381E+03  0.12699999809E+01 0. -1.
</event>
<event>
 5   0  0.1984680E-01  0.5491018E+03  0.7818609E-02  0.1001702E+00
        1   -1    0    0  501    0  0.00000000000E+00  0.00000000000E+00  0.89584248274E+02  0.89584248415E+02  0.50400001928E-02 0. -1.
       -1   -1    0    0    0  501  0.00000000000E+00  0.00000000000E+00 -0.84142230344E+03  0.84142230345E+03  0.50400001928E-02 0.  1.
    10030    2    1    2    0    0  0.00000000000E+00  0.00000000000E+00 -0.75183805516E+03  0.93100655187E+03  0.54910175599E+03 0.  0.
        5    1    3    3  502    0 -0.11284981348E+03 -0.51767451987E+02  0.39190233406E+02  0.13028013617E+03  0.46999998093E+01 0. -1.
       -5    1    3    3    0  502  0.11284981348E+03  0.51767451987E+02 -0.79102828857E+03  0.80072641570E+03  0.46999998093E+01 0.  1.
</event>
<event>
 5   0  0.3111146E-01  0.4988073E+03  0.7818609E-02  0.1014091E+00
        2   -1    0    0  501    0  0.00000000000E+00  0.00000000000E+00  0.63855683307E+03  0.63855683307E+03  0.25500000920E-02 0. -1.
       -2   -1    0    0    0  501  0.00000000000E+00  0.00000000000E+00 -0.97410565100E+02  0.97410565133E+02  0.25500000920E-02 0.  1.
    10030    2    1    2    0    0  0.00000000000E+00  0.00000000000E+00  0.54114626797E+03  0.73596739821E+03  0.49880730537E+03 0.  0.
        1    1    3    3  502    0  0.13917629043E+02 -0.96209810095E+02  0.60945308046E+03  0.61715726137E+03  0.50400001928E-02 0. -1.
       -1    1    3    3    0  502 -0.13917629043E+02  0.96209810095E+02 -0.68306812491E+02  0.11881013684E+03  0.50400001928E-02 0.  1.
</event>
<event>
 5   0  0.3178149E-01  0.5402354E+03  0.7818609E-02  0.1003780E+00
       -2   -1    0    0    0  501  0.00000000000E+00  0.00000000000E+00  0.59858360631E+02  0.59858360685E+02  0.25500000920E-02 0. -1.
        2   -1    0    0  501    0  0.00000000000E+00  0.00000000000E+00 -0.12189371618E+04  0.12189371618E+04  0.25500000920E-02 0.  1.
    10030    2    1    2    0    0  0.00000000000E+00  0.00000000000E+00 -0.11590788011E+04  0.12787955225E+04  0.54023543110E+03 0.  0.
        3    1    3    3  502    0 -0.74006324907E+02  0.38406388404E+02 -0.11877137760E+04  0.11906368089E+04  0.10100000352E+00 0.  1.
       -3    1    3    3    0  502  0.74006324907E+02 -0.38406388404E+02  0.28634974836E+02  0.88158713587E+02  0.10100000352E+00 0. -1.
</event>
<event>
 5   0  0.1967161E-01  0.4990794E+03  0.7818609E-02  0.1014019E+00
       -1   -1    0    0    0  501  0.00000000000E+00  0.00000000000E+00  0.37007938598E+03  0.37007938602E+03  0.50400001928E-02 0. -1.
        1   -1    0    0  501    0  0.00000000000E+00  0.00000000000E+00 -0.16826135212E+03  0.16826135220E+03  0.50400001928E-02 0.  1.
    10030    2    1    2    0    0  0.00000000000E+00  0.00000000000E+00  0.20181803386E+03  0.53834073821E+03  0.49907938409E+03 0.  0.
        1    1    3    3  502    0 -0.15041964361E+03 -0.15175506330E+03  0.23994583129E+03  0.32129374473E+03  0.50400001928E-02 0. -1.
       -1    1    3    3    0  502  0.15041964361E+03  0.15175506330E+03 -0.38127797430E+02  0.21704699349E+03  0.50400001928E-02 0.  1.
</event>
<event>
 5   0  0.2013450E-01  0.5004046E+03  0.7818609E-02  0.1013673E+00
        1   -1    0    0  501    0  0.00000000000E+00  0.00000000000E+00  0.17961710287E+03  0.17961710294E+03  0.50400001928E-02 0. -1.
       -1   -1    0    0    0  501  0.00000000000E+00  0.00000000000E+00 -0.34852584917E+03  0.34852584920E+03  0.50400001928E-02 0.  1.
    10030    2    1    2    0    0  0.00000000000E+00  0.00000000000E+00 -0.16890874630E+03  0.52814295214E+03  0.50040464958E+03 0.  0.
        4    1    3    3  502    0  0.60917882757E+02 -0.18104763597E+03  0.86089666081E+02  0.20952870552E+03  0.12699999809E+01 0. -1.
       -4    1    3    3    0  502 -0.60917882757E+02  0.18104763597E+03 -0.25499841238E+03  0.31861424662E+03  0.12699999809E+01 0.  1.
</event>
<event>
 5   0  0.1967161E-01  0.5126775E+03  0.7818609E-02  0.1010522E+00
       -1   -1    0    0    0  501  0.00000000000E+00  0.00000000000E+00  0.94168855135E+03  0.94168855137E+03  0.50400001928E-02 0.  1.
        1   -1    0    0  501    0  0.00000000000E+00  0.00000000000E+00 -0.69778435141E+02  0.69778435323E+02  0.50400001928E-02 0. -1.
    10030    2    1    2    0    0  0.00000000000E+00  0.00000000000E+00  0.87191011621E+03  0.10114669867E+04  0.51267749552E+03 0.  0.
        1    1    3    3  502    0  0.44881515369E+02 -0.76624074047E+02 -0.38463154136E+02  0.96772999317E+02  0.50400001928E-02 0. -1.
       -1    1    3    3    0  502 -0.44881515369E+02  0.76624074047E+02  0.91037327035E+03  0.91469398737E+03  0.50400001928E-02 0.  1.
</event>
<event>
 5   0  0.1984680E-01  0.4955311E+03  0.7818609E-02  0.1014952E+00
        1   -1    0    0  501    0  0.00000000000E+00  0.00000000000E+00  0.59253506306E+02  0.59253506520E+02  0.50400001928E-02 0. -1.
       -1   -1    0    0    0  501  0.00000000000E+00  0.00000000000E+00 -0.10360191627E+04  0.10360191627E+04  0.50400001928E-02 0.  1.
    10030    2    1    2    0    0  0.00000000000E+00  0.00000000000E+00 -0.97676565635E+03  0.10952726692E+04  0.49553110139E+03 0.  0.
        5    1    3    3  502    0  0.23098235194E+02  0.24623316783E+03 -0.45701705879E+03  0.51966429878E+03  0.46999998093E+01 0. -1.
       -5    1    3    3    0  502 -0.23098235194E+02 -0.24623316783E+03 -0.51974859756E+03  0.57560837040E+03  0.46999998093E+01 0.  1.
</event>
<event>
 5   0  0.1292375E-01  0.4648889E+03  0.7818609E-02  0.1023373E+00
        3   -1    0    0  501    0  0.00000000000E+00  0.00000000000E+00  0.23839370634E+03  0.23839372774E+03  0.10100000352E+00 0. -1.
       -3   -1    0    0    0  501  0.00000000000E+00  0.00000000000E+00 -0.22664359781E+03  0.22664362031E+03  0.10100000352E+00 0.  1.
    10030    2    1    2    0    0  0.00000000000E+00  0.00000000000E+00  0.11750108534E+02  0.46503734805E+03  0.46488887923E+03 0.  0.
        3    1    3    3  502    0  0.65318783393E+02 -0.13750490369E+01 -0.21727010596E+03  0.22688046053E+03  0.10100000352E+00 0.  1.
       -3    1    3    3    0  502 -0.65318783393E+02  0.13750490369E+01  0.22902021450E+03  0.23815688752E+03  0.10100000352E+00 0. -1.
</event>
<event>
 5   0  0.1292375E-01  0.5154378E+03  0.7818609E-02  0.1009826E+00
        3   -1    0    0  501    0  0.00000000000E+00  0.00000000000E+00  0.56578021087E+03  0.56578021989E+03  0.10100000352E+00 0. -1.
       -3   -1    0    0    0  501  0.00000000000E+00  0.00000000000E+00 -0.11739368650E+03  0.11739372995E+03  0.10100000352E+00 0.  1.
    10030    2    1    2    0    0  0.00000000000E+00  0.00000000000E+00  0.44838652438E+03  0.68317394983E+03  0.51543784348E+03 0.  0.
        4    1    3    3  502    0 -0.32159444633E+02 -0.10047625035E+03 -0.87458328890E+02  0.13704115789E+03  0.12699999809E+01 0.  1.
       -4    1    3    3    0  502  0.32159444633E+02  0.10047625035E+03  0.53584485327E+03  0.54613279194E+03  0.12699999809E+01 0. -1.
</event>
<event>
 5   0  0.1984297E-01  0.5164883E+03  0.7818609E-02  0.1009563E+00
       -1   -1    0    0    0  501  0.00000000000E+00  0.00000000000E+00  0.16676163660E+03  0.16676163667E+03  0.50400001928E-02 0.  1.
        1   -1    0    0  501    0  0.00000000000E+00  0.00000000000E+00 -0.39991231818E+03  0.39991231821E+03  0.50400001928E-02 0. -1.
    10030    2    1    2    0    0  0.00000000000E+00  0.00000000000E+00 -0.23315068158E+03  0.56667395488E+03  0.51648826784E+03 0.  0.
        3    1    3    3  502    0  0.58860580180E+02 -0.14393929656E+03 -0.34278059030E+03  0.37640620649E+03  0.10100000352E+00 0. -1.
       -3    1    3    3    0  502 -0.58860580180E+02  0.14393929656E+03  0.10962990872E+03  0.19026774840E+03  0.10100000352E+00 0.  1.
</event>
<event>
 5   0  0.3117389E-01  0.4952317E+03  0.7818609E-02  0.1015031E+00
       -2   -1    0    0    0  501  0.00000000000E+00  0.00000000000E+00  0.61786582712E+02  0.61786582764E+02  0.25500000920E-02 0. -1.
        2   -1    0    0  501    0  0.00000000000E+00  0.00000000000E+00 -0.99234485227E+03  0.99234485227E+03  0.25500000920E-02 0.  1.
    10030    2    1    2    0    0  0.00000000000E+00  0.00000000000E+00 -0.93055826956E+03  0.10541314350E+04  0.49523165215E+03 0.  0.
        4    1    3    3  502    0 -0.82501132693E+02 -0.21702435527E+03 -0.28209935089E+03  0.36535963700E+03  0.12699999809E+01 0.  1.
       -4    1    3    3    0  502  0.82501132693E+02  0.21702435527E+03 -0.64845891867E+03  0.68877179804E+03  0.12699999809E+01 0. -1.
</event>
<event>
 5   0  0.3111146E-01  0.4971791E+03  0.7818609E-02  0.1014518E+00
        2   -1    0    0  501    0  0.00000000000E+00  0.00000000000E+00  0.43927674755E+03  0.43927674755E+03  0.25500000920E-02 0.  1.
       -2   -1    0    0    0  501  0.00000000000E+00  0.00000000000E+00 -0.14067844247E+03  0.14067844249E+03  0.25500000920E-02 0. -1.
    10030    2    1    2    0    0  0.00000000000E+00  0.00000000000E+00  0.29859830508E+03  0.57995519005E+03  0.49717911729E+03 0.  0.
        1    1    3    3  502    0  0.13390656720E+02  0.19000228583E+02  0.43800625866E+03  0.43862261800E+03  0.50400001928E-02 0.  1.
       -1    1    3    3    0  502 -0.13390656720E+02 -0.19000228583E+02 -0.13940795358E+03  0.14133257204E+03  0.50400001928E-02 0. -1.
</event>
<event>
 5   0  0.2000612E-01  0.7234750E+03  0.7818609E-02  0.9677908E-01
       -1   -1    0    0    0  501  0.00000000000E+00  0.00000000000E+00  0.28891702727E+03  0.28891702731E+03  0.50400001928E-02 0.  1.
        1   -1    0    0  501    0  0.00000000000E+00  0.00000000000E+00 -0.45291212963E+03  0.45291212966E+03  0.50400001928E-02 0. -1.
    10030    2    1    2    0    0  0.00000000000E+00  0.00000000000E+00 -0.16399510236E+03  0.74182915697E+03  0.72347501998E+03 0.  0.
        2    1    3    3  502    0 -0.98088397798E+02  0.53231365707E+02  0.27082357736E+03  0.29291692020E+03  0.25500000920E-02 0.  1.
       -2    1    3    3    0  502  0.98088397798E+02 -0.53231365707E+02 -0.43481867973E+03  0.44891223677E+03  0.25500000920E-02 0. -1.
</event>
<event>
 5   0  0.3187123E-01  0.5041229E+03  0.7818609E-02  0.1012708E+00
       -2   -1    0    0    0  501  0.00000000000E+00  0.00000000000E+00  0.47760811381E+02  0.47760811449E+02  0.25500000920E-02 0. -1.
        2   -1    0    0  501    0  0.00000000000E+00  0.00000000000E+00 -0.13302740180E+04  0.13302740180E+04  0.25500000920E-02 0.  1.
    10030    2    1    2    0    0  0.00000000000E+00  0.00000000000E+00 -0.12825132066E+04  0.13780348295E+04  0.50412286799E+03 0.  0.
        5    1    3    3  502    0  0.74477620694E+02  0.13410997144E+03 -0.94684103650E+02  0.18033183276E+03  0.46999998093E+01 0. -1.
       -5    1    3    3    0  502 -0.74477620694E+02 -0.13410997144E+03 -0.11878291030E+04  0.11977029967E+04  0.46999998093E+01 0.  1.
</event>
<event>
 5   0  0.1292375E-01  0.4990352E+03  0.7818609E-02  0.1014031E+00
        3   -1    0    0  501    0  0.00000000000E+00  0.00000000000E+00  0.15980015563E+03  0.15980018755E+03  0.10100000352E+00 0.  1.
       -3   -1    0    0    0  501  0.00000000000E+00  0.00000000000E+00 -0.38960549599E+03  0.38960550908E+03  0.10100000352E+00 0. -1.
    10030    2    1    2    0    0  0.00000000000E+00  0.00000000000E+00 -0.22980534036E+03  0.54940569663E+03  0.49903519418E+03 0.  0.
        3    1    3    3  502    0  0.38209425650E+02  0.15640965389E+03  0.94955097847E+02  0.18692356953E+03  0.10100000352E+00 0.  1.
       -3    1    3    3    0  502 -0.38209425650E+02 -0.15640965389E+03 -0.32476043820E+03  0.36248212709E+03  0.10100000352E+00 0. -1.
</event>
<event>
 5   0  0.1292375E-01  0.4987129E+03  0.7818609E-02  0.1014115E+00
       -3   -1    0    0    0  501  0.00000000000E+00  0.00000000000E+00  0.15863914053E+03  0.15863917268E+03  0.10100000352E+00 0.  1.
        3   -1    0    0  501    0  0.00000000000E+00  0.00000000000E+00 -0.39195012077E+03  0.39195013378E+03  0.10100000352E+00 0. -1.
    10030    2    1    2    0    0  0.00000000000E+00  0.00000000000E+00 -0.23331098024E+03  0.55058930647E+03  0.49871291431E+03 0.  0.
        3    1    3    3  502    0  0.12331371525E+03 -0.18211494823E+01  0.12261162657E+03  0.17390575069E+03  0.10100000352E+00 0.  1.
       -3    1    3    3    0  502 -0.12331371525E+03  0.18211494823E+01 -0.35592260681E+03  0.37668355577E+03  0.10100000352E+00 0. -1.
</event>
<event>
 5   0  0.2000612E-01  0.5648486E+03  0.7818609E-02  0.9981143E-01
       -1   -1    0    0    0  501  0.00000000000E+00  0.00000000000E+00  0.41987846601E+02  0.41987846903E+02  0.50400001928E-02 0.  1.
        1   -1    0    0  501    0  0.00000000000E+00  0.00000000000E+00 -0.18996804622E+04  0.18996804622E+04  0.50400001928E-02 0. -1.
    10030    2    1    2    0    0  0.00000000000E+00  0.00000000000E+00 -0.18576926156E+04  0.19416683091E+04  0.56484862446E+03 0.  0.
        2    1    3    3  502    0  0.10462275157E+02  0.93490169661E+02 -0.13452862847E+02  0.95030787380E+02  0.25500000920E-02 0.  1.
       -2    1    3    3    0  502 -0.10462275157E+02 -0.93490169661E+02 -0.18442397528E+04  0.18466375218E+04  0.25500000920E-02 0. -1.
</event>
<event>
 5   0  0.3329246E-01  0.5446294E+03  0.7818609E-02  0.1002745E+00
        2   -1    0    0  501    0  0.00000000000E+00  0.00000000000E+00  0.39662236773E+03  0.39662236773E+03  0.25500000920E-02 0. -1.
       -2   -1    0    0    0  501  0.00000000000E+00  0.00000000000E+00 -0.18696701625E+03  0.18696701627E+03  0.25500000920E-02 0.  1.
    10030    2    1    2    0    0  0.00000000000E+00  0.00000000000E+00  0.20965535147E+03  0.58358938401E+03  0.54462941779E+03 0.  0.
        2    1    3    3  502    0 -0.19871033920E+03 -0.76194728382E+02  0.28687467749E+03  0.35719534730E+03  0.25500000920E-02 0. -1.
       -2    1    3    3    0  502  0.19871033920E+03  0.76194728382E+02 -0.77219326017E+02  0.22639403671E+03  0.25500000920E-02 0.  1.
</event>
<event>
 5   0  0.3178149E-01  0.4335639E+03  0.7818609E-02  0.1032740E+00
       -2   -1    0    0    0  501  0.00000000000E+00  0.00000000000E+00  0.14619144672E+03  0.14619144675E+03  0.25500000920E-02 0.  1.
        2   -1    0    0  501    0  0.00000000000E+00  0.00000000000E+00 -0.32145799596E+03  0.32145799597E+03  0.25500000920E-02 0. -1.
    10030    2    1    2    0    0  0.00000000000E+00  0.00000000000E+00 -0.17526654923E+03  0.46764944271E+03  0.43356387994E+03 0.  0.
        3    1    3    3  502    0  0.87709850427E+02  0.30070975639E+02 -0.29899027681E+03  0.31303750137E+03  0.10100000352E+00 0. -1.
       -3    1    3    3    0  502 -0.87709850427E+02 -0.30070975639E+02  0.12372372758E+03  0.15461194134E+03  0.10100000352E+00 0.  1.
</event>
<event>
 5   0  0.1292375E-01  0.5085786E+03  0.7818609E-02  0.1011564E+00
       -3   -1    0    0    0  501  0.00000000000E+00  0.00000000000E+00  0.19276697825E+03  0.19276700471E+03  0.10100000352E+00 0.  1.
        3   -1    0    0  501    0  0.00000000000E+00  0.00000000000E+00 -0.33544669269E+03  0.33544670790E+03  0.10100000352E+00 0. -1.
    10030    2    1    2    0    0  0.00000000000E+00  0.00000000000E+00 -0.14267971444E+03  0.52821371260E+03  0.50857863234E+03 0.  0.
        2    1    3    3  502    0 -0.44835754512E+02 -0.42819728279E+00 -0.33130864456E+03  0.33432894910E+03  0.25500000920E-02 0. -1.
       -2    1    3    3    0  502  0.44835754512E+02  0.42819728279E+00  0.18862893012E+03  0.19388476351E+03  0.25500000920E-02 0.  1.
</event>
<event>
 5   0  0.3111146E-01  0.5029040E+03  0.7818609E-02  0.1013024E+00
        2   -1    0    0  501    0  0.00000000000E+00  0.00000000000E+00  0.37848051498E+03  0.37848051499E+03  0.25500000920E-02 0. -1.
       -2   -1    0    0    0  501  0.00000000000E+00  0.00000000000E+00 -0.16705773114E+03  0.16705773116E+03  0.25500000920E-02 0.  1.
    10030    2    1    2    0    0  0.00000000000E+00  0.00000000000E+00  0.21142278385E+03  0.54553824615E+03  0.50290395155E+03 0.  0.
        1    1    3    3  502    0 -0.16368015917E+03 -0.10064869856E+03  0.28165507549E+03  0.34095591592E+03  0.50400001928E-02 0. -1.
       -1    1    3    3    0  502  0.16368015917E+03  0.10064869856E+03 -0.70232291647E+02  0.20458233023E+03  0.50400001928E-02 0.  1.
</event>
<event>
 5   0  0.3117389E-01  0.5020717E+03  0.7818609E-02  0.1013240E+00
       -2   -1    0    0    0  501  0.00000000000E+00  0.00000000000E+00  0.57078083369E+02  0.57078083426E+02  0.25500000920E-02 0. -1.
        2   -1    0    0  501    0  0.00000000000E+00  0.00000000000E+00 -0.11040839579E+04  0.11040839579E+04  0.25500000920E-02 0.  1.
    10030    2    1    2    0    0  0.00000000000E+00  0.00000000000E+00 -0.10470058745E+04  0.11611620413E+04  0.50207169300E+03 0.  0.
        4    1    3    3  502    0 -0.53062204124E+02  0.91123182699E+01  0.43561053834E+02  0.69266226704E+02  0.12699999809E+01 0. -1.
       -4    1    3    3    0  502  0.53062204124E+02 -0.91123182699E+01 -0.10905669283E+04  0.10918958146E+04  0.12699999809E+01 0.  1.
</event>
<event>
 5   0  0.1984680E-01  0.5001817E+03  0.7818609E-02  0.1013731E+00
       -1   -1    0    0    0  501  0.00000000000E+00  0.00000000000E+00  0.45287392853E+03  0.45287392856E+03  0.50400001928E-02 0. -1.
        1   -1    0    0  501    0  0.00000000000E+00  0.00000000000E+00 -0.13810784034E+03  0.13810784043E+03  0.50400001928E-02 0.  1.
    10030    2    1    2    0    0  0.00000000000E+00  0.00000000000E+00  0.31476608820E+03  0.59098176899E+03  0.50018172798E+03 0.  0.
        5    1    3    3  502    0  0.74392675556E+02  0.15591128192E+02  0.43884122453E+03  0.44539989200E+03  0.46999998093E+01 0. -1.
       -5    1    3    3    0  502 -0.74392675556E+02 -0.15591128192E+02 -0.12407513633E+03  0.14558187699E+03  0.46999998093E+01 0.  1.
</event>
<event>
 5   0  0.2000612E-01  0.4851559E+03  0.7818609E-02  0.1017728E+00
       -1   -1    0    0    0  501  0.00000000000E+00  0.00000000000E+00  0.20819738323E+03  0.20819738329E+03  0.50400001928E-02 0.  1.
        1   -1    0    0  501    0  0.00000000000E+00  0.00000000000E+00 -0.28263595942E+03  0.28263595947E+03  0.50400001928E-02 0. -1.
    10030    2    1    2    0    0  0.00000000000E+00  0.00000000000E+00 -0.74438576188E+02  0.49083334276E+03  0.48515592209E+03 0.  0.
        2    1    3    3  502    0  0.12305603095E+03  0.15340576830E+03  0.10645650574E+03  0.22362715426E+03  0.25500000920E-02 0.  1.
       -2    1    3    3    0  502 -0.12305603095E+03 -0.15340576830E+03 -0.18089508193E+03  0.26720618850E+03  0.25500000920E-02 0. -1.
</event>
<event>
 5   0  0.1984680E-01  0.5069546E+03  0.7818609E-02  0.1011979E+00
       -1   -1    0    0    0  501  0.00000000000E+00  0.00000000000E+00  0.17808948263E+03  0.17808948270E+03  0.50400001928E-02 0.  1.
        1   -1    0    0  501    0  0.00000000000E+00  0.00000000000E+00 -0.36077788995E+03  0.36077788999E+03  0.50400001928E-02 0. -1.
    10030    2    1    2    0    0  0.00000000000E+00  0.00000000000E+00 -0.18268840732E+03  0.53886737269E+03  0.50695462438E+03 0.  0.
        5    1    3    3  502    0 -0.14997808315E+02 -0.48177101780E+02  0.17265003787E+03  0.17993357932E+03  0.46999998093E+01 0.  1.
       -5    1    3    3    0  502  0.14997808315E+02  0.48177101780E+02 -0.35533844520E+03  0.35893379337E+03  0.46999998093E+01 0. -1.
</event>
<event>
 5   0  0.3178149E-01  0.4983569E+03  0.7818609E-02  0.1014209E+00
        2   -1    0    0  501    0  0.00000000000E+00  0.00000000000E+00  0.53222624834E+03  0.53222624835E+03  0.25500000920E-02 0.  1.
       -2   -1    0    0    0  501  0.00000000000E+00  0.00000000000E+00 -0.11666072011E+03  0.11666072014E+03  0.25500000920E-02 0. -1.
    10030    2    1    2    0    0  0.00000000000E+00  0.00000000000E+00  0.41556552823E+03  0.64888696849E+03  0.49835688981E+03 0.  0.
        3    1    3    3  502    0 -0.16086357354E+03  0.14964040202E+03  0.36085316420E+03  0.42247408858E+03  0.10100000352E+00 0.  1.
       -3    1    3    3    0  502  0.16086357354E+03 -0.14964040202E+03  0.54712364026E+02  0.22641287990E+03  0.10100000352E+00 0. -1.
</event>
<event>
 5   0  0.3329246E-01  0.5335035E+03  0.7818609E-02  0.1005386E+00
        2   -1    0    0  501    0  0.00000000000E+00  0.00000000000E+00  0.91830767178E+03  0.91830767178E+03  0.25500000920E-02 0. -1.
       -2   -1    0    0    0  501  0.00000000000E+00  0.00000000000E+00 -0.77486541602E+02  0.77486541644E+02  0.25500000920E-02 0.  1.
    10030    2    1    2    0    0  0.00000000000E+00  0.00000000000E+00  0.84082113018E+03  0.99579421343E+03  0.53350346066E+03 0.  0.
        2    1    3    3  502    0 -0.26140201129E+03 -0.31078070032E+02  0.33991992906E+03  0.42993303678E+03  0.25500000920E-02 0.  1.
       -2    1    3    3    0  502  0.26140201129E+03  0.31078070032E+02  0.50090120112E+03  0.56586117664E+03  0.25500000920E-02 0. -1.
</event>
<event>
 5   0  0.3187123E-01  0.5085816E+03  0.7818609E-02  0.1011563E+00
        2   -1    0    0  501    0  0.00000000000E+00  0.00000000000E+00  0.15684020098E+03  0.15684020100E+03  0.25500000920E-02 0.  1.
       -2   -1    0    0    0  501  0.00000000000E+00  0.00000000000E+00 -0.41229110524E+03  0.41229110525E+03  0.25500000920E-02 0. -1.
    10030    2    1    2    0    0  0.00000000000E+00  0.00000000000E+00 -0.25545090426E+03  0.56913130625E+03  0.50858163481E+03 0.  0.
        5    1    3    3  502    0 -0.21888989269E+02 -0.16460387261E+03  0.87727454801E+02  0.18786100993E+03  0.46999998093E+01 0.  1.
       -5    1    3    3    0  502  0.21888989269E+02  0.16460387261E+03 -0.34317835906E+03  0.38127029632E+03  0.46999998093E+01 0. -1.
</event>
<event>
 5   0  0.1292375E-01  0.4295301E+03  0.7818609E-02  0.1034008E+00
        3   -1    0    0  501    0  0.00000000000E+00  0.00000000000E+00  0.56685846754E+03  0.56685847654E+03  0.10100000352E+00 0.  1.
       -3   -1    0    0    0  501  0.00000000000E+00  0.00000000000E+00 -0.81367775673E+02  0.81367838357E+02  0.10100000352E+00 0. -1.
    10030    2    1    2    0    0  0.00000000000E+00  0.00000000000E+00  0.48549069187E+03  0.64822631489E+03  0.42953014264E+03 0.  0.
        5    1    3    3  502    0 -0.59881287576E+00  0.18040426030E+03  0.41845556958E+03  0.45571176134E+03  0.46999998093E+01 0.  1.
       -5    1    3    3    0  502  0.59881287576E+00 -0.18040426030E+03  0.67035122287E+02  0.19251455356E+03  0.46999998093E+01 0. -1.
</event>
<event>
 5   0  0.2013450E-01  0.5106916E+03  0.7818609E-02  0.1011025E+00
        1   -1    0    0  501    0  0.00000000000E+00  0.00000000000E+00  0.88060618770E+03  0.88060618772E+03  0.50400001928E-02 0.  1.
       -1   -1    0    0    0  501  0.00000000000E+00  0.00000000000E+00 -0.74041573633E+02  0.74041573805E+02  0.50400001928E-02 0. -1.
    10030    2    1    2    0    0  0.00000000000E+00  0.00000000000E+00  0.80656461407E+03  0.95464776152E+03  0.51069156240E+03 0.  0.
        4    1    3    3  502    0 -0.25971171453E+01  0.19699415457E+03  0.99631349534E+02  0.22077468301E+03  0.12699999809E+01 0. -1.
       -4    1    3    3    0  502  0.25971171453E+01 -0.19699415457E+03  0.70693326453E+03  0.73387307851E+03  0.12699999809E+01 0.  1.
</event>
<event>
 5   0  0.1967161E-01  0.5031551E+03  0.7818609E-02  0.1012959E+00
       -1   -1    0    0    0  501  0.00000000000E+00  0.00000000000E+00  0.11853210997E+03  0.11853211008E+03  0.50400001928E-02 0. -1.
        1   -1    0    0  501    0  0.00000000000E+00  0.00000000000E+00 -0.53395878479E+03  0.53395878481E+03  0.50400001928E-02 0.  1.
    10030    2    1    2    0    0  0.00000000000E+00  0.00000000000E+00 -0.41542667481E+03  0.65249089489E+03  0.50315509117E+03 0.  0.
        1    1    3    3  502    0  0.21476159764E+03 -0.32010352887E+02 -0.42943050755E+02  0.22133981148E+03  0.50400001928E-02 0. -1.
       -1    1    3    3    0  502 -0.21476159764E+03  0.32010352887E+02 -0.37248362406E+03  0.43115108342E+03  0.50400001928E-02 0.  1.
</event>
<event>
 5   0  0.3329246E-01  0.5286184E+03  0.7818609E-02  0.1006568E+00
        2   -1    0    0  501    0  0.00000000000E+00  0.00000000000E+00  0.75987790707E+02  0.75987790750E+02  0.25500000920E-02 0.  1.
       -2   -1    0    0    0  501  0.00000000000E+00  0.00000000000E+00 -0.91934975408E+03  0.91934975408E+03  0.25500000920E-02 0. -1.
    10030    2    1    2    0    0  0.00000000000E+00  0.00000000000E+00 -0.84336196337E+03  0.99533754483E+03  0.52861841331E+03 0.  0.
        2    1    3    3  502    0  0.47408581330E+02  0.25917660128E+03 -0.46114443609E+03  0.53110665141E+03  0.25500000920E-02 0. -1.
       -2    1    3    3    0  502 -0.47408581330E+02 -0.25917660128E+03 -0.38221752728E+03  0.46423089342E+03  0.25500000920E-02 0.  1.
</event>
<event>
 5   0  0.1984680E-01  0.5131695E+03  0.7818609E-02  0.1010398E+00
       -1   -1    0    0    0  501  0.00000000000E+00  0.00000000000E+00  0.77971885215E+03  0.77971885217E+03  0.50400001928E-02 0.  1.
        1   -1    0    0  501    0  0.00000000000E+00  0.00000000000E+00 -0.84435234917E+02  0.84435235067E+02  0.50400001928E-02 0. -1.
    10030    2    1    2    0    0  0.00000000000E+00  0.00000000000E+00  0.69528361723E+03  0.86415408724E+03  0.51316954127E+03 0.  0.
        5    1    3    3  502    0 -0.68413057983E+02  0.13256732533E+03 -0.38136765912E+01  0.14930196373E+03  0.46999998093E+01 0. -1.
       -5    1    3    3    0  502  0.68413057983E+02 -0.13256732533E+03  0.69909729383E+03  0.71485212350E+03  0.46999998093E+01 0.  1.
</event>
<event>
 5   0  0.2013450E-01  0.4992962E+03  0.7818609E-02  0.1013963E+00
        1   -1    0    0  501    0  0.00000000000E+00  0.00000000000E+00  0.85374851649E+03  0.85374851651E+03  0.50400001928E-02 0. -1.
       -1   -1    0    0    0  501  0.00000000000E+00  0.00000000000E+00 -0.73000632327E+02  0.73000632501E+02  0.50400001928E-02 0.  1.
    10030    2    1    2    0    0  0.00000000000E+00  0.00000000000E+00  0.78074788417E+03  0.92674914901E+03  0.49929623127E+03 0.  0.
        4    1    3    3  502    0  0.11799572187E+03  0.21937695792E+03  0.42106038309E+03  0.48922663373E+03  0.12699999809E+01 0.  1.
       -4    1    3    3    0  502 -0.11799572187E+03 -0.21937695792E+03  0.35968750108E+03  0.43752251528E+03  0.12699999809E+01 0. -1.
</event>
<event>
 5   0  0.3117389E-01  0.4943364E+03  0.7818609E-02  0.1015268E+00
        2   -1    0    0  501    0  0.00000000000E+00  0.00000000000E+00  0.36405197059E+03  0.36405197060E+03  0.25500000920E-02 0.  1.
       -2   -1    0    0    0  501  0.00000000000E+00  0.00000000000E+00 -0.16781155879E+03  0.16781155881E+03  0.25500000920E-02 0. -1.
    10030    2    1    2    0    0  0.00000000000E+00  0.00000000000E+00  0.19624041181E+03  0.53186352941E+03  0.49433643876E+03 0.  0.
        4    1    3    3  502    0 -0.81468551381E+02 -0.11854490709E+03 -0.11813717287E+03  0.18613979793E+03  0.12699999809E+01 0. -1.
       -4    1    3    3    0  502  0.81468551381E+02  0.11854490709E+03  0.31437758467E+03  0.34572373148E+03  0.12699999809E+01 0.  1.
</event>
<event>
 5   0  0.1984680E-01  0.4460586E+03  0.7818609E-02  0.1028904E+00
        1   -1    0    0  501    0  0.00000000000E+00  0.00000000000E+00  0.12265614746E+03  0.12265614756E+03  0.50400001928E-02 0. -1.
       -1   -1    0    0    0  501  0.00000000000E+00  0.00000000000E+00 -0.40554084807E+03  0.40554084810E+03  0.50400001928E-02 0.  1.
    10030    2    1    2    0    0  0.00000000000E+00  0.00000000000E+00 -0.28288470062E+03  0.52819699566E+03  0.44605864232E+03 0.  0.
        5    1    3    3  502    0  0.51269557138E+02  0.21189153875E+03 -0.19690013700E+03  0.29379983940E+03  0.46999998093E+01 0. -1.
       -5    1    3    3    0  502 -0.51269557138E+02 -0.21189153875E+03 -0.85984563615E+02  0.23439715626E+03  0.46999998093E+01 0.  1.
</event>
<event>
 5   0  0.3187123E-01  0.5053913E+03  0.7818609E-02  0.1012381E+00
       -2   -1    0    0    0  501  0.00000000000E+00  0.00000000000E+00  0.63255525181E+02  0.63255525233E+02  0.25500000920E-02 0.  1.
        2   -1    0    0  501    0  0.00000000000E+00  0.00000000000E+00 -0.10094784947E+04  0.10094784947E+04  0.25500000920E-02 0. -1.
    10030    2    1    2    0    0  0.00000000000E+00  0.00000000000E+00 -0.94622296950E+03  0.10727340199E+04  0.50539130333E+03 0.  0.
        5    1    3    3  502    0  0.52247022967E+02  0.19877585699E+03 -0.78500388160E+03  0.81147691086E+03  0.46999998093E+01 0. -1.
       -5    1    3    3    0  502 -0.52247022967E+02 -0.19877585699E+03 -0.16121908791E+03  0.26125710906E+03  0.46999998093E+01 0.  1.
</event>
<event>
 5   0  0.3111146E-01  0.4975048E+03  0.7818609E-02  0.1014432E+00
       -2   -1    0    0    0  501  0.00000000000E+00  0.00000000000E+00  0.15052661812E+03  0.15052661814E+03  0.25500000920E-02 0.  1.
        2   -1    0    0  501    0  0.00000000000E+00  0.00000000000E+00 -0.41107510625E+03  0.41107510626E+03  0.25500000920E-02 0. -1.
    10030    2    1    2    0    0  0.00000000000E+00  0.00000000000E+00 -0.26054848813E+03  0.56160172440E+03  0.49750475594E+03 0.  0.
        1    1    3    3  502    0 -0.23039235646E+03  0.60214412749E+02 -0.49097353784E+02  0.24313980257E+03  0.50400001928E-02 0. -1.
       -1    1    3    3    0  502  0.23039235646E+03 -0.60214412749E+02 -0.21145113435E+03  0.31846192184E+03  0.50400001928E-02 0.  1.
</event>
<event>
 5   0  0.1967161E-01  0.5104189E+03  0.7818609E-02  0.1011095E+00
        1   -1    0    0  501    0  0.00000000000E+00  0.00000000000E+00  0.10248775880E+04  0.10248775880E+04  0.50400001928E-02 0. -1.
       -1   -1    0    0    0  501  0.00000000000E+00  0.00000000000E+00 -0.63550867104E+02  0.63550867304E+02  0.50400001928E-02 0.  1.
    10030    2    1    2    0    0  0.00000000000E+00  0.00000000000E+00  0.96132672093E+03  0.10884284554E+04  0.51041888488E+03 0.  0.
        1    1    3    3  502    0  0.24060989405E+03  0.28206672852E+02  0.65183086911E+03  0.69539357163E+03  0.50400001928E-02 0. -1.
       -1    1    3    3    0  502 -0.24060989405E+03 -0.28206672852E+02  0.30949585182E+03  0.39303488373E+03  0.50400001928E-02 0.  1.
</event>
<event>
 5   0  0.1292375E-01  0.4786826E+03  0.7818609E-02  0.1019498E+00
        3   -1    0    0  501    0  0.00000000000E+00  0.00000000000E+00  0.22943614531E+03  0.22943616754E+03  0.10100000352E+00 0.  1.
       -3   -1    0    0    0  501  0.00000000000E+00  0.00000000000E+00 -0.24967407093E+03  0.24967409136E+03  0.10100000352E+00 0. -1.
    10030    2    1    2    0    0  0.00000000000E+00  0.00000000000E+00 -0.20237925616E+02  0.47911025890E+03  0.47868263657E+03 0.  0.
        4    1    3    3  502    0  0.41480973999E+01  0.14855871161E+03  0.17765395133E+03  0.23162348074E+03  0.12699999809E+01 0.  1.
       -4    1    3    3    0  502 -0.41480973999E+01 -0.14855871161E+03 -0.19789187694E+03  0.24748677816E+03  0.12699999809E+01 0. -1.
</event>
<event>
 5   0  0.2000612E-01  0.4708978E+03  0.7818609E-02  0.1021667E+00
        1   -1    0    0  501    0  0.00000000000E+00  0.00000000000E+00  0.57350256669E+03  0.57350256672E+03  0.50400001928E-02 0.  1.
       -1   -1    0    0    0  501  0.00000000000E+00  0.00000000000E+00 -0.96662479986E+02  0.96662480117E+02  0.50400001928E-02 0. -1.
    10030    2    1    2    0    0  0.00000000000E+00  0.00000000000E+00  0.47684008671E+03  0.67016504683E+03  0.47089778265E+03 0.  0.
        2    1    3    3  502    0 -0.12277267079E+03 -0.11671007229E+03  0.56910274681E+01  0.16948969723E+03  0.25500000920E-02 0. -1.
       -2    1    3    3    0  502  0.12277267079E+03  0.11671007229E+03  0.47114905924E+03  0.50067534960E+03  0.25500000920E-02 0.  1.
</event>
<event>
 5   0  0.2013450E-01  0.4874484E+03  0.7818609E-02  0.1017108E+00
        1   -1    0    0  501    0  0.00000000000E+00  0.00000000000E+00  0.38578271698E+03  0.38578271701E+03  0.50400001928E-02 0.  1.
       -1   -1    0    0    0  501  0.00000000000E+00  0.00000000000E+00 -0.15397654823E+03  0.15397654831E+03  0.50400001928E-02 0. -1.
    10030    2    1    2    0    0  0.00000000000E+00  0.00000000000E+00  0.23180616875E+03  0.53975926532E+03  0.48744842254E+03 0.  0.
        4    1    3    3  502    0  0.13686523897E+03  0.28082300660E+02 -0.10522529690E+03  0.17491336500E+03  0.12699999809E+01 0. -1.
       -4    1    3    3    0  502 -0.13686523897E+03 -0.28082300660E+02  0.33703146564E+03  0.36484590032E+03  0.12699999809E+01 0.  1.
</event>
<event>
 5   0  0.2000612E-01  0.4971258E+03  0.7818609E-02  0.1014532E+00
        1   -1    0    0  501    0  0.00000000000E+00  0.00000000000E+00  0.42434843414E+03  0.42434843417E+03  0.50400001928E-02 0. -1.
       -1   -1    0    0    0  501  0.00000000000E+00  0.00000000000E+00 -0.14559618582E+03  0.14559618591E+03  0.50400001928E-02 0.  1.
    10030    2    1    2    0    0  0.00000000000E+00  0.00000000000E+00  0.27875224832E+03  0.56994462008E+03  0.49712579295E+03 0.  0.
        2    1    3    3  502    0 -0.47220748522E+02  0.14742949007E+03  0.36233108123E+03  0.39401658095E+03  0.25500000920E-02 0. -1.
       -2    1    3    3    0  502  0.47220748522E+02 -0.14742949007E+03 -0.83578832908E+02  0.17592803913E+03  0.25500000920E-02 0.  1.
</event>
<event>
 5   0  0.1967161E-01  0.4974733E+03  0.7818609E-02  0.1014441E+00
       -1   -1    0    0    0  501  0.00000000000E+00  0.00000000000E+00  0.54769789180E+03  0.54769789182E+03  0.50400001928E-02 0.  1.
        1   -1    0    0  501    0  0.00000000000E+00  0.00000000000E+00 -0.11296358156E+03  0.11296358167E+03  0.50400001928E-02 0. -1.
    10030    2    1    2    0    0  0.00000000000E+00  0.00000000000E+00  0.43473431024E+03  0.66066147349E+03  0.49747327773E+03 0.  0.
        1    1    3    3  502    0  0.63061908255E+02 -0.23595164813E+02  0.53536513212E+03  0.53958258014E+03  0.50400001928E-02 0.  1.
       -1    1    3    3    0  502 -0.63061908255E+02  0.23595164813E+02 -0.10063082188E+03  0.12107889335E+03  0.50400001928E-02 0. -1.
</event>
<event>
 5   0  0.3187123E-01  0.5017388E+03  0.7818609E-02  0.1013326E+00
       -2   -1    0    0    0  501  0.00000000000E+00  0.00000000000E+00  0.34232444389E+02  0.34232444484E+02  0.25500000920E-02 0.  1.
        2   -1    0    0  501    0  0.00000000000E+00  0.00000000000E+00 -0.18384737423E+04  0.18384737423E+04  0.25500000920E-02 0. -1.
    10030    2    1    2    0    0  0.00000000000E+00  0.00000000000E+00 -0.18042412979E+04  0.18727061868E+04  0.50173877759E+03 0.  0.
        5    1    3    3  502    0 -0.76473559253E+02 -0.17891856970E+03 -0.14928988345E+04  0.15055328226E+04  0.46999998093E+01 0. -1.
       -5    1    3    3    0  502  0.76473559253E+02  0.17891856970E+03 -0.31134246336E+03  0.36717336414E+03  0.46999998093E+01 0.  1.
</event>
<event>
 5   0  0.3329246E-01  0.4857852E+03  0.7818609E-02  0.1017557E+00
       -2   -1    0    0    0  501  0.00000000000E+00  0.00000000000E+00  0.34826984836E+03  0.34826984837E+03  0.25500000920E-02 0.  1.
        2   -1    0    0  501    0  0.00000000000E+00  0.00000000000E+00 -0.16939971769E+03  0.16939971771E+03  0.25500000920E-02 0. -1.
    10030    2    1    2    0    0  0.00000000000E+00  0.00000000000E+00  0.17887013067E+03  0.51766956608E+03  0.48578519533E+03 0.  0.
        2    1    3    3  502    0 -0.51190737534E+02 -0.55025260523E+02  0.33556794911E+03  0.34388096688E+03  0.25500000920E-02 0.  1.
       -2    1    3    3    0  502  0.51190737534E+02  0.55025260523E+02 -0.15669781843E+03  0.17378859921E+03  0.25500000920E-02 0. -1.
</event>
<event>
 5   0  0.2000612E-01  0.4911867E+03  0.7818609E-02  0.1016105E+00
       -1   -1    0    0    0  501  0.00000000000E+00  0.00000000000E+00  0.32439190140E+03  0.32439190144E+03  0.50400001928E-02 0. -1.
        1   -1    0    0  501    0  0.00000000000E+00  0.00000000000E+00 -0.18593585483E+03  0.18593585490E+03  0.50400001928E-02 0.  1.
    10030    2    1    2    0    0  0.00000000000E+00  0.00000000000E+00  0.13845604657E+03  0.51032775634E+03  0.49118666722E+03 0.  0.
        2    1    3    3  502    0  0.21219646861E+03 -0.95677233440E+02 -0.12147939958E+02  0.23308592137E+03  0.25500000920E-02 0.  1.
       -2    1    3    3    0  502 -0.21219646861E+03  0.95677233440E+02  0.15060398653E+03  0.27724183496E+03  0.25500000920E-02 0. -1.
</event>
<event>
 5   0  0.2013450E-01  0.5506858E+03  0.7818609E-02  0.1001335E+00
       -1   -1    0    0    0  501  0.00000000000E+00  0.00000000000E+00  0.15643780953E+03  0.15643780961E+03  0.50400001928E-02 0. -1.
        1   -1    0    0  501    0  0.00000000000E+00  0.00000000000E+00 -0.48462530706E+03  0.48462530708E+03  0.50400001928E-02 0.  1.
    10030    2    1    2    0    0  0.00000000000E+00  0.00000000000E+00 -0.32818749753E+03  0.64106311669E+03  0.55068583243E+03 0.  0.
        4    1    3    3  502    0  0.63474820634E+02 -0.80956723999E+02  0.13322169068E+03  0.16832312908E+03  0.12699999809E+01 0. -1.
       -4    1    3    3    0  502 -0.63474820634E+02  0.80956723999E+02 -0.46140918821E+03  0.47273998761E+03  0.12699999809E+01 0.  1.
</event>
<event>
 5   0  0.1967161E-01  0.4865079E+03  0.7818609E-02  0.1017362E+00
       -1   -1    0    0    0  501  0.00000000000E+00  0.00000000000E+00  0.26558565267E+03  0.26558565272E+03  0.50400001928E-02 0.  1.
        1   -1    0    0  501    0  0.00000000000E+00  0.00000000000E+00 -0.22279996966E+03  0.22279996972E+03  0.50400001928E-02 0. -1.
    10030    2    1    2    0    0  0.00000000000E+00  0.00000000000E+00  0.42785683004E+02  0.48838562244E+03  0.48650786379E+03 0.  0.
        1    1    3    3  502    0  0.15138777710E+03 -0.11533676797E+03  0.17347558088E+03  0.25751622530E+03  0.50400001928E-02 0.  1.
       -1    1    3    3    0  502 -0.15138777710E+03  0.11533676797E+03 -0.13068989788E+03  0.23086939714E+03  0.50400001928E-02 0. -1.
</event>
<event>
 5   0  0.1967161E-01  0.5017583E+03  0.7818609E-02  0.1013321E+00
        1   -1    0    0  501    0  0.00000000000E+00  0.00000000000E+00  0.81647763718E+03  0.81647763720E+03  0.50400001928E-02 0. -1.
       -1   -1    0    0    0  501  0.00000000000E+00  0.00000000000E+00 -0.77087656351E+02  0.77087656516E+02  0.50400001928E-02 0.  1.
    10030    2    1    2    0    0  0.00000000000E+00  0.00000000000E+00  0.73938998083E+03  0.89356529372E+03  0.50175829876E+03 0.  0.
        1    1    3    3  502    0 -0.17625009225E+03  0.64727372223E+02  0.66601890132E+03  0.69197897704E+03  0.50400001928E-02 0. -1.
       -1    1    3    3    0  502  0.17625009225E+03 -0.64727372223E+02  0.73371079516E+02  0.20158631667E+03  0.50400001928E-02 0.  1.
</event>
<event>
 5   0  0.1292375E-01  0.5061938E+03  0.7818609E-02  0.1012175E+00
        3   -1    0    0  501    0  0.00000000000E+00  0.00000000000E+00  0.25119705164E+03  0.25119707195E+03  0.10100000352E+00 0.  1.
       -3   -1    0    0    0  501  0.00000000000E+00  0.00000000000E+00 -0.25501109279E+03  0.25501111280E+03  0.10100000352E+00 0. -1.
    10030    2    1    2    0    0  0.00000000000E+00  0.00000000000E+00 -0.38140411519E+01  0.50620818474E+03  0.50619381603E+03 0.  0.
        3    1    3    3  502    0 -0.10019785289E+03 -0.19519591000E+03  0.12425908140E+03  0.25215348999E+03  0.10100000352E+00 0.  1.
       -3    1    3    3    0  502  0.10019785289E+03  0.19519591000E+03 -0.12807312255E+03  0.25405469475E+03  0.10100000352E+00 0. -1.
</event>
<event>
 5   0  0.2000612E-01  0.5017297E+03  0.7818609E-02  0.1013328E+00
       -1   -1    0    0    0  501  0.00000000000E+00  0.00000000000E+00  0.40540884193E+03  0.40540884196E+03  0.50400001928E-02 0. -1.
        1   -1    0    0  501    0  0.00000000000E+00  0.00000000000E+00 -0.15523384458E+03  0.15523384467E+03  0.50400001928E-02 0.  1.
    10030    2    1    2    0    0  0.00000000000E+00  0.00000000000E+00  0.25017499735E+03  0.56064268663E+03  0.50172970090E+03 0.  0.
        2    1    3    3  502    0  0.80299779183E+02 -0.75140431812E+02  0.37703786619E+03  0.39274889125E+03  0.25500000920E-02 0. -1.
       -2    1    3    3    0  502 -0.80299779183E+02  0.75140431812E+02 -0.12686286884E+03  0.16789379538E+03  0.25500000920E-02 0.  1.
</event>
<event>
 5   0  0.2013450E-01  0.5011519E+03  0.7818609E-02  0.1013479E+00
        1   -1    0    0  501    0  0.00000000000E+00  0.00000000000E+00  0.23257158758E+03  0.23257158764E+03  0.50400001928E-02 0. -1.
       -1   -1    0    0    0  501  0.00000000000E+00  0.00000000000E+00 -0.26997411251E+03  0.26997411256E+03  0.50400001928E-02 0.  1.
    10030    2    1    2    0    0  0.00000000000E+00  0.00000000000E+00 -0.37402524931E+02  0.50254570020E+03  0.50115190503E+03 0.  0.
        4    1    3    3  502    0  0.29270676627E+02  0.46372067819E+02  0.22647730929E+03  0.23302516110E+03  0.12699999809E+01 0. -1.
       -4    1    3    3    0  502 -0.29270676627E+02 -0.46372067819E+02 -0.26387983422E+03  0.26952053909E+03  0.12699999809E+01 0.  1.
</event>
<event>
 5   0  0.1984297E-01  0.5427069E+03  0.7818609E-02  0.1003196E+00
        1   -1    0    0  501    0  0.00000000000E+00  0.00000000000E+00  0.67183918948E+02  0.67183919137E+02  0.50400001928E-02 0. -1.
       -1   -1    0    0    0  501  0.00000000000E+00  0.00000000000E+00 -0.10959868574E+04  0.10959868574E+04  0.50400001928E-02 0.  1.
    10030    2    1    2    0    0  0.00000000000E+00  0.00000000000E+00 -0.10288029385E+04  0.11631707766E+04  0.54270689074E+03 0.  0.
        3    1    3    3  502    0 -0.10966991456E+03  0.17836756528E+03 -0.14447544718E+03  0.25439269554E+03  0.10100000352E+00 0. -1.
       -3    1    3    3    0  502  0.10966991456E+03 -0.17836756528E+03 -0.88432749129E+03  0.90877808103E+03  0.10100000352E+00 0.  1.
</event>
<event>
 5   0  0.3329246E-01  0.5102549E+03  0.7818609E-02  0.1011136E+00
       -2   -1    0    0    0  501  0.00000000000E+00  0.00000000000E+00  0.22537327487E+03  0.22537327489E+03  0.25500000920E-02 0.  1.
        2   -1    0    0  501    0  0.00000000000E+00  0.00000000000E+00 -0.28880982400E+03  0.28880982401E+03  0.25500000920E-02 0. -1.
    10030    2    1    2    0    0  0.00000000000E+00  0.00000000000E+00 -0.63436549126E+02  0.51418309890E+03  0.51025490045E+03 0.  0.
        2    1    3    3  502    0 -0.94419854071E+00 -0.69148065367E+02 -0.27918504222E+03  0.28762238136E+03  0.25500000920E-02 0. -1.
       -2    1    3    3    0  502  0.94419854071E+00  0.69148065367E+02  0.21574849309E+03  0.22656071754E+03  0.25500000920E-02 0.  1.
</event>
<event>
 5   0  0.1984680E-01  0.4766726E+03  0.7818609E-02  0.1020054E+00
        1   -1    0    0  501    0  0.00000000000E+00  0.00000000000E+00  0.56046115466E+03  0.56046115468E+03  0.50400001928E-02 0.  1.
       -1   -1    0    0    0  501  0.00000000000E+00  0.00000000000E+00 -0.10135259122E+03  0.10135259135E+03  0.50400001928E-02 0. -1.
    10030    2    1    2    0    0  0.00000000000E+00  0.00000000000E+00  0.45910856344E+03  0.66181374603E+03  0.47667259352E+03 0.  0.
        5    1    3    3  502    0  0.18156395272E+03  0.12580708783E+03  0.10545551461E+03  0.24481798920E+03  0.46999998093E+01 0. -1.
       -5    1    3    3    0  502 -0.18156395272E+03 -0.12580708783E+03  0.35365304882E+03  0.41699575683E+03  0.46999998093E+01 0.  1.
</event>
<event>
 5   0  0.3111146E-01  0.4938476E+03  0.7818609E-02  0.1015397E+00
       -2   -1    0    0    0  501  0.00000000000E+00  0.00000000000E+00  0.60873127157E+02  0.60873127210E+02  0.25500000920E-02 0.  1.
        2   -1    0    0  501    0  0.00000000000E+00  0.00000000000E+00 -0.10016138324E+04  0.10016138324E+04  0.25500000920E-02 0. -1.
    10030    2    1    2    0    0  0.00000000000E+00  0.00000000000E+00 -0.94074070525E+03  0.10624869596E+04  0.49384761298E+03 0.  0.
        1    1    3    3  502    0 -0.12208412763E+03 -0.18507810530E+03 -0.23653541090E+03  0.32420277592E+03  0.50400001928E-02 0.  1.
       -1    1    3    3    0  502  0.12208412763E+03  0.18507810530E+03 -0.70420529436E+03  0.73828418370E+03  0.50400001928E-02 0. -1.
</event>
<event>
 5   0  0.1984297E-01  0.4964010E+03  0.7818609E-02  0.1014723E+00
       -1   -1    0    0    0  501  0.00000000000E+00  0.00000000000E+00  0.42660390835E+03  0.42660390838E+03  0.50400001928E-02 0.  1.
        1   -1    0    0  501    0  0.00000000000E+00  0.00000000000E+00 -0.14440438918E+03  0.14440438927E+03  0.50400001928E-02 0. -1.
    10030    2    1    2    0    0  0.00000000000E+00  0.00000000000E+00  0.28219951916E+03  0.57100829765E+03  0.49640095424E+03 0.  0.
        3    1    3    3  502    0 -0.23773608818E+03 -0.62374888176E+02  0.18085398688E+03  0.30515119051E+03  0.10100000352E+00 0.  1.
       -3    1    3    3    0  502  0.23773608818E+03  0.62374888176E+02  0.10134553229E+03  0.26585710714E+03  0.10100000352E+00 0. -1.
</event>
<event>
 5   0  0.3111146E-01  0.3719145E+03  0.7818609E-02  0.1053963E+00
       -2   -1    0    0    0  501  0.00000000000E+00  0.00000000000E+00  0.43974834167E+02  0.43974834241E+02  0.25500000920E-02 0.  1.
        2   -1    0    0  501    0  0.00000000000E+00  0.00000000000E+00 -0.78636128134E+03  0.78636128135E+03  0.25500000920E-02 0. -1.
    10030    2    1    2    0    0  0.00000000000E+00  0.00000000000E+00 -0.74238644718E+03  0.83033611559E+03  0.37191454381E+03 0.  0.
        1    1    3    3  502    0 -0.96758796937E+02 -0.15667604449E+03 -0.31338402360E+03  0.36348204079E+03  0.50400001928E-02 0.  1.
       -1    1    3    3    0  502  0.96758796937E+02  0.15667604449E+03 -0.42900242357E+03  0.46685407480E+03  0.50400001928E-02 0. -1.
</event>
<event>
 5   0  0.1967161E-01  0.4916889E+03  0.7818609E-02  0.1015971E+00
       -1   -1    0    0    0  501  0.00000000000E+00  0.00000000000E+00  0.14172855504E+03  0.14172855513E+03  0.50400001928E-02 0. -1.
        1   -1    0    0  501    0  0.00000000000E+00  0.00000000000E+00 -0.42644550848E+03  0.42644550851E+03  0.50400001928E-02 0.  1.
    10030    2    1    2    0    0  0.00000000000E+00  0.00000000000E+00 -0.28471695344E+03  0.56817406364E+03  0.49168894945E+03 0.  0.
        1    1    3    3  502    0  0.51816752549E+01 -0.24287264206E+03 -0.18598795373E+03  0.30595014133E+03  0.50400001928E-02 0. -1.
       -1    1    3    3    0  502 -0.51816752549E+01  0.24287264206E+03 -0.98728999708E+02  0.26222392231E+03  0.50400001928E-02 0.  1.
</event>
<event>
 5   0  0.3187123E-01  0.5030370E+03  0.7818609E-02  0.1012989E+00
       -2   -1    0    0    0  501  0.00000000000E+00  0.00000000000E+00  0.24707725066E+03  0.24707725068E+03  0.25500000920E-02 0. -1.
        2   -1    0    0  501    0  0.00000000000E+00  0.00000000000E+00 -0.25603957941E+03  0.25603957942E+03  0.25500000920E-02 0.  1.
    10030    2    1    2    0    0  0.00000000000E+00  0.00000000000E+00 -0.89623287494E+01  0.50311683010E+03  0.50303699804E+03 0.  0.
        5    1    3    3  502    0 -0.31875967412E+02  0.15231515128E+03  0.19309380821E+03  0.24803889085E+03  0.46999998093E+01 0. -1.
       -5    1    3    3    0  502  0.31875967412E+02 -0.15231515128E+03 -0.20205613696E+03  0.25507793925E+03  0.46999998093E+01 0.  1.
</event>
<event>
 5   0  0.2000612E-01  0.5096232E+03  0.7818609E-02  0.1011297E+00
        1   -1    0    0  501    0  0.00000000000E+00  0.00000000000E+00  0.24284741892E+03  0.24284741897E+03  0.50400001928E-02 0.  1.
       -1   -1    0    0    0  501  0.00000000000E+00  0.00000000000E+00 -0.26736525797E+03  0.26736525801E+03  0.50400001928E-02 0. -1.
    10030    2    1    2    0    0  0.00000000000E+00  0.00000000000E+00 -0.24517839044E+02  0.51021267699E+03  0.50962324449E+03 0.  0.
        2    1    3    3  502    0  0.12735436023E+03 -0.11127871438E+03  0.17855763566E+03  0.24593681018E+03  0.25500000920E-02 0.  1.
       -2    1    3    3    0  502 -0.12735436023E+03  0.11127871438E+03 -0.20307547470E+03  0.26427586681E+03  0.25500000920E-02 0. -1.
</event>
<event>
 5   0  0.3178149E-01  0.4892411E+03  0.7818609E-02  0.1016626E+00
       -2   -1    0    0    0  501  0.00000000000E+00  0.00000000000E+00  0.25658031414E+02  0.25658031541E+02  0.25500000920E-02 0.  1.
        2   -1    0    0  501    0  0.00000000000E+00  0.00000000000E+00 -0.23321820918E+04  0.23321820918E+04  0.25500000920E-02 0. -1.
    10030    2    1    2    0    0  0.00000000000E+00  0.00000000000E+00 -0.23065240604E+04  0.23578401234E+04  0.48924105112E+03 0.  0.
        3    1    3    3  502    0 -0.18411095462E+03 -0.12680242923E+03 -0.16318996212E+04  0.16471405779E+04  0.10100000352E+00 0. -1.
       -3    1    3    3    0  502  0.18411095462E+03  0.12680242923E+03 -0.67462443923E+03  0.71069954543E+03  0.10100000352E+00 0.  1.
</event>
<event>
 5   0  0.3329246E-01  0.3895274E+03  0.7818609E-02  0.1047468E+00
        2   -1    0    0  501    0  0.00000000000E+00  0.00000000000E+00  0.99519301168E+03  0.99519301169E+03  0.25500000920E-02 0. -1.
       -2   -1    0    0    0  501  0.00000000000E+00  0.00000000000E+00 -0.38116118920E+02  0.38116119005E+02  0.25500000920E-02 0.  1.
    10030    2    1    2    0    0  0.00000000000E+00  0.00000000000E+00  0.95707689276E+03  0.10333091307E+04  0.38952738146E+03 0.  0.
        2    1    3    3  502    0  0.53884216976E+02 -0.46921086904E+02  0.95917096583E+03  0.96182848727E+03  0.25500000920E-02 0. -1.
       -2    1    3    3    0  502 -0.53884216976E+02  0.46921086904E+02 -0.20940730623E+01  0.71480643421E+02  0.25500000920E-02 0.  1.
</event>
<event>
 5   0  0.1292375E-01  0.5649751E+03  0.7818609E-02  0.9980860E-01
        4   -1    0    0  501    0  0.00000000000E+00  0.00000000000E+00  0.80442820922E+03  0.80442921173E+03  0.12699999809E+01 0.  1.
       -4   -1    0    0    0  501  0.00000000000E+00  0.00000000000E+00 -0.99194798422E+02  0.99202928051E+02  0.12699999809E+01 0. -1.
    10030    2    1    2    0    0  0.00000000000E+00  0.00000000000E+00  0.70523341080E+03  0.90363213978E+03  0.56497511480E+03 0.  0.
        4    1    3    3  502    0  0.26754684698E+03  0.35461667830E+02  0.21919443064E+03  0.34768758468E+03  0.12699999809E+01 0. -1.
       -4    1    3    3    0  502 -0.26754684698E+03 -0.35461667830E+02  0.48603898016E+03  0.55594455511E+03  0.12699999809E+01 0.  1.
</event>
<event>
 5   0  0.3187123E-01  0.5115365E+03  0.7818609E-02  0.1010811E+00
       -2   -1    0    0    0  501  0.00000000000E+00  0.00000000000E+00  0.84407939846E+03  0.84407939846E+03  0.25500000920E-02 0. -1.
        2   -1    0    0  501    0  0.00000000000E+00  0.00000000000E+00 -0.77501479852E+02  0.77501479894E+02  0.25500000920E-02 0.  1.
    10030    2    1    2    0    0  0.00000000000E+00  0.00000000000E+00  0.76657791861E+03  0.92158087836E+03  0.51153651879E+03 0.  0.
        5    1    3    3  502    0  0.18150745343E+03  0.17658920626E+03  0.31917123305E+03  0.40745683136E+03  0.46999998093E+01 0.  1.
       -5    1    3    3    0  502 -0.18150745343E+03 -0.17658920626E+03  0.44740668556E+03  0.51412404700E+03  0.46999998093E+01 0. -1.
</event>
<event>
 5   0  0.3187123E-01  0.4732876E+03  0.7818609E-02  0.1020996E+00
       -2   -1    0    0    0  501  0.00000000000E+00  0.00000000000E+00  0.11435759910E+03  0.11435759912E+03  0.25500000920E-02 0.  1.
        2   -1    0    0  501    0  0.00000000000E+00  0.00000000000E+00 -0.48969441088E+03  0.48969441088E+03  0.25500000920E-02 0. -1.
    10030    2    1    2    0    0  0.00000000000E+00  0.00000000000E+00 -0.37533681178E+03  0.60405201001E+03  0.47328755373E+03 0.  0.
        5    1    3    3  502    0  0.48092393558E+02  0.11780547991E+03 -0.44224637461E+03  0.46021185911E+03  0.46999998093E+01 0. -1.
       -5    1    3    3    0  502 -0.48092393558E+02 -0.11780547991E+03  0.66909562828E+02  0.14384015090E+03  0.46999998093E+01 0.  1.
</event>
<event>
 5   0  0.3178149E-01  0.3978606E+03  0.7818609E-02  0.1044523E+00
       -2   -1    0    0    0  501  0.00000000000E+00  0.00000000000E+00  0.64917199341E+02  0.64917199391E+02  0.25500000920E-02 0. -1.
        2   -1    0    0  501    0  0.00000000000E+00  0.00000000000E+00 -0.60959602055E+03  0.60959602056E+03  0.25500000920E-02 0.  1.
    10030    2    1    2    0    0  0.00000000000E+00  0.00000000000E+00 -0.54467882121E+03  0.67451321995E+03  0.39786061078E+03 0.  0.
        3    1    3    3  502    0 -0.11758209303E+03 -0.15816481084E+03 -0.22648338278E+03  0.30022722872E+03  0.10100000352E+00 0.  1.
       -3    1    3    3    0  502  0.11758209303E+03  0.15816481084E+03 -0.31819543843E+03  0.37428599123E+03  0.10100000352E+00 0. -1.
</event>
<event>
 5   0  0.3111146E-01  0.5107501E+03  0.7818609E-02  0.1011010E+00
       -2   -1    0    0    0  501  0.00000000000E+00  0.00000000000E+00  0.26205206324E+03  0.26205206326E+03  0.25500000920E-02 0. -1.
        2   -1    0    0  501    0  0.00000000000E+00  0.00000000000E+00 -0.24886820470E+03  0.24886820472E+03  0.25500000920E-02 0.  1.
    10030    2    1    2    0    0  0.00000000000E+00  0.00000000000E+00  0.13183858540E+02  0.51092026798E+03  0.51075014058E+03 0.  0.
        1    1    3    3  502    0 -0.38102652814E+02  0.61516449025E+02 -0.23839849011E+03  0.24913836671E+03  0.50400001928E-02 0.  1.
       -1    1    3    3    0  502  0.38102652814E+02 -0.61516449025E+02  0.25158234865E+03  0.26178190127E+03  0.50400001928E-02 0. -1.
</event>
<event>
 5   0  0.1984680E-01  0.4966238E+03  0.7818609E-02  0.1014664E+00
        1   -1    0    0  501    0  0.00000000000E+00  0.00000000000E+00  0.32037208638E+03  0.32037208642E+03  0.50400001928E-02 0.  1.
       -1   -1    0    0    0  501  0.00000000000E+00  0.00000000000E+00 -0.19245998301E+03  0.19245998308E+03  0.50400001928E-02 0. -1.
    10030    2    1    2    0    0  0.00000000000E+00  0.00000000000E+00  0.12791210337E+03  0.51283206950E+03  0.49662382677E+03 0.  0.
        5    1    3    3  502    0 -0.56702297661E+02  0.88362741015E+02  0.29627316489E+03  0.31436126159E+03  0.46999998093E+01 0.  1.
       -5    1    3    3    0  502  0.56702297661E+02 -0.88362741015E+02 -0.16836106151E+03  0.19847080791E+03  0.46999998093E+01 0. -1.
</event>
<event>
 5   0  0.1967161E-01  0.4955896E+03  0.7818609E-02  0.1014937E+00
       -1   -1    0    0    0  501  0.00000000000E+00  0.00000000000E+00  0.20645721949E+03  0.20645721955E+03  0.50400001928E-02 0. -1.
        1   -1    0    0  501    0  0.00000000000E+00  0.00000000000E+00 -0.29740910504E+03  0.29740910508E+03  0.50400001928E-02 0.  1.
    10030    2    1    2    0    0  0.00000000000E+00  0.00000000000E+00 -0.90951885555E+02  0.50386632463E+03  0.49558957577E+03 0.  0.
        1    1    3    3  502    0 -0.22174579562E+03  0.60207762850E+02 -0.13979424371E+03  0.26895836700E+03  0.50400001928E-02 0.  1.
       -1    1    3    3    0  502  0.22174579562E+03 -0.60207762850E+02  0.48842358152E+02  0.23490795763E+03  0.50400001928E-02 0. -1.
</event>
<event>
 5   0  0.1292375E-01  0.5049815E+03  0.7818609E-02  0.1012487E+00
       -3   -1    0    0    0  501  0.00000000000E+00  0.00000000000E+00  0.94905402934E+02  0.94905456677E+02  0.10100000352E+00 0.  1.
        3   -1    0    0  501    0  0.00000000000E+00  0.00000000000E+00 -0.67173777230E+03  0.67173777989E+03  0.10100000352E+00 0. -1.
    10030    2    1    2    0    0  0.00000000000E+00  0.00000000000E+00 -0.57683236937E+03  0.76664323657E+03  0.50498145494E+03 0.  0.
        2    1    3    3  502    0  0.14796469796E+03 -0.19274835053E+03 -0.39256346809E+03  0.46168339255E+03  0.25500000920E-02 0.  1.
       -2    1    3    3    0  502 -0.14796469796E+03  0.19274835053E+03 -0.18426890128E+03  0.30495984402E+03  0.25500000920E-02 0. -1.
</event>
<event>
 5   0  0.3329246E-01  0.5007710E+03  0.7818609E-02  0.1013578E+00
       -2   -1    0    0    0  501  0.00000000000E+00  0.00000000000E+00  0.15145630463E+04  0.15145630463E+04  0.25500000920E-02 0.  1.
        2   -1    0    0  501    0  0.00000000000E+00  0.00000000000E+00 -0.41393388689E+02  0.41393388768E+02  0.25500000920E-02 0. -1.
    10030    2    1    2    0    0  0.00000000000E+00  0.00000000000E+00  0.14731696576E+04  0.15559564351E+04  0.50077099330E+03 0.  0.
        2    1    3    3  502    0 -0.47128664966E+02  0.24459489558E+03  0.81550345290E+03  0.85269786895E+03  0.25500000920E-02 0. -1.
       -2    1    3    3    0  502  0.47128664966E+02 -0.24459489558E+03  0.65766620470E+03  0.70325856612E+03  0.25500000920E-02 0.  1.
</event>
<event>
 5   0  0.1292375E-01  0.5140661E+03  0.7818609E-02  0.1010171E+00
        4   -1    0    0  501    0  0.00000000000E+00  0.00000000000E+00  0.31726371023E+03  0.31726625211E+03  0.12699999809E+01 0.  1.
       -4   -1    0    0    0  501  0.00000000000E+00  0.00000000000E+00 -0.20823154773E+03  0.20823542054E+03  0.12699999809E+01 0. -1.
    10030    2    1    2    0    0  0.00000000000E+00  0.00000000000E+00  0.10903216250E+03  0.52550167266E+03  0.51406613923E+03 0.  0.
        5    1    3    3  502    0 -0.24460029007E+03  0.26401443272E+01  0.13505730931E+03  0.27946169516E+03  0.46999998093E+01 0.  1.
       -5    1    3    3    0  502  0.24460029007E+03 -0.26401443272E+01 -0.26025146807E+02  0.24603997750E+03  0.46999998093E+01 0. -1.
</event>
<event>
 5   0  0.3111146E-01  0.4984934E+03  0.7818609E-02  0.1014173E+00
       -2   -1    0    0    0  501  0.00000000000E+00  0.00000000000E+00  0.10263451238E+03  0.10263451241E+03  0.25500000920E-02 0. -1.
        2   -1    0    0  501    0  0.00000000000E+00  0.00000000000E+00 -0.60529258435E+03  0.60529258436E+03  0.25500000920E-02 0.  1.
    10030    2    1    2    0    0  0.00000000000E+00  0.00000000000E+00 -0.50265807198E+03  0.70792709677E+03  0.49849336707E+03 0.  0.
        1    1    3    3  502    0 -0.23939226405E+03  0.68907527675E+02 -0.26295382981E+03  0.36221764188E+03  0.50400001928E-02 0.  1.
       -1    1    3    3    0  502  0.23939226405E+03 -0.68907527675E+02 -0.23970424217E+03  0.34570945488E+03  0.50400001928E-02 0. -1.
</event>
<event>
 5   0  0.3187123E-01  0.6362953E+03  0.7818609E-02  0.9832840E-01
       -2   -1    0    0    0  501  0.00000000000E+00  0.00000000000E+00  0.97518788573E+02  0.97518788606E+02  0.25500000920E-02 0.  1.
        2   -1    0    0  501    0  0.00000000000E+00  0.00000000000E+00 -0.10379325466E+04  0.10379325466E+04  0.25500000920E-02 0. -1.
    10030    2    1    2    0    0  0.00000000000E+00  0.00000000000E+00 -0.94041375802E+03  0.11354513352E+04  0.63629529178E+03 0.  0.
        5    1    3    3  502    0  0.17016650877E+03 -0.94709438097E+02 -0.21351549638E+02  0.19597065352E+03  0.46999998093E+01 0. -1.
       -5    1    3    3    0  502 -0.17016650877E+03  0.94709438097E+02 -0.91906220838E+03  0.93948068168E+03  0.46999998093E+01 0.  1.
</event>
<event>
 5   0  0.1292375E-01  0.4744387E+03  0.7818609E-02  0.1020675E+00
        3   -1    0    0  501    0  0.00000000000E+00  0.00000000000E+00  0.19226651202E+03  0.19226653855E+03  0.10100000352E+00 0.  1.
       -3   -1    0    0    0  501  0.00000000000E+00  0.00000000000E+00 -0.29268236196E+03  0.29268237938E+03  0.10100000352E+00 0. -1.
    10030    2    1    2    0    0  0.00000000000E+00  0.00000000000E+00 -0.10041584993E+03  0.48494891794E+03  0.47443873165E+03 0.  0.
        2    1    3    3  502    0  0.14727571204E+03 -0.15510863220E+02  0.13921414608E+03  0.20325181601E+03  0.25500000920E-02 0.  1.
       -2    1    3    3    0  502 -0.14727571204E+03  0.15510863220E+02 -0.23962999602E+03  0.28169710192E+03  0.25500000920E-02 0. -1.
</event>
<event>
 5   0  0.1984297E-01  0.4955926E+03  0.7818609E-02  0.1014936E+00
        1   -1    0    0  501    0  0.00000000000E+00  0.00000000000E+00  0.14994442574E+03  0.14994442582E+03  0.50400001928E-02 0. -1.
       -1   -1    0    0    0  501  0.00000000000E+00  0.00000000000E+00 -0.40950507868E+03  0.40950507871E+03  0.50400001928E-02 0.  1.
    10030    2    1    2    0    0  0.00000000000E+00  0.00000000000E+00 -0.25956065294E+03  0.55944950453E+03  0.49559259030E+03 0.  0.
        3    1    3    3  502    0  0.66258259070E+02 -0.82979910409E+02  0.12295892085E+03  0.16246454642E+03  0.10100000352E+00 0. -1.
       -3    1    3    3    0  502 -0.66258259070E+02  0.82979910409E+02 -0.38251957380E+03  0.39698495811E+03  0.10100000352E+00 0.  1.
</event>
<event>
 5   0  0.1984680E-01  0.5117015E+03  0.7818609E-02  0.1010769E+00
        1   -1    0    0  501    0  0.00000000000E+00  0.00000000000E+00  0.41524471918E+03  0.41524471921E+03  0.50400001928E-02 0.  1.
       -1   -1    0    0    0  501  0.00000000000E+00  0.00000000000E+00 -0.15764100598E+03  0.15764100606E+03  0.50400001928E-02 0. -1.
    10030    2    1    2    0    0  0.00000000000E+00  0.00000000000E+00  0.25760371319E+03  0.57288572527E+03  0.51170145707E+03 0.  0.
        5    1    3    3  502    0  0.14488241786E+03 -0.13288976492E+03 -0.54434893697E+02  0.20404865174E+03  0.46999998093E+01 0. -1.
       -5    1    3    3    0  502 -0.14488241786E+03  0.13288976492E+03  0.31203860689E+03  0.36883707353E+03  0.46999998093E+01 0.  1.
</event>
<event>
 5   0  0.3111146E-01  0.4806578E+03  0.7818609E-02  0.1018955E+00
       -2   -1    0    0    0  501  0.00000000000E+00  0.00000000000E+00  0.18681531467E+03  0.18681531469E+03  0.25500000920E-02 0. -1.
        2   -1    0    0  501    0  0.00000000000E+00  0.00000000000E+00 -0.30917160804E+03  0.30917160805E+03  0.25500000920E-02 0.  1.
    10030    2    1    2    0    0  0.00000000000E+00  0.00000000000E+00 -0.12235629337E+03  0.49598692274E+03  0.48065784609E+03 0.  0.
        1    1    3    3  502    0 -0.17943765549E+03 -0.12783044361E+03  0.37902263686E+02  0.22355105936E+03  0.50400001928E-02 0. -1.
       -1    1    3    3    0  502  0.17943765549E+03  0.12783044361E+03 -0.16025855706E+03  0.27243586338E+03  0.50400001928E-02 0.  1.
</event>
<event>
 5   0  0.3117389E-01  0.4950568E+03  0.7818609E-02  0.1015077E+00
        2   -1    0    0  501    0  0.00000000000E+00  0.00000000000E+00  0.59290775926E+03  0.59290775926E+03  0.25500000920E-02 0. -1.
       -2   -1    0    0    0  501  0.00000000000E+00  0.00000000000E+00 -0.10333868135E+03  0.10333868138E+03  0.25500000920E-02 0.  1.
    10030    2    1    2    0    0  0.00000000000E+00  0.00000000000E+00  0.48956907791E+03  0.69624644065E+03  0.49505678874E+03 0.  0.
        4    1    3    3  502    0  0.17043577453E+03 -0.92142494026E+02  0.46143407232E+03  0.50046139556E+03  0.12699999809E+01 0. -1.
       -4    1    3    3    0  502 -0.17043577453E+03  0.92142494026E+02  0.28135005586E+02  0.19578504509E+03  0.12699999809E+01 0.  1.
</event>
<event>
 5   0  0.1292375E-01  0.4971247E+03  0.7818609E-02  0.1014532E+00
       -4   -1    0    0    0  501  0.00000000000E+00  0.00000000000E+00  0.13036821683E+03  0.13037440263E+03  0.12699999809E+01 0. -1.
        4   -1    0    0  501    0  0.00000000000E+00  0.00000000000E+00 -0.47389505291E+03  0.47389675466E+03  0.12699999809E+01 0.  1.
    10030    2    1    2    0    0  0.00000000000E+00  0.00000000000E+00 -0.34352683608E+03  0.60427115728E+03  0.49712467693E+03 0.  0.
        4    1    3    3  502    0 -0.12341704105E+03  0.13354913343E+03 -0.37773963047E+03  0.41923260654E+03  0.12699999809E+01 0.  1.
       -4    1    3    3    0  502  0.12341704105E+03 -0.13354913343E+03  0.34212794395E+02  0.18503855074E+03  0.12699999809E+01 0. -1.
</event>
<event>
 5   0  0.2000612E-01  0.5134805E+03  0.7818609E-02  0.1010319E+00
        1   -1    0    0  501    0  0.00000000000E+00  0.00000000000E+00  0.13017022314E+03  0.13017022323E+03  0.50400001928E-02 0.  1.
       -1   -1    0    0    0  501  0.00000000000E+00  0.00000000000E+00 -0.50637966013E+03  0.50637966015E+03  0.50400001928E-02 0. -1.
    10030    2    1    2    0    0  0.00000000000E+00  0.00000000000E+00 -0.37620943699E+03  0.63654988339E+03  0.51348048995E+03 0.  0.
        2    1    3    3  502    0 -0.46976524707E+02 -0.14713771176E+03  0.66132585793E+02  0.16801731758E+03  0.25500000920E-02 0.  1.
       -2    1    3    3    0  502  0.46976524707E+02  0.14713771176E+03 -0.44234202278E+03  0.46853256581E+03  0.25500000920E-02 0. -1.
</event>
<event>
 5   0  0.3178149E-01  0.4986077E+03  0.7818609E-02  0.1014143E+00
        2   -1    0    0  501    0  0.00000000000E+00  0.00000000000E+00  0.13079474929E+04  0.13079474929E+04  0.25500000920E-02 0. -1.
       -2   -1    0    0    0  501  0.00000000000E+00  0.00000000000E+00 -0.47519036263E+02  0.47519036331E+02  0.25500000920E-02 0.  1.
    10030    2    1    2    0    0  0.00000000000E+00  0.00000000000E+00  0.12604284566E+04  0.13554665292E+04  0.49860767902E+03 0.  0.
        3    1    3    3  502    0  0.32451379884E+01 -0.18866045072E+03  0.10731642398E+04  0.10896259874E+04  0.10100000352E+00 0. -1.
       -3    1    3    3    0  502 -0.32451379884E+01  0.18866045072E+03  0.18726421686E+03  0.26584054188E+03  0.10100000352E+00 0.  1.
</event>
<event>
 5   0  0.2013450E-01  0.4909760E+03  0.7818609E-02  0.1016162E+00
        1   -1    0    0  501    0  0.00000000000E+00  0.00000000000E+00  0.94172711644E+02  0.94172711779E+02  0.50400001928E-02 0. -1.
       -1   -1    0    0    0  501  0.00000000000E+00  0.00000000000E+00 -0.63993430844E+03  0.63993430846E+03  0.50400001928E-02 0.  1.
    10030    2    1    2    0    0  0.00000000000E+00  0.00000000000E+00 -0.54576159680E+03  0.73410702024E+03  0.49097596339E+03 0.  0.
        4    1    3    3  502    0  0.78451050437E+02 -0.11920945063E+03  0.25774874054E+02  0.14502212751E+03  0.12699999809E+01 0. -1.
       -4    1    3    3    0  502 -0.78451050437E+02  0.11920945063E+03 -0.57153647085E+03  0.58908489274E+03  0.12699999809E+01 0.  1.
</event>
<event>
 5   0  0.3187123E-01  0.4999144E+03  0.7818609E-02  0.1013801E+00
        2   -1    0    0  501    0  0.00000000000E+00  0.00000000000E+00  0.72994952269E+03  0.72994952269E+03  0.25500000920E-02 0.  1.
       -2   -1    0    0    0  501  0.00000000000E+00  0.00000000000E+00 -0.85593030604E+02  0.85593030642E+02  0.25500000920E-02 0. -1.
    10030    2    1    2    0    0  0.00000000000E+00  0.00000000000E+00  0.64435649209E+03  0.81554255334E+03  0.49991436008E+03 0.  0.
        5    1    3    3  502    0  0.16707236331E+03 -0.18158780162E+03  0.38680164977E+03  0.45882993641E+03  0.46999998093E+01 0.  1.
       -5    1    3    3    0  502 -0.16707236331E+03  0.18158780162E+03  0.25755484231E+03  0.35671261693E+03  0.46999998093E+01 0. -1.
</event>
<event>
 5   0  0.2000612E-01  0.4965882E+03  0.7818609E-02  0.1014673E+00
       -1   -1    0    0    0  501  0.00000000000E+00  0.00000000000E+00  0.14170478039E+03  0.14170478048E+03  0.50400001928E-02 0. -1.
        1   -1    0    0  501    0  0.00000000000E+00  0.00000000000E+00 -0.43505918540E+03  0.43505918543E+03  0.50400001928E-02 0.  1.
    10030    2    1    2    0    0  0.00000000000E+00  0.00000000000E+00 -0.29335440501E+03  0.57676396591E+03  0.49658822523E+03 0.  0.
        2    1    3    3  502    0  0.48728808382E+01 -0.18672426225E+03 -0.33667429612E+03  0.38501854079E+03  0.25500000920E-02 0.  1.
       -2    1    3    3    0  502 -0.48728808382E+01  0.18672426225E+03  0.43319891108E+02  0.19174542512E+03  0.25500000920E-02 0. -1.
</event>
<event>
 5   0  0.3111146E-01  0.4871622E+03  0.7818609E-02  0.1017185E+00
       -2   -1    0    0    0  501  0.00000000000E+00  0.00000000000E+00  0.11279433148E+03  0.11279433151E+03  0.25500000920E-02 0. -1.
        2   -1    0    0  501    0  0.00000000000E+00  0.00000000000E+00 -0.52601715768E+03  0.52601715769E+03  0.25500000920E-02 0.  1.
    10030    2    1    2    0    0  0.00000000000E+00  0.00000000000E+00 -0.41322282620E+03  0.63881148920E+03  0.48716220567E+03 0.  0.
        1    1    3    3  502    0 -0.60568962383E+02 -0.12059299385E+03 -0.47251747653E+03  0.49141025124E+03  0.50400001928E-02 0.  1.
       -1    1    3    3    0  502  0.60568962383E+02  0.12059299385E+03  0.59294650323E+02  0.14740123796E+03  0.50400001928E-02 0. -1.
</event>
<event>
 5   0  0.3329246E-01  0.4813981E+03  0.7818609E-02  0.1018752E+00
        2   -1    0    0  501    0  0.00000000000E+00  0.00000000000E+00  0.46346571106E+03  0.46346571107E+03  0.25500000920E-02 0. -1.
       -2   -1    0    0    0  501  0.00000000000E+00  0.00000000000E+00 -0.12500608790E+03  0.12500608793E+03  0.25500000920E-02 0.  1.
    10030    2    1    2    0    0  0.00000000000E+00  0.00000000000E+00  0.33845962316E+03  0.58847179900E+03  0.48139811145E+03 0.  0.
        2    1    3    3  502    0  0.12146410105E+03  0.84016379225E+02  0.40156646031E+03  0.42786434985E+03  0.25500000920E-02 0. -1.
       -2    1    3    3    0  502 -0.12146410105E+03 -0.84016379225E+02 -0.63106837150E+02  0.16060744915E+03  0.25500000920E-02 0.  1.
</event>
<event>
 5   0  0.1984680E-01  0.5597177E+03  0.7818609E-02  0.9992694E-01
       -1   -1    0    0    0  501  0.00000000000E+00  0.00000000000E+00  0.19173878581E+03  0.19173878587E+03  0.50400001928E-02 0. -1.
        1   -1    0    0  501    0  0.00000000000E+00  0.00000000000E+00 -0.40847744021E+03  0.40847744024E+03  0.50400001928E-02 0.  1.
    10030    2    1    2    0    0  0.00000000000E+00  0.00000000000E+00 -0.21673865441E+03  0.60021622612E+03  0.55971767328E+03 0.  0.
        5    1    3    3  502    0 -0.21566828532E+03  0.13461708103E+03 -0.23372170462E+03  0.34537297666E+03  0.46999998093E+01 0.  1.
       -5    1    3    3    0  502  0.21566828532E+03 -0.13461708103E+03  0.16983050216E+02  0.25484324945E+03  0.46999998093E+01 0. -1.
</event>
<event>
 5   0  0.2013450E-01  0.5075988E+03  0.7818609E-02  0.1011814E+00
       -1   -1    0    0    0  501  0.00000000000E+00  0.00000000000E+00  0.15515754971E+03  0.15515754979E+03  0.50400001928E-02 0. -1.
        1   -1    0    0  501    0  0.00000000000E+00  0.00000000000E+00 -0.41515300447E+03  0.41515300450E+03  0.50400001928E-02 0.  1.
    10030    2    1    2    0    0  0.00000000000E+00  0.00000000000E+00 -0.25999545477E+03  0.57031055429E+03  0.50759875082E+03 0.  0.
        4    1    3    3  502    0  0.10359785145E+03  0.21105925777E+03 -0.23737713651E+03  0.33410783132E+03  0.12699999809E+01 0.  1.
       -4    1    3    3    0  502 -0.10359785145E+03 -0.21105925777E+03 -0.22618318257E+02  0.23620272297E+03  0.12699999809E+01 0. -1.
</event>
<event>
 5   0  0.1292375E-01  0.4952481E+03  0.7818609E-02  0.1015027E+00
       -3   -1    0    0    0  501  0.00000000000E+00  0.00000000000E+00  0.16256311461E+03  0.16256314598E+03  0.10100000352E+00 0. -1.
        3   -1    0    0  501    0  0.00000000000E+00  0.00000000000E+00 -0.37719289964E+03  0.37719291316E+03  0.10100000352E+00 0.  1.
    10030    2    1    2    0    0  0.00000000000E+00  0.00000000000E+00 -0.21462978503E+03  0.53975605914E+03  0.49524807800E+03 0.  0.
        2    1    3    3  502    0 -0.42118653143E+02  0.52100147791E+02 -0.36712779920E+03  0.37319060451E+03  0.25500000920E-02 0.  1.
       -2    1    3    3    0  502  0.42118653143E+02 -0.52100147791E+02  0.15249801418E+03  0.16656545463E+03  0.25500000920E-02 0. -1.
</event>
<event>
 5   0  0.3117389E-01  0.5069872E+03  0.7818609E-02  0.1011971E+00
       -2   -1    0    0    0  501  0.00000000000E+00  0.00000000000E+00  0.68490842104E+02  0.68490842151E+02  0.25500000920E-02 0. -1.
        2   -1    0    0  501    0  0.00000000000E+00  0.00000000000E+00 -0.93821298096E+03  0.93821298096E+03  0.25500000920E-02 0.  1.
    10030    2    1    2    0    0  0.00000000000E+00  0.00000000000E+00 -0.86972213886E+03  0.10067038231E+04  0.50698716814E+03 0.  0.
        4    1    3    3  502    0 -0.23773492980E+03 -0.45200287089E+02 -0.28499414062E+03  0.37387730058E+03  0.12699999809E+01 0. -1.
       -4    1    3    3    0  502  0.23773492980E+03  0.45200287089E+02 -0.58472799824E+03  0.63282652253E+03  0.12699999809E+01 0.  1.
</event>
<event>
 5   0  0.3187123E-01  0.5067541E+03  0.7818609E-02  0.1012031E+00
       -2   -1    0    0    0  501  0.00000000000E+00  0.00000000000E+00  0.37297053253E+03  0.37297053254E+03  0.25500000920E-02 0.  1.
        2   -1    0    0  501    0  0.00000000000E+00  0.00000000000E+00 -0.17213139350E+03  0.17213139352E+03  0.25500000920E-02 0. -1.
    10030    2    1    2    0    0  0.00000000000E+00  0.00000000000E+00  0.20083913903E+03  0.54510192606E+03  0.50675413173E+03 0.  0.
        5    1    3    3  502    0 -0.15681168283E+03 -0.11740681370E+03  0.27321029649E+03  0.33621454443E+03  0.46999998093E+01 0.  1.
       -5    1    3    3    0  502  0.15681168283E+03  0.11740681370E+03 -0.72371157459E+02  0.20888738164E+03  0.46999998093E+01 0. -1.
</event>
<event>
 5   0  0.2013450E-01  0.4918300E+03  0.7818609E-02  0.1015934E+00
       -1   -1    0    0    0  501  0.00000000000E+00  0.00000000000E+00  0.36085882669E+02  0.36085883021E+02  0.50400001928E-02 0.  1.
        1   -1    0    0  501    0  0.00000000000E+00  0.00000000000E+00 -0.16758408942E+04  0.16758408942E+04  0.50400001928E-02 0. -1.
    10030    2    1    2    0    0  0.00000000000E+00  0.00000000000E+00 -0.16397550115E+04  0.17119267772E+04  0.49183004458E+03 0.  0.
        4    1    3    3  502    0  0.20074993275E+03 -0.15954603419E+02 -0.13111105208E+04  0.13264868999E+04  0.12699999809E+01 0. -1.
       -4    1    3    3    0  502 -0.20074993275E+03  0.15954603419E+02 -0.32864449070E+03  0.38543987733E+03  0.12699999809E+01 0.  1.
</event>
<event>
 5   0  0.3117389E-01  0.4957255E+03  0.7818609E-02  0.1014901E+00
        2   -1    0    0  501    0  0.00000000000E+00  0.00000000000E+00  0.10153474913E+04  0.10153474913E+04  0.25500000920E-02 0.  1.
       -2   -1    0    0    0  501  0.00000000000E+00  0.00000000000E+00 -0.60507305240E+02  0.60507305293E+02  0.25500000920E-02 0. -1.
    10030    2    1    2    0    0  0.00000000000E+00  0.00000000000E+00  0.95484018609E+03  0.10758547966E+04  0.49572549103E+03 0.  0.
        4    1    3    3  502    0  0.24007747188E+02 -0.45533284419E+02  0.10036123736E+04  0.10049323665E+04  0.12699999809E+01 0.  1.
       -4    1    3    3    0  502 -0.24007747188E+02  0.45533284419E+02 -0.48772187528E+02  0.70922430099E+02  0.12699999809E+01 0. -1.
</event>
<event>
 5   0  0.1292375E-01  0.5266352E+03  0.7818609E-02  0.1007051E+00
        3   -1    0    0  501    0  0.00000000000E+00  0.00000000000E+00  0.52308241764E+03  0.52308242739E+03  0.10100000352E+00 0. -1.
       -3   -1    0    0    0  501  0.00000000000E+00  0.00000000000E+00 -0.13255299725E+03  0.13255303573E+03  0.10100000352E+00 0.  1.
    10030    2    1    2    0    0  0.00000000000E+00  0.00000000000E+00  0.39052942038E+03  0.65563546312E+03  0.52663519852E+03 0.  0.
        2    1    3    3  502    0 -0.99370800704E+02 -0.54530253735E+02 -0.10062567871E+03  0.15157055066E+03  0.25500000920E-02 0.  1.
       -2    1    3    3    0  502  0.99370800704E+02  0.54530253735E+02  0.49115509909E+03  0.50406491246E+03  0.25500000920E-02 0. -1.
</event>
<event>
 5   0  0.1984297E-01  0.3127102E+03  0.7818609E-02  0.1079054E+00
        1   -1    0    0  501    0  0.00000000000E+00  0.00000000000E+00  0.13587118332E+03  0.13587118341E+03  0.50400001928E-02 0. -1.
       -1   -1    0    0    0  501  0.00000000000E+00  0.00000000000E+00 -0.17992711154E+03  0.17992711161E+03  0.50400001928E-02 0.  1.
    10030    2    1    2    0    0  0.00000000000E+00  0.00000000000E+00 -0.44055928226E+02  0.31579829502E+03  0.31271015066E+03 0.  0.
        3    1    3    3  502    0  0.45789349470E+02 -0.14359481330E+03  0.19985334902E+02  0.15203801743E+03  0.10100000352E+00 0. -1.
       -3    1    3    3    0  502 -0.45789349470E+02  0.14359481330E+03 -0.64041263128E+02  0.16376027759E+03  0.10100000352E+00 0.  1.
</event>
<event>
 5   0  0.2000612E-01  0.4931001E+03  0.7818609E-02  0.1015596E+00
        1   -1    0    0  501    0  0.00000000000E+00  0.00000000000E+00  0.64277975218E+03  0.64277975220E+03  0.50400001928E-02 0. -1.
       -1   -1    0    0    0  501  0.00000000000E+00  0.00000000000E+00 -0.94568841303E+02  0.94568841437E+02  0.50400001928E-02 0.  1.
    10030    2    1    2    0    0  0.00000000000E+00  0.00000000000E+00  0.54821091087E+03  0.73734859363E+03  0.49310013763E+03 0.  0.
        2    1    3    3  502    0  0.86063614953E+02  0.14868242177E+03  0.53854486060E+03  0.56528220849E+03  0.25500000920E-02 0. -1.
       -2    1    3    3    0  502 -0.86063614953E+02 -0.14868242177E+03  0.96660502791E+01  0.17206638514E+03  0.25500000920E-02 0.  1.
</event>
<event>
 5   0  0.2000612E-01  0.5187045E+03  0.7818609E-02  0.1009009E+00
        1   -1    0    0  501    0  0.00000000000E+00  0.00000000000E+00  0.25419173561E+03  0.25419173566E+03  0.50400001928E-02 0. -1.
       -1   -1    0    0    0  501  0.00000000000E+00  0.00000000000E+00 -0.26461748438E+03  0.26461748443E+03  0.50400001928E-02 0.  1.
    10030    2    1    2    0    0  0.00000000000E+00  0.00000000000E+00 -0.10425748766E+02  0.51880922009E+03  0.51870445401E+03 0.  0.
        2    1    3    3  502    0 -0.12944692193E+03 -0.15604859993E+03 -0.16697341755E+03  0.26265527468E+03  0.25500000920E-02 0.  1.
       -2    1    3    3    0  502  0.12944692193E+03  0.15604859993E+03  0.15654766879E+03  0.25615394541E+03  0.25500000920E-02 0. -1.
</event>
<event>
 5   0  0.1967161E-01  0.4915993E+03  0.7818609E-02  0.1015995E+00
        1   -1    0    0  501    0  0.00000000000E+00  0.00000000000E+00  0.63942791199E+03  0.63942791201E+03  0.50400001928E-02 0. -1.
       -1   -1    0    0    0  501  0.00000000000E+00  0.00000000000E+00 -0.94486743295E+02  0.94486743429E+02  0.50400001928E-02 0.  1.
    10030    2    1    2    0    0  0.00000000000E+00  0.00000000000E+00  0.54494116870E+03  0.73391465544E+03  0.49159927190E+03 0.  0.
        1    1    3    3  502    0 -0.84157326630E+02  0.13876003699E+03  0.54807635821E+03  0.57159819624E+03  0.50400001928E-02 0. -1.
       -1    1    3    3    0  502  0.84157326630E+02 -0.13876003699E+03 -0.31351895092E+01  0.16231645921E+03  0.50400001928E-02 0.  1.
</event>
<event>
 5   0  0.1984680E-01  0.4989896E+03  0.7818609E-02  0.1014043E+00
       -1   -1    0    0    0  501  0.00000000000E+00  0.00000000000E+00  0.13978653999E+03  0.13978654008E+03  0.50400001928E-02 0. -1.
        1   -1    0    0  501    0  0.00000000000E+00  0.00000000000E+00 -0.44530499144E+03  0.44530499147E+03  0.50400001928E-02 0.  1.
    10030    2    1    2    0    0  0.00000000000E+00  0.00000000000E+00 -0.30551845145E+03  0.58509153155E+03  0.49898955512E+03 0.  0.
        5    1    3    3  502    0 -0.66908386314E+02 -0.19899234229E+03 -0.31073157451E+03  0.37503451287E+03  0.46999998093E+01 0.  1.
       -5    1    3    3    0  502  0.66908386314E+02  0.19899234229E+03  0.52131230591E+01  0.21005701868E+03  0.46999998093E+01 0. -1.
</event>
<event>
 5   0  0.2000612E-01  0.5021233E+03  0.7818609E-02  0.1013226E+00
        1   -1    0    0  501    0  0.00000000000E+00  0.00000000000E+00  0.71942767663E+03  0.71942767665E+03  0.50400001928E-02 0.  1.
       -1   -1    0    0    0  501  0.00000000000E+00  0.00000000000E+00 -0.87614015795E+02  0.87614015940E+02  0.50400001928E-02 0. -1.
    10030    2    1    2    0    0  0.00000000000E+00  0.00000000000E+00  0.63181366084E+03  0.80704169259E+03  0.50212328323E+03 0.  0.
        2    1    3    3  502    0  0.12854257524E+02  0.21263617843E+03  0.10236173463E+03  0.23634149241E+03  0.25500000920E-02 0. -1.
       -2    1    3    3    0  502 -0.12854257524E+02 -0.21263617843E+03  0.52945192621E+03  0.57070020018E+03  0.25500000920E-02 0.  1.
</event>
<event>
 5   0  0.3117389E-01  0.5056372E+03  0.7818609E-02  0.1012318E+00
        2   -1    0    0  501    0  0.00000000000E+00  0.00000000000E+00  0.22332021437E+03  0.22332021439E+03  0.25500000920E-02 0. -1.
       -2   -1    0    0    0  501  0.00000000000E+00  0.00000000000E+00 -0.28621340737E+03  0.28621340739E+03  0.25500000920E-02 0.  1.
    10030    2    1    2    0    0  0.00000000000E+00  0.00000000000E+00 -0.62893193000E+02  0.50953362177E+03  0.50563718019E+03 0.  0.
        4    1    3    3  502    0  0.16795140552E+03 -0.18120483728E+02  0.15809751864E+03  0.23137083836E+03  0.12699999809E+01 0. -1.
       -4    1    3    3    0  502 -0.16795140552E+03  0.18120483728E+02 -0.22099071164E+03  0.27816278341E+03  0.12699999809E+01 0.  1.
</event>
<event>
 5   0  0.3117389E-01  0.3917708E+03  0.7818609E-02  0.1046667E+00
       -2   -1    0    0    0  501  0.00000000000E+00  0.00000000000E+00  0.35037319422E+02  0.35037319514E+02  0.25500000920E-02 0. -1.
        2   -1    0    0  501    0  0.00000000000E+00  0.00000000000E+00 -0.10951492783E+04  0.10951492783E+04  0.25500000920E-02 0.  1.
    10030    2    1    2    0    0  0.00000000000E+00  0.00000000000E+00 -0.10601119589E+04  0.11301865978E+04  0.39177082654E+03 0.  0.
        4    1    3    3  502    0  0.10380963539E+03  0.15954146685E+03 -0.39661767430E+03  0.43992853114E+03  0.12699999809E+01 0. -1.
       -4    1    3    3    0  502 -0.10380963539E+03 -0.15954146685E+03 -0.66349428458E+03  0.69025806668E+03  0.12699999809E+01 0.  1.
</event>
<event>
 5   0  0.3111146E-01  0.4965160E+03  0.7818609E-02  0.1014692E+00
        2   -1    0    0  501    0  0.00000000000E+00  0.00000000000E+00  0.57407837464E+03  0.57407837464E+03  0.25500000920E-02 0. -1.
       -2   -1    0    0    0  501  0.00000000000E+00  0.00000000000E+00 -0.10735821224E+03  0.10735821227E+03  0.25500000920E-02 0.  1.
    10030    2    1    2    0    0  0.00000000000E+00  0.00000000000E+00  0.46672016240E+03  0.68143658691E+03  0.49651597355E+03 0.  0.
        1    1    3    3  502    0 -0.13973287246E+03 -0.19358374998E+03  0.32676729958E+03  0.40469347907E+03  0.50400001928E-02 0. -1.
       -1    1    3    3    0  502  0.13973287246E+03  0.19358374998E+03  0.13995286282E+03  0.27674310784E+03  0.50400001928E-02 0.  1.
</event>
<event>
 5   0  0.2013450E-01  0.5075741E+03  0.7818609E-02  0.1011821E+00
       -1   -1    0    0    0  501  0.00000000000E+00  0.00000000000E+00  0.22765097275E+03  0.22765097280E+03  0.50400001928E-02 0.  1.
        1   -1    0    0  501    0  0.00000000000E+00  0.00000000000E+00 -0.28292372110E+03  0.28292372115E+03  0.50400001928E-02 0. -1.
    10030    2    1    2    0    0  0.00000000000E+00  0.00000000000E+00 -0.55272748356E+02  0.51057469395E+03  0.50757407478E+03 0.  0.
        4    1    3    3  502    0 -0.10172354909E+03  0.16764544723E+03 -0.18968987413E+03  0.27283060251E+03  0.12699999809E+01 0. -1.
       -4    1    3    3    0  502  0.10172354909E+03 -0.16764544723E+03  0.13441712578E+03  0.23774409145E+03  0.12699999809E+01 0.  1.
</event>
<event>
 5   0  0.2013450E-01  0.5084083E+03  0.7818609E-02  0.1011607E+00
       -1   -1    0    0    0  501  0.00000000000E+00  0.00000000000E+00  0.21356442158E+02  0.21356442752E+02  0.50400001928E-02 0. -1.
        1   -1    0    0  501    0  0.00000000000E+00  0.00000000000E+00 -0.30257735017E+04  0.30257735017E+04  0.50400001928E-02 0.  1.
    10030    2    1    2    0    0  0.00000000000E+00  0.00000000000E+00 -0.30044170595E+04  0.30471299444E+04  0.50840833070E+03 0.  0.
        4    1    3    3  502    0 -0.91584515236E+02 -0.19104097493E+03 -0.66026431401E+03  0.69342263792E+03  0.12699999809E+01 0. -1.
       -4    1    3    3    0  502  0.91584515236E+02  0.19104097493E+03 -0.23441527455E+04  0.23537073065E+04  0.12699999809E+01 0.  1.
</event>
<event>
 5   0  0.3187123E-01  0.4634640E+03  0.7818609E-02  0.1023781E+00
        2   -1    0    0  501    0  0.00000000000E+00  0.00000000000E+00  0.14670988084E+04  0.14670988084E+04  0.25500000920E-02 0.  1.
       -2   -1    0    0    0  501  0.00000000000E+00  0.00000000000E+00 -0.36602657383E+02  0.36602657472E+02  0.25500000920E-02 0. -1.
    10030    2    1    2    0    0  0.00000000000E+00  0.00000000000E+00  0.14304961510E+04  0.15037014659E+04  0.46346397962E+03 0.  0.
        5    1    3    3  502    0 -0.24806558129E+02  0.32133340116E+02 -0.24819423215E+02  0.47812243622E+02  0.46999998093E+01 0. -1.
       -5    1    3    3    0  502  0.24806558129E+02 -0.32133340116E+02  0.14553155742E+04  0.14558892223E+04  0.46999998093E+01 0.  1.
</event>
<event>
 5   0  0.1984680E-01  0.5007803E+03  0.7818609E-02  0.1013575E+00
       -1   -1    0    0    0  501  0.00000000000E+00  0.00000000000E+00  0.14557308764E+03  0.14557308773E+03  0.50400001928E-02 0.  1.
        1   -1    0    0  501    0  0.00000000000E+00  0.00000000000E+00 -0.43067875199E+03  0.43067875202E+03  0.50400001928E-02 0. -1.
    10030    2    1    2    0    0  0.00000000000E+00  0.00000000000E+00 -0.28510566435E+03  0.57625183974E+03  0.50078033404E+03 0.  0.
        5    1    3    3  502    0 -0.11355730868E+02 -0.11258017685E+03  0.11441827434E+03  0.16098720553E+03  0.46999998093E+01 0.  1.
       -5    1    3    3    0  502  0.11355730868E+02  0.11258017685E+03 -0.39952393869E+03  0.41526463421E+03  0.46999998093E+01 0. -1.
</event>
<event>
 5   0  0.1984680E-01  0.5083784E+03  0.7818609E-02  0.1011615E+00
        1   -1    0    0  501    0  0.00000000000E+00  0.00000000000E+00  0.49426634150E+03  0.49426634152E+03  0.50400001928E-02 0.  1.
       -1   -1    0    0    0  501  0.00000000000E+00  0.00000000000E+00 -0.13072334323E+03  0.13072334332E+03  0.50400001928E-02 0. -1.
    10030    2    1    2    0    0  0.00000000000E+00  0.00000000000E+00  0.36354299827E+03  0.62498968485E+03  0.50837839704E+03 0.  0.
        5    1    3    3  502    0  0.28233116353E+02  0.12475345015E+03 -0.88215132781E+02  0.15544945105E+03  0.46999998093E+01 0. -1.
       -5    1    3    3    0  502 -0.28233116353E+02 -0.12475345015E+03  0.45175813105E+03  0.46954023379E+03  0.46999998093E+01 0.  1.
</event>
<event>
 5   0  0.3329246E-01  0.4309174E+03  0.7818609E-02  0.1033571E+00
        2   -1    0    0  501    0  0.00000000000E+00  0.00000000000E+00  0.66680731268E+03  0.66680731269E+03  0.25500000920E-02 0.  1.
       -2   -1    0    0    0  501  0.00000000000E+00  0.00000000000E+00 -0.69618982712E+02  0.69618982759E+02  0.25500000920E-02 0. -1.
    10030    2    1    2    0    0  0.00000000000E+00  0.00000000000E+00  0.59718832997E+03  0.73642629545E+03  0.43091737859E+03 0.  0.
        2    1    3    3  502    0  0.33816311055E+02 -0.73554590171E+02  0.63982707782E+03  0.64492829846E+03  0.25500000920E-02 0.  1.
       -2    1    3    3    0  502 -0.33816311055E+02  0.73554590171E+02 -0.42638747852E+02  0.91497996991E+02  0.25500000920E-02 0. -1.
</event>
<event>
 5   0  0.1984297E-01  0.4680850E+03  0.7818609E-02  0.1022462E+00
       -1   -1    0    0    0  501  0.00000000000E+00  0.00000000000E+00  0.10327825224E+03  0.10327825236E+03  0.50400001928E-02 0. -1.
        1   -1    0    0  501    0  0.00000000000E+00  0.00000000000E+00 -0.53037192560E+03  0.53037192562E+03  0.50400001928E-02 0.  1.
    10030    2    1    2    0    0  0.00000000000E+00  0.00000000000E+00 -0.42709367335E+03  0.63365017798E+03  0.46808497331E+03 0.  0.
        3    1    3    3  502    0  0.48753941038E+02  0.20562771661E+03 -0.34970163069E+03  0.40859631094E+03  0.10100000352E+00 0.  1.
       -3    1    3    3    0  502 -0.48753941038E+02 -0.20562771661E+03 -0.77392042660E+02  0.22505386704E+03  0.10100000352E+00 0. -1.
</event>
<event>
 5   0  0.3178149E-01  0.4198986E+03  0.7818609E-02  0.1037099E+00
       -2   -1    0    0    0  501  0.00000000000E+00  0.00000000000E+00  0.29693573569E+02  0.29693573678E+02  0.25500000920E-02 0.  1.
        2   -1    0    0  501    0  0.00000000000E+00  0.00000000000E+00 -0.14844529143E+04  0.14844529143E+04  0.25500000920E-02 0. -1.
    10030    2    1    2    0    0  0.00000000000E+00  0.00000000000E+00 -0.14547593408E+04  0.15141464880E+04  0.41989861588E+03 0.  0.
        3    1    3    3  502    0  0.12948715114E+03 -0.68388797138E+02 -0.12698941313E+04  0.12783094558E+04  0.10100000352E+00 0. -1.
       -3    1    3    3    0  502 -0.12948715114E+03  0.68388797138E+02 -0.18486520941E+03  0.23583703216E+03  0.10100000352E+00 0.  1.
</event>
<event>
 5   0  0.1292375E-01  0.5023807E+03  0.7818609E-02  0.1013159E+00
       -3   -1    0    0    0  501  0.00000000000E+00  0.00000000000E+00  0.22516365365E+03  0.22516367630E+03  0.10100000352E+00 0. -1.
        3   -1    0    0  501    0  0.00000000000E+00  0.00000000000E+00 -0.28022537576E+03  0.28022539396E+03  0.10100000352E+00 0.  1.
    10030    2    1    2    0    0  0.00000000000E+00  0.00000000000E+00 -0.55061722112E+02  0.50538907027E+03  0.50238065160E+03 0.  0.
        2    1    3    3  502    0 -0.79960551137E+02 -0.20201553565E+03  0.99289971490E+02  0.23887751009E+03  0.25500000920E-02 0.  1.
       -2    1    3    3    0  502  0.79960551137E+02  0.20201553565E+03 -0.15435169360E+03  0.26651156017E+03  0.25500000920E-02 0. -1.
</event>
<event>
 5   0  0.3117389E-01  0.5068512E+03  0.7818609E-02  0.1012006E+00
        2   -1    0    0  501    0  0.00000000000E+00  0.00000000000E+00  0.69015363403E+03  0.69015363404E+03  0.25500000920E-02 0.  1.
       -2   -1    0    0    0  501  0.00000000000E+00  0.00000000000E+00 -0.93058320680E+02  0.93058320715E+02  0.25500000920E-02 0. -1.
    10030    2    1    2    0    0  0.00000000000E+00  0.00000000000E+00  0.59709531335E+03  0.78321195475E+03  0.50685121371E+03 0.  0.
        4    1    3    3  502    0  0.24973573737E+03  0.14096428866E+02  0.23566000676E+03  0.34366247906E+03  0.12699999809E+01 0. -1.
       -4    1    3    3    0  502 -0.24973573737E+03 -0.14096428866E+02  0.36143530660E+03  0.43954947569E+03  0.12699999809E+01 0.  1.
</event>
<event>
 5   0  0.3117389E-01  0.4995733E+03  0.7818609E-02  0.1013890E+00
       -2   -1    0    0    0  501  0.00000000000E+00  0.00000000000E+00  0.60923933192E+02  0.60923933245E+02  0.25500000920E-02 0. -1.
        2   -1    0    0  501    0  0.00000000000E+00  0.00000000000E+00 -0.10241192467E+04  0.10241192467E+04  0.25500000920E-02 0.  1.
    10030    2    1    2    0    0  0.00000000000E+00  0.00000000000E+00 -0.96319531347E+03  0.10850431799E+04  0.49957330831E+03 0.  0.
        4    1    3    3  502    0 -0.14577766496E+03  0.84501761535E+02 -0.81111238271E+02  0.18700887994E+03  0.12699999809E+01 0. -1.
       -4    1    3    3    0  502  0.14577766496E+03 -0.84501761535E+02 -0.88208407520E+03  0.89803429997E+03  0.12699999809E+01 0.  1.
</event>
<event>
 5   0  0.2000612E-01  0.4387594E+03  0.7818609E-02  0.1031128E+00
       -1   -1    0    0    0  501  0.00000000000E+00  0.00000000000E+00  0.11735824464E+04  0.11735824464E+04  0.50400001928E-02 0. -1.
        1   -1    0    0  501    0  0.00000000000E+00  0.00000000000E+00 -0.41009015189E+02  0.41009015499E+02  0.50400001928E-02 0.  1.
    10030    2    1    2    0    0  0.00000000000E+00  0.00000000000E+00  0.11325734312E+04  0.12145914619E+04  0.43875943552E+03 0.  0.
        2    1    3    3  502    0 -0.11281723745E+03  0.16613109632E+03  0.32179938729E+03  0.37931796147E+03  0.25500000920E-02 0.  1.
       -2    1    3    3    0  502  0.11281723745E+03 -0.16613109632E+03  0.81077404392E+03  0.83527350043E+03  0.25500000920E-02 0. -1.
</event>
<event>
 5   0  0.3111146E-01  0.4739171E+03  0.7818609E-02  0.1020820E+00
        2   -1    0    0  501    0  0.00000000000E+00  0.00000000000E+00  0.29455147831E+03  0.29455147832E+03  0.25500000920E-02 0.  1.
       -2   -1    0    0    0  501  0.00000000000E+00  0.00000000000E+00 -0.19062663456E+03  0.19062663458E+03  0.25500000920E-02 0. -1.
    10030    2    1    2    0    0  0.00000000000E+00  0.00000000000E+00  0.10392484375E+03  0.48517811290E+03  0.47391711099E+03 0.  0.
        1    1    3    3  502    0  0.16591029285E+03 -0.64390667764E+02 -0.10820628583E+03  0.20828102095E+03  0.50400001928E-02 0. -1.
       -1    1    3    3    0  502 -0.16591029285E+03  0.64390667764E+02  0.21213112958E+03  0.27689709195E+03  0.50400001928E-02 0.  1.
</event>
<event>
 5   0  0.1967161E-01  0.4931806E+03  0.7818609E-02  0.1015574E+00
       -1   -1    0    0    0  501  0.00000000000E+00  0.00000000000E+00  0.79297241786E+03  0.79297241788E+03  0.50400001928E-02 0.  1.
        1   -1    0    0  501    0  0.00000000000E+00  0.00000000000E+00 -0.76682075990E+02  0.76682076155E+02  0.50400001928E-02 0. -1.
    10030    2    1    2    0    0  0.00000000000E+00  0.00000000000E+00  0.71629034187E+03  0.86965449403E+03  0.49318058065E+03 0.  0.
        1    1    3    3  502    0  0.21118933915E+03 -0.40165062360E+02  0.14513166147E+03  0.25937881253E+03  0.50400001928E-02 0. -1.
       -1    1    3    3    0  502 -0.21118933915E+03  0.40165062360E+02  0.57115868041E+03  0.61027568150E+03  0.50400001928E-02 0.  1.
</event>
<event>
 5   0  0.1984680E-01  0.4862310E+03  0.7818609E-02  0.1017437E+00
        1   -1    0    0  501    0  0.00000000000E+00  0.00000000000E+00  0.43681698996E+03  0.43681698999E+03  0.50400001928E-02 0. -1.
       -1   -1    0    0    0  501  0.00000000000E+00  0.00000000000E+00 -0.13530869736E+03  0.13530869746E+03  0.50400001928E-02 0.  1.
    10030    2    1    2    0    0  0.00000000000E+00  0.00000000000E+00  0.30150829259E+03  0.57212568744E+03  0.48623096542E+03 0.  0.
        5    1    3    3  502    0  0.44805290035E+02 -0.56069728980E+01 -0.13027682487E+03  0.13796047716E+03  0.46999998093E+01 0.  1.
       -5    1    3    3    0  502 -0.44805290035E+02  0.56069728980E+01  0.43178511747E+03  0.43416521029E+03  0.46999998093E+01 0. -1.
</event>
<event>
 5   0  0.3111146E-01  0.4989734E+03  0.7818609E-02  0.1014047E+00
        2   -1    0    0  501    0  0.00000000000E+00  0.00000000000E+00  0.11720681785E+04  0.11720681785E+04  0.25500000920E-02 0. -1.
       -2   -1    0    0    0  501  0.00000000000E+00  0.00000000000E+00 -0.53105805063E+02  0.53105805124E+02  0.25500000920E-02 0.  1.
    10030    2    1    2    0    0  0.00000000000E+00  0.00000000000E+00  0.11189623734E+04  0.12251739836E+04  0.49897344316E+03 0.  0.
        1    1    3    3  502    0 -0.16949520649E+03 -0.14722967378E+03  0.82663861198E+03  0.85658426130E+03  0.50400001928E-02 0.  1.
       -1    1    3    3    0  502  0.16949520649E+03  0.14722967378E+03  0.29232376142E+03  0.36858972230E+03  0.50400001928E-02 0. -1.
</event>
<event>
 5   0  0.1984680E-01  0.5031153E+03  0.7818609E-02  0.1012969E+00
       -1   -1    0    0    0  501  0.00000000000E+00  0.00000000000E+00  0.36855529585E+03  0.36855529588E+03  0.50400001928E-02 0.  1.
        1   -1    0    0  501    0  0.00000000000E+00  0.00000000000E+00 -0.17170081173E+03  0.17170081180E+03  0.50400001928E-02 0. -1.
    10030    2    1    2    0    0  0.00000000000E+00  0.00000000000E+00  0.19685448412E+03  0.54025610768E+03  0.50311526907E+03 0.  0.
        5    1    3    3  502    0 -0.61314026016E+02  0.22623483896E+03  0.49410378202E+00  0.23444390860E+03  0.46999998093E+01 0. -1.
       -5    1    3    3    0  502  0.61314026016E+02 -0.22623483896E+03  0.19636038034E+03  0.30581219908E+03  0.46999998093E+01 0.  1.
</event>
<event>
 5   0  0.1984297E-01  0.5078416E+03  0.7818609E-02  0.1011752E+00
       -1   -1    0    0    0  501  0.00000000000E+00  0.00000000000E+00  0.48076314703E+03  0.48076314705E+03  0.50400001928E-02 0. -1.
        1   -1    0    0  501    0  0.00000000000E+00  0.00000000000E+00 -0.13411130198E+03  0.13411130208E+03  0.50400001928E-02 0.  1.
    10030    2    1    2    0    0  0.00000000000E+00  0.00000000000E+00  0.34665184504E+03  0.61487444913E+03  0.50784159589E+03 0.  0.
        3    1    3    3  502    0  0.16287474532E+03  0.19480119657E+03  0.17365211172E+03  0.30762112241E+03  0.10100000352E+00 0. -1.
       -3    1    3    3    0  502 -0.16287474532E+03 -0.19480119657E+03  0.17299973332E+03  0.30725332672E+03  0.10100000352E+00 0.  1.
</event>
<event>
 5   0  0.2013450E-01  0.4987673E+03  0.7818609E-02  0.1014101E+00
       -1   -1    0    0    0  501  0.00000000000E+00  0.00000000000E+00  0.73476251277E+02  0.73476251449E+02  0.50400001928E-02 0. -1.
        1   -1    0    0  501    0  0.00000000000E+00  0.00000000000E+00 -0.84642600352E+03  0.84642600353E+03  0.50400001928E-02 0.  1.
    10030    2    1    2    0    0  0.00000000000E+00  0.00000000000E+00 -0.77294975224E+03  0.91990225498E+03  0.49876731973E+03 0.  0.
        4    1    3    3  502    0  0.15606427936E+03 -0.17228956122E+03 -0.21996308091E+03  0.32003925082E+03  0.12699999809E+01 0. -1.
       -4    1    3    3    0  502 -0.15606427936E+03  0.17228956122E+03 -0.55298667133E+03  0.59986300417E+03  0.12699999809E+01 0.  1.
</event>
<event>
 5   0  0.3187123E-01  0.4971472E+03  0.7818609E-02  0.1014526E+00
        2   -1    0    0  501    0  0.00000000000E+00  0.00000000000E+00  0.30140901152E+03  0.30140901153E+03  0.25500000920E-02 0.  1.
       -2   -1    0    0    0  501  0.00000000000E+00  0.00000000000E+00 -0.20499999779E+03  0.20499999780E+03  0.25500000920E-02 0. -1.
    10030    2    1    2    0    0  0.00000000000E+00  0.00000000000E+00  0.96409013734E+02  0.50640900933E+03  0.49714724861E+03 0.  0.
        5    1    3    3  502    0  0.16083790829E+03  0.13439790826E+03  0.18424070211E+03  0.27910277103E+03  0.46999998093E+01 0.  1.
       -5    1    3    3    0  502 -0.16083790829E+03 -0.13439790826E+03 -0.87831688376E+02  0.22730623830E+03  0.46999998093E+01 0. -1.
</event>
<event>
 5   0  0.3111146E-01  0.5263840E+03  0.7818609E-02  0.1007113E+00
        2   -1    0    0  501    0  0.00000000000E+00  0.00000000000E+00  0.68031487452E+03  0.68031487452E+03  0.25500000920E-02 0. -1.
       -2   -1    0    0    0  501  0.00000000000E+00  0.00000000000E+00 -0.10182055430E+03  0.10182055433E+03  0.25500000920E-02 0.  1.
    10030    2    1    2    0    0  0.00000000000E+00  0.00000000000E+00  0.57849432022E+03  0.78213542885E+03  0.52638403332E+03 0.  0.
        1    1    3    3  502    0 -0.14039638629E+03 -0.19798034336E+03  0.13799025481E+03  0.27919289405E+03  0.50400001928E-02 0.  1.
       -1    1    3    3    0  502  0.14039638629E+03  0.19798034336E+03  0.44050406542E+03  0.50294253480E+03  0.50400001928E-02 0. -1.
</event>
<event>
 5   0  0.2000612E-01  0.4831078E+03  0.7818609E-02  0.1018285E+00
        1   -1    0    0  501    0  0.00000000000E+00  0.00000000000E+00  0.26571247645E+03  0.26571247649E+03  0.50400001928E-02 0. -1.
       -1   -1    0    0    0  501  0.00000000000E+00  0.00000000000E+00 -0.21959185526E+03  0.21959185532E+03  0.50400001928E-02 0.  1.
    10030    2    1    2    0    0  0.00000000000E+00  0.00000000000E+00  0.46120621188E+02  0.48530433181E+03  0.48310783762E+03 0.  0.
        2    1    3    3  502    0 -0.43813544402E+02  0.39343845249E+00  0.26168720668E+03  0.26532993727E+03  0.25500000920E-02 0. -1.
       -2    1    3    3    0  502  0.43813544402E+02 -0.39343845249E+00 -0.21556658549E+03  0.21997439454E+03  0.25500000920E-02 0.  1.
</event>
<event>
 5   0  0.1984680E-01  0.5001925E+03  0.7818609E-02  0.1013729E+00
        1   -1    0    0  501    0  0.00000000000E+00  0.00000000000E+00  0.18930817683E+04  0.18930817683E+04  0.50400001928E-02 0. -1.
       -1   -1    0    0    0  501  0.00000000000E+00  0.00000000000E+00 -0.33040379648E+02  0.33040380032E+02  0.50400001928E-02 0.  1.
    10030    2    1    2    0    0  0.00000000000E+00  0.00000000000E+00  0.18600413887E+04  0.19261221483E+04  0.50019252576E+03 0.  0.
        5    1    3    3  502    0 -0.30394016177E+02 -0.16726409042E+03  0.16361392679E+04  0.16449543660E+04  0.46999998093E+01 0. -1.
       -5    1    3    3    0  502  0.30394016177E+02  0.16726409042E+03  0.22390212074E+03  0.28116778235E+03  0.46999998093E+01 0.  1.
</event>
<event>
 5   0  0.3178149E-01  0.4984162E+03  0.7818609E-02  0.1014193E+00
       -2   -1    0    0    0  501  0.00000000000E+00  0.00000000000E+00  0.71711743653E+02  0.71711743698E+02  0.25500000920E-02 0. -1.
        2   -1    0    0  501    0  0.00000000000E+00  0.00000000000E+00 -0.86603213695E+03  0.86603213696E+03  0.25500000920E-02 0.  1.
    10030    2    1    2    0    0  0.00000000000E+00  0.00000000000E+00 -0.79432039330E+03  0.93774388065E+03  0.49841619004E+03 0.  0.
        3    1    3    3  502    0  0.16743079609E+03  0.13149782661E+03 -0.15344255328E+03  0.26242975677E+03  0.10100000352E+00 0. -1.
       -3    1    3    3    0  502 -0.16743079609E+03 -0.13149782661E+03 -0.64087784002E+03  0.67531412388E+03  0.10100000352E+00 0.  1.
</event>
<event>
 5   0  0.3111146E-01  0.4909122E+03  0.7818609E-02  0.1016179E+00
       -2   -1    0    0    0  501  0.00000000000E+00  0.00000000000E+00  0.11175490889E+03  0.11175490892E+03  0.25500000920E-02 0.  1.
        2   -1    0    0  501    0  0.00000000000E+00  0.00000000000E+00 -0.53911459978E+03  0.53911459979E+03  0.25500000920E-02 0. -1.
    10030    2    1    2    0    0  0.00000000000E+00  0.00000000000E+00 -0.42735969089E+03  0.65086950871E+03  0.49091222430E+03 0.  0.
        1    1    3    3  502    0  0.99233604813E+02 -0.13101979840E+02  0.83466582404E+02  0.13032897070E+03  0.50400001928E-02 0.  1.
       -1    1    3    3    0  502 -0.99233604813E+02  0.13101979840E+02 -0.51082627329E+03  0.52054053801E+03  0.50400001928E-02 0. -1.
</event>
<event>
 5   0  0.1292375E-01  0.4939779E+03  0.7818609E-02  0.1015363E+00
       -3   -1    0    0    0  501  0.00000000000E+00  0.00000000000E+00  0.45386990222E+03  0.45386991346E+03  0.10100000352E+00 0. -1.
        3   -1    0    0  501    0  0.00000000000E+00  0.00000000000E+00 -0.13440750018E+03  0.13440753812E+03  0.10100000352E+00 0.  1.
    10030    2    1    2    0    0  0.00000000000E+00  0.00000000000E+00  0.31946240205E+03  0.58827745158E+03  0.49397786764E+03 0.  0.
        4    1    3    3  502    0  0.55251173808E+02 -0.13812618833E+03 -0.75061249831E+02  0.16663535110E+03  0.12699999809E+01 0.  1.
       -4    1    3    3    0  502 -0.55251173808E+02  0.13812618833E+03  0.39452365188E+03  0.42164210048E+03  0.12699999809E+01 0. -1.
</event>
<event>
 5   0  0.1984680E-01  0.5014713E+03  0.7818609E-02  0.1013396E+00
        1   -1    0    0  501    0  0.00000000000E+00  0.00000000000E+00  0.88711677031E+02  0.88711677174E+02  0.50400001928E-02 0.  1.
       -1   -1    0    0    0  501  0.00000000000E+00  0.00000000000E+00 -0.70868190743E+03  0.70868190745E+03  0.50400001928E-02 0. -1.
    10030    2    1    2    0    0  0.00000000000E+00  0.00000000000E+00 -0.61997023040E+03  0.79739358462E+03  0.50147127756E+03 0.  0.
        5    1    3    3  502    0  0.16797998896E+03 -0.17879663791E+03 -0.39200689901E+03  0.46246839167E+03  0.46999998093E+01 0. -1.
       -5    1    3    3    0  502 -0.16797998896E+03  0.17879663791E+03 -0.22796333139E+03  0.33492519295E+03  0.46999998093E+01 0.  1.
</event>
<event>
 5   0  0.2000612E-01  0.4946999E+03  0.7818609E-02  0.1015172E+00
       -1   -1    0    0    0  501  0.00000000000E+00  0.00000000000E+00  0.42311720165E+02  0.42311720465E+02  0.50400001928E-02 0. -1.
        1   -1    0    0  501    0  0.00000000000E+00  0.00000000000E+00 -0.14459821493E+04  0.14459821493E+04  0.50400001928E-02 0.  1.
    10030    2    1    2    0    0  0.00000000000E+00  0.00000000000E+00 -0.14036704291E+04  0.14882938698E+04  0.49469987788E+03 0.  0.
        2    1    3    3  502    0  0.16244250978E+03  0.10417072866E+03 -0.11673517454E+04  0.11831944925E+04  0.25500000920E-02 0.  1.
       -2    1    3    3    0  502 -0.16244250978E+03 -0.10417072866E+03 -0.23631868372E+03  0.30509937721E+03  0.25500000920E-02 0. -1.
</event>
<event>
 5   0  0.1984680E-01  0.5083147E+03  0.7818609E-02  0.1011631E+00
       -1   -1    0    0    0  501  0.00000000000E+00  0.00000000000E+00  0.27940589769E+03  0.27940589774E+03  0.50400001928E-02 0. -1.
        1   -1    0    0  501    0  0.00000000000E+00  0.00000000000E+00 -0.23119037747E+03  0.23119037752E+03  0.50400001928E-02 0.  1.
    10030    2    1    2    0    0  0.00000000000E+00  0.00000000000E+00  0.48215520227E+02  0.51059627526E+03  0.50831468592E+03 0.  0.
        5    1    3    3  502    0  0.10942355033E+03 -0.20793008711E+03  0.12131729327E+03  0.26447761746E+03  0.46999998093E+01 0. -1.
       -5    1    3    3    0  502 -0.10942355033E+03  0.20793008711E+03 -0.73101773046E+02  0.24611865779E+03  0.46999998093E+01 0.  1.
</event>
<event>
 5   0  0.2000612E-01  0.4713102E+03  0.7818609E-02  0.1021551E+00
       -1   -1    0    0    0  501  0.00000000000E+00  0.00000000000E+00  0.22092763295E+03  0.22092763301E+03  0.50400001928E-02 0. -1.
        1   -1    0    0  501    0  0.00000000000E+00  0.00000000000E+00 -0.25136437456E+03  0.25136437461E+03  0.50400001928E-02 0.  1.
    10030    2    1    2    0    0  0.00000000000E+00  0.00000000000E+00 -0.30436741612E+02  0.47229200762E+03  0.47131024307E+03 0.  0.
        2    1    3    3  502    0 -0.19031774742E+03 -0.13345482045E+03 -0.54058652566E+02  0.23864905616E+03  0.25500000920E-02 0. -1.
       -2    1    3    3    0  502  0.19031774742E+03  0.13345482045E+03  0.23621910955E+02  0.23364295146E+03  0.25500000920E-02 0.  1.
</event>
<event>
 5   0  0.1984680E-01  0.4865050E+03  0.7818609E-02  0.1017363E+00
        1   -1    0    0  501    0  0.00000000000E+00  0.00000000000E+00  0.10577227679E+04  0.10577227679E+04  0.50400001928E-02 0. -1.
       -1   -1    0    0    0  501  0.00000000000E+00  0.00000000000E+00 -0.55942621181E+02  0.55942621409E+02  0.50400001928E-02 0.  1.
    10030    2    1    2    0    0  0.00000000000E+00  0.00000000000E+00  0.10017801467E+04  0.11136653893E+04  0.48650502260E+03 0.  0.
        5    1    3    3  502    0  0.15107957581E+03 -0.17977361247E+03  0.35600337366E+03  0.42650214773E+03  0.46999998093E+01 0. -1.
       -5    1    3    3    0  502 -0.15107957581E+03  0.17977361247E+03  0.64577677308E+03  0.68716324160E+03  0.46999998093E+01 0.  1.
</event>
<event>
 5   0  0.1292375E-01  0.4949387E+03  0.7818609E-02  0.1015108E+00
       -4   -1    0    0    0  501  0.00000000000E+00  0.00000000000E+00  0.26764529668E+03  0.26764830980E+03  0.12699999809E+01 0.  1.
        4   -1    0    0  501    0  0.00000000000E+00  0.00000000000E+00 -0.22880824939E+03  0.22881177393E+03  0.12699999809E+01 0. -1.
    10030    2    1    2    0    0  0.00000000000E+00  0.00000000000E+00  0.38837047289E+02  0.49646008373E+03  0.49493868155E+03 0.  0.
        4    1    3    3  502    0  0.18512097858E+03  0.15589261406E+03 -0.32384955773E+02  0.24417756263E+03  0.12699999809E+01 0. -1.
       -4    1    3    3    0  502 -0.18512097858E+03 -0.15589261406E+03  0.71222003062E+02  0.25228252110E+03  0.12699999809E+01 0.  1.
</event>
<event>
 5   0  0.3178149E-01  0.4147706E+03  0.7818609E-02  0.1038782E+00
       -2   -1    0    0    0  501  0.00000000000E+00  0.00000000000E+00  0.90626518251E+02  0.90626518287E+02  0.25500000920E-02 0.  1.
        2   -1    0    0  501    0  0.00000000000E+00  0.00000000000E+00 -0.47457049840E+03  0.47457049841E+03  0.25500000920E-02 0. -1.
    10030    2    1    2    0    0  0.00000000000E+00  0.00000000000E+00 -0.38394398015E+03  0.56519701670E+03  0.41477064480E+03 0.  0.
        3    1    3    3  502    0  0.12046622300E+03  0.66715158556E+02  0.19333122818E+02  0.13905683408E+03  0.10100000352E+00 0.  1.
       -3    1    3    3    0  502 -0.12046622300E+03 -0.66715158556E+02 -0.40327710297E+03  0.42614018262E+03  0.10100000352E+00 0. -1.
</event>
<event>
 5   0  0.3329246E-01  0.4894592E+03  0.7818609E-02  0.1016567E+00
       -2   -1    0    0    0  501  0.00000000000E+00  0.00000000000E+00  0.60768271134E+02  0.60768271188E+02  0.25500000920E-02 0.  1.
        2   -1    0    0  501    0  0.00000000000E+00  0.00000000000E+00 -0.98558975489E+03  0.98558975490E+03  0.25500000920E-02 0. -1.
    10030    2    1    2    0    0  0.00000000000E+00  0.00000000000E+00 -0.92482148376E+03  0.10463580261E+04  0.48945923418E+03 0.  0.
        2    1    3    3  502    0 -0.99840894439E+02  0.18963293839E+03 -0.20979261874E+03  0.29990298166E+03  0.25500000920E-02 0.  1.
       -2    1    3    3    0  502  0.99840894439E+02 -0.18963293839E+03 -0.71502886502E+03  0.74645504443E+03  0.25500000920E-02 0. -1.
</event>
<event>
 5   0  0.3111146E-01  0.5140292E+03  0.7818609E-02  0.1010181E+00
       -2   -1    0    0    0  501  0.00000000000E+00  0.00000000000E+00  0.59032772010E+02  0.59032772065E+02  0.25500000920E-02 0. -1.
        2   -1    0    0  501    0  0.00000000000E+00  0.00000000000E+00 -0.11189801806E+04  0.11189801806E+04  0.25500000920E-02 0.  1.
    10030    2    1    2    0    0  0.00000000000E+00  0.00000000000E+00 -0.10599474086E+04  0.11780129527E+04  0.51402918953E+03 0.  0.
        1    1    3    3  502    0 -0.32880303388E+02  0.20992726837E+03 -0.19861603604E+03  0.29085890420E+03  0.50400001928E-02 0. -1.
       -1    1    3    3    0  502  0.32880303388E+02 -0.20992726837E+03 -0.86133137260E+03  0.88715404852E+03  0.50400001928E-02 0.  1.
</event>
<event>
 5   0  0.2000612E-01  0.5122443E+03  0.7818609E-02  0.1010631E+00
       -1   -1    0    0    0  501  0.00000000000E+00  0.00000000000E+00  0.56416057557E+02  0.56416057782E+02  0.50400001928E-02 0. -1.
        1   -1    0    0  501    0  0.00000000000E+00  0.00000000000E+00 -0.11627640245E+04  0.11627640245E+04  0.50400001928E-02 0.  1.
    10030    2    1    2    0    0  0.00000000000E+00  0.00000000000E+00 -0.11063479669E+04  0.12191800822E+04  0.51224432558E+03 0.  0.
        2    1    3    3  502    0 -0.44721686126E+02  0.17941867987E+03 -0.97497457276E+03  0.99235402424E+03  0.25500000920E-02 0.  1.
       -2    1    3    3    0  502  0.44721686126E+02 -0.17941867987E+03 -0.13137339413E+03  0.22682605800E+03  0.25500000920E-02 0. -1.
</event>
<event>
 5   0  0.3117389E-01  0.4913283E+03  0.7818609E-02  0.1016067E+00
        2   -1    0    0  501    0  0.00000000000E+00  0.00000000000E+00  0.13794854053E+04  0.13794854053E+04  0.25500000920E-02 0.  1.
       -2   -1    0    0    0  501  0.00000000000E+00  0.00000000000E+00 -0.43748825476E+02  0.43748825550E+02  0.25500000920E-02 0. -1.
    10030    2    1    2    0    0  0.00000000000E+00  0.00000000000E+00  0.13357365798E+04  0.14232342309E+04  0.49132826623E+03 0.  0.
        4    1    3    3  502    0 -0.17594701715E+03 -0.14370772535E+03  0.93867542599E+03  0.96577555955E+03  0.12699999809E+01 0.  1.
       -4    1    3    3    0  502  0.17594701715E+03  0.14370772535E+03  0.39706115385E+03  0.45745867132E+03  0.12699999809E+01 0. -1.
</event>
<event>
 5   0  0.2013450E-01  0.5081193E+03  0.7818609E-02  0.1011681E+00
        1   -1    0    0  501    0  0.00000000000E+00  0.00000000000E+00  0.53349649289E+03  0.53349649292E+03  0.50400001928E-02 0.  1.
       -1   -1    0    0    0  501  0.00000000000E+00  0.00000000000E+00 -0.12098728947E+03  0.12098728957E+03  0.50400001928E-02 0. -1.
    10030    2    1    2    0    0  0.00000000000E+00  0.00000000000E+00  0.41250920342E+03  0.65448378249E+03  0.50811925631E+03 0.  0.
        4    1    3    3  502    0 -0.21960449297E+02 -0.27472977222E+02 -0.11783220568E+03  0.12297588140E+03  0.12699999809E+01 0. -1.
       -4    1    3    3    0  502  0.21960449297E+02  0.27472977222E+02  0.53034140910E+03  0.53150790109E+03  0.12699999809E+01 0.  1.
</event>
<event>
 5   0  0.2000612E-01  0.4985072E+03  0.7818609E-02  0.1014169E+00
       -1   -1    0    0    0  501  0.00000000000E+00  0.00000000000E+00  0.78901186333E+02  0.78901186494E+02  0.50400001928E-02 0. -1.
        1   -1    0    0  501    0  0.00000000000E+00  0.00000000000E+00 -0.78740717665E+03  0.78740717666E+03  0.50400001928E-02 0.  1.
    10030    2    1    2    0    0  0.00000000000E+00  0.00000000000E+00 -0.70850599031E+03  0.86630836316E+03  0.49850721335E+03 0.  0.
        2    1    3    3  502    0  0.87222127597E+02 -0.78752012368E+02 -0.73624524581E+03  0.74556464574E+03  0.25500000920E-02 0.  1.
       -2    1    3    3    0  502 -0.87222127597E+02  0.78752012368E+02  0.27739255492E+02  0.12074371742E+03  0.25500000920E-02 0. -1.
</event>
<event>
 5   0  0.3178149E-01  0.4986835E+03  0.7818609E-02  0.1014123E+00
       -2   -1    0    0    0  501  0.00000000000E+00  0.00000000000E+00  0.63463775411E+02  0.63463775462E+02  0.25500000920E-02 0. -1.
        2   -1    0    0  501    0  0.00000000000E+00  0.00000000000E+00 -0.97963457904E+03  0.97963457904E+03  0.25500000920E-02 0.  1.
    10030    2    1    2    0    0  0.00000000000E+00  0.00000000000E+00 -0.91617080363E+03  0.10430983545E+04  0.49868350259E+03 0.  0.
        3    1    3    3  502    0  0.13268760183E+03 -0.66975556762E+02 -0.39328665104E+02  0.15374810237E+03  0.10100000352E+00 0. -1.
       -3    1    3    3    0  502 -0.13268760183E+03  0.66975556762E+02 -0.87684213853E+03  0.88935025214E+03  0.10100000352E+00 0.  1.
</event>
<event>
 5   0  0.1984297E-01  0.4902984E+03  0.7818609E-02  0.1016343E+00
        1   -1    0    0  501    0  0.00000000000E+00  0.00000000000E+00  0.11035105362E+04  0.11035105362E+04  0.50400001928E-02 0. -1.
       -1   -1    0    0    0  501  0.00000000000E+00  0.00000000000E+00 -0.54460854378E+02  0.54460854612E+02  0.50400001928E-02 0.  1.
    10030    2    1    2    0    0  0.00000000000E+00  0.00000000000E+00  0.10490496818E+04  0.11579713908E+04  0.49029838571E+03 0.  0.
        3    1    3    3  502    0  0.20252888878E+03 -0.63293416194E+02  0.81449492557E+03  0.84168046270E+03  0.10100000352E+00 0. -1.
       -3    1    3    3    0  502 -0.20252888878E+03  0.63293416194E+02  0.23455475624E+03  0.31629092810E+03  0.10100000352E+00 0.  1.
</event>
<event>
 5   0  0.3178149E-01  0.5027243E+03  0.7818609E-02  0.1013070E+00
       -2   -1    0    0    0  501  0.00000000000E+00  0.00000000000E+00  0.59245914982E+02  0.59245915037E+02  0.25500000920E-02 0.  1.
        2   -1    0    0  501    0  0.00000000000E+00  0.00000000000E+00 -0.10664523070E+04  0.10664523070E+04  0.25500000920E-02 0. -1.
    10030    2    1    2    0    0  0.00000000000E+00  0.00000000000E+00 -0.10072063920E+04  0.11256982220E+04  0.50272434890E+03 0.  0.
        3    1    3    3  502    0  0.18714507685E+03 -0.78747567364E+02 -0.83541599316E+03  0.85973504696E+03  0.10100000352E+00 0. -1.
       -3    1    3    3    0  502 -0.18714507685E+03  0.78747567364E+02 -0.17179039885E+03  0.26596317507E+03  0.10100000352E+00 0.  1.
</event>
<event>
 5   0  0.1292375E-01  0.4887383E+03  0.7818609E-02  0.1016761E+00
        3   -1    0    0  501    0  0.00000000000E+00  0.00000000000E+00  0.50782240277E+03  0.50782241281E+03  0.10100000352E+00 0. -1.
       -3   -1    0    0    0  501  0.00000000000E+00  0.00000000000E+00 -0.11759282240E+03  0.11759286577E+03  0.10100000352E+00 0.  1.
    10030    2    1    2    0    0  0.00000000000E+00  0.00000000000E+00  0.39022958037E+03  0.62541527858E+03  0.48873831985E+03 0.  0.
        4    1    3    3  502    0 -0.23443427561E+03  0.34722519643E+02  0.27135449746E+03  0.36027761399E+03  0.12699999809E+01 0. -1.
       -4    1    3    3    0  502  0.23443427561E+03 -0.34722519643E+02  0.11887508291E+03  0.26513766460E+03  0.12699999809E+01 0.  1.
</event>
<event>
 5   0  0.2013450E-01  0.4853316E+03  0.7818609E-02  0.1017680E+00
       -1   -1    0    0    0  501  0.00000000000E+00  0.00000000000E+00  0.43297088888E+03  0.43297088891E+03  0.50400001928E-02 0.  1.
        1   -1    0    0  501    0  0.00000000000E+00  0.00000000000E+00 -0.13600614347E+03  0.13600614356E+03  0.50400001928E-02 0. -1.
    10030    2    1    2    0    0  0.00000000000E+00  0.00000000000E+00  0.29696474541E+03  0.56897703247E+03  0.48533164276E+03 0.  0.
        4    1    3    3  502    0 -0.88741413767E+02  0.17826149347E+03  0.31106659406E+03  0.36934568823E+03  0.12699999809E+01 0.  1.
       -4    1    3    3    0  502  0.88741413767E+02 -0.17826149347E+03 -0.14101848650E+02  0.19963134425E+03  0.12699999809E+01 0. -1.
</event>
<event>
 5   0  0.1984680E-01  0.4693812E+03  0.7818609E-02  0.1022095E+00
        1   -1    0    0  501    0  0.00000000000E+00  0.00000000000E+00  0.68501138481E+03  0.68501138482E+03  0.50400001928E-02 0.  1.
       -1   -1    0    0    0  501  0.00000000000E+00  0.00000000000E+00 -0.80406942668E+02  0.80406942826E+02  0.50400001928E-02 0. -1.
    10030    2    1    2    0    0  0.00000000000E+00  0.00000000000E+00  0.60460444214E+03  0.76541832765E+03  0.46938117224E+03 0.  0.
        5    1    3    3  502    0  0.22794079298E+03  0.40870171693E+02  0.24063244602E+03  0.33399616781E+03  0.46999998093E+01 0.  1.
       -5    1    3    3    0  502 -0.22794079298E+03 -0.40870171693E+02  0.36397199612E+03  0.43142215983E+03  0.46999998093E+01 0. -1.
</event>
<event>
 5   0  0.3187123E-01  0.5047501E+03  0.7818609E-02  0.1012546E+00
       -2   -1    0    0    0  501  0.00000000000E+00  0.00000000000E+00  0.66444140804E+02  0.66444140853E+02  0.25500000920E-02 0. -1.
        2   -1    0    0  501    0  0.00000000000E+00  0.00000000000E+00 -0.95859720139E+03  0.95859720140E+03  0.25500000920E-02 0.  1.
    10030    2    1    2    0    0  0.00000000000E+00  0.00000000000E+00 -0.89215306059E+03  0.10250413423E+04  0.50475010629E+03 0.  0.
        5    1    3    3  502    0  0.17343074500E+01  0.24054371272E+03 -0.29132566222E+03  0.37783199576E+03  0.46999998093E+01 0.  1.
       -5    1    3    3    0  502 -0.17343074500E+01 -0.24054371272E+03 -0.60082739837E+03  0.64720934649E+03  0.46999998093E+01 0. -1.
</event>
<event>
 5   0  0.1967161E-01  0.5012704E+03  0.7818609E-02  0.1013448E+00
       -1   -1    0    0    0  501  0.00000000000E+00  0.00000000000E+00  0.42876862250E+03  0.42876862253E+03  0.50400001928E-02 0.  1.
        1   -1    0    0  501    0  0.00000000000E+00  0.00000000000E+00 -0.14650791004E+03  0.14650791012E+03  0.50400001928E-02 0. -1.
    10030    2    1    2    0    0  0.00000000000E+00  0.00000000000E+00  0.28226071246E+03  0.57527653265E+03  0.50127036539E+03 0.  0.
        1    1    3    3  502    0 -0.78448187705E+02 -0.32385440245E+02 -0.12951515743E+03  0.15484544205E+03  0.50400001928E-02 0. -1.
       -1    1    3    3    0  502  0.78448187705E+02  0.32385440245E+02  0.41177586989E+03  0.42043109060E+03  0.50400001928E-02 0.  1.
</event>
<event>
 5   0  0.3187123E-01  0.3326486E+03  0.7818609E-02  0.1069971E+00
        2   -1    0    0  501    0  0.00000000000E+00  0.00000000000E+00  0.50221016274E+03  0.50221016275E+03  0.25500000920E-02 0. -1.
       -2   -1    0    0    0  501  0.00000000000E+00  0.00000000000E+00 -0.55084061253E+02  0.55084061312E+02  0.25500000920E-02 0.  1.
    10030    2    1    2    0    0  0.00000000000E+00  0.00000000000E+00  0.44712610149E+03  0.55729422406E+03  0.33264861572E+03 0.  0.
        5    1    3    3  502    0 -0.15359775651E+03  0.38419407497E+02  0.30854944572E+03  0.34683306090E+03  0.46999998093E+01 0.  1.
       -5    1    3    3    0  502  0.15359775651E+03 -0.38419407497E+02  0.13857665577E+03  0.21046116316E+03  0.46999998093E+01 0. -1.
</event>
<event>
 5   0  0.2000612E-01  0.5025781E+03  0.7818609E-02  0.1013108E+00
       -1   -1    0    0    0  501  0.00000000000E+00  0.00000000000E+00  0.26287213802E+03  0.26287213807E+03  0.50400001928E-02 0. -1.
        1   -1    0    0  501    0  0.00000000000E+00  0.00000000000E+00 -0.24021639444E+03  0.24021639449E+03  0.50400001928E-02 0.  1.
    10030    2    1    2    0    0  0.00000000000E+00  0.00000000000E+00  0.22655743580E+02  0.50308853256E+03  0.50257814206E+03 0.  0.
        2    1    3    3  502    0  0.60209713946E+02  0.19512391410E+03  0.15792674595E+03  0.25814609933E+03  0.25500000920E-02 0. -1.
       -2    1    3    3    0  502 -0.60209713946E+02 -0.19512391410E+03 -0.13527100237E+03  0.24494243323E+03  0.25500000920E-02 0.  1.
</event>
<event>
 5   0  0.1967161E-01  0.5035179E+03  0.7818609E-02  0.1012865E+00
        1   -1    0    0  501    0  0.00000000000E+00  0.00000000000E+00  0.85865402921E+03  0.85865402923E+03  0.50400001928E-02 0. -1.
       -1   -1    0    0    0  501  0.00000000000E+00  0.00000000000E+00 -0.73816188294E+02  0.73816188467E+02  0.50400001928E-02 0.  1.
    10030    2    1    2    0    0  0.00000000000E+00  0.00000000000E+00  0.78483784092E+03  0.93247021769E+03  0.50351789477E+03 0.  0.
        1    1    3    3  502    0  0.58496027336E+02  0.22160577280E+03  0.19950293078E+03  0.30386234246E+03  0.50400001928E-02 0.  1.
       -1    1    3    3    0  502 -0.58496027336E+02 -0.22160577280E+03  0.58533491014E+03  0.62860787523E+03  0.50400001928E-02 0. -1.
</event>
<event>
 5   0  0.1292375E-01  0.4928245E+03  0.7818609E-02  0.1015669E+00
        3   -1    0    0  501    0  0.00000000000E+00  0.00000000000E+00  0.34872305243E+03  0.34872306706E+03  0.10100000352E+00 0. -1.
       -3   -1    0    0    0  501  0.00000000000E+00  0.00000000000E+00 -0.17411804113E+03  0.17411807042E+03  0.10100000352E+00 0.  1.
    10030    2    1    2    0    0  0.00000000000E+00  0.00000000000E+00  0.17460501130E+03  0.52284113748E+03  0.49282445664E+03 0.  0.
        4    1    3    3  502    0  0.22654602816E+03 -0.77479186810E+02  0.14908382137E+03  0.28205270067E+03  0.12699999809E+01 0. -1.
       -4    1    3    3    0  502 -0.22654602816E+03  0.77479186810E+02  0.25521189937E+02  0.24078843680E+03  0.12699999809E+01 0.  1.
</event>
<event>
 5   0  0.1984680E-01  0.4984064E+03  0.7818609E-02  0.1014196E+00
       -1   -1    0    0    0  501  0.00000000000E+00  0.00000000000E+00  0.82203721342E+03  0.82203721343E+03  0.50400001928E-02 0. -1.
        1   -1    0    0  501    0  0.00000000000E+00  0.00000000000E+00 -0.75546745525E+02  0.75546745693E+02  0.50400001928E-02 0.  1.
    10030    2    1    2    0    0  0.00000000000E+00  0.00000000000E+00  0.74649046789E+03  0.89758395912E+03  0.49840640548E+03 0.  0.
        5    1    3    3  502    0 -0.14534130126E+03  0.11972734484E+03  0.79407857484E+02  0.20441729081E+03  0.46999998093E+01 0. -1.
       -5    1    3    3    0  502  0.14534130126E+03 -0.11972734484E+03  0.66708261041E+03  0.69316666831E+03  0.46999998093E+01 0.  1.
</event>
<event>
 5   0  0.3329246E-01  0.4987949E+03  0.7818609E-02  0.1014094E+00
        2   -1    0    0  501    0  0.00000000000E+00  0.00000000000E+00  0.51854865370E+03  0.51854865371E+03  0.25500000920E-02 0.  1.
       -2   -1    0    0    0  501  0.00000000000E+00  0.00000000000E+00 -0.11994842147E+03  0.11994842150E+03  0.25500000920E-02 0. -1.
    10030    2    1    2    0    0  0.00000000000E+00  0.00000000000E+00  0.39860023223E+03  0.63849707520E+03  0.49879491769E+03 0.  0.
        2    1    3    3  502    0 -0.23726179872E+03  0.75208182317E+02  0.17907402573E+03  0.30662181677E+03  0.25500000920E-02 0. -1.
       -2    1    3    3    0  502  0.23726179872E+03 -0.75208182317E+02  0.21952620650E+03  0.33187525844E+03  0.25500000920E-02 0.  1.
</event>
<event>
 5   0  0.3111146E-01  0.5311293E+03  0.7818609E-02  0.1005959E+00
        2   -1    0    0  501    0  0.00000000000E+00  0.00000000000E+00  0.39061208710E+03  0.39061208711E+03  0.25500000920E-02 0. -1.
       -2   -1    0    0    0  501  0.00000000000E+00  0.00000000000E+00 -0.18054891159E+03  0.18054891161E+03  0.25500000920E-02 0.  1.
    10030    2    1    2    0    0  0.00000000000E+00  0.00000000000E+00  0.21006317551E+03  0.57116099872E+03  0.53112931453E+03 0.  0.
        1    1    3    3  502    0 -0.25388672305E+03 -0.53890955719E+02  0.16550037140E+03  0.30781987624E+03  0.50400001928E-02 0. -1.
       -1    1    3    3    0  502  0.25388672305E+03  0.53890955719E+02  0.44562804108E+02  0.26334112248E+03  0.50400001928E-02 0.  1.
</event>
<event>
 5   0  0.2013450E-01  0.4916591E+03  0.7818609E-02  0.1015979E+00
       -1   -1    0    0    0  501  0.00000000000E+00  0.00000000000E+00  0.29045712799E+02  0.29045713236E+02  0.50400001928E-02 0. -1.
        1   -1    0    0  501    0  0.00000000000E+00  0.00000000000E+00 -0.20805884198E+04  0.20805884198E+04  0.50400001928E-02 0.  1.
    10030    2    1    2    0    0  0.00000000000E+00  0.00000000000E+00 -0.20515427070E+04  0.21096341330E+04  0.49165912647E+03 0.  0.
        4    1    3    3  502    0 -0.52441507759E+02 -0.10716779218E+03 -0.19480091974E+04  0.19516599328E+04  0.12699999809E+01 0.  1.
       -4    1    3    3    0  502  0.52441507759E+02  0.10716779218E+03 -0.10353350960E+03  0.15797420020E+03  0.12699999809E+01 0. -1.
</event>
<event>
 5   0  0.1984297E-01  0.5103428E+03  0.7818609E-02  0.1011114E+00
        1   -1    0    0  501    0  0.00000000000E+00  0.00000000000E+00  0.86306973951E+03  0.86306973953E+03  0.50400001928E-02 0. -1.
       -1   -1    0    0    0  501  0.00000000000E+00  0.00000000000E+00 -0.75442854168E+02  0.75442854336E+02  0.50400001928E-02 0.  1.
    10030    2    1    2    0    0  0.00000000000E+00  0.00000000000E+00  0.78762688535E+03  0.93851259386E+03  0.51034280471E+03 0.  0.
        3    1    3    3  502    0  0.92519761658E+02 -0.16402827978E+03  0.71045676058E+03  0.73499251814E+03  0.10100000352E+00 0. -1.
       -3    1    3    3    0  502 -0.92519761658E+02  0.16402827978E+03  0.77170124768E+02  0.20352007573E+03  0.10100000352E+00 0.  1.
</event>
<event>
 5   0  0.1967161E-01  0.4979620E+03  0.7818609E-02  0.1014312E+00
       -1   -1    0    0    0  501  0.00000000000E+00  0.00000000000E+00  0.29417354583E+03  0.29417354588E+03  0.50400001928E-02 0.  1.
        1   -1    0    0  501    0  0.00000000000E+00  0.00000000000E+00 -0.21073116702E+03  0.21073116708E+03  0.50400001928E-02 0. -1.
    10030    2    1    2    0    0  0.00000000000E+00  0.00000000000E+00  0.83442378812E+02  0.50490471296E+03  0.49796198508E+03 0.  0.
        1    1    3    3  502    0  0.21266589035E+03 -0.34766443759E+02  0.16818401280E+03  0.27335206001E+03  0.50400001928E-02 0. -1.
       -1    1    3    3    0  502 -0.21266589035E+03  0.34766443759E+02 -0.84741633986E+02  0.23155265294E+03  0.50400001928E-02 0.  1.
</event>
<event>
 5   0  0.2000612E-01  0.4978044E+03  0.7818609E-02  0.1014354E+00
        1   -1    0    0  501    0  0.00000000000E+00  0.00000000000E+00  0.40099467302E+03  0.40099467306E+03  0.50400001928E-02 0. -1.
       -1   -1    0    0    0  501  0.00000000000E+00  0.00000000000E+00 -0.15449659890E+03  0.15449659899E+03  0.50400001928E-02 0.  1.
    10030    2    1    2    0    0  0.00000000000E+00  0.00000000000E+00  0.24649807412E+03  0.55549127204E+03  0.49780443225E+03 0.  0.
        2    1    3    3  502    0 -0.23859908367E+03  0.25976821159E+02  0.49668490495E+02  0.24509442450E+03  0.25500000920E-02 0.  1.
       -2    1    3    3    0  502  0.23859908367E+03 -0.25976821159E+02  0.19682958363E+03  0.31039684754E+03  0.25500000920E-02 0. -1.
</event>
<event>
 5   0  0.3111146E-01  0.4997414E+03  0.7818609E-02  0.1013846E+00
        2   -1    0    0  501    0  0.00000000000E+00  0.00000000000E+00  0.29613321585E+03  0.29613321586E+03  0.25500000920E-02 0. -1.
       -2   -1    0    0    0  501  0.00000000000E+00  0.00000000000E+00 -0.21083539582E+03  0.21083539584E+03  0.25500000920E-02 0.  1.
    10030    2    1    2    0    0  0.00000000000E+00  0.00000000000E+00  0.85297820026E+02  0.50696861170E+03  0.49974138827E+03 0.  0.
        1    1    3    3  502    0  0.86282188939E+02  0.18876964650E+03  0.18378958078E+03  0.27723132145E+03  0.50400001928E-02 0.  1.
       -1    1    3    3    0  502 -0.86282188939E+02 -0.18876964650E+03 -0.98491760754E+02  0.22973729024E+03  0.50400001928E-02 0. -1.
</event>
<event>
 5   0  0.3178149E-01  0.4742548E+03  0.7818609E-02  0.1020726E+00
        2   -1    0    0  501    0  0.00000000000E+00  0.00000000000E+00  0.40542787270E+03  0.40542787271E+03  0.25500000920E-02 0. -1.
       -2   -1    0    0    0  501  0.00000000000E+00  0.00000000000E+00 -0.13869151827E+03  0.13869151829E+03  0.25500000920E-02 0.  1.
    10030    2    1    2    0    0  0.00000000000E+00  0.00000000000E+00  0.26673635444E+03  0.54411939100E+03  0.47425481430E+03 0.  0.
        3    1    3    3  502    0 -0.14106006568E+03  0.12700663201E+01  0.35205076706E+03  0.37926152980E+03  0.10100000352E+00 0. -1.
       -3    1    3    3    0  502  0.14106006568E+03 -0.12700663201E+01 -0.85314412624E+02  0.16485786120E+03  0.10100000352E+00 0.  1.
</event>
<event>
 5   0  0.1984297E-01  0.5006414E+03  0.7818609E-02  0.1013612E+00
       -1   -1    0    0    0  501  0.00000000000E+00  0.00000000000E+00  0.11015971832E+03  0.11015971844E+03  0.50400001928E-02 0. -1.
        1   -1    0    0  501    0  0.00000000000E+00  0.00000000000E+00 -0.56881458385E+03  0.56881458387E+03  0.50400001928E-02 0.  1.
    10030    2    1    2    0    0  0.00000000000E+00  0.00000000000E+00 -0.45865486553E+03  0.67897430231E+03  0.50064140612E+03 0.  0.
        3    1    3    3  502    0  0.16192008175E+03 -0.52203839750E+02  0.19702537789E+02  0.17126457297E+03  0.10100000352E+00 0. -1.
       -3    1    3    3    0  502 -0.16192008175E+03  0.52203839750E+02 -0.47835740332E+03  0.50770972934E+03  0.10100000352E+00 0.  1.
</event>
<event>
 5   0  0.3117389E-01  0.4631258E+03  0.7818609E-02  0.1023879E+00
        2   -1    0    0  501    0  0.00000000000E+00  0.00000000000E+00  0.18787247958E+03  0.18787247959E+03  0.25500000920E-02 0. -1.
       -2   -1    0    0    0  501  0.00000000000E+00  0.00000000000E+00 -0.28541365899E+03  0.28541365900E+03  0.25500000920E-02 0.  1.
    10030    2    1    2    0    0  0.00000000000E+00  0.00000000000E+00 -0.97541179411E+02  0.47328613859E+03  0.46312577914E+03 0.  0.
        4    1    3    3  502    0  0.15510393936E+03 -0.15389300350E+03  0.29589321124E+02  0.22049360389E+03  0.12699999809E+01 0.  1.
       -4    1    3    3    0  502 -0.15510393936E+03  0.15389300350E+03 -0.12713050053E+03  0.25279253470E+03  0.12699999809E+01 0. -1.
</event>
<event>
 5   0  0.1984297E-01  0.5012887E+03  0.7818609E-02  0.1013443E+00
       -1   -1    0    0    0  501  0.00000000000E+00  0.00000000000E+00  0.11955277702E+03  0.11955277713E+03  0.50400001928E-02 0.  1.
        1   -1    0    0  501    0  0.00000000000E+00  0.00000000000E+00 -0.52548003928E+03  0.52548003930E+03  0.50400001928E-02 0. -1.
    10030    2    1    2    0    0  0.00000000000E+00  0.00000000000E+00 -0.40592726226E+03  0.64503281643E+03  0.50128873120E+03 0.  0.
        3    1    3    3  502    0  0.24934782757E+03 -0.25053150349E+02 -0.20880217602E+03  0.32619067793E+03  0.10100000352E+00 0.  1.
       -3    1    3    3    0  502 -0.24934782757E+03  0.25053150349E+02 -0.19712508624E+03  0.31884213850E+03  0.10100000352E+00 0. -1.
</event>
<event>
 5   0  0.1984297E-01  0.5131536E+03  0.7818609E-02  0.1010402E+00
       -1   -1    0    0    0  501  0.00000000000E+00  0.00000000000E+00  0.93296978996E+02  0.93296979132E+02  0.50400001928E-02 0.  1.
        1   -1    0    0  501    0  0.00000000000E+00  0.00000000000E+00 -0.70561400634E+03  0.70561400636E+03  0.50400001928E-02 0. -1.
    10030    2    1    2    0    0  0.00000000000E+00  0.00000000000E+00 -0.61231702735E+03  0.79891098549E+03  0.51315360348E+03 0.  0.
        3    1    3    3  502    0  0.22070508686E+03  0.11994935441E+03 -0.38754939514E+03  0.46183668852E+03  0.10100000352E+00 0.  1.
       -3    1    3    3    0  502 -0.22070508686E+03 -0.11994935441E+03 -0.22476763220E+03  0.33707429697E+03  0.10100000352E+00 0. -1.
</event>
<event>
 5   0  0.3187123E-01  0.4970922E+03  0.7818609E-02  0.1014541E+00
       -2   -1    0    0    0  501  0.00000000000E+00  0.00000000000E+00  0.16023715376E+03  0.16023715378E+03  0.25500000920E-02 0.  1.
        2   -1    0    0  501    0  0.00000000000E+00  0.00000000000E+00 -0.38552327082E+03  0.38552327083E+03  0.25500000920E-02 0. -1.
    10030    2    1    2    0    0  0.00000000000E+00  0.00000000000E+00 -0.22528611706E+03  0.54576042461E+03  0.49709215094E+03 0.  0.
        5    1    3    3  502    0  0.23139519565E+03  0.54277118284E+02 -0.32991367410E+02  0.24000054680E+03  0.46999998093E+01 0.  1.
       -5    1    3    3    0  502 -0.23139519565E+03 -0.54277118284E+02 -0.19229474965E+03  0.30575987781E+03  0.46999998093E+01 0. -1.
</event>
<event>
 5   0  0.2013450E-01  0.5003079E+03  0.7818609E-02  0.1013699E+00
        1   -1    0    0  501    0  0.00000000000E+00  0.00000000000E+00  0.63637069716E+03  0.63637069718E+03  0.50400001928E-02 0.  1.
       -1   -1    0    0    0  501  0.00000000000E+00  0.00000000000E+00 -0.98334191648E+02  0.98334191778E+02  0.50400001928E-02 0. -1.
    10030    2    1    2    0    0  0.00000000000E+00  0.00000000000E+00  0.53803650552E+03  0.73470488896E+03  0.50030789780E+03 0.  0.
        4    1    3    3  502    0 -0.97830600999E+02 -0.11820824234E+03  0.55914146004E+03  0.57981445332E+03  0.12699999809E+01 0.  1.
       -4    1    3    3    0  502  0.97830600999E+02  0.11820824234E+03 -0.21104954520E+02  0.15489043564E+03  0.12699999809E+01 0. -1.
</event>
<event>
 5   0  0.1984297E-01  0.3606542E+03  0.7818609E-02  0.1058325E+00
       -1   -1    0    0    0  501  0.00000000000E+00  0.00000000000E+00  0.37518442787E+02  0.37518443125E+02  0.50400001928E-02 0. -1.
        1   -1    0    0  501    0  0.00000000000E+00  0.00000000000E+00 -0.86671674944E+03  0.86671674945E+03  0.50400001928E-02 0.  1.
    10030    2    1    2    0    0  0.00000000000E+00  0.00000000000E+00 -0.82919830665E+03  0.90423519258E+03  0.36065419968E+03 0.  0.
        3    1    3    3  502    0  0.60597390533E+02  0.72490486204E+02 -0.79968984426E+03  0.80525199258E+03  0.10100000352E+00 0.  1.
       -3    1    3    3    0  502 -0.60597390533E+02 -0.72490486204E+02 -0.29508462390E+02  0.98983200004E+02  0.10100000352E+00 0. -1.
</event>
<event>
 5   0  0.3329246E-01  0.4758581E+03  0.7818609E-02  0.1020280E+00
        2   -1    0    0  501    0  0.00000000000E+00  0.00000000000E+00  0.40955081525E+03  0.40955081525E+03  0.25500000920E-02 0. -1.
       -2   -1    0    0    0  501  0.00000000000E+00  0.00000000000E+00 -0.13822519947E+03  0.13822519950E+03  0.25500000920E-02 0.  1.
    10030    2    1    2    0    0  0.00000000000E+00  0.00000000000E+00  0.27132561577E+03  0.54777601475E+03  0.47585814332E+03 0.  0.
        2    1    3    3  502    0 -0.65948650480E+02  0.21522337404E+03  0.46943993896E+02  0.22994361005E+03  0.25500000920E-02 0.  1.
       -2    1    3    3    0  502  0.65948650480E+02 -0.21522337404E+03  0.22438162188E+03  0.31783240470E+03  0.25500000920E-02 0. -1.
</event>
<event>
 5   0  0.2013450E-01  0.5113227E+03  0.7818609E-02  0.1010865E+00
       -1   -1    0    0    0  501  0.00000000000E+00  0.00000000000E+00  0.14209091001E+03  0.14209091010E+03  0.50400001928E-02 0.  1.
        1   -1    0    0  501    0  0.00000000000E+00  0.00000000000E+00 -0.46000646807E+03  0.46000646809E+03  0.50400001928E-02 0. -1.
    10030    2    1    2    0    0  0.00000000000E+00  0.00000000000E+00 -0.31791555806E+03  0.60209737819E+03  0.51132274618E+03 0.  0.
        4    1    3    3  502    0 -0.11116515870E+03 -0.21199853265E+03 -0.26467375189E+03  0.35686815240E+03  0.12699999809E+01 0. -1.
       -4    1    3    3    0  502  0.11116515870E+03  0.21199853265E+03 -0.53241806173E+02  0.24522922579E+03  0.12699999809E+01 0.  1.
</event>
<event>
 5   0  0.3111146E-01  0.5205827E+03  0.7818609E-02  0.1008542E+00
       -2   -1    0    0    0  501  0.00000000000E+00  0.00000000000E+00  0.23086287095E+03  0.23086287097E+03  0.25500000920E-02 0. -1.
        2   -1    0    0  501    0  0.00000000000E+00  0.00000000000E+00 -0.29347111559E+03  0.29347111560E+03  0.25500000920E-02 0.  1.
    10030    2    1    2    0    0  0.00000000000E+00  0.00000000000E+00 -0.62608244631E+02  0.52433398656E+03  0.52058269004E+03 0.  0.
        1    1    3    3  502    0 -0.76102868040E+01 -0.23821146823E+03  0.74087187909E+02  0.24958271475E+03  0.50400001928E-02 0. -1.
       -1    1    3    3    0  502  0.76102868040E+01  0.23821146823E+03 -0.13669543254E+03  0.27475127182E+03  0.50400001928E-02 0.  1.
</event>
<event>
 5   0  0.1292375E-01  0.5278597E+03  0.7818609E-02  0.1006753E+00
        4   -1    0    0  501    0  0.00000000000E+00  0.00000000000E+00  0.35639459017E+03  0.35639685296E+03  0.12699999809E+01 0. -1.
       -4   -1    0    0    0  501  0.00000000000E+00  0.00000000000E+00 -0.19544963122E+03  0.19545375731E+03  0.12699999809E+01 0.  1.
    10030    2    1    2    0    0  0.00000000000E+00  0.00000000000E+00  0.16094495895E+03  0.55185061027E+03  0.52785965582E+03 0.  0.
        1    1    3    3  502    0 -0.24112457081E+02  0.18590759870E+03  0.27470086914E+03  0.33257121550E+03  0.50400001928E-02 0. -1.
       -1    1    3    3    0  502  0.24112457081E+02 -0.18590759870E+03 -0.11375591020E+03  0.21927939478E+03  0.50400001928E-02 0.  1.
</event>
<event>
 5   0  0.2013450E-01  0.4794586E+03  0.7818609E-02  0.1019284E+00
        1   -1    0    0  501    0  0.00000000000E+00  0.00000000000E+00  0.77655315089E+03  0.77655315090E+03  0.50400001928E-02 0.  1.
       -1   -1    0    0    0  501  0.00000000000E+00  0.00000000000E+00 -0.74006696474E+02  0.74006696646E+02  0.50400001928E-02 0. -1.
    10030    2    1    2    0    0  0.00000000000E+00  0.00000000000E+00  0.70254645441E+03  0.85055984755E+03  0.47945858388E+03 0.  0.
        4    1    3    3  502    0  0.42352111719E+02 -0.13355979715E+03  0.69634531310E+03  0.71030298378E+03  0.12699999809E+01 0.  1.
       -4    1    3    3    0  502 -0.42352111719E+02  0.13355979715E+03  0.62011413086E+01  0.14025686377E+03  0.12699999809E+01 0. -1.
</event>
<event>
 5   0  0.3178149E-01  0.5031884E+03  0.7818609E-02  0.1012950E+00
        2   -1    0    0  501    0  0.00000000000E+00  0.00000000000E+00  0.69930730000E+03  0.69930730001E+03  0.25500000920E-02 0. -1.
       -2   -1    0    0    0  501  0.00000000000E+00  0.00000000000E+00 -0.90517618702E+02  0.90517618738E+02  0.25500000920E-02 0.  1.
    10030    2    1    2    0    0  0.00000000000E+00  0.00000000000E+00  0.60878968130E+03  0.78982491875E+03  0.50318836057E+03 0.  0.
        3    1    3    3  502    0 -0.97360904483E+02  0.20945074952E+03  0.46097276601E+03  0.51560126396E+03  0.10100000352E+00 0. -1.
       -3    1    3    3    0  502  0.97360904483E+02 -0.20945074952E+03  0.14781691530E+03  0.27422365479E+03  0.10100000352E+00 0.  1.
</event>
<event>
 5   0  0.1984297E-01  0.4861259E+03  0.7818609E-02  0.1017465E+00
       -1   -1    0    0    0  501  0.00000000000E+00  0.00000000000E+00  0.19686421992E+03  0.19686421999E+03  0.50400001928E-02 0.  1.
        1   -1    0    0  501    0  0.00000000000E+00  0.00000000000E+00 -0.30010329289E+03  0.30010329293E+03  0.50400001928E-02 0. -1.
    10030    2    1    2    0    0  0.00000000000E+00  0.00000000000E+00 -0.10323907296E+03  0.49696751292E+03  0.48612591240E+03 0.  0.
        3    1    3    3  502    0  0.17989532271E+02 -0.21569532598E+03  0.61443064922E+02  0.22499634963E+03  0.10100000352E+00 0.  1.
       -3    1    3    3    0  502 -0.17989532271E+02  0.21569532598E+03 -0.16468213789E+03  0.27197116329E+03  0.10100000352E+00 0. -1.
</event>
<event>
 5   0  0.3329246E-01  0.5132390E+03  0.7818609E-02  0.1010380E+00
        2   -1    0    0  501    0  0.00000000000E+00  0.00000000000E+00  0.46485567673E+02  0.46485567743E+02  0.25500000920E-02 0. -1.
       -2   -1    0    0    0  501  0.00000000000E+00  0.00000000000E+00 -0.14166454958E+04  0.14166454958E+04  0.25500000920E-02 0.  1.
    10030    2    1    2    0    0  0.00000000000E+00  0.00000000000E+00 -0.13701599281E+04  0.14631310635E+04  0.51323900910E+03 0.  0.
        2    1    3    3  502    0  0.79371883456E+02 -0.14305386986E+03 -0.12487076562E+04  0.12593788612E+04  0.25500000920E-02 0.  1.
       -2    1    3    3    0  502 -0.79371883456E+02  0.14305386986E+03 -0.12145227192E+03  0.20375220227E+03  0.25500000920E-02 0. -1.
</event>
<event>
 5   0  0.3178149E-01  0.5234364E+03  0.7818609E-02  0.1007836E+00
        2   -1    0    0  501    0  0.00000000000E+00  0.00000000000E+00  0.20994132792E+04  0.20994132792E+04  0.25500000920E-02 0. -1.
       -2   -1    0    0    0  501  0.00000000000E+00  0.00000000000E+00 -0.32626459007E+02  0.32626459106E+02  0.25500000920E-02 0.  1.
    10030    2    1    2    0    0  0.00000000000E+00  0.00000000000E+00  0.20667868202E+04  0.21320397383E+04  0.52343641982E+03 0.  0.
        3    1    3    3  502    0  0.93938719406E+02 -0.70521158595E+02  0.80773096031E+02  0.14255532279E+03  0.10100000352E+00 0.  1.
       -3    1    3    3    0  502 -0.93938719406E+02  0.70521158595E+02  0.19860137242E+04  0.19894844155E+04  0.10100000352E+00 0. -1.
</event>
<event>
 5   0  0.3329246E-01  0.5017169E+03  0.7818609E-02  0.1013332E+00
       -2   -1    0    0    0  501  0.00000000000E+00  0.00000000000E+00  0.29882925878E+03  0.29882925879E+03  0.25500000920E-02 0. -1.
        2   -1    0    0  501    0  0.00000000000E+00  0.00000000000E+00 -0.21058832631E+03  0.21058832632E+03  0.25500000920E-02 0.  1.
    10030    2    1    2    0    0  0.00000000000E+00  0.00000000000E+00  0.88240932468E+02  0.50941758511E+03  0.50171686623E+03 0.  0.
        2    1    3    3  502    0 -0.14589133042E+03  0.86597734125E+02  0.23174445525E+03  0.28720887938E+03  0.25500000920E-02 0. -1.
       -2    1    3    3    0  502  0.14589133042E+03 -0.86597734125E+02 -0.14350352278E+03  0.22220870573E+03  0.25500000920E-02 0.  1.
</event>
<event>
 5   0  0.3117389E-01  0.5097369E+03  0.7818609E-02  0.1011268E+00
       -2   -1    0    0    0  501  0.00000000000E+00  0.00000000000E+00  0.73233204976E+03  0.73233204976E+03  0.25500000920E-02 0. -1.
        2   -1    0    0  501    0  0.00000000000E+00  0.00000000000E+00 -0.88700094621E+02  0.88700094658E+02  0.25500000920E-02 0.  1.
    10030    2    1    2    0    0  0.00000000000E+00  0.00000000000E+00  0.64363195514E+03  0.82103214442E+03  0.50973688163E+03 0.  0.
        4    1    3    3  502    0 -0.37358986431E+02 -0.14709365935E+03  0.65161231281E+03  0.66905340414E+03  0.12699999809E+01 0. -1.
       -4    1    3    3    0  502  0.37358986431E+02  0.14709365935E+03 -0.79803576773E+01  0.15197874028E+03  0.12699999809E+01 0.  1.
</event>
<event>
 5   0  0.1984680E-01  0.5191417E+03  0.7818609E-02  0.1008900E+00
        1   -1    0    0  501    0  0.00000000000E+00  0.00000000000E+00  0.41984731535E+03  0.41984731538E+03  0.50400001928E-02 0.  1.
       -1   -1    0    0    0  501  0.00000000000E+00  0.00000000000E+00 -0.16047982810E+03  0.16047982818E+03  0.50400001928E-02 0. -1.
    10030    2    1    2    0    0  0.00000000000E+00  0.00000000000E+00  0.25936748725E+03  0.58032714356E+03  0.51914169560E+03 0.  0.
        5    1    3    3  502    0  0.16140727492E+02 -0.21863856572E+03  0.28494781827E+03  0.35955624684E+03  0.46999998093E+01 0. -1.
       -5    1    3    3    0  502 -0.16140727492E+02  0.21863856572E+03 -0.25580331021E+02  0.22077089672E+03  0.46999998093E+01 0.  1.
</event>
<event>
 5   0  0.2013450E-01  0.4861467E+03  0.7818609E-02  0.1017459E+00
       -1   -1    0    0    0  501  0.00000000000E+00  0.00000000000E+00  0.25648652033E+03  0.25648652038E+03  0.50400001928E-02 0. -1.
        1   -1    0    0  501    0  0.00000000000E+00  0.00000000000E+00 -0.23036161648E+03  0.23036161653E+03  0.50400001928E-02 0.  1.
    10030    2    1    2    0    0  0.00000000000E+00  0.00000000000E+00  0.26124903849E+02  0.48684813691E+03  0.48614668343E+03 0.  0.
        4    1    3    3  502    0 -0.22204266871E+02  0.12534051752E+03 -0.19431062276E+03  0.23229615971E+03  0.12699999809E+01 0.  1.
       -4    1    3    3    0  502  0.22204266871E+02 -0.12534051752E+03  0.22043552661E+03  0.25455197719E+03  0.12699999809E+01 0. -1.
</event>
<event>
 5   0  0.3329246E-01  0.5233228E+03  0.7818609E-02  0.1007864E+00
       -2   -1    0    0    0  501  0.00000000000E+00  0.00000000000E+00  0.11141412826E+03  0.11141412829E+03  0.25500000920E-02 0. -1.
        2   -1    0    0  501    0  0.00000000000E+00  0.00000000000E+00 -0.61452425127E+03  0.61452425127E+03  0.25500000920E-02 0.  1.
    10030    2    1    2    0    0  0.00000000000E+00  0.00000000000E+00 -0.50311012300E+03  0.72593837957E+03  0.52332278286E+03 0.  0.
        2    1    3    3  502    0 -0.19822287276E+03  0.86497592004E+02 -0.45586305073E+03  0.50456442773E+03  0.25500000920E-02 0.  1.
       -2    1    3    3    0  502  0.19822287276E+03 -0.86497592004E+02 -0.47247072276E+02  0.22137395184E+03  0.25500000920E-02 0. -1.
</event>
<event>
 5   0  0.3329246E-01  0.5030459E+03  0.7818609E-02  0.1012987E+00
       -2   -1    0    0    0  501  0.00000000000E+00  0.00000000000E+00  0.26038850214E+03  0.26038850215E+03  0.25500000920E-02 0.  1.
        2   -1    0    0  501    0  0.00000000000E+00  0.00000000000E+00 -0.24295927857E+03  0.24295927859E+03  0.25500000920E-02 0. -1.
    10030    2    1    2    0    0  0.00000000000E+00  0.00000000000E+00  0.17429223567E+02  0.50334778074E+03  0.50304593283E+03 0.  0.
        2    1    3    3  502    0  0.18035151824E+03 -0.21453963656E+02  0.18282149138E+03  0.25770262010E+03  0.25500000920E-02 0.  1.
       -2    1    3    3    0  502 -0.18035151824E+03  0.21453963656E+02 -0.16539226781E+03  0.24564516064E+03  0.25500000920E-02 0. -1.
</event>
<event>
 5   0  0.1984680E-01  0.5064321E+03  0.7818609E-02  0.1012114E+00
        1   -1    0    0  501    0  0.00000000000E+00  0.00000000000E+00  0.18699967788E+03  0.18699967795E+03  0.50400001928E-02 0.  1.
       -1   -1    0    0    0  501  0.00000000000E+00  0.00000000000E+00 -0.34287951950E+03  0.34287951954E+03  0.50400001928E-02 0. -1.
    10030    2    1    2    0    0  0.00000000000E+00  0.00000000000E+00 -0.15587984162E+03  0.52987919749E+03  0.50643206742E+03 0.  0.
        5    1    3    3  502    0  0.18223322185E+03 -0.17573757963E+03 -0.79932203291E+02  0.26552568833E+03  0.46999998093E+01 0.  1.
       -5    1    3    3    0  502 -0.18223322185E+03  0.17573757963E+03 -0.75947638326E+02  0.26435350916E+03  0.46999998093E+01 0. -1.
</event>
<event>
 5   0  0.3178149E-01  0.4800494E+03  0.7818609E-02  0.1019122E+00
        2   -1    0    0  501    0  0.00000000000E+00  0.00000000000E+00  0.51077887278E+03  0.51077887278E+03  0.25500000920E-02 0.  1.
       -2   -1    0    0    0  501  0.00000000000E+00  0.00000000000E+00 -0.11279216104E+03  0.11279216107E+03  0.25500000920E-02 0. -1.
    10030    2    1    2    0    0  0.00000000000E+00  0.00000000000E+00  0.39798671174E+03  0.62357103385E+03  0.48004938448E+03 0.  0.
        3    1    3    3  502    0  0.91924604043E+02  0.81848170090E+02  0.46666553856E+03  0.48262406783E+03  0.10100000352E+00 0.  1.
       -3    1    3    3    0  502 -0.91924604043E+02 -0.81848170090E+02 -0.68678826818E+02  0.14094696602E+03  0.10100000352E+00 0. -1.
</event>
<event>
 5   0  0.1292375E-01  0.5083292E+03  0.7818609E-02  0.1011627E+00
        4   -1    0    0  501    0  0.00000000000E+00  0.00000000000E+00  0.15189597127E+03  0.15190128041E+03  0.12699999809E+01 0.  1.
       -4   -1    0    0    0  501  0.00000000000E+00  0.00000000000E+00 -0.42527507609E+03  0.42527697238E+03  0.12699999809E+01 0. -1.
    10030    2    1    2    0    0  0.00000000000E+00  0.00000000000E+00 -0.27337910481E+03  0.57717825279E+03  0.50832922456E+03 0.  0.
        4    1    3    3  502    0 -0.16861270678E+03  0.91964217316E+02 -0.32570011845E+03  0.37811353085E+03  0.12699999809E+01 0. -1.
       -4    1    3    3    0  502  0.16861270678E+03 -0.91964217316E+02  0.52321013633E+02  0.19906472194E+03  0.12699999809E+01 0.  1.
</event>
<event>
 5   0  0.2013450E-01  0.4951883E+03  0.7818609E-02  0.1015043E+00
       -1   -1    0    0    0  501  0.00000000000E+00  0.00000000000E+00  0.76511121415E+02  0.76511121581E+02  0.50400001928E-02 0. -1.
        1   -1    0    0  501    0  0.00000000000E+00  0.00000000000E+00 -0.80122803893E+03  0.80122803894E+03  0.50400001928E-02 0.  1.
    10030    2    1    2    0    0  0.00000000000E+00  0.00000000000E+00 -0.72471691751E+03  0.87773916053E+03  0.49518827065E+03 0.  0.
        4    1    3    3  502    0  0.15945201063E+03 -0.99269835976E+02 -0.76425785866E+02  0.20278549671E+03  0.12699999809E+01 0. -1.
       -4    1    3    3    0  502 -0.15945201063E+03  0.99269835976E+02 -0.64829113165E+03  0.67495366382E+03  0.12699999809E+01 0.  1.
</event>
<event>
 5   0  0.3329246E-01  0.4899890E+03  0.7818609E-02  0.1016425E+00
       -2   -1    0    0    0  501  0.00000000000E+00  0.00000000000E+00  0.24550744005E+02  0.24550744137E+02  0.25500000920E-02 0.  1.
        2   -1    0    0  501    0  0.00000000000E+00  0.00000000000E+00 -0.24448260311E+04  0.24448260311E+04  0.25500000920E-02 0. -1.
    10030    2    1    2    0    0  0.00000000000E+00  0.00000000000E+00 -0.24202752870E+04  0.24693767752E+04  0.48998897208E+03 0.  0.
        2    1    3    3  502    0 -0.10487223360E+02 -0.20657997631E+03 -0.54848162278E+03  0.58618884244E+03  0.25500000920E-02 0.  1.
       -2    1    3    3    0  502  0.10487223360E+02  0.20657997631E+03 -0.18717936643E+04  0.18831879328E+04  0.25500000920E-02 0. -1.
</event>
<event>
 5   0  0.3187123E-01  0.5302827E+03  0.7818609E-02  0.1006164E+00
       -2   -1    0    0    0  501  0.00000000000E+00  0.00000000000E+00  0.28744261562E+02  0.28744261675E+02  0.25500000920E-02 0.  1.
        2   -1    0    0  501    0  0.00000000000E+00  0.00000000000E+00 -0.24457031791E+04  0.24457031791E+04  0.25500000920E-02 0. -1.
    10030    2    1    2    0    0  0.00000000000E+00  0.00000000000E+00 -0.24169589175E+04  0.24744474407E+04  0.53028268696E+03 0.  0.
        5    1    3    3  502    0  0.49916022368E+02 -0.50294957045E+02 -0.24004984454E+04  0.24015486813E+04  0.46999998093E+01 0. -1.
       -5    1    3    3    0  502 -0.49916022368E+02  0.50294957045E+02 -0.16460472070E+02  0.72898759469E+02  0.46999998093E+01 0.  1.
</event>
<event>
 5   0  0.1292375E-01  0.4968269E+03  0.7818609E-02  0.1014610E+00
       -4   -1    0    0    0  501  0.00000000000E+00  0.00000000000E+00  0.20347164059E+03  0.20347560400E+03  0.12699999809E+01 0. -1.
        4   -1    0    0  501    0  0.00000000000E+00  0.00000000000E+00 -0.30327356132E+03  0.30327622046E+03  0.12699999809E+01 0.  1.
    10030    2    1    2    0    0  0.00000000000E+00  0.00000000000E+00 -0.99801920738E+02  0.50675182446E+03  0.49682691977E+03 0.  0.
        4    1    3    3  502    0 -0.20929107625E+03  0.13125327379E+03 -0.23352992419E+02  0.24814743931E+03  0.12699999809E+01 0. -1.
       -4    1    3    3    0  502  0.20929107625E+03 -0.13125327379E+03 -0.76448928319E+02  0.25860438515E+03  0.12699999809E+01 0.  1.
</event>
<event>
 5   0  0.1984680E-01  0.5026772E+03  0.7818609E-02  0.1013082E+00
        1   -1    0    0  501    0  0.00000000000E+00  0.00000000000E+00  0.97797204036E+03  0.97797204037E+03  0.50400001928E-02 0.  1.
       -1   -1    0    0    0  501  0.00000000000E+00  0.00000000000E+00 -0.64593975602E+02  0.64593975799E+02  0.50400001928E-02 0. -1.
    10030    2    1    2    0    0  0.00000000000E+00  0.00000000000E+00  0.91337806475E+03  0.10425660162E+04  0.50267724127E+03 0.  0.
        5    1    3    3  502    0 -0.20291975719E+03  0.14684398737E+03  0.49865555386E+03  0.55804931312E+03  0.46999998093E+01 0. -1.
       -5    1    3    3    0  502  0.20291975719E+03 -0.14684398737E+03  0.41472251090E+03  0.48451670305E+03  0.46999998093E+01 0.  1.
</event>
<event>
 5   0  0.3117389E-01  0.4982309E+03  0.7818609E-02  0.1014242E+00
       -2   -1    0    0    0  501  0.00000000000E+00  0.00000000000E+00  0.11764341454E+03  0.11764341457E+03  0.25500000920E-02 0. -1.
        2   -1    0    0  501    0  0.00000000000E+00  0.00000000000E+00 -0.52751365540E+03  0.52751365541E+03  0.25500000920E-02 0.  1.
    10030    2    1    2    0    0  0.00000000000E+00  0.00000000000E+00 -0.40987024087E+03  0.64515706998E+03  0.49823090088E+03 0.  0.
        4    1    3    3  502    0 -0.15579824055E+03  0.25152824775E+02  0.44651249404E+02  0.16401555819E+03  0.12699999809E+01 0. -1.
       -4    1    3    3    0  502  0.15579824055E+03 -0.25152824775E+02 -0.45452149027E+03  0.48114151179E+03  0.12699999809E+01 0.  1.
</event>
<event>
 5   0  0.1984297E-01  0.4953083E+03  0.7818609E-02  0.1015011E+00
       -1   -1    0    0    0  501  0.00000000000E+00  0.00000000000E+00  0.34309623830E+03  0.34309623833E+03  0.50400001928E-02 0.  1.
        1   -1    0    0  501    0  0.00000000000E+00  0.00000000000E+00 -0.17876203622E+03  0.17876203629E+03  0.50400001928E-02 0. -1.
    10030    2    1    2    0    0  0.00000000000E+00  0.00000000000E+00  0.16433420207E+03  0.52185827463E+03  0.49530831694E+03 0.  0.
        3    1    3    3  502    0  0.11750008370E+03  0.87506193146E+02 -0.12820805611E+03  0.19468158455E+03  0.10100000352E+00 0. -1.
       -3    1    3    3    0  502 -0.11750008370E+03 -0.87506193146E+02  0.29254225818E+03  0.32717669008E+03  0.10100000352E+00 0.  1.
</event>
<event>
 5   0  0.2000612E-01  0.4924965E+03  0.7818609E-02  0.1015756E+00
        1   -1    0    0  501    0  0.00000000000E+00  0.00000000000E+00  0.26360702393E+03  0.26360702398E+03  0.50400001928E-02 0. -1.
       -1   -1    0    0    0  501  0.00000000000E+00  0.00000000000E+00 -0.23003260767E+03  0.23003260773E+03  0.50400001928E-02 0.  1.
    10030    2    1    2    0    0  0.00000000000E+00  0.00000000000E+00  0.33574416260E+02  0.49363963170E+03  0.49249654269E+03 0.  0.
        2    1    3    3  502    0  0.70507131740E+02 -0.86469751707E+02  0.23681878707E+03  0.26178504827E+03  0.25500000920E-02 0. -1.
       -2    1    3    3    0  502 -0.70507131740E+02  0.86469751707E+02 -0.20324437081E+03  0.23185458343E+03  0.25500000920E-02 0.  1.
</event>
<event>
 5   0  0.3329246E-01  0.4983307E+03  0.7818609E-02  0.1014216E+00
       -2   -1    0    0    0  501  0.00000000000E+00  0.00000000000E+00  0.74959151178E+02  0.74959151221E+02  0.25500000920E-02 0. -1.
        2   -1    0    0  501    0  0.00000000000E+00  0.00000000000E+00 -0.82822937007E+03  0.82822937008E+03  0.25500000920E-02 0.  1.
    10030    2    1    2    0    0  0.00000000000E+00  0.00000000000E+00 -0.75327021890E+03  0.90318852130E+03  0.49833069575E+03 0.  0.
        2    1    3    3  502    0  0.35551704941E+02  0.12034837613E+03 -0.76677351582E+03  0.77697443969E+03  0.25500000920E-02 0.  1.
       -2    1    3    3    0  502 -0.35551704941E+02 -0.12034837613E+03  0.13503296925E+02  0.12621408161E+03  0.25500000920E-02 0. -1.
</event>
<event>
 5   0  0.3187123E-01  0.5527653E+03  0.7818609E-02  0.1000856E+00
       -2   -1    0    0    0  501  0.00000000000E+00  0.00000000000E+00  0.58906762610E+02  0.58906762665E+02  0.25500000920E-02 0.  1.
        2   -1    0    0  501    0  0.00000000000E+00  0.00000000000E+00 -0.12967504784E+04  0.12967504784E+04  0.25500000920E-02 0. -1.
    10030    2    1    2    0    0  0.00000000000E+00  0.00000000000E+00 -0.12378437158E+04  0.13556572410E+04  0.55276531235E+03 0.  0.
        5    1    3    3  502    0 -0.11963093379E+03 -0.49286672797E+02 -0.20066886070E+02  0.13101719867E+03  0.46999998093E+01 0.  1.
       -5    1    3    3    0  502  0.11963093379E+03  0.49286672797E+02 -0.12177768297E+04  0.12246400424E+04  0.46999998093E+01 0. -1.
</event>
<event>
 5   0  0.2013450E-01  0.5086970E+03  0.7818609E-02  0.1011533E+00
        1   -1    0    0  501    0  0.00000000000E+00  0.00000000000E+00  0.79602980837E+03  0.79602980838E+03  0.50400001928E-02 0.  1.
       -1   -1    0    0    0  501  0.00000000000E+00  0.00000000000E+00 -0.81269756114E+02  0.81269756270E+02  0.50400001928E-02 0. -1.
    10030    2    1    2    0    0  0.00000000000E+00  0.00000000000E+00  0.71476005225E+03  0.87729956465E+03  0.50869695679E+03 0.  0.
        4    1    3    3  502    0  0.12567993229E+03  0.10179820202E+03  0.18842821224E+02  0.16283422284E+03  0.12699999809E+01 0. -1.
       -4    1    3    3    0  502 -0.12567993229E+03 -0.10179820202E+03  0.69591723103E+03  0.71446534182E+03  0.12699999809E+01 0.  1.
</event>
<event>
 5   0  0.3187123E-01  0.5131745E+03  0.7818609E-02  0.1010396E+00
        2   -1    0    0  501    0  0.00000000000E+00  0.00000000000E+00  0.50470850895E+03  0.50470850896E+03  0.25500000920E-02 0.  1.
       -2   -1    0    0    0  501  0.00000000000E+00  0.00000000000E+00 -0.13044560415E+03  0.13044560417E+03  0.25500000920E-02 0. -1.
    10030    2    1    2    0    0  0.00000000000E+00  0.00000000000E+00  0.37426290480E+03  0.63515411313E+03  0.51317445914E+03 0.  0.
        5    1    3    3  502    0 -0.10971157884E+03 -0.19887237787E+03  0.33476565201E+03  0.40457012368E+03  0.46999998093E+01 0.  1.
       -5    1    3    3    0  502  0.10971157884E+03  0.19887237787E+03  0.39497252790E+02  0.23058398945E+03  0.46999998093E+01 0. -1.
</event>
<event>
 5   0  0.1292375E-01  0.5011007E+03  0.7818609E-02  0.1013492E+00
        3   -1    0    0  501    0  0.00000000000E+00  0.00000000000E+00  0.56697097637E+03  0.56697098536E+03  0.10100000352E+00 0. -1.
       -3   -1    0    0    0  501  0.00000000000E+00  0.00000000000E+00 -0.11072077552E+03  0.11072082158E+03  0.10100000352E+00 0.  1.
    10030    2    1    2    0    0  0.00000000000E+00  0.00000000000E+00  0.45625020085E+03  0.67769180695E+03  0.50110072783E+03 0.  0.
        1    1    3    3  502    0  0.15422953052E+03 -0.11644965614E+03  0.44378288197E+03  0.48403565660E+03  0.50400001928E-02 0. -1.
       -1    1    3    3    0  502 -0.15422953052E+03  0.11644965614E+03  0.12467318875E+02  0.19365615035E+03  0.50400001928E-02 0.  1.
</event>
<event>
 5   0  0.1967161E-01  0.4976801E+03  0.7818609E-02  0.1014386E+00
        1   -1    0    0  501    0  0.00000000000E+00  0.00000000000E+00  0.24785116880E+04  0.24785116880E+04  0.50400001928E-02 0. -1.
       -1   -1    0    0    0  501  0.00000000000E+00  0.00000000000E+00 -0.24983283800E+02  0.24983284308E+02  0.50400001928E-02 0.  1.
    10030    2    1    2    0    0  0.00000000000E+00  0.00000000000E+00  0.24535284042E+04  0.25034949723E+04  0.49768006408E+03 0.  0.
        1    1    3    3  502    0 -0.19031044456E+03  0.81094419497E+02  0.53106771581E+03  0.56993621484E+03  0.50400001928E-02 0.  1.
       -1    1    3    3    0  502  0.19031044456E+03 -0.81094419497E+02  0.19224606883E+04  0.19335587574E+04  0.50400001928E-02 0. -1.
</event>
<event>
 5   0  0.3329246E-01  0.5280869E+03  0.7818609E-02  0.1006697E+00
        2   -1    0    0  501    0  0.00000000000E+00  0.00000000000E+00  0.39228479171E+03  0.39228479172E+03  0.25500000920E-02 0.  1.
       -2   -1    0    0    0  501  0.00000000000E+00  0.00000000000E+00 -0.17772533050E+03  0.17772533052E+03  0.25500000920E-02 0. -1.
    10030    2    1    2    0    0  0.00000000000E+00  0.00000000000E+00  0.21455946121E+03  0.57001012223E+03  0.52808690294E+03 0.  0.
        2    1    3    3  502    0  0.82535608464E+02 -0.16894787030E+03 -0.92810301693E+02  0.20968848717E+03  0.25500000920E-02 0. -1.
       -2    1    3    3    0  502 -0.82535608464E+02  0.16894787030E+03  0.30736976290E+03  0.36032163507E+03  0.25500000920E-02 0.  1.
</event>
<event>
 5   0  0.3178149E-01  0.4937442E+03  0.7818609E-02  0.1015425E+00
       -2   -1    0    0    0  501  0.00000000000E+00  0.00000000000E+00  0.12309288192E+03  0.12309288195E+03  0.25500000920E-02 0.  1.
        2   -1    0    0  501    0  0.00000000000E+00  0.00000000000E+00 -0.49512065195E+03  0.49512065196E+03  0.25500000920E-02 0. -1.
    10030    2    1    2    0    0  0.00000000000E+00  0.00000000000E+00 -0.37202777003E+03  0.61821353391E+03  0.49374417650E+03 0.  0.
        3    1    3    3  502    0  0.18766353974E+03 -0.32734734610E+02  0.10595191782E+02  0.19079160173E+03  0.10100000352E+00 0.  1.
       -3    1    3    3    0  502 -0.18766353974E+03  0.32734734610E+02 -0.38262296182E+03  0.42742193218E+03  0.10100000352E+00 0. -1.
</event>
<event>
 5   0  0.3111146E-01  0.4968921E+03  0.7818609E-02  0.1014593E+00
       -2   -1    0    0    0  501  0.00000000000E+00  0.00000000000E+00  0.15169872794E+03  0.15169872797E+03  0.25500000920E-02 0. -1.
        2   -1    0    0  501    0  0.00000000000E+00  0.00000000000E+00 -0.40689496506E+03  0.40689496507E+03  0.25500000920E-02 0.  1.
    10030    2    1    2    0    0  0.00000000000E+00  0.00000000000E+00 -0.25519623711E+03  0.55859369303E+03  0.49689213564E+03 0.  0.
        1    1    3    3  502    0 -0.59398622644E+02  0.21731639742E+03 -0.98500590060E+01  0.22550307458E+03  0.50400001928E-02 0. -1.
       -1    1    3    3    0  502  0.59398622644E+02 -0.21731639742E+03 -0.24534617811E+03  0.33309061845E+03  0.50400001928E-02 0.  1.
</event>
<event>
 5   0  0.2013450E-01  0.4865158E+03  0.7818609E-02  0.1017360E+00
       -1   -1    0    0    0  501  0.00000000000E+00  0.00000000000E+00  0.15273901049E+03  0.15273901058E+03  0.50400001928E-02 0. -1.
        1   -1    0    0  501    0  0.00000000000E+00  0.00000000000E+00 -0.38742170445E+03  0.38742170449E+03  0.50400001928E-02 0.  1.
    10030    2    1    2    0    0  0.00000000000E+00  0.00000000000E+00 -0.23468269396E+03  0.54016071506E+03  0.48651580781E+03 0.  0.
        4    1    3    3  502    0  0.10718624703E+03  0.88281429546E+02  0.10440662181E+03  0.17373790010E+03  0.12699999809E+01 0. -1.
       -4    1    3    3    0  502 -0.10718624703E+03 -0.88281429546E+02 -0.33908931577E+03  0.36642281496E+03  0.12699999809E+01 0.  1.
</event>
<event>
 5   0  0.3178149E-01  0.5169132E+03  0.7818609E-02  0.1009456E+00
       -2   -1    0    0    0  501  0.00000000000E+00  0.00000000000E+00  0.13804352194E+03  0.13804352197E+03  0.25500000920E-02 0. -1.
        2   -1    0    0  501    0  0.00000000000E+00  0.00000000000E+00 -0.48390396557E+03  0.48390396558E+03  0.25500000920E-02 0.  1.
    10030    2    1    2    0    0  0.00000000000E+00  0.00000000000E+00 -0.34586044363E+03  0.62194748754E+03  0.51691317530E+03 0.  0.
        3    1    3    3  502    0  0.21627339422E+03 -0.14115872926E+03 -0.18495191925E+03  0.31765892169E+03  0.10100000352E+00 0. -1.
       -3    1    3    3    0  502 -0.21627339422E+03  0.14115872926E+03 -0.16090852438E+03  0.30428856586E+03  0.10100000352E+00 0.  1.
</event>
<event>
 5   0  0.2013450E-01  0.5018052E+03  0.7818609E-02  0.1013309E+00
        1   -1    0    0  501    0  0.00000000000E+00  0.00000000000E+00  0.10151725201E+04  0.10151725201E+04  0.50400001928E-02 0.  1.
       -1   -1    0    0    0  501  0.00000000000E+00  0.00000000000E+00 -0.62011253274E+02  0.62011253478E+02  0.50400001928E-02 0. -1.
    10030    2    1    2    0    0  0.00000000000E+00  0.00000000000E+00  0.95316126679E+03  0.10771837736E+04  0.50180522267E+03 0.  0.
        4    1    3    3  502    0 -0.84151489321E+02  0.56290443214E+02 -0.16209115705E+02  0.10253992142E+03  0.12699999809E+01 0. -1.
       -4    1    3    3    0  502  0.84151489321E+02 -0.56290443214E+02  0.96937038250E+03  0.97464385214E+03  0.12699999809E+01 0.  1.
</event>
<event>
 5   0  0.3187123E-01  0.4989165E+03  0.7818609E-02  0.1014062E+00
       -2   -1    0    0    0  501  0.00000000000E+00  0.00000000000E+00  0.14236552955E+03  0.14236552957E+03  0.25500000920E-02 0. -1.
        2   -1    0    0  501    0  0.00000000000E+00  0.00000000000E+00 -0.43711012625E+03  0.43711012626E+03  0.25500000920E-02 0.  1.
    10030    2    1    2    0    0  0.00000000000E+00  0.00000000000E+00 -0.29474459670E+03  0.57947565583E+03  0.49891648441E+03 0.  0.
        5    1    3    3  502    0 -0.19665466741E+03  0.15298085404E+03 -0.16067223515E+03  0.29650271004E+03  0.46999998093E+01 0.  1.
       -5    1    3    3    0  502  0.19665466741E+03 -0.15298085404E+03 -0.13407236156E+03  0.28297294579E+03  0.46999998093E+01 0. -1.
</event>
<event>
 5   0  0.2013450E-01  0.4986619E+03  0.7818609E-02  0.1014129E+00
        1   -1    0    0  501    0  0.00000000000E+00  0.00000000000E+00  0.12229390467E+03  0.12229390478E+03  0.50400001928E-02 0.  1.
       -1   -1    0    0    0  501  0.00000000000E+00  0.00000000000E+00 -0.50833206677E+03  0.50833206679E+03  0.50400001928E-02 0. -1.
    10030    2    1    2    0    0  0.00000000000E+00  0.00000000000E+00 -0.38603816209E+03  0.63062597157E+03  0.49866186281E+03 0.  0.
        4    1    3    3  502    0  0.19976351826E+03  0.13058774854E+02 -0.38097105839E+03  0.43036792986E+03  0.12699999809E+01 0. -1.
       -4    1    3    3    0  502 -0.19976351826E+03 -0.13058774854E+02 -0.50671037054E+01  0.20025804170E+03  0.12699999809E+01 0.  1.
</event>
<event>
 5   0  0.1984297E-01  0.5357130E+03  0.7818609E-02  0.1004856E+00
        1   -1    0    0  501    0  0.00000000000E+00  0.00000000000E+00  0.23121147944E+03  0.23121147950E+03  0.50400001928E-02 0. -1.
       -1   -1    0    0    0  501  0.00000000000E+00  0.00000000000E+00 -0.31030948058E+03  0.31030948062E+03  0.50400001928E-02 0.  1.
    10030    2    1    2    0    0  0.00000000000E+00  0.00000000000E+00 -0.79098001135E+02  0.54152096012E+03  0.53571303556E+03 0.  0.
        3    1    3    3  502    0  0.97102980916E+02 -0.13347808089E+02 -0.29153041547E+03  0.30756649074E+03  0.10100000352E+00 0.  1.
       -3    1    3    3    0  502 -0.97102980916E+02  0.13347808089E+02  0.21243241433E+03  0.23395446938E+03  0.10100000352E+00 0. -1.
</event>
<event>
 5   0  0.3111146E-01  0.5076201E+03  0.7818609E-02  0.1011809E+00
        2   -1    0    0  501    0  0.00000000000E+00  0.00000000000E+00  0.71128938617E+03  0.71128938617E+03  0.25500000920E-02 0.  1.
       -2   -1    0    0    0  501  0.00000000000E+00  0.00000000000E+00 -0.90567284775E+02  0.90567284811E+02  0.25500000920E-02 0. -1.
    10030    2    1    2    0    0  0.00000000000E+00  0.00000000000E+00  0.62072210139E+03  0.80185667098E+03  0.50762012730E+03 0.  0.
        1    1    3    3  502    0 -0.61439602435E+02  0.10624946250E+03  0.66129622707E+03  0.67258937918E+03  0.50400001928E-02 0.  1.
       -1    1    3    3    0  502  0.61439602435E+02 -0.10624946250E+03 -0.40574125678E+02  0.12926729180E+03  0.50400001928E-02 0. -1.
</event>
<event>
 5   0  0.3117389E-01  0.4911627E+03  0.7818609E-02  0.1016112E+00
       -2   -1    0    0    0  501  0.00000000000E+00  0.00000000000E+00  0.10149369771E+04  0.10149369771E+04  0.25500000920E-02 0. -1.
        2   -1    0    0  501    0  0.00000000000E+00  0.00000000000E+00 -0.59422596985E+02  0.59422597039E+02  0.25500000920E-02 0.  1.
    10030    2    1    2    0    0  0.00000000000E+00  0.00000000000E+00  0.95551438009E+03  0.10743595741E+04  0.49116266546E+03 0.  0.
        4    1    3    3  502    0  0.56734558664E+02 -0.52989660027E+02 -0.31868939001E+02  0.83928281227E+02  0.12699999809E+01 0.  1.
       -4    1    3    3    0  502 -0.56734558664E+02  0.52989660027E+02  0.98738331909E+03  0.99043129289E+03  0.12699999809E+01 0. -1.
</event>
<event>
 5   0  0.3178149E-01  0.4928377E+03  0.7818609E-02  0.1015665E+00
       -2   -1    0    0    0  501  0.00000000000E+00  0.00000000000E+00  0.29448281446E+03  0.29448281447E+03  0.25500000920E-02 0. -1.
        2   -1    0    0  501    0  0.00000000000E+00  0.00000000000E+00 -0.20619966658E+03  0.20619966660E+03  0.25500000920E-02 0.  1.
    10030    2    1    2    0    0  0.00000000000E+00  0.00000000000E+00  0.88283147881E+02  0.50068248107E+03  0.49283773460E+03 0.  0.
        3    1    3    3  502    0 -0.96456606974E+02 -0.37143728847E+02 -0.18311241466E+03  0.21027054056E+03  0.10100000352E+00 0.  1.
       -3    1    3    3    0  502  0.96456606974E+02  0.37143728847E+02  0.27139556254E+03  0.29041194051E+03  0.10100000352E+00 0. -1.
</event>
<event>
 5   0  0.2000612E-01  0.5065631E+03  0.7818609E-02  0.1012080E+00
       -1   -1    0    0    0  501  0.00000000000E+00  0.00000000000E+00  0.15172978053E+03  0.15172978061E+03  0.50400001928E-02 0.  1.
        1   -1    0    0  501    0  0.00000000000E+00  0.00000000000E+00 -0.42280129577E+03  0.42280129580E+03  0.50400001928E-02 0. -1.
    10030    2    1    2    0    0  0.00000000000E+00  0.00000000000E+00 -0.27107151525E+03  0.57453107641E+03  0.50656311688E+03 0.  0.
        2    1    3    3  502    0 -0.62788420437E+02 -0.14118048508E+03 -0.36315541826E+03  0.39465956586E+03  0.25500000920E-02 0. -1.
       -2    1    3    3    0  502  0.62788420437E+02  0.14118048508E+03  0.92083903010E+02  0.17987151055E+03  0.25500000920E-02 0.  1.
</event>
<event>
 5   0  0.2000612E-01  0.4940685E+03  0.7818609E-02  0.1015339E+00
       -1   -1    0    0    0  501  0.00000000000E+00  0.00000000000E+00  0.24019079014E+03  0.24019079019E+03  0.50400001928E-02 0.  1.
        1   -1    0    0  501    0  0.00000000000E+00  0.00000000000E+00 -0.25407273505E+03  0.25407273510E+03  0.50400001928E-02 0. -1.
    10030    2    1    2    0    0  0.00000000000E+00  0.00000000000E+00 -0.13881944919E+02  0.49426352529E+03  0.49406854184E+03 0.  0.
        2    1    3    3  502    0 -0.17266611587E+03  0.26940426283E+02 -0.18161387983E+03  0.25203764697E+03  0.25500000920E-02 0. -1.
       -2    1    3    3    0  502  0.17266611587E+03 -0.26940426283E+02  0.16773193491E+03  0.24222587833E+03  0.25500000920E-02 0.  1.
</event>
<event>
 5   0  0.3187123E-01  0.5001363E+03  0.7818609E-02  0.1013743E+00
       -2   -1    0    0    0  501  0.00000000000E+00  0.00000000000E+00  0.29856451595E+03  0.29856451596E+03  0.25500000920E-02 0. -1.
        2   -1    0    0  501    0  0.00000000000E+00  0.00000000000E+00 -0.20944914134E+03  0.20944914136E+03  0.25500000920E-02 0.  1.
    10030    2    1    2    0    0  0.00000000000E+00  0.00000000000E+00  0.89115374606E+02  0.50801365732E+03  0.50013630745E+03 0.  0.
        5    1    3    3  502    0  0.11923372196E+03  0.18594928480E+03  0.16352705863E+03  0.27487634651E+03  0.46999998093E+01 0. -1.
       -5    1    3    3    0  502 -0.11923372196E+03 -0.18594928480E+03 -0.74411684024E+02  0.23313731080E+03  0.46999998093E+01 0.  1.
</event>
<event>
 5   0  0.1967161E-01  0.4827597E+03  0.7818609E-02  0.1018379E+00
       -1   -1    0    0    0  501  0.00000000000E+00  0.00000000000E+00  0.31934537658E+03  0.31934537662E+03  0.50400001928E-02 0. -1.
        1   -1    0    0  501    0  0.00000000000E+00  0.00000000000E+00 -0.18244896142E+03  0.18244896149E+03  0.50400001928E-02 0.  1.
    10030    2    1    2    0    0  0.00000000000E+00  0.00000000000E+00  0.13689641517E+03  0.50179433811E+03  0.48275970138E+03 0.  0.
        1    1    3    3  502    0 -0.16412020535E+03 -0.42031363337E+02  0.24716394256E+03  0.29965328604E+03  0.50400001928E-02 0.  1.
       -1    1    3    3    0  502  0.16412020535E+03  0.42031363337E+02 -0.11026752739E+03  0.20214105207E+03  0.50400001928E-02 0. -1.
</event>
<event>
 5   0  0.3178149E-01  0.4826354E+03  0.7818609E-02  0.1018413E+00
       -2   -1    0    0    0  501  0.00000000000E+00  0.00000000000E+00  0.73405613338E+02  0.73405613382E+02  0.25500000920E-02 0. -1.
        2   -1    0    0  501    0  0.00000000000E+00  0.00000000000E+00 -0.79332132360E+03  0.79332132360E+03  0.25500000920E-02 0.  1.
    10030    2    1    2    0    0  0.00000000000E+00  0.00000000000E+00 -0.71991571026E+03  0.86672693698E+03  0.48263542495E+03 0.  0.
        3    1    3    3  502    0  0.19930405793E+03 -0.17443172392E+02 -0.11763604290E+03  0.23208752780E+03  0.10100000352E+00 0. -1.
       -3    1    3    3    0  502 -0.19930405793E+03  0.17443172392E+02 -0.60227966736E+03  0.63463940918E+03  0.10100000352E+00 0.  1.
</event>
<event>
 5   0  0.1292375E-01  0.5213764E+03  0.7818609E-02  0.1008345E+00
       -4   -1    0    0    0  501  0.00000000000E+00  0.00000000000E+00  0.36621709819E+03  0.36621930030E+03  0.12699999809E+01 0.  1.
        4   -1    0    0  501    0  0.00000000000E+00  0.00000000000E+00 -0.18556351408E+03  0.18556785998E+03  0.12699999809E+01 0. -1.
    10030    2    1    2    0    0  0.00000000000E+00  0.00000000000E+00  0.18065358412E+03  0.55178716027E+03  0.52137640222E+03 0.  0.
        1    1    3    3  502    0 -0.55907086970E+02  0.22403413242E+03  0.21838639909E+03  0.31781993989E+03  0.50400001928E-02 0.  1.
       -1    1    3    3    0  502  0.55907086970E+02 -0.22403413242E+03 -0.37732814968E+02  0.23396722038E+03  0.50400001928E-02 0. -1.
</event>
<event>
 5   0  0.2013450E-01  0.4774115E+03  0.7818609E-02  0.1019849E+00
        1   -1    0    0  501    0  0.00000000000E+00  0.00000000000E+00  0.24491129141E+03  0.24491129147E+03  0.50400001928E-02 0.  1.
       -1   -1    0    0    0  501  0.00000000000E+00  0.00000000000E+00 -0.23265741793E+03  0.23265741799E+03  0.50400001928E-02 0. -1.
    10030    2    1    2    0    0  0.00000000000E+00  0.00000000000E+00  0.12253873482E+02  0.47756870945E+03  0.47741147330E+03 0.  0.
        4    1    3    3  502    0  0.46237996932E+02 -0.16735226238E+03 -0.15773813679E+03  0.23457976209E+03  0.12699999809E+01 0. -1.
       -4    1    3    3    0  502 -0.46237996932E+02  0.16735226238E+03  0.16999201028E+03  0.24298894736E+03  0.12699999809E+01 0.  1.
</event>
<event>
 5   0  0.1984680E-01  0.5031669E+03  0.7818609E-02  0.1012956E+00
        1   -1    0    0  501    0  0.00000000000E+00  0.00000000000E+00  0.18251276136E+04  0.18251276136E+04  0.50400001928E-02 0.  1.
       -1   -1    0    0    0  501  0.00000000000E+00  0.00000000000E+00 -0.34679351017E+02  0.34679351383E+02  0.50400001928E-02 0. -1.
    10030    2    1    2    0    0  0.00000000000E+00  0.00000000000E+00  0.17904482626E+04  0.18598069650E+04  0.50316693656E+03 0.  0.
        5    1    3    3  502    0 -0.12714359886E+03 -0.21499286697E+03  0.10051651260E+04  0.10357443932E+04  0.46999998093E+01 0.  1.
       -5    1    3    3    0  502  0.12714359886E+03  0.21499286697E+03  0.78528313659E+03  0.82406257177E+03  0.46999998093E+01 0. -1.
</event>
<event>
 5   0  0.3117389E-01  0.4970952E+03  0.7818609E-02  0.1014540E+00
        2   -1    0    0  501    0  0.00000000000E+00  0.00000000000E+00  0.16577020965E+03  0.16577020967E+03  0.25500000920E-02 0. -1.
       -2   -1    0    0    0  501  0.00000000000E+00  0.00000000000E+00 -0.37265995968E+03  0.37265995969E+03  0.25500000920E-02 0.  1.
    10030    2    1    2    0    0  0.00000000000E+00  0.00000000000E+00 -0.20688975003E+03  0.53843016936E+03  0.49709524099E+03 0.  0.
        4    1    3    3  502    0  0.84217438991E+02 -0.18614733140E+03 -0.25674412157E+03  0.32811973862E+03  0.12699999809E+01 0.  1.
       -4    1    3    3    0  502 -0.84217438991E+02  0.18614733140E+03  0.49854371540E+02  0.21031043074E+03  0.12699999809E+01 0. -1.
</event>
<event>
 5   0  0.1984680E-01  0.5092390E+03  0.7818609E-02  0.1011395E+00
        1   -1    0    0  501    0  0.00000000000E+00  0.00000000000E+00  0.70763797451E+03  0.70763797453E+03  0.50400001928E-02 0.  1.
       -1   -1    0    0    0  501  0.00000000000E+00  0.00000000000E+00 -0.91616186545E+02  0.91616186683E+02  0.50400001928E-02 0. -1.
    10030    2    1    2    0    0  0.00000000000E+00  0.00000000000E+00  0.61602178796E+03  0.79925416121E+03  0.50923901163E+03 0.  0.
        5    1    3    3  502    0  0.17394415440E+03 -0.11741629382E+03  0.53418249546E+03  0.57394789255E+03  0.46999998093E+01 0.  1.
       -5    1    3    3    0  502 -0.17394415440E+03  0.11741629382E+03  0.81839292501E+02  0.22530626866E+03  0.46999998093E+01 0. -1.
</event>
<event>
 5   0  0.3329246E-01  0.5104059E+03  0.7818609E-02  0.1011098E+00
        2   -1    0    0  501    0  0.00000000000E+00  0.00000000000E+00  0.19882910435E+04  0.19882910435E+04  0.25500000920E-02 0.  1.
       -2   -1    0    0    0  501  0.00000000000E+00  0.00000000000E+00 -0.32756037300E+02  0.32756037400E+02  0.25500000920E-02 0. -1.
    10030    2    1    2    0    0  0.00000000000E+00  0.00000000000E+00  0.19555350062E+04  0.20210470809E+04  0.51040586080E+03 0.  0.
        2    1    3    3  502    0  0.57456027552E+02  0.13983352531E+03  0.17919037079E+04  0.17982695872E+04  0.25500000920E-02 0.  1.
       -2    1    3    3    0  502 -0.57456027552E+02 -0.13983352531E+03  0.16363129827E+03  0.22277749366E+03  0.25500000920E-02 0. -1.
</event>
<event>
 5   0  0.2000612E-01  0.4785641E+03  0.7818609E-02  0.1019531E+00
        1   -1    0    0  501    0  0.00000000000E+00  0.00000000000E+00  0.83404584835E+03  0.83404584837E+03  0.50400001928E-02 0.  1.
       -1   -1    0    0    0  501  0.00000000000E+00  0.00000000000E+00 -0.68648392287E+02  0.68648392472E+02  0.50400001928E-02 0. -1.
    10030    2    1    2    0    0  0.00000000000E+00  0.00000000000E+00  0.76539745606E+03  0.90269424084E+03  0.47856413018E+03 0.  0.
        2    1    3    3  502    0  0.17128142273E+03  0.24317453113E+02  0.70882702117E+02  0.18695727256E+03  0.25500000920E-02 0. -1.
       -2    1    3    3    0  502 -0.17128142273E+03 -0.24317453113E+02  0.69451475395E+03  0.71573696828E+03  0.25500000920E-02 0.  1.
</event>
<event>
 5   0  0.2013450E-01  0.5060018E+03  0.7818609E-02  0.1012224E+00
        1   -1    0    0  501    0  0.00000000000E+00  0.00000000000E+00  0.13015362707E+04  0.13015362707E+04  0.50400001928E-02 0. -1.
       -1   -1    0    0    0  501  0.00000000000E+00  0.00000000000E+00 -0.49179924300E+02  0.49179924558E+02  0.50400001928E-02 0.  1.
    10030    2    1    2    0    0  0.00000000000E+00  0.00000000000E+00  0.12523563464E+04  0.13507161953E+04  0.50600180019E+03 0.  0.
        4    1    3    3  502    0 -0.71094155002E+02  0.79188855545E+00  0.12743115675E+04  0.12762940844E+04  0.12699999809E+01 0. -1.
       -4    1    3    3    0  502  0.71094155002E+02 -0.79188855545E+00 -0.21955221030E+02  0.74422110917E+02  0.12699999809E+01 0.  1.
</event>
<event>
 5   0  0.3329246E-01  0.5065836E+03  0.7818609E-02  0.1012075E+00
        2   -1    0    0  501    0  0.00000000000E+00  0.00000000000E+00  0.10742845987E+03  0.10742845990E+03  0.25500000920E-02 0.  1.
       -2   -1    0    0    0  501  0.00000000000E+00  0.00000000000E+00 -0.59720416174E+03  0.59720416174E+03  0.25500000920E-02 0. -1.
    10030    2    1    2    0    0  0.00000000000E+00  0.00000000000E+00 -0.48977570186E+03  0.70463262165E+03  0.50658355022E+03 0.  0.
        2    1    3    3  502    0 -0.14468300296E+03  0.12696787097E+03 -0.15897050570E+02  0.19314949606E+03  0.25500000920E-02 0.  1.
       -2    1    3    3    0  502  0.14468300296E+03 -0.12696787097E+03 -0.47387865129E+03  0.51148312559E+03  0.25500000920E-02 0. -1.
</event>
<event>
 5   0  0.3111146E-01  0.4965073E+03  0.7818609E-02  0.1014695E+00
       -2   -1    0    0    0  501  0.00000000000E+00  0.00000000000E+00  0.12855845140E+03  0.12855845143E+03  0.25500000920E-02 0. -1.
        2   -1    0    0  501    0  0.00000000000E+00  0.00000000000E+00 -0.47939187109E+03  0.47939187109E+03  0.25500000920E-02 0.  1.
    10030    2    1    2    0    0  0.00000000000E+00  0.00000000000E+00 -0.35083341968E+03  0.60795032252E+03  0.49650730739E+03 0.  0.
        1    1    3    3  502    0  0.17247547979E+02 -0.13233772513E+03  0.80898453775E+02  0.15606188276E+03  0.50400001928E-02 0. -1.
       -1    1    3    3    0  502 -0.17247547979E+02  0.13233772513E+03 -0.43173187346E+03  0.45188843976E+03  0.50400001928E-02 0.  1.
</event>
<event>
 5   0  0.1292375E-01  0.4496706E+03  0.7818609E-02  0.1027820E+00
        3   -1    0    0  501    0  0.00000000000E+00  0.00000000000E+00  0.13137945457E+03  0.13137949339E+03  0.10100000352E+00 0.  1.
       -3   -1    0    0    0  501  0.00000000000E+00  0.00000000000E+00 -0.38477020371E+03  0.38477021696E+03  0.10100000352E+00 0. -1.
    10030    2    1    2    0    0  0.00000000000E+00  0.00000000000E+00 -0.25339074914E+03  0.51614971035E+03  0.44967060361E+03 0.  0.
        3    1    3    3  502    0  0.14272693111E+02  0.87491030294E+02  0.11047314803E+03  0.14164292000E+03  0.10100000352E+00 0.  1.
       -3    1    3    3    0  502 -0.14272693111E+02 -0.87491030294E+02 -0.36386389717E+03  0.37450679035E+03  0.10100000352E+00 0. -1.
</event>
<event>
 5   0  0.2000612E-01  0.5092930E+03  0.7818609E-02  0.1011381E+00
        1   -1    0    0  501    0  0.00000000000E+00  0.00000000000E+00  0.13880774267E+03  0.13880774276E+03  0.50400001928E-02 0. -1.
       -1   -1    0    0    0  501  0.00000000000E+00  0.00000000000E+00 -0.46715574311E+03  0.46715574314E+03  0.50400001928E-02 0.  1.
    10030    2    1    2    0    0  0.00000000000E+00  0.00000000000E+00 -0.32834800044E+03  0.60596348590E+03  0.50929297742E+03 0.  0.
        2    1    3    3  502    0  0.92626184994E+01  0.97753242529E+02  0.11537725816E+03  0.15150380930E+03  0.25500000920E-02 0. -1.
       -2    1    3    3    0  502 -0.92626184994E+01 -0.97753242529E+02 -0.44372525860E+03  0.45445967660E+03  0.25500000920E-02 0.  1.
</event>
<event>
 5   0  0.1967161E-01  0.4864253E+03  0.7818609E-02  0.1017384E+00
       -1   -1    0    0    0  501  0.00000000000E+00  0.00000000000E+00  0.17863196309E+03  0.17863196316E+03  0.50400001928E-02 0. -1.
        1   -1    0    0  501    0  0.00000000000E+00  0.00000000000E+00 -0.33114121302E+03  0.33114121305E+03  0.50400001928E-02 0.  1.
    10030    2    1    2    0    0  0.00000000000E+00  0.00000000000E+00 -0.15250924992E+03  0.50977317622E+03  0.48642534872E+03 0.  0.
        1    1    3    3  502    0 -0.10712818959E+03 -0.21757816060E+03 -0.57053068579E+02  0.24914204309E+03  0.50400001928E-02 0.  1.
       -1    1    3    3    0  502  0.10712818959E+03  0.21757816060E+03 -0.95456181344E+02  0.26063113313E+03  0.50400001928E-02 0. -1.
</event>
<event>
 5   0  0.2013450E-01  0.4986071E+03  0.7818609E-02  0.1014143E+00
        1   -1    0    0  501    0  0.00000000000E+00  0.00000000000E+00  0.35530647608E+03  0.35530647611E+03  0.50400001928E-02 0.  1.
       -1   -1    0    0    0  501  0.00000000000E+00  0.00000000000E+00 -0.17492576748E+03  0.17492576755E+03  0.50400001928E-02 0. -1.
    10030    2    1    2    0    0  0.00000000000E+00  0.00000000000E+00  0.18038070860E+03  0.53023224366E+03  0.49860709199E+03 0.  0.
        4    1    3    3  502    0  0.94884872155E+02  0.90350710605E+02  0.31573781911E+03  0.34184553995E+03  0.12699999809E+01 0.  1.
       -4    1    3    3    0  502 -0.94884872155E+02 -0.90350710605E+02 -0.13535711051E+03  0.18838670371E+03  0.12699999809E+01 0. -1.
</event>
<event>
 5   0  0.3117389E-01  0.5078579E+03  0.7818609E-02  0.1011748E+00
       -2   -1    0    0    0  501  0.00000000000E+00  0.00000000000E+00  0.15490272181E+03  0.15490272183E+03  0.25500000920E-02 0.  1.
        2   -1    0    0  501    0  0.00000000000E+00  0.00000000000E+00 -0.41626065766E+03  0.41626065766E+03  0.25500000920E-02 0. -1.
    10030    2    1    2    0    0  0.00000000000E+00  0.00000000000E+00 -0.26135793585E+03  0.57116337949E+03  0.50785788902E+03 0.  0.
        4    1    3    3  502    0  0.18458818071E+03  0.17311384448E+03 -0.15419189749E+03  0.29634094175E+03  0.12699999809E+01 0.  1.
       -4    1    3    3    0  502 -0.18458818071E+03 -0.17311384448E+03 -0.10716603836E+03  0.27482243774E+03  0.12699999809E+01 0. -1.
</event>
<event>
 5   0  0.1984297E-01  0.7009605E+03  0.7818609E-02  0.9715591E-01
        1   -1    0    0  501    0  0.00000000000E+00  0.00000000000E+00  0.52889696825E+03  0.52889696828E+03  0.50400001928E-02 0.  1.
       -1   -1    0    0    0  501  0.00000000000E+00  0.00000000000E+00 -0.23225015618E+03  0.23225015623E+03  0.50400001928E-02 0. -1.
    10030    2    1    2    0    0  0.00000000000E+00  0.00000000000E+00  0.29664681207E+03  0.76114712451E+03  0.70096049392E+03 0.  0.
        3    1    3    3  502    0 -0.83960216052E+01  0.31693936571E+03 -0.13886289676E+02  0.31735452408E+03  0.10100000352E+00 0. -1.
       -3    1    3    3    0  502  0.83960216052E+01 -0.31693936571E+03  0.31053310175E+03  0.44379260043E+03  0.10100000352E+00 0.  1.
</event>
<event>
 5   0  0.1967161E-01  0.4790428E+03  0.7818609E-02  0.1019399E+00
        1   -1    0    0  501    0  0.00000000000E+00  0.00000000000E+00  0.10233037080E+03  0.10233037092E+03  0.50400001928E-02 0.  1.
       -1   -1    0    0    0  501  0.00000000000E+00  0.00000000000E+00 -0.56064012530E+03  0.56064012532E+03  0.50400001928E-02 0. -1.
    10030    2    1    2    0    0  0.00000000000E+00  0.00000000000E+00 -0.45830975450E+03  0.66297049624E+03  0.47904284549E+03 0.  0.
        1    1    3    3  502    0  0.89112406419E+02 -0.21391397947E+03 -0.31299861774E+03  0.38944620466E+03  0.50400001928E-02 0. -1.
       -1    1    3    3    0  502 -0.89112406419E+02  0.21391397947E+03 -0.14531113676E+03  0.27352429158E+03  0.50400001928E-02 0.  1.
</event>
<event>
 5   0  0.1967161E-01  0.5002587E+03  0.7818609E-02  0.1013711E+00
       -1   -1    0    0    0  501  0.00000000000E+00  0.00000000000E+00  0.14699175816E+03  0.14699175825E+03  0.50400001928E-02 0.  1.
        1   -1    0    0  501    0  0.00000000000E+00  0.00000000000E+00 -0.42563407271E+03  0.42563407274E+03  0.50400001928E-02 0. -1.
    10030    2    1    2    0    0  0.00000000000E+00  0.00000000000E+00 -0.27864231454E+03  0.57262583098E+03  0.50025873591E+03 0.  0.
        1    1    3    3  502    0 -0.11442032872E+03 -0.43284217694E+02 -0.38905415097E+03  0.40783411768E+03  0.50400001928E-02 0. -1.
       -1    1    3    3    0  502  0.11442032872E+03  0.43284217694E+02  0.11041183643E+03  0.16479171331E+03  0.50400001928E-02 0.  1.
</event>
<event>
 5   0  0.3117389E-01  0.4821947E+03  0.7818609E-02  0.1018534E+00
        2   -1    0    0  501    0  0.00000000000E+00  0.00000000000E+00  0.12451895729E+03  0.12451895731E+03  0.25500000920E-02 0.  1.
       -2   -1    0    0    0  501  0.00000000000E+00  0.00000000000E+00 -0.46681984954E+03  0.46681984955E+03  0.25500000920E-02 0. -1.
    10030    2    1    2    0    0  0.00000000000E+00  0.00000000000E+00 -0.34230089225E+03  0.59133880686E+03  0.48219465329E+03 0.  0.
        4    1    3    3  502    0 -0.15255670517E+03  0.12050510015E+02  0.57317847195E+02  0.16341882263E+03  0.12699999809E+01 0.  1.
       -4    1    3    3    0  502  0.15255670517E+03 -0.12050510015E+02 -0.39961873945E+03  0.42791998423E+03  0.12699999809E+01 0. -1.
</event>
<event>
 5   0  0.3178149E-01  0.5018209E+03  0.7818609E-02  0.1013305E+00
       -2   -1    0    0    0  501  0.00000000000E+00  0.00000000000E+00  0.43241706894E+02  0.43241706969E+02  0.25500000920E-02 0. -1.
        2   -1    0    0  501    0  0.00000000000E+00  0.00000000000E+00 -0.14559104423E+04  0.14559104423E+04  0.25500000920E-02 0.  1.
    10030    2    1    2    0    0  0.00000000000E+00  0.00000000000E+00 -0.14126687354E+04  0.14991521493E+04  0.50182089502E+03 0.  0.
        3    1    3    3  502    0 -0.96711253303E+02 -0.97796183195E+02 -0.13332586856E+04  0.13403342467E+04  0.10100000352E+00 0.  1.
       -3    1    3    3    0  502  0.96711253303E+02  0.97796183195E+02 -0.79410049797E+02  0.15881790256E+03  0.10100000352E+00 0. -1.
</event>
<event>
 5   0  0.1292375E-01  0.4943032E+03  0.7818609E-02  0.1015277E+00
       -3   -1    0    0    0  501  0.00000000000E+00  0.00000000000E+00  0.30801891200E+03  0.30801892856E+03  0.10100000352E+00 0. -1.
        3   -1    0    0  501    0  0.00000000000E+00  0.00000000000E+00 -0.19831217997E+03  0.19831220569E+03  0.10100000352E+00 0.  1.
    10030    2    1    2    0    0  0.00000000000E+00  0.00000000000E+00  0.10970673203E+03  0.50633113424E+03  0.49430319689E+03 0.  0.
        1    1    3    3  502    0 -0.20243715761E+03 -0.14177334170E+03  0.56750289109E+02  0.25357657332E+03  0.50400001928E-02 0.  1.
       -1    1    3    3    0  502  0.20243715761E+03  0.14177334170E+03  0.52956442920E+02  0.25275456093E+03  0.50400001928E-02 0. -1.
</event>
<event>
 5   0  0.3187123E-01  0.4898669E+03  0.7818609E-02  0.1016458E+00
       -2   -1    0    0    0  501  0.00000000000E+00  0.00000000000E+00  0.13731352473E+03  0.13731352476E+03  0.25500000920E-02 0.  1.
        2   -1    0    0  501    0  0.00000000000E+00  0.00000000000E+00 -0.43690086291E+03  0.43690086292E+03  0.25500000920E-02 0. -1.
    10030    2    1    2    0    0  0.00000000000E+00  0.00000000000E+00 -0.29958733818E+03  0.57421438768E+03  0.48986691031E+03 0.  0.
        5    1    3    3  502    0  0.46054783475E+02  0.21451604406E+03 -0.22288599052E+02  0.22058342614E+03  0.46999998093E+01 0. -1.
       -5    1    3    3    0  502 -0.46054783475E+02 -0.21451604406E+03 -0.27729873913E+03  0.35363096154E+03  0.46999998093E+01 0.  1.
</event>
<event>
 5   0  0.3178149E-01  0.5135407E+03  0.7818609E-02  0.1010304E+00
        2   -1    0    0  501    0  0.00000000000E+00  0.00000000000E+00  0.18273560831E+03  0.18273560832E+03  0.25500000920E-02 0.  1.
       -2   -1    0    0    0  501  0.00000000000E+00  0.00000000000E+00 -0.36079998489E+03  0.36079998490E+03  0.25500000920E-02 0. -1.
    10030    2    1    2    0    0  0.00000000000E+00  0.00000000000E+00 -0.17806437659E+03  0.54353559323E+03  0.51354066917E+03 0.  0.
        3    1    3    3  502    0 -0.17662797151E+03  0.18241838189E+03 -0.12943355528E+03  0.28500344174E+03  0.10100000352E+00 0. -1.
       -3    1    3    3    0  502  0.17662797151E+03 -0.18241838189E+03 -0.48630821304E+02  0.25853215149E+03  0.10100000352E+00 0.  1.
</event>
<event>
 5   0  0.1984297E-01  0.3621091E+03  0.7818609E-02  0.1057752E+00
       -1   -1    0    0    0  501  0.00000000000E+00  0.00000000000E+00  0.11224731686E+03  0.11224731697E+03  0.50400001928E-02 0. -1.
        1   -1    0    0  501    0  0.00000000000E+00  0.00000000000E+00 -0.29204040629E+03  0.29204040634E+03  0.50400001928E-02 0.  1.
    10030    2    1    2    0    0  0.00000000000E+00  0.00000000000E+00 -0.17979308944E+03  0.40428772331E+03  0.36210911092E+03 0.  0.
        3    1    3    3  502    0 -0.11780041125E+03 -0.75855588444E+02 -0.21792591116E+03  0.25908052830E+03  0.10100000352E+00 0.  1.
       -3    1    3    3    0  502  0.11780041125E+03  0.75855588444E+02  0.38132821723E+02  0.14520719501E+03  0.10100000352E+00 0. -1.
</event>
<event>
 5   0  0.3187123E-01  0.4884016E+03  0.7818609E-02  0.1016851E+00
        2   -1    0    0  501    0  0.00000000000E+00  0.00000000000E+00  0.14815106569E+04  0.14815106569E+04  0.25500000920E-02 0.  1.
       -2   -1    0    0    0  501  0.00000000000E+00  0.00000000000E+00 -0.40252174433E+02  0.40252174514E+02  0.25500000920E-02 0. -1.
    10030    2    1    2    0    0  0.00000000000E+00  0.00000000000E+00  0.14412584825E+04  0.15217628314E+04  0.48840157842E+03 0.  0.
        5    1    3    3  502    0  0.39876103695E+01 -0.26006506474E+02  0.14769397980E+04  0.14771816057E+04  0.46999998093E+01 0.  1.
       -5    1    3    3    0  502 -0.39876103695E+01  0.26006506474E+02 -0.35681315479E+02  0.44581225734E+02  0.46999998093E+01 0. -1.
</event>
<event>
 5   0  0.3329246E-01  0.5021675E+03  0.7818609E-02  0.1013215E+00
        2   -1    0    0  501    0  0.00000000000E+00  0.00000000000E+00  0.74681811469E+03  0.74681811469E+03  0.25500000920E-02 0.  1.
       -2   -1    0    0    0  501  0.00000000000E+00  0.00000000000E+00 -0.84415529514E+02  0.84415529552E+02  0.25500000920E-02 0. -1.
    10030    2    1    2    0    0  0.00000000000E+00  0.00000000000E+00  0.66240258517E+03  0.83123364424E+03  0.50216748847E+03 0.  0.
        2    1    3    3  502    0 -0.24659098734E+03  0.60006533719E+01  0.40884000666E+03  0.47748641230E+03  0.25500000920E-02 0. -1.
       -2    1    3    3    0  502  0.24659098734E+03 -0.60006533719E+01  0.25356257852E+03  0.35374723195E+03  0.25500000920E-02 0.  1.
</event>
<event>
 5   0  0.3187123E-01  0.4877304E+03  0.7818609E-02  0.1017032E+00
        2   -1    0    0  501    0  0.00000000000E+00  0.00000000000E+00  0.38773208105E+03  0.38773208106E+03  0.25500000920E-02 0. -1.
       -2   -1    0    0    0  501  0.00000000000E+00  0.00000000000E+00 -0.15337971049E+03  0.15337971051E+03  0.25500000920E-02 0.  1.
    10030    2    1    2    0    0  0.00000000000E+00  0.00000000000E+00  0.23435237056E+03  0.54111179157E+03  0.48773039416E+03 0.  0.
        5    1    3    3  502    0 -0.11081745448E+03  0.81675764604E+02 -0.10608695285E+03  0.17386192885E+03  0.46999998093E+01 0.  1.
       -5    1    3    3    0  502  0.11081745448E+03 -0.81675764604E+02  0.34043932342E+03  0.36724986272E+03  0.46999998093E+01 0. -1.
</event>
<event>
 5   0  0.1967161E-01  0.5053786E+03  0.7818609E-02  0.1012384E+00
        1   -1    0    0  501    0  0.00000000000E+00  0.00000000000E+00  0.34681993866E+03  0.34681993870E+03  0.50400001928E-02 0. -1.
       -1   -1    0    0    0  501  0.00000000000E+00  0.00000000000E+00 -0.18410669017E+03  0.18410669024E+03  0.50400001928E-02 0.  1.
    10030    2    1    2    0    0  0.00000000000E+00  0.00000000000E+00  0.16271324850E+03  0.53092662894E+03  0.50537855522E+03 0.  0.
        1    1    3    3  502    0  0.19356573143E+03 -0.14202864320E+03  0.16415749988E+03  0.29083932448E+03  0.50400001928E-02 0.  1.
       -1    1    3    3    0  502 -0.19356573143E+03  0.14202864320E+03 -0.14442513871E+01  0.24008730445E+03  0.50400001928E-02 0. -1.
</event>
<event>
 5   0  0.1292375E-01  0.5014383E+03  0.7818609E-02  0.1013404E+00
       -3   -1    0    0    0  501  0.00000000000E+00  0.00000000000E+00  0.32894540348E+03  0.32894541898E+03  0.10100000352E+00 0. -1.
        3   -1    0    0  501    0  0.00000000000E+00  0.00000000000E+00 -0.19109575340E+03  0.19109578009E+03  0.10100000352E+00 0.  1.
    10030    2    1    2    0    0  0.00000000000E+00  0.00000000000E+00  0.13784965007E+03  0.52004119908E+03  0.50143825414E+03 0.  0.
        1    1    3    3  502    0  0.72068251149E+02  0.14021969497E+03 -0.13325548433E+03  0.20642775930E+03  0.50400001928E-02 0.  1.
       -1    1    3    3    0  502 -0.72068251149E+02 -0.14021969497E+03  0.27110513441E+03  0.31361343978E+03  0.50400001928E-02 0. -1.
</event>
<event>
 5   0  0.3329246E-01  0.4819508E+03  0.7818609E-02  0.1018600E+00
        2   -1    0    0  501    0  0.00000000000E+00  0.00000000000E+00  0.20700120010E+04  0.20700120010E+04  0.25500000920E-02 0.  1.
       -2   -1    0    0    0  501  0.00000000000E+00  0.00000000000E+00 -0.28052564238E+02  0.28052564353E+02  0.25500000920E-02 0. -1.
    10030    2    1    2    0    0  0.00000000000E+00  0.00000000000E+00  0.20419594367E+04  0.20980645653E+04  0.48195080559E+03 0.  0.
        2    1    3    3  502    0  0.32990264428E+02  0.12960974333E+03  0.14834505105E+03  0.19973306509E+03  0.25500000920E-02 0. -1.
       -2    1    3    3    0  502 -0.32990264428E+02 -0.12960974333E+03  0.18936143857E+04  0.18983315002E+04  0.25500000920E-02 0.  1.
</event>
<event>
 5   0  0.1984680E-01  0.5024226E+03  0.7818609E-02  0.1013148E+00
       -1   -1    0    0    0  501  0.00000000000E+00  0.00000000000E+00  0.89042148479E+02  0.89042148622E+02  0.50400001928E-02 0. -1.
        1   -1    0    0  501    0  0.00000000000E+00  0.00000000000E+00 -0.70873320126E+03  0.70873320128E+03  0.50400001928E-02 0.  1.
    10030    2    1    2    0    0  0.00000000000E+00  0.00000000000E+00 -0.61969105278E+03  0.79777534990E+03  0.50242263883E+03 0.  0.
        5    1    3    3  502    0 -0.45565859733E+02  0.15317765216E+03 -0.21722620240E+01  0.15989512005E+03  0.46999998093E+01 0. -1.
       -5    1    3    3    0  502  0.45565859733E+02 -0.15317765216E+03 -0.61751879076E+03  0.63788022985E+03  0.46999998093E+01 0.  1.
</event>
<event>
 5   0  0.1984297E-01  0.4938062E+03  0.7818609E-02  0.1015408E+00
        1   -1    0    0  501    0  0.00000000000E+00  0.00000000000E+00  0.64156352276E+02  0.64156352474E+02  0.50400001928E-02 0.  1.
       -1   -1    0    0    0  501  0.00000000000E+00  0.00000000000E+00 -0.95019657345E+03  0.95019657346E+03  0.50400001928E-02 0. -1.
    10030    2    1    2    0    0  0.00000000000E+00  0.00000000000E+00 -0.88604022117E+03  0.10143529259E+04  0.49380622193E+03 0.  0.
        3    1    3    3  502    0 -0.10138958658E+03 -0.22511808477E+03 -0.43938266943E+03  0.50399914758E+03  0.10100000352E+00 0. -1.
       -3    1    3    3    0  502  0.10138958658E+03  0.22511808477E+03 -0.44665755174E+03  0.51035377836E+03  0.10100000352E+00 0.  1.
</event>
<event>
 5   0  0.3117389E-01  0.5003170E+03  0.7818609E-02  0.1013696E+00
        2   -1    0    0  501    0  0.00000000000E+00  0.00000000000E+00  0.39903688678E+03  0.39903688678E+03  0.25500000920E-02 0.  1.
       -2   -1    0    0    0  501  0.00000000000E+00  0.00000000000E+00 -0.15682577700E+03  0.15682577702E+03  0.25500000920E-02 0. -1.
    10030    2    1    2    0    0  0.00000000000E+00  0.00000000000E+00  0.24221110977E+03  0.55586266381E+03  0.50031697884E+03 0.  0.
        4    1    3    3  502    0  0.12928393533E+03 -0.20717165500E+03  0.18138012132E+03  0.30419531863E+03  0.12699999809E+01 0.  1.
       -4    1    3    3    0  502 -0.12928393533E+03  0.20717165500E+03  0.60830988457E+02  0.25166734517E+03  0.12699999809E+01 0. -1.
</event>
<event>
 5   0  0.1984297E-01  0.5146406E+03  0.7818609E-02  0.1010027E+00
        1   -1    0    0  501    0  0.00000000000E+00  0.00000000000E+00  0.40498309436E+03  0.40498309439E+03  0.50400001928E-02 0. -1.
       -1   -1    0    0    0  501  0.00000000000E+00  0.00000000000E+00 -0.16349753156E+03  0.16349753164E+03  0.50400001928E-02 0.  1.
    10030    2    1    2    0    0  0.00000000000E+00  0.00000000000E+00  0.24148556280E+03  0.56848062604E+03  0.51464059803E+03 0.  0.
        3    1    3    3  502    0 -0.20847293022E+03 -0.12458221286E+03  0.26804652463E+02  0.24433622325E+03  0.10100000352E+00 0.  1.
       -3    1    3    3    0  502  0.20847293022E+03  0.12458221286E+03  0.21468091034E+03  0.32414440279E+03  0.10100000352E+00 0. -1.
</event>
<event>
 5   0  0.2013450E-01  0.4910638E+03  0.7818609E-02  0.1016138E+00
        1   -1    0    0  501    0  0.00000000000E+00  0.00000000000E+00  0.18914893655E+03  0.18914893661E+03  0.50400001928E-02 0.  1.
       -1   -1    0    0    0  501  0.00000000000E+00  0.00000000000E+00 -0.31872193748E+03  0.31872193752E+03  0.50400001928E-02 0. -1.
    10030    2    1    2    0    0  0.00000000000E+00  0.00000000000E+00 -0.12957300093E+03  0.50787087413E+03  0.49106380667E+03 0.  0.
        4    1    3    3  502    0 -0.19194587166E+03 -0.30051858642E+02 -0.22005122140E+03  0.29354809622E+03  0.12699999809E+01 0. -1.
       -4    1    3    3    0  502  0.19194587166E+03  0.30051858642E+02  0.90478220470E+02  0.21432277791E+03  0.12699999809E+01 0.  1.
</event>
<event>
 5   0  0.1984297E-01  0.4962442E+03  0.7818609E-02  0.1014764E+00
       -1   -1    0    0    0  501  0.00000000000E+00  0.00000000000E+00  0.10714488414E+03  0.10714488425E+03  0.50400001928E-02 0.  1.
        1   -1    0    0  501    0  0.00000000000E+00  0.00000000000E+00 -0.57459177481E+03  0.57459177483E+03  0.50400001928E-02 0. -1.
    10030    2    1    2    0    0  0.00000000000E+00  0.00000000000E+00 -0.46744689068E+03  0.68173665909E+03  0.49624417049E+03 0.  0.
        3    1    3    3  502    0 -0.23832528813E+03 -0.68607502292E+02 -0.24424230777E+03  0.34808080590E+03  0.10100000352E+00 0.  1.
       -3    1    3    3    0  502  0.23832528813E+03  0.68607502292E+02 -0.22320458291E+03  0.33365585318E+03  0.10100000352E+00 0. -1.
</event>
<event>
 5   0  0.3187123E-01  0.5037300E+03  0.7818609E-02  0.1012810E+00
       -2   -1    0    0    0  501  0.00000000000E+00  0.00000000000E+00  0.14267353486E+03  0.14267353489E+03  0.25500000920E-02 0. -1.
        2   -1    0    0  501    0  0.00000000000E+00  0.00000000000E+00 -0.44462338386E+03  0.44462338387E+03  0.25500000920E-02 0.  1.
    10030    2    1    2    0    0  0.00000000000E+00  0.00000000000E+00 -0.30194984900E+03  0.58729691875E+03  0.50373004622E+03 0.  0.
        5    1    3    3  502    0 -0.22556641085E+02  0.21102721195E+03 -0.30900703392E+03  0.37489828388E+03  0.46999998093E+01 0.  1.
       -5    1    3    3    0  502  0.22556641085E+02 -0.21102721195E+03  0.70571849280E+01  0.21239863488E+03  0.46999998093E+01 0. -1.
</event>
<event>
 5   0  0.2013450E-01  0.4978220E+03  0.7818609E-02  0.1014349E+00
       -1   -1    0    0    0  501  0.00000000000E+00  0.00000000000E+00  0.33045306747E+03  0.33045306750E+03  0.50400001928E-02 0.  1.
        1   -1    0    0  501    0  0.00000000000E+00  0.00000000000E+00 -0.18749010646E+03  0.18749010653E+03  0.50400001928E-02 0. -1.
    10030    2    1    2    0    0  0.00000000000E+00  0.00000000000E+00  0.14296296101E+03  0.51794317403E+03  0.49782197953E+03 0.  0.
        4    1    3    3  502    0  0.83359110118E+02  0.16032116218E+03  0.24958292255E+03  0.30813124543E+03  0.12699999809E+01 0.  1.
       -4    1    3    3    0  502 -0.83359110118E+02 -0.16032116218E+03 -0.10661996155E+03  0.20981192860E+03  0.12699999809E+01 0. -1.
</event>
<event>
 5   0  0.1984680E-01  0.5270827E+03  0.7818609E-02  0.1006942E+00
       -1   -1    0    0    0  501  0.00000000000E+00  0.00000000000E+00  0.21539653469E+03  0.21539653475E+03  0.50400001928E-02 0. -1.
        1   -1    0    0  501    0  0.00000000000E+00  0.00000000000E+00 -0.32244734308E+03  0.32244734312E+03  0.50400001928E-02 0.  1.
    10030    2    1    2    0    0  0.00000000000E+00  0.00000000000E+00 -0.10705080838E+03  0.53784387787E+03  0.52708268933E+03 0.  0.
        5    1    3    3  502    0  0.22857394268E+03  0.10385189077E+03 -0.13516311170E+03  0.28517085975E+03  0.46999998093E+01 0.  1.
       -5    1    3    3    0  502 -0.22857394268E+03 -0.10385189077E+03  0.28112303314E+02  0.25267301812E+03  0.46999998093E+01 0. -1.
</event>
<event>
 5   0  0.3187123E-01  0.4959097E+03  0.7818609E-02  0.1014852E+00
       -2   -1    0    0    0  501  0.00000000000E+00  0.00000000000E+00  0.71782249564E+02  0.71782249609E+02  0.25500000920E-02 0.  1.
        2   -1    0    0  501    0  0.00000000000E+00  0.00000000000E+00 -0.85650148536E+03  0.85650148536E+03  0.25500000920E-02 0. -1.
    10030    2    1    2    0    0  0.00000000000E+00  0.00000000000E+00 -0.78471923579E+03  0.92828373497E+03  0.49590968289E+03 0.  0.
        5    1    3    3  502    0 -0.20432759202E+03 -0.11401733710E+02 -0.13043174690E+03  0.24272267094E+03  0.46999998093E+01 0. -1.
       -5    1    3    3    0  502  0.20432759202E+03  0.11401733710E+02 -0.65428748890E+03  0.68556106403E+03  0.46999998093E+01 0.  1.
</event>
<event>
 5   0  0.1984680E-01  0.4892391E+03  0.7818609E-02  0.1016626E+00
        1   -1    0    0  501    0  0.00000000000E+00  0.00000000000E+00  0.27592194491E+03  0.27592194496E+03  0.50400001928E-02 0.  1.
       -1   -1    0    0    0  501  0.00000000000E+00  0.00000000000E+00 -0.21686827732E+03  0.21686827738E+03  0.50400001928E-02 0. -1.
    10030    2    1    2    0    0  0.00000000000E+00  0.00000000000E+00  0.59053667587E+02  0.49279022234E+03  0.48923906996E+03 0.  0.
        5    1    3    3  502    0 -0.48036761205E+02 -0.13440133488E+03  0.22957704282E+03  0.27036818938E+03  0.46999998093E+01 0.  1.
       -5    1    3    3    0  502  0.48036761205E+02  0.13440133488E+03 -0.17052337523E+03  0.22242203295E+03  0.46999998093E+01 0. -1.
</event>
<event>
 5   0  0.3117389E-01  0.4862176E+03  0.7818609E-02  0.1017440E+00
        2   -1    0    0  501    0  0.00000000000E+00  0.00000000000E+00  0.11543177351E+03  0.11543177354E+03  0.25500000920E-02 0.  1.
       -2   -1    0    0    0  501  0.00000000000E+00  0.00000000000E+00 -0.51200720388E+03  0.51200720389E+03  0.25500000920E-02 0. -1.
    10030    2    1    2    0    0  0.00000000000E+00  0.00000000000E+00 -0.39657543037E+03  0.62743897743E+03  0.48621764512E+03 0.  0.
        4    1    3    3  502    0 -0.19189083765E+03  0.10728472921E+03 -0.64378047551E+02  0.22908132312E+03  0.12699999809E+01 0. -1.
       -4    1    3    3    0  502  0.19189083765E+03 -0.10728472921E+03 -0.33219738281E+03  0.39835765431E+03  0.12699999809E+01 0.  1.
</event>
<event>
 5   0  0.2000612E-01  0.5022190E+03  0.7818609E-02  0.1013201E+00
        1   -1    0    0  501    0  0.00000000000E+00  0.00000000000E+00  0.11183069659E+04  0.11183069659E+04  0.50400001928E-02 0. -1.
       -1   -1    0    0    0  501  0.00000000000E+00  0.00000000000E+00 -0.56385226827E+02  0.56385227053E+02  0.50400001928E-02 0.  1.
    10030    2    1    2    0    0  0.00000000000E+00  0.00000000000E+00  0.10619217391E+04  0.11746921930E+04  0.50221904415E+03 0.  0.
        2    1    3    3  502    0 -0.16493530000E+03 -0.35782251738E+02  0.96586443177E+03  0.98049891550E+03  0.25500000920E-02 0. -1.
       -2    1    3    3    0  502  0.16493530000E+03  0.35782251738E+02  0.96057307333E+02  0.19419327750E+03  0.25500000920E-02 0.  1.
</event>
<event>
 5   0  0.2000612E-01  0.5030460E+03  0.7818609E-02  0.1012987E+00
       -1   -1    0    0    0  501  0.00000000000E+00  0.00000000000E+00  0.63173280173E+02  0.63173280374E+02  0.50400001928E-02 0.  1.
        1   -1    0    0  501    0  0.00000000000E+00  0.00000000000E+00 -0.10014331819E+04  0.10014331820E+04  0.50400001928E-02 0. -1.
    10030    2    1    2    0    0  0.00000000000E+00  0.00000000000E+00 -0.93825990178E+03  0.10646064623E+04  0.50304599826E+03 0.  0.
        2    1    3    3  502    0  0.49871636692E+02 -0.91983664685E+01  0.52241477615E+02  0.72807706199E+02  0.25500000920E-02 0.  1.
       -2    1    3    3    0  502 -0.49871636692E+02  0.91983664685E+01 -0.99050137939E+03  0.99179875614E+03  0.25500000920E-02 0. -1.
</event>
<event>
 5   0  0.1967161E-01  0.5188093E+03  0.7818609E-02  0.1008983E+00
       -1   -1    0    0    0  501  0.00000000000E+00  0.00000000000E+00  0.10038421716E+03  0.10038421728E+03  0.50400001928E-02 0. -1.
        1   -1    0    0  501    0  0.00000000000E+00  0.00000000000E+00 -0.67033216219E+03  0.67033216221E+03  0.50400001928E-02 0.  1.
    10030    2    1    2    0    0  0.00000000000E+00  0.00000000000E+00 -0.56994794503E+03  0.77071637949E+03  0.51880928825E+03 0.  0.
        1    1    3    3  502    0 -0.17234264437E+03 -0.16757288574E+03 -0.14011881892E+03  0.27823720553E+03  0.50400001928E-02 0. -1.
       -1    1    3    3    0  502  0.17234264437E+03  0.16757288574E+03 -0.42982912612E+03  0.49247917396E+03  0.50400001928E-02 0.  1.
</event>
<event>
 5   0  0.3178149E-01  0.5015411E+03  0.7818609E-02  0.1013377E+00
        2   -1    0    0  501    0  0.00000000000E+00  0.00000000000E+00  0.10321685055E+04  0.10321685055E+04  0.25500000920E-02 0. -1.
       -2   -1    0    0    0  501  0.00000000000E+00  0.00000000000E+00 -0.60925974546E+02  0.60925974599E+02  0.25500000920E-02 0.  1.
    10030    2    1    2    0    0  0.00000000000E+00  0.00000000000E+00  0.97124253092E+03  0.10930944801E+04  0.50154111346E+03 0.  0.
        3    1    3    3  502    0 -0.67529374012E+02 -0.43092527780E+01  0.10118951174E+04  0.10141550793E+04  0.10100000352E+00 0. -1.
       -3    1    3    3    0  502  0.67529374012E+02  0.43092527780E+01 -0.40652586455E+02  0.78939400811E+02  0.10100000352E+00 0.  1.
</event>
<event>
 5   0  0.2000612E-01  0.4801214E+03  0.7818609E-02  0.1019102E+00
       -1   -1    0    0    0  501  0.00000000000E+00  0.00000000000E+00  0.68893910074E+02  0.68893910258E+02  0.50400001928E-02 0. -1.
        1   -1    0    0  501    0  0.00000000000E+00  0.00000000000E+00 -0.83649094901E+03  0.83649094903E+03  0.50400001928E-02 0.  1.
    10030    2    1    2    0    0  0.00000000000E+00  0.00000000000E+00 -0.76759703894E+03  0.90538485929E+03  0.48012136928E+03 0.  0.
        2    1    3    3  502    0  0.21072094525E+03 -0.11481262104E+03 -0.39628970179E+03  0.46328261619E+03  0.25500000920E-02 0. -1.
       -2    1    3    3    0  502 -0.21072094525E+03  0.11481262104E+03 -0.37130733715E+03  0.44210224309E+03  0.25500000920E-02 0.  1.
</event>
<event>
 5   0  0.1292375E-01  0.4907874E+03  0.7818609E-02  0.1016212E+00
        3   -1    0    0  501    0  0.00000000000E+00  0.00000000000E+00  0.43959905659E+03  0.43959906819E+03  0.10100000352E+00 0.  1.
       -3   -1    0    0    0  501  0.00000000000E+00  0.00000000000E+00 -0.13698405667E+03  0.13698409390E+03  0.10100000352E+00 0. -1.
    10030    2    1    2    0    0  0.00000000000E+00  0.00000000000E+00  0.30261499992E+03  0.57658316209E+03  0.49078743325E+03 0.  0.
        4    1    3    3  502    0 -0.22438752325E+03 -0.86396284572E+02  0.93725095385E+02  0.25806992266E+03  0.12699999809E+01 0. -1.
       -4    1    3    3    0  502  0.22438752325E+03  0.86396284572E+02  0.20888990453E+03  0.31851323943E+03  0.12699999809E+01 0.  1.
</event>
<event>
 5   0  0.2000612E-01  0.5017540E+03  0.7818609E-02  0.1013322E+00
        1   -1    0    0  501    0  0.00000000000E+00  0.00000000000E+00  0.60724040126E+03  0.60724040128E+03  0.50400001928E-02 0. -1.
       -1   -1    0    0    0  501  0.00000000000E+00  0.00000000000E+00 -0.10364803138E+03  0.10364803150E+03  0.50400001928E-02 0.  1.
    10030    2    1    2    0    0  0.00000000000E+00  0.00000000000E+00  0.50359236988E+03  0.71088843279E+03  0.50175401231E+03 0.  0.
        2    1    3    3  502    0 -0.69879437354E+01 -0.13604372337E+03  0.55027719141E+03  0.56688774322E+03  0.25500000920E-02 0. -1.
       -2    1    3    3    0  502  0.69879437354E+01  0.13604372337E+03 -0.46684821526E+02  0.14400068956E+03  0.25500000920E-02 0.  1.
</event>
<event>
 5   0  0.3187123E-01  0.4958273E+03  0.7818609E-02  0.1014874E+00
       -2   -1    0    0    0  501  0.00000000000E+00  0.00000000000E+00  0.21440730066E+03  0.21440730068E+03  0.25500000920E-02 0.  1.
        2   -1    0    0  501    0  0.00000000000E+00  0.00000000000E+00 -0.28665612361E+03  0.28665612362E+03  0.25500000920E-02 0. -1.
    10030    2    1    2    0    0  0.00000000000E+00  0.00000000000E+00 -0.72248822949E+02  0.50106342430E+03  0.49582725092E+03 0.  0.
        5    1    3    3  502    0  0.19109536946E+03 -0.64721194374E+02  0.10938507729E+03  0.22955055731E+03  0.46999998093E+01 0.  1.
       -5    1    3    3    0  502 -0.19109536946E+03  0.64721194374E+02 -0.18163390024E+03  0.27151286699E+03  0.46999998093E+01 0. -1.
</event>
<event>
 5   0  0.3117389E-01  0.4999900E+03  0.7818609E-02  0.1013782E+00
        2   -1    0    0  501    0  0.00000000000E+00  0.00000000000E+00  0.99415631461E+02  0.99415631494E+02  0.25500000920E-02 0. -1.
       -2   -1    0    0    0  501  0.00000000000E+00  0.00000000000E+00 -0.62864854006E+03  0.62864854007E+03  0.25500000920E-02 0.  1.
    10030    2    1    2    0    0  0.00000000000E+00  0.00000000000E+00 -0.52923290860E+03  0.72806417156E+03  0.49998996627E+03 0.  0.
        4    1    3    3  502    0  0.20344370450E+02  0.17475583862E+03 -0.52323258828E+03  0.55202124133E+03  0.12699999809E+01 0.  1.
       -4    1    3    3    0  502 -0.20344370450E+02 -0.17475583862E+03 -0.60003203269E+01  0.17604293024E+03  0.12699999809E+01 0. -1.
</event>
<event>
 5   0  0.2000612E-01  0.4311193E+03  0.7818609E-02  0.1033507E+00
        1   -1    0    0  501    0  0.00000000000E+00  0.00000000000E+00  0.70379272249E+03  0.70379272251E+03  0.50400001928E-02 0.  1.
       -1   -1    0    0    0  501  0.00000000000E+00  0.00000000000E+00 -0.66022215056E+02  0.66022215249E+02  0.50400001928E-02 0. -1.
    10030    2    1    2    0    0  0.00000000000E+00  0.00000000000E+00  0.63777050743E+03  0.76981493776E+03  0.43111926220E+03 0.  0.
        2    1    3    3  502    0  0.16481856014E+03 -0.67427414327E+02  0.10199061911E+03  0.20521622831E+03  0.25500000920E-02 0. -1.
       -2    1    3    3    0  502 -0.16481856014E+03  0.67427414327E+02  0.53577988832E+03  0.56459870944E+03  0.25500000920E-02 0.  1.
</event>
<event>
 5   0  0.1967161E-01  0.4414099E+03  0.7818609E-02  0.1030315E+00
        1   -1    0    0  501    0  0.00000000000E+00  0.00000000000E+00  0.25832334750E+03  0.25832334755E+03  0.50400001928E-02 0. -1.
       -1   -1    0    0    0  501  0.00000000000E+00  0.00000000000E+00 -0.18856477034E+03  0.18856477041E+03  0.50400001928E-02 0.  1.
    10030    2    1    2    0    0  0.00000000000E+00  0.00000000000E+00  0.69758577161E+02  0.44688811796E+03  0.44140993519E+03 0.  0.
        1    1    3    3  502    0  0.93311411718E+02  0.85256999789E+02  0.21805262678E+03  0.25203714735E+03  0.50400001928E-02 0. -1.
       -1    1    3    3    0  502 -0.93311411718E+02 -0.85256999789E+02 -0.14829404962E+03  0.19485097061E+03  0.50400001928E-02 0.  1.
</event>
<event>
 5   0  0.1984297E-01  0.4725054E+03  0.7818609E-02  0.1021215E+00
        1   -1    0    0  501    0  0.00000000000E+00  0.00000000000E+00  0.49693335034E+03  0.49693335037E+03  0.50400001928E-02 0. -1.
       -1   -1    0    0    0  501  0.00000000000E+00  0.00000000000E+00 -0.11231954343E+03  0.11231954354E+03  0.50400001928E-02 0.  1.
    10030    2    1    2    0    0  0.00000000000E+00  0.00000000000E+00  0.38461380691E+03  0.60925289391E+03  0.47250535264E+03 0.  0.
        3    1    3    3  502    0 -0.93926199601E+02  0.17391679964E+03  0.35916532550E+03  0.40996210241E+03  0.10100000352E+00 0. -1.
       -3    1    3    3    0  502  0.93926199601E+02 -0.17391679964E+03  0.25448481409E+02  0.19929079150E+03  0.10100000352E+00 0.  1.
</event>
<event>
 5   0  0.3329246E-01  0.5143670E+03  0.7818609E-02  0.1010095E+00
       -2   -1    0    0    0  501  0.00000000000E+00  0.00000000000E+00  0.15363994867E+03  0.15363994869E+03  0.25500000920E-02 0. -1.
        2   -1    0    0  501    0  0.00000000000E+00  0.00000000000E+00 -0.43050881370E+03  0.43050881371E+03  0.25500000920E-02 0.  1.
    10030    2    1    2    0    0  0.00000000000E+00  0.00000000000E+00 -0.27686886503E+03  0.58414876240E+03  0.51436699757E+03 0.  0.
        2    1    3    3  502    0 -0.69343716714E+02 -0.51563875609E+02 -0.41352803807E+03  0.42246043908E+03  0.25500000920E-02 0.  1.
       -2    1    3    3    0  502  0.69343716714E+02  0.51563875609E+02  0.13665917304E+03  0.16168832332E+03  0.25500000920E-02 0. -1.
</event>
<event>
 5   0  0.1967161E-01  0.5056583E+03  0.7818609E-02  0.1012312E+00
        1   -1    0    0  501    0  0.00000000000E+00  0.00000000000E+00  0.47733469199E+03  0.47733469201E+03  0.50400001928E-02 0. -1.
       -1   -1    0    0    0  501  0.00000000000E+00  0.00000000000E+00 -0.13391561716E+03  0.13391561726E+03  0.50400001928E-02 0.  1.
    10030    2    1    2    0    0  0.00000000000E+00  0.00000000000E+00  0.34341907482E+03  0.61125030927E+03  0.50565826369E+03 0.  0.
        1    1    3    3  502    0  0.21467880749E+03  0.10208446249E+03  0.67622106207E+02  0.24714565977E+03  0.50400001928E-02 0.  1.
       -1    1    3    3    0  502 -0.21467880749E+03 -0.10208446249E+03  0.27579696862E+03  0.36410464951E+03  0.50400001928E-02 0. -1.
</event>
<event>
 5   0  0.3187123E-01  0.5452505E+03  0.7818609E-02  0.1002599E+00
        2   -1    0    0  501    0  0.00000000000E+00  0.00000000000E+00  0.10971503985E+04  0.10971503985E+04  0.25500000920E-02 0. -1.
       -2   -1    0    0    0  501  0.00000000000E+00  0.00000000000E+00 -0.67743245170E+02  0.67743245218E+02  0.25500000920E-02 0.  1.
    10030    2    1    2    0    0  0.00000000000E+00  0.00000000000E+00  0.10294071533E+04  0.11648936437E+04  0.54525050559E+03 0.  0.
        5    1    3    3  502    0  0.58585112598E+02 -0.22849147275E+03  0.80655900647E+03  0.84035712019E+03  0.46999998093E+01 0. -1.
       -5    1    3    3    0  502 -0.58585112598E+02  0.22849147275E+03  0.22284814682E+03  0.32453652349E+03  0.46999998093E+01 0.  1.
</event>
<event>
 5   0  0.1967161E-01  0.5140416E+03  0.7818609E-02  0.1010177E+00
       -1   -1    0    0    0  501  0.00000000000E+00  0.00000000000E+00  0.20903827707E+03  0.20903827714E+03  0.50400001928E-02 0.  1.
        1   -1    0    0  501    0  0.00000000000E+00  0.00000000000E+00 -0.31601720350E+03  0.31601720354E+03  0.50400001928E-02 0. -1.
    10030    2    1    2    0    0  0.00000000000E+00  0.00000000000E+00 -0.10697892642E+03  0.52505548067E+03  0.51404160054E+03 0.  0.
        1    1    3    3  502    0  0.13555914111E+03 -0.18501100443E+03  0.64988646358E+02  0.23838807999E+03  0.50400001928E-02 0.  1.
       -1    1    3    3    0  502 -0.13555914111E+03  0.18501100443E+03 -0.17196757278E+03  0.28666740068E+03  0.50400001928E-02 0. -1.
</event>
<event>
 5   0  0.3329246E-01  0.4917287E+03  0.7818609E-02  0.1015961E+00
       -2   -1    0    0    0  501  0.00000000000E+00  0.00000000000E+00  0.13528524324E+03  0.13528524326E+03  0.25500000920E-02 0. -1.
        2   -1    0    0  501    0  0.00000000000E+00  0.00000000000E+00 -0.44682834274E+03  0.44682834274E+03  0.25500000920E-02 0.  1.
    10030    2    1    2    0    0  0.00000000000E+00  0.00000000000E+00 -0.31154309950E+03  0.58211358601E+03  0.49172870993E+03 0.  0.
        2    1    3    3  502    0  0.11513074458E+03  0.46748122996E+02 -0.40692023809E+03  0.42546980565E+03  0.25500000920E-02 0.  1.
       -2    1    3    3    0  502 -0.11513074458E+03 -0.46748122996E+02  0.95377138591E+02  0.15664378035E+03  0.25500000920E-02 0. -1.
</event>
<event>
 5   0  0.1984680E-01  0.4925665E+03  0.7818609E-02  0.1015738E+00
       -1   -1    0    0    0  501  0.00000000000E+00  0.00000000000E+00  0.24588239403E+02  0.24588239920E+02  0.50400001928E-02 0. -1.
        1   -1    0    0  501    0  0.00000000000E+00  0.00000000000E+00 -0.24668478316E+04  0.24668478316E+04  0.50400001928E-02 0.  1.
    10030    2    1    2    0    0  0.00000000000E+00  0.00000000000E+00 -0.24422595922E+04  0.24914360715E+04  0.49256652629E+03 0.  0.
        5    1    3    3  502    0  0.12955855208E+02 -0.20551185860E+03 -0.19040700064E+04  0.19151782313E+04  0.46999998093E+01 0.  1.
       -5    1    3    3    0  502 -0.12955855208E+02  0.20551185860E+03 -0.53818958576E+03  0.57625784023E+03  0.46999998093E+01 0. -1.
</event>
<event>
 5   0  0.3187123E-01  0.5041992E+03  0.7818609E-02  0.1012689E+00
       -2   -1    0    0    0  501  0.00000000000E+00  0.00000000000E+00  0.13317925435E+03  0.13317925437E+03  0.25500000920E-02 0.  1.
        2   -1    0    0  501    0  0.00000000000E+00  0.00000000000E+00 -0.47720797322E+03  0.47720797322E+03  0.25500000920E-02 0. -1.
    10030    2    1    2    0    0  0.00000000000E+00  0.00000000000E+00 -0.34402871887E+03  0.61038722760E+03  0.50419917514E+03 0.  0.
        5    1    3    3  502    0 -0.21499390255E+03  0.13096817954E+03 -0.18718660090E+03  0.31374504895E+03  0.46999998093E+01 0.  1.
       -5    1    3    3    0  502  0.21499390255E+03 -0.13096817954E+03 -0.15684211797E+03  0.29664217865E+03  0.46999998093E+01 0. -1.
</event>
<event>
 5   0  0.1967161E-01  0.5046298E+03  0.7818609E-02  0.1012577E+00
        1   -1    0    0  501    0  0.00000000000E+00  0.00000000000E+00  0.73081950728E+03  0.73081950730E+03  0.50400001928E-02 0. -1.
       -1   -1    0    0    0  501  0.00000000000E+00  0.00000000000E+00 -0.87111524808E+02  0.87111524953E+02  0.50400001928E-02 0.  1.
    10030    2    1    2    0    0  0.00000000000E+00  0.00000000000E+00  0.64370798248E+03  0.81793103225E+03  0.50462977203E+03 0.  0.
        1    1    3    3  502    0  0.46909629911E+02  0.20344629336E+02 -0.78626074632E+02  0.93789535443E+02  0.50400001928E-02 0.  1.
       -1    1    3    3    0  502 -0.46909629911E+02 -0.20344629336E+02  0.72233405711E+03  0.72414149681E+03  0.50400001928E-02 0. -1.
</event>
<event>
 5   0  0.2000612E-01  0.5184577E+03  0.7818609E-02  0.1009070E+00
        1   -1    0    0  501    0  0.00000000000E+00  0.00000000000E+00  0.11129953707E+04  0.11129953707E+04  0.50400001928E-02 0. -1.
       -1   -1    0    0    0  501  0.00000000000E+00  0.00000000000E+00 -0.60377251699E+02  0.60377251910E+02  0.50400001928E-02 0.  1.
    10030    2    1    2    0    0  0.00000000000E+00  0.00000000000E+00  0.10526181190E+04  0.11733726226E+04  0.51845771966E+03 0.  0.
        2    1    3    3  502    0  0.14919045820E+03 -0.44933047727E+02  0.99519453567E+03  0.10073176934E+04  0.25500000920E-02 0. -1.
       -2    1    3    3    0  502 -0.14919045820E+03  0.44933047727E+02  0.57423583354E+02  0.16605492925E+03  0.25500000920E-02 0.  1.
</event>
<event>
 5   0  0.3178149E-01  0.5001428E+03  0.7818609E-02  0.1013742E+00
       -2   -1    0    0    0  501  0.00000000000E+00  0.00000000000E+00  0.35810317632E+02  0.35810317722E+02  0.25500000920E-02 0. -1.
        2   -1    0    0  501    0  0.00000000000E+00  0.00000000000E+00 -0.17463042757E+04  0.17463042757E+04  0.25500000920E-02 0.  1.
    10030    2    1    2    0    0  0.00000000000E+00  0.00000000000E+00 -0.17104939581E+04  0.17821145934E+04  0.50014282311E+03 0.  0.
        3    1    3    3  502    0  0.11877720916E+03 -0.16480898629E+02 -0.16371754694E+04  0.16415611999E+04  0.10100000352E+00 0.  1.
       -3    1    3    3    0  502 -0.11877720916E+03  0.16480898629E+02 -0.73318488706E+02  0.14055339349E+03  0.10100000352E+00 0. -1.
</event>
<event>
 5   0  0.1984297E-01  0.4292065E+03  0.7818609E-02  0.1034111E+00
       -1   -1    0    0    0  501  0.00000000000E+00  0.00000000000E+00  0.73811631762E+02  0.73811631935E+02  0.50400001928E-02 0.  1.
        1   -1    0    0  501    0  0.00000000000E+00  0.00000000000E+00 -0.62394711622E+03  0.62394711624E+03  0.50400001928E-02 0. -1.
    10030    2    1    2    0    0  0.00000000000E+00  0.00000000000E+00 -0.55013548446E+03  0.69775874818E+03  0.42920649971E+03 0.  0.
        3    1    3    3  502    0 -0.18298607384E+03 -0.10396281627E+03 -0.20682003425E+03  0.29507068163E+03  0.10100000352E+00 0. -1.
       -3    1    3    3    0  502  0.18298607384E+03  0.10396281627E+03 -0.34331545021E+03  0.40268806655E+03  0.10100000352E+00 0.  1.
</event>
<event>
 5   0  0.1292375E-01  0.5031510E+03  0.7818609E-02  0.1012960E+00
        3   -1    0    0  501    0  0.00000000000E+00  0.00000000000E+00  0.21303493246E+03  0.21303495640E+03  0.10100000352E+00 0.  1.
       -3   -1    0    0    0  501  0.00000000000E+00  0.00000000000E+00 -0.29708844710E+03  0.29708846427E+03  0.10100000352E+00 0. -1.
    10030    2    1    2    0    0  0.00000000000E+00  0.00000000000E+00 -0.84053514644E+02  0.51012342067E+03  0.50315098230E+03 0.  0.
        5    1    3    3  502    0 -0.80973783478E+02  0.14802251328E+02  0.19894796039E+03  0.21535608001E+03  0.46999998093E+01 0.  1.
       -5    1    3    3    0  502  0.80973783478E+02 -0.14802251328E+02 -0.28300147503E+03  0.29476734067E+03  0.46999998093E+01 0. -1.
</event>
<event>
 5   0  0.3111146E-01  0.4945228E+03  0.7818609E-02  0.1015219E+00
       -2   -1    0    0    0  501  0.00000000000E+00  0.00000000000E+00  0.50048523938E+02  0.50048524003E+02  0.25500000920E-02 0.  1.
        2   -1    0    0  501    0  0.00000000000E+00  0.00000000000E+00 -0.12215785701E+04  0.12215785701E+04  0.25500000920E-02 0. -1.
    10030    2    1    2    0    0  0.00000000000E+00  0.00000000000E+00 -0.11715300461E+04  0.12716270941E+04  0.49452281788E+03 0.  0.
        1    1    3    3  502    0  0.28921800909E+02  0.24153147404E+03 -0.69973100167E+03  0.74080861107E+03  0.50400001928E-02 0.  1.
       -1    1    3    3    0  502 -0.28921800909E+02 -0.24153147404E+03 -0.47179904448E+03  0.53081848302E+03  0.50400001928E-02 0. -1.
</event>
<event>
 5   0  0.1967161E-01  0.5213197E+03  0.7818609E-02  0.1008359E+00
        1   -1    0    0  501    0  0.00000000000E+00  0.00000000000E+00  0.11842340077E+03  0.11842340088E+03  0.50400001928E-02 0. -1.
       -1   -1    0    0    0  501  0.00000000000E+00  0.00000000000E+00 -0.57373419871E+03  0.57373419874E+03  0.50400001928E-02 0.  1.
    10030    2    1    2    0    0  0.00000000000E+00  0.00000000000E+00 -0.45531079794E+03  0.69215759962E+03  0.52131969077E+03 0.  0.
        1    1    3    3  502    0 -0.14662163132E+03  0.20870582445E+03 -0.15631029198E+03  0.29914700623E+03  0.50400001928E-02 0. -1.
       -1    1    3    3    0  502  0.14662163132E+03 -0.20870582445E+03 -0.29900050595E+03  0.39301059339E+03  0.50400001928E-02 0.  1.
</event>
<event>
 5   0  0.3329246E-01  0.4908115E+03  0.7818609E-02  0.1016205E+00
       -2   -1    0    0    0  501  0.00000000000E+00  0.00000000000E+00  0.18134235128E+03  0.18134235130E+03  0.25500000920E-02 0. -1.
        2   -1    0    0  501    0  0.00000000000E+00  0.00000000000E+00 -0.33210098655E+03  0.33210098656E+03  0.25500000920E-02 0.  1.
    10030    2    1    2    0    0  0.00000000000E+00  0.00000000000E+00 -0.15075863527E+03  0.51344333786E+03  0.49081146593E+03 0.  0.
        2    1    3    3  502    0  0.21447816906E+03  0.21929959623E+02 -0.19801176983E+03  0.29272934450E+03  0.25500000920E-02 0.  1.
       -2    1    3    3    0  502 -0.21447816906E+03 -0.21929959623E+02  0.47253134561E+02  0.22071399336E+03  0.25500000920E-02 0. -1.
</event>
<event>
 5   0  0.1984297E-01  0.4854402E+03  0.7818609E-02  0.1017651E+00
        1   -1    0    0  501    0  0.00000000000E+00  0.00000000000E+00  0.13513875097E+04  0.13513875098E+04  0.50400001928E-02 0. -1.
       -1   -1    0    0    0  501  0.00000000000E+00  0.00000000000E+00 -0.43594484382E+02  0.43594484674E+02  0.50400001928E-02 0.  1.
    10030    2    1    2    0    0  0.00000000000E+00  0.00000000000E+00  0.13077930254E+04  0.13949819944E+04  0.48544017921E+03 0.  0.
        3    1    3    3  502    0  0.16320291596E+03  0.92770173083E+02  0.21177047489E+03  0.28299865906E+03  0.10100000352E+00 0.  1.
       -3    1    3    3    0  502 -0.16320291596E+03 -0.92770173083E+02  0.10960225505E+04  0.11119833354E+04  0.10100000352E+00 0. -1.
</event>
<event>
 5   0  0.3117389E-01  0.3895980E+03  0.7818609E-02  0.1047442E+00
        2   -1    0    0  501    0  0.00000000000E+00  0.00000000000E+00  0.31779162877E+03  0.31779162878E+03  0.25500000920E-02 0.  1.
       -2   -1    0    0    0  501  0.00000000000E+00  0.00000000000E+00 -0.11940735890E+03  0.11940735893E+03  0.25500000920E-02 0. -1.
    10030    2    1    2    0    0  0.00000000000E+00  0.00000000000E+00  0.19838426987E+03  0.43719898771E+03  0.38959804455E+03 0.  0.
        4    1    3    3  502    0 -0.53623123400E+02 -0.17262291751E+03  0.17720540368E+02  0.18163078336E+03  0.12699999809E+01 0. -1.
       -4    1    3    3    0  502  0.53623123400E+02  0.17262291751E+03  0.18066372950E+03  0.25556820435E+03  0.12699999809E+01 0.  1.
</event>
<event>
 5   0  0.3111146E-01  0.4985440E+03  0.7818609E-02  0.1014160E+00
        2   -1    0    0  501    0  0.00000000000E+00  0.00000000000E+00  0.64817868912E+03  0.64817868912E+03  0.25500000920E-02 0.  1.
       -2   -1    0    0    0  501  0.00000000000E+00  0.00000000000E+00 -0.95863289235E+02  0.95863289268E+02  0.25500000920E-02 0. -1.
    10030    2    1    2    0    0  0.00000000000E+00  0.00000000000E+00  0.55231539988E+03  0.74404197839E+03  0.49854404485E+03 0.  0.
        1    1    3    3  502    0 -0.13916330729E+03 -0.16905704912E+03  0.98377868659E+02  0.24005190485E+03  0.50400001928E-02 0. -1.
       -1    1    3    3    0  502  0.13916330729E+03  0.16905704912E+03  0.45393753123E+03  0.50399007355E+03  0.50400001928E-02 0.  1.
</event>
<event>
 5   0  0.1984297E-01  0.4796452E+03  0.7818609E-02  0.1019233E+00
       -1   -1    0    0    0  501  0.00000000000E+00  0.00000000000E+00  0.69209685819E+03  0.69209685820E+03  0.50400001928E-02 0. -1.
        1   -1    0    0  501    0  0.00000000000E+00  0.00000000000E+00 -0.83102362568E+02  0.83102362720E+02  0.50400001928E-02 0.  1.
    10030    2    1    2    0    0  0.00000000000E+00  0.00000000000E+00  0.60899449562E+03  0.77519922092E+03  0.47964521933E+03 0.  0.
        3    1    3    3  502    0 -0.22484776282E+03  0.40095335601E+02  0.18627495391E+03  0.29472448327E+03  0.10100000352E+00 0.  1.
       -3    1    3    3    0  502  0.22484776282E+03 -0.40095335601E+02  0.42271954171E+03  0.48047473766E+03  0.10100000352E+00 0. -1.
</event>
<event>
 5   0  0.1984680E-01  0.4965868E+03  0.7818609E-02  0.1014674E+00
       -1   -1    0    0    0  501  0.00000000000E+00  0.00000000000E+00  0.15701271642E+03  0.15701271650E+03  0.50400001928E-02 0.  1.
        1   -1    0    0  501    0  0.00000000000E+00  0.00000000000E+00 -0.39264088096E+03  0.39264088099E+03  0.50400001928E-02 0. -1.
    10030    2    1    2    0    0  0.00000000000E+00  0.00000000000E+00 -0.23562816454E+03  0.54965359749E+03  0.49658679534E+03 0.  0.
        5    1    3    3  502    0 -0.50050320938E+02 -0.20768276467E+03 -0.25778021833E+03  0.33482815940E+03  0.46999998093E+01 0. -1.
       -5    1    3    3    0  502  0.50050320938E+02  0.20768276467E+03  0.22152053794E+02  0.21482543809E+03  0.46999998093E+01 0.  1.
</event>
<event>
 5   0  0.1984297E-01  0.4949488E+03  0.7818609E-02  0.1015106E+00
       -1   -1    0    0    0  501  0.00000000000E+00  0.00000000000E+00  0.15747086582E+03  0.15747086590E+03  0.50400001928E-02 0. -1.
        1   -1    0    0  501    0  0.00000000000E+00  0.00000000000E+00 -0.38892010175E+03  0.38892010179E+03  0.50400001928E-02 0.  1.
    10030    2    1    2    0    0  0.00000000000E+00  0.00000000000E+00 -0.23144923594E+03  0.54639096768E+03  0.49494882640E+03 0.  0.
        3    1    3    3  502    0  0.13333918635E+03 -0.15799853590E+03 -0.26587874784E+03  0.33680022969E+03  0.10100000352E+00 0.  1.
       -3    1    3    3    0  502 -0.13333918635E+03  0.15799853590E+03  0.34429511904E+02  0.20959073800E+03  0.10100000352E+00 0. -1.
</event>
<event>
 5   0  0.1984680E-01  0.4909396E+03  0.7818609E-02  0.1016171E+00
        1   -1    0    0  501    0  0.00000000000E+00  0.00000000000E+00  0.87498350452E+02  0.87498350597E+02  0.50400001928E-02 0. -1.
       -1   -1    0    0    0  501  0.00000000000E+00  0.00000000000E+00 -0.68864650899E+03  0.68864650901E+03  0.50400001928E-02 0.  1.
    10030    2    1    2    0    0  0.00000000000E+00  0.00000000000E+00 -0.60114815854E+03  0.77614485961E+03  0.49093964454E+03 0.  0.
        5    1    3    3  502    0  0.28829331791E+01 -0.24368786900E+03 -0.34642821060E+03  0.42358787034E+03  0.46999998093E+01 0. -1.
       -5    1    3    3    0  502 -0.28829331791E+01  0.24368786900E+03 -0.25471994794E+03  0.35255698926E+03  0.46999998093E+01 0.  1.
</event>
<event>
 5   0  0.3329246E-01  0.4377781E+03  0.7818609E-02  0.1031431E+00
       -2   -1    0    0    0  501  0.00000000000E+00  0.00000000000E+00  0.26098551138E+02  0.26098551263E+02  0.25500000920E-02 0. -1.
        2   -1    0    0  501    0  0.00000000000E+00  0.00000000000E+00 -0.18358266289E+04  0.18358266289E+04  0.25500000920E-02 0.  1.
    10030    2    1    2    0    0  0.00000000000E+00  0.00000000000E+00 -0.18097280777E+04  0.18619251801E+04  0.43777809571E+03 0.  0.
        2    1    3    3  502    0 -0.13292116952E+03  0.40199272441E+02 -0.18523826605E+03  0.23151076439E+03  0.25500000920E-02 0. -1.
       -2    1    3    3    0  502  0.13292116952E+03 -0.40199272441E+02 -0.16244898117E+04  0.16304144157E+04  0.25500000920E-02 0.  1.
</event>
<event>
 5   0  0.1967161E-01  0.4976421E+03  0.7818609E-02  0.1014396E+00
       -1   -1    0    0    0  501  0.00000000000E+00  0.00000000000E+00  0.28355835573E+03  0.28355835577E+03  0.50400001928E-02 0.  1.
        1   -1    0    0  501    0  0.00000000000E+00  0.00000000000E+00 -0.21833924339E+03  0.21833924344E+03  0.50400001928E-02 0. -1.
    10030    2    1    2    0    0  0.00000000000E+00  0.00000000000E+00  0.65219112342E+02  0.50189759922E+03  0.49764210783E+03 0.  0.
        1    1    3    3  502    0  0.92600712847E+02 -0.20686392650E+03  0.13617329318E+03  0.26440639536E+03  0.50400001928E-02 0.  1.
       -1    1    3    3    0  502 -0.92600712847E+02  0.20686392650E+03 -0.70954180842E+02  0.23749120386E+03  0.50400001928E-02 0. -1.
</event>
<event>
 5   0  0.3111146E-01  0.5181271E+03  0.7818609E-02  0.1009153E+00
        2   -1    0    0  501    0  0.00000000000E+00  0.00000000000E+00  0.98582090594E+03  0.98582090594E+03  0.25500000920E-02 0. -1.
       -2   -1    0    0    0  501  0.00000000000E+00  0.00000000000E+00 -0.68079231981E+02  0.68079232029E+02  0.25500000920E-02 0.  1.
    10030    2    1    2    0    0  0.00000000000E+00  0.00000000000E+00  0.91774167396E+03  0.10539001380E+04  0.51812712793E+03 0.  0.
        1    1    3    3  502    0  0.49565192553E+02  0.10815890894E+03  0.92696421141E+03  0.93456819289E+03  0.50400001928E-02 0. -1.
       -1    1    3    3    0  502 -0.49565192553E+02 -0.10815890894E+03 -0.92225374523E+01  0.11933194508E+03  0.50400001928E-02 0.  1.
</event>
<event>
 5   0  0.3117389E-01  0.4963316E+03  0.7818609E-02  0.1014741E+00
        2   -1    0    0  501    0  0.00000000000E+00  0.00000000000E+00  0.13389756990E+04  0.13389756990E+04  0.25500000920E-02 0.  1.
       -2   -1    0    0    0  501  0.00000000000E+00  0.00000000000E+00 -0.45995050724E+02  0.45995050795E+02  0.25500000920E-02 0. -1.
    10030    2    1    2    0    0  0.00000000000E+00  0.00000000000E+00  0.12929806482E+04  0.13849707498E+04  0.49633156355E+03 0.  0.
        4    1    3    3  502    0  0.21051914687E+03 -0.13107059558E+03  0.67249215330E+03  0.71676015610E+03  0.12699999809E+01 0. -1.
       -4    1    3    3    0  502 -0.21051914687E+03  0.13107059558E+03  0.62048849494E+03  0.66821059366E+03  0.12699999809E+01 0.  1.
</event>
<event>
 5   0  0.1984297E-01  0.5151075E+03  0.7818609E-02  0.1009909E+00
        1   -1    0    0  501    0  0.00000000000E+00  0.00000000000E+00  0.30581822280E+03  0.30581822284E+03  0.50400001928E-02 0. -1.
       -1   -1    0    0    0  501  0.00000000000E+00  0.00000000000E+00 -0.21690643639E+03  0.21690643645E+03  0.50400001928E-02 0.  1.
    10030    2    1    2    0    0  0.00000000000E+00  0.00000000000E+00  0.88911786402E+02  0.52272465929E+03  0.51510752632E+03 0.  0.
        3    1    3    3  502    0  0.11171466990E+03 -0.17678343832E+03 -0.10810476843E+03  0.23541283459E+03  0.10100000352E+00 0.  1.
       -3    1    3    3    0  502 -0.11171466990E+03  0.17678343832E+03  0.19701655483E+03  0.28731182470E+03  0.10100000352E+00 0. -1.
</event>
<event>
 5   0  0.3178149E-01  0.4234883E+03  0.7818609E-02  0.1035937E+00
        2   -1    0    0  501    0  0.00000000000E+00  0.00000000000E+00  0.13392862666E+04  0.13392862666E+04  0.25500000920E-02 0. -1.
       -2   -1    0    0    0  501  0.00000000000E+00  0.00000000000E+00 -0.33477217187E+02  0.33477217284E+02  0.25500000920E-02 0.  1.
    10030    2    1    2    0    0  0.00000000000E+00  0.00000000000E+00  0.13058090494E+04  0.13727634838E+04  0.42348826331E+03 0.  0.
        3    1    3    3  502    0  0.10346069956E+03 -0.18423418324E+03  0.69749414729E+03  0.72879657404E+03  0.10100000352E+00 0. -1.
       -3    1    3    3    0  502 -0.10346069956E+03  0.18423418324E+03  0.60831490208E+03  0.64396690980E+03  0.10100000352E+00 0.  1.
</event>
<event>
 5   0  0.3178149E-01  0.5116008E+03  0.7818609E-02  0.1010795E+00
       -2   -1    0    0    0  501  0.00000000000E+00  0.00000000000E+00  0.42477799459E+02  0.42477799535E+02  0.25500000920E-02 0. -1.
        2   -1    0    0  501    0  0.00000000000E+00  0.00000000000E+00 -0.15404246324E+04  0.15404246324E+04  0.25500000920E-02 0.  1.
    10030    2    1    2    0    0  0.00000000000E+00  0.00000000000E+00 -0.14979468329E+04  0.15829024319E+04  0.51160081578E+03 0.  0.
        3    1    3    3  502    0 -0.46681701612E+02  0.25146432855E+03 -0.76293038285E+03  0.80465910115E+03  0.10100000352E+00 0. -1.
       -3    1    3    3    0  502  0.46681701612E+02 -0.25146432855E+03 -0.73501645004E+03  0.77824333073E+03  0.10100000352E+00 0.  1.
</event>
<event>
 5   0  0.2000612E-01  0.4930719E+03  0.7818609E-02  0.1015603E+00
       -1   -1    0    0    0  501  0.00000000000E+00  0.00000000000E+00  0.10717480712E+03  0.10717480724E+03  0.50400001928E-02 0.  1.
        1   -1    0    0  501    0  0.00000000000E+00  0.00000000000E+00 -0.56711056819E+03  0.56711056821E+03  0.50400001928E-02 0. -1.
    10030    2    1    2    0    0  0.00000000000E+00  0.00000000000E+00 -0.45993576108E+03  0.67428537545E+03  0.49307186416E+03 0.  0.
        2    1    3    3  502    0  0.21676787227E+03 -0.10795214752E+03 -0.29319978645E+03  0.38027370588E+03  0.25500000920E-02 0. -1.
       -2    1    3    3    0  502 -0.21676787227E+03  0.10795214752E+03 -0.16673597463E+03  0.29401166957E+03  0.25500000920E-02 0.  1.
</event>
<event>
 5   0  0.1984297E-01  0.3318417E+03  0.7818609E-02  0.1070325E+00
        1   -1    0    0  501    0  0.00000000000E+00  0.00000000000E+00  0.17258425027E+03  0.17258425035E+03  0.50400001928E-02 0.  1.
       -1   -1    0    0    0  501  0.00000000000E+00  0.00000000000E+00 -0.15951474091E+03  0.15951474099E+03  0.50400001928E-02 0. -1.
    10030    2    1    2    0    0  0.00000000000E+00  0.00000000000E+00  0.13069509366E+02  0.33209899133E+03  0.33184172126E+03 0.  0.
        3    1    3    3  502    0 -0.13949581438E+03  0.41458064528E+02 -0.73225644090E+02  0.16291058436E+03  0.10100000352E+00 0. -1.
       -3    1    3    3    0  502  0.13949581438E+03 -0.41458064528E+02  0.86295153456E+02  0.16918840697E+03  0.10100000352E+00 0.  1.
</event>
<event>
 5   0  0.1967161E-01  0.5101283E+03  0.7818609E-02  0.1011169E+00
       -1   -1    0    0    0  501  0.00000000000E+00  0.00000000000E+00  0.39444537348E+03  0.39444537351E+03  0.50400001928E-02 0. -1.
        1   -1    0    0  501    0  0.00000000000E+00  0.00000000000E+00 -0.16493466321E+03  0.16493466328E+03  0.50400001928E-02 0.  1.
    10030    2    1    2    0    0  0.00000000000E+00  0.00000000000E+00  0.22951071027E+03  0.55938003679E+03  0.51012827743E+03 0.  0.
        1    1    3    3  502    0 -0.20185679768E+02 -0.78194379862E+02  0.38005623236E+03  0.38854158399E+03  0.50400001928E-02 0. -1.
       -1    1    3    3    0  502  0.20185679768E+02  0.78194379862E+02 -0.15054552209E+03  0.17083845280E+03  0.50400001928E-02 0.  1.
</event>
<event>
 5   0  0.3187123E-01  0.5043526E+03  0.7818609E-02  0.1012649E+00
       -2   -1    0    0    0  501  0.00000000000E+00  0.00000000000E+00  0.19802099404E+03  0.19802099405E+03  0.25500000920E-02 0.  1.
        2   -1    0    0  501    0  0.00000000000E+00  0.00000000000E+00 -0.32114209599E+03  0.32114209600E+03  0.25500000920E-02 0. -1.
    10030    2    1    2    0    0  0.00000000000E+00  0.00000000000E+00 -0.12312110195E+03  0.51916309005E+03  0.50435256352E+03 0.  0.
        5    1    3    3  502    0  0.24753114360E+03  0.16573790329E+02 -0.15245632331E+02  0.24859782155E+03  0.46999998093E+01 0.  1.
       -5    1    3    3    0  502 -0.24753114360E+03 -0.16573790329E+02 -0.10787546962E+03  0.27056526850E+03  0.46999998093E+01 0. -1.
</event>
<event>
 5   0  0.3178149E-01  0.5331669E+03  0.7818609E-02  0.1005467E+00
       -2   -1    0    0    0  501  0.00000000000E+00  0.00000000000E+00  0.59327142059E+02  0.59327142114E+02  0.25500000920E-02 0.  1.
        2   -1    0    0  501    0  0.00000000000E+00  0.00000000000E+00 -0.11978790325E+04  0.11978790325E+04  0.25500000920E-02 0. -1.
    10030    2    1    2    0    0  0.00000000000E+00  0.00000000000E+00 -0.11385518905E+04  0.12572061746E+04  0.53316691408E+03 0.  0.
        3    1    3    3  502    0  0.19376005002E+02  0.19429516823E+03 -0.14130957535E+03  0.24102789933E+03  0.10100000352E+00 0.  1.
       -3    1    3    3    0  502 -0.19376005002E+02 -0.19429516823E+03 -0.99724231511E+03  0.10161782753E+04  0.10100000352E+00 0. -1.
</event>
<event>
 5   0  0.3117389E-01  0.4853285E+03  0.7818609E-02  0.1017681E+00
        2   -1    0    0  501    0  0.00000000000E+00  0.00000000000E+00  0.24772534735E+03  0.24772534736E+03  0.25500000920E-02 0. -1.
       -2   -1    0    0    0  501  0.00000000000E+00  0.00000000000E+00 -0.23770654868E+03  0.23770654869E+03  0.25500000920E-02 0.  1.
    10030    2    1    2    0    0  0.00000000000E+00  0.00000000000E+00  0.10018798671E+02  0.48543189605E+03  0.48532849636E+03 0.  0.
        4    1    3    3  502    0  0.26211507786E+02  0.13455914376E+03 -0.19526092511E+03  0.23858258127E+03  0.12699999809E+01 0.  1.
       -4    1    3    3    0  502 -0.26211507786E+02 -0.13455914376E+03  0.20527972378E+03  0.24684931478E+03  0.12699999809E+01 0. -1.
</event>
<event>
 5   0  0.3178149E-01  0.5108505E+03  0.7818609E-02  0.1010985E+00
       -2   -1    0    0    0  501  0.00000000000E+00  0.00000000000E+00  0.13119939587E+03  0.13119939589E+03  0.25500000920E-02 0. -1.
        2   -1    0    0  501    0  0.00000000000E+00  0.00000000000E+00 -0.49727412200E+03  0.49727412201E+03  0.25500000920E-02 0.  1.
    10030    2    1    2    0    0  0.00000000000E+00  0.00000000000E+00 -0.36607472613E+03  0.62847351790E+03  0.51085052372E+03 0.  0.
        3    1    3    3  502    0  0.15172231992E+03  0.46886887647E+02 -0.42916106994E+03  0.45759947197E+03  0.10100000352E+00 0.  1.
       -3    1    3    3    0  502 -0.15172231992E+03 -0.46886887647E+02  0.63086343808E+02  0.17087404592E+03  0.10100000352E+00 0. -1.
</event>
<event>
 5   0  0.1984680E-01  0.5004780E+03  0.7818609E-02  0.1013654E+00
       -1   -1    0    0    0  501  0.00000000000E+00  0.00000000000E+00  0.78527871306E+02  0.78527871468E+02  0.50400001928E-02 0.  1.
        1   -1    0    0  501    0  0.00000000000E+00  0.00000000000E+00 -0.79741829389E+03  0.79741829391E+03  0.50400001928E-02 0. -1.
    10030    2    1    2    0    0  0.00000000000E+00  0.00000000000E+00 -0.71889042259E+03  0.87594616538E+03  0.50047801645E+03 0.  0.
        5    1    3    3  502    0  0.17201610116E+03 -0.13698987330E+03 -0.15057647933E+03  0.26655417942E+03  0.46999998093E+01 0.  1.
       -5    1    3    3    0  502 -0.17201610116E+03  0.13698987330E+03 -0.56831394326E+03  0.60939198595E+03  0.46999998093E+01 0. -1.
</event>
<event>
 5   0  0.2013450E-01  0.2954878E+03  0.7818609E-02  0.1087518E+00
        1   -1    0    0  501    0  0.00000000000E+00  0.00000000000E+00  0.29495900535E+03  0.29495900540E+03  0.50400001928E-02 0.  1.
       -1   -1    0    0    0  501  0.00000000000E+00  0.00000000000E+00 -0.74004404079E+02  0.74004404251E+02  0.50400001928E-02 0. -1.
    10030    2    1    2    0    0  0.00000000000E+00  0.00000000000E+00  0.22095460127E+03  0.36896340965E+03  0.29548783703E+03 0.  0.
        4    1    3    3  502    0  0.86536362658E+02  0.85036688930E+02  0.21574204443E+03  0.24751974297E+03  0.12699999809E+01 0.  1.
       -4    1    3    3    0  502 -0.86536362658E+02 -0.85036688930E+02  0.52125568424E+01  0.12144366667E+03  0.12699999809E+01 0. -1.
</event>
<event>
 5   0  0.1984680E-01  0.5110206E+03  0.7818609E-02  0.1010942E+00
       -1   -1    0    0    0  501  0.00000000000E+00  0.00000000000E+00  0.30369975815E+03  0.30369975819E+03  0.50400001928E-02 0.  1.
        1   -1    0    0  501    0  0.00000000000E+00  0.00000000000E+00 -0.21496729280E+03  0.21496729285E+03  0.50400001928E-02 0. -1.
    10030    2    1    2    0    0  0.00000000000E+00  0.00000000000E+00  0.88732465354E+02  0.51866705105E+03  0.51102060568E+03 0.  0.
        5    1    3    3  502    0  0.71983275891E+02 -0.48493468162E+02  0.28823256133E+03  0.30105366278E+03  0.46999998093E+01 0.  1.
       -5    1    3    3    0  502 -0.71983275891E+02  0.48493468162E+02 -0.19950009598E+03  0.21761338827E+03  0.46999998093E+01 0. -1.
</event>
<event>
 5   0  0.2013450E-01  0.4921178E+03  0.7818609E-02  0.1015857E+00
       -1   -1    0    0    0  501  0.00000000000E+00  0.00000000000E+00  0.15721436033E+03  0.15721436041E+03  0.50400001928E-02 0. -1.
        1   -1    0    0  501    0  0.00000000000E+00  0.00000000000E+00 -0.38511104577E+03  0.38511104580E+03  0.50400001928E-02 0.  1.
    10030    2    1    2    0    0  0.00000000000E+00  0.00000000000E+00 -0.22789668544E+03  0.54232540621E+03  0.49211781819E+03 0.  0.
        4    1    3    3  502    0  0.10415439159E+03  0.19316611285E+03  0.86791442024E+01  0.21963202153E+03  0.12699999809E+01 0. -1.
       -4    1    3    3    0  502 -0.10415439159E+03 -0.19316611285E+03 -0.23657582965E+03  0.32269338467E+03  0.12699999809E+01 0.  1.
</event>
<event>
 5   0  0.3178149E-01  0.4936734E+03  0.7818609E-02  0.1015444E+00
       -2   -1    0    0    0  501  0.00000000000E+00  0.00000000000E+00  0.66987007648E+02  0.66987007697E+02  0.25500000920E-02 0.  1.
        2   -1    0    0  501    0  0.00000000000E+00  0.00000000000E+00 -0.90955478982E+03  0.90955478982E+03  0.25500000920E-02 0. -1.
    10030    2    1    2    0    0  0.00000000000E+00  0.00000000000E+00 -0.84256778217E+03  0.97654179752E+03  0.49367338874E+03 0.  0.
        3    1    3    3  502    0 -0.23263115441E+02  0.50787436155E+02 -0.89688665224E+03  0.89862462318E+03  0.10100000352E+00 0. -1.
       -3    1    3    3    0  502  0.23263115441E+02 -0.50787436155E+02  0.54318870068E+02  0.77917174344E+02  0.10100000352E+00 0.  1.
</event>
<event>
 5   0  0.1984297E-01  0.5040899E+03  0.7818609E-02  0.1012717E+00
       -1   -1    0    0    0  501  0.00000000000E+00  0.00000000000E+00  0.16879339603E+03  0.16879339611E+03  0.50400001928E-02 0. -1.
        1   -1    0    0  501    0  0.00000000000E+00  0.00000000000E+00 -0.37635750628E+03  0.37635750631E+03  0.50400001928E-02 0.  1.
    10030    2    1    2    0    0  0.00000000000E+00  0.00000000000E+00 -0.20756411024E+03  0.54515090242E+03  0.50408991911E+03 0.  0.
        3    1    3    3  502    0 -0.64288625957E+02 -0.23670479808E+03 -0.41053313751E+02  0.24869172409E+03  0.10100000352E+00 0. -1.
       -3    1    3    3    0  502  0.64288625957E+02  0.23670479808E+03 -0.16651079649E+03  0.29645917832E+03  0.10100000352E+00 0.  1.
</event>
<event>
 5   0  0.3187123E-01  0.5031491E+03  0.7818609E-02  0.1012960E+00
        2   -1    0    0  501    0  0.00000000000E+00  0.00000000000E+00  0.26390290515E+04  0.26390290515E+04  0.25500000920E-02 0. -1.
       -2   -1    0    0    0  501  0.00000000000E+00  0.00000000000E+00 -0.23982213467E+02  0.23982213603E+02  0.25500000920E-02 0.  1.
    10030    2    1    2    0    0  0.00000000000E+00  0.00000000000E+00  0.26150468380E+04  0.26630112651E+04  0.50314911603E+03 0.  0.
        5    1    3    3  502    0  0.97158836193E+02 -0.19681585189E+03  0.19577134768E+04  0.19699848899E+04  0.46999998093E+01 0. -1.
       -5    1    3    3    0  502 -0.97158836193E+02  0.19681585189E+03  0.65733336119E+03  0.69302637521E+03  0.46999998093E+01 0.  1.
</event>
<event>
 5   0  0.3178149E-01  0.4627073E+03  0.7818609E-02  0.1023999E+00
       -2   -1    0    0    0  501  0.00000000000E+00  0.00000000000E+00  0.34581046940E+02  0.34581047034E+02  0.25500000920E-02 0.  1.
        2   -1    0    0  501    0  0.00000000000E+00  0.00000000000E+00 -0.15477993192E+04  0.15477993192E+04  0.25500000920E-02 0. -1.
    10030    2    1    2    0    0  0.00000000000E+00  0.00000000000E+00 -0.15132182723E+04  0.15823803663E+04  0.46270734158E+03 0.  0.
        3    1    3    3  502    0 -0.18011811357E+03  0.11603393931E+03 -0.10550978090E+04  0.10766326238E+04  0.10100000352E+00 0. -1.
       -3    1    3    3    0  502  0.18011811357E+03 -0.11603393931E+03 -0.45812046329E+03  0.50574774245E+03  0.10100000352E+00 0.  1.
</event>
<event>
 5   0  0.1984297E-01  0.4997817E+03  0.7818609E-02  0.1013836E+00
        1   -1    0    0  501    0  0.00000000000E+00  0.00000000000E+00  0.64102703410E+03  0.64102703412E+03  0.50400001928E-02 0.  1.
       -1   -1    0    0    0  501  0.00000000000E+00  0.00000000000E+00 -0.97414663308E+02  0.97414663438E+02  0.50400001928E-02 0. -1.
    10030    2    1    2    0    0  0.00000000000E+00  0.00000000000E+00  0.54361237080E+03  0.73844169756E+03  0.49978168335E+03 0.  0.
        3    1    3    3  502    0 -0.13127246859E+03  0.49507583052E+02  0.57734379872E+03  0.59414588605E+03  0.10100000352E+00 0.  1.
       -3    1    3    3    0  502  0.13127246859E+03 -0.49507583052E+02 -0.33731427927E+02  0.14429581151E+03  0.10100000352E+00 0. -1.
</event>
<event>
 5   0  0.3117389E-01  0.5071853E+03  0.7818609E-02  0.1011920E+00
        2   -1    0    0  501    0  0.00000000000E+00  0.00000000000E+00  0.23904216017E+03  0.23904216019E+03  0.25500000920E-02 0. -1.
       -2   -1    0    0    0  501  0.00000000000E+00  0.00000000000E+00 -0.26902877529E+03  0.26902877530E+03  0.25500000920E-02 0.  1.
    10030    2    1    2    0    0  0.00000000000E+00  0.00000000000E+00 -0.29986615119E+02  0.50807093549E+03  0.50718525058E+03 0.  0.
        4    1    3    3  502    0  0.73737864694E+02  0.16535404567E+03 -0.19286568922E+03  0.26453358971E+03  0.12699999809E+01 0.  1.
       -4    1    3    3    0  502 -0.73737864694E+02 -0.16535404567E+03  0.16287907410E+03  0.24353734578E+03  0.12699999809E+01 0. -1.
</event>
<event>
 5   0  0.1292375E-01  0.4935746E+03  0.7818609E-02  0.1015470E+00
        4   -1    0    0  501    0  0.00000000000E+00  0.00000000000E+00  0.57269734982E+03  0.57269875798E+03  0.12699999809E+01 0.  1.
       -4   -1    0    0    0  501  0.00000000000E+00  0.00000000000E+00 -0.10634050333E+03  0.10634808672E+03  0.12699999809E+01 0. -1.
    10030    2    1    2    0    0  0.00000000000E+00  0.00000000000E+00  0.46635684650E+03  0.67904684470E+03  0.49357462356E+03 0.  0.
        2    1    3    3  502    0 -0.21908158587E+03  0.75567699011E+02  0.34989039007E+03  0.41967904816E+03  0.25500000920E-02 0.  1.
       -2    1    3    3    0  502  0.21908158587E+03 -0.75567699011E+02  0.11646645643E+03  0.25936779654E+03  0.25500000920E-02 0. -1.
</event>
<event>
 5   0  0.2000612E-01  0.4795822E+03  0.7818609E-02  0.1019250E+00
        1   -1    0    0  501    0  0.00000000000E+00  0.00000000000E+00  0.10052576705E+04  0.10052576705E+04  0.50400001928E-02 0.  1.
       -1   -1    0    0    0  501  0.00000000000E+00  0.00000000000E+00 -0.57199048139E+02  0.57199048361E+02  0.50400001928E-02 0. -1.
    10030    2    1    2    0    0  0.00000000000E+00  0.00000000000E+00  0.94805862237E+03  0.10624567189E+04  0.47958224326E+03 0.  0.
        2    1    3    3  502    0 -0.21680985020E+03 -0.15074746566E+02  0.69849463874E+03  0.73152479075E+03  0.25500000920E-02 0.  1.
       -2    1    3    3    0  502  0.21680985020E+03  0.15074746566E+02  0.24956398363E+03  0.33093192814E+03  0.25500000920E-02 0. -1.
</event>
<event>
 5   0  0.2013450E-01  0.5091539E+03  0.7818609E-02  0.1011417E+00
       -1   -1    0    0    0  501  0.00000000000E+00  0.00000000000E+00  0.10613881272E+03  0.10613881283E+03  0.50400001928E-02 0. -1.
        1   -1    0    0  501    0  0.00000000000E+00  0.00000000000E+00 -0.61061004452E+03  0.61061004454E+03  0.50400001928E-02 0.  1.
    10030    2    1    2    0    0  0.00000000000E+00  0.00000000000E+00 -0.50447123181E+03  0.71674885738E+03  0.50915390682E+03 0.  0.
        4    1    3    3  502    0 -0.93293808082E+02 -0.20239720820E+03 -0.79025622110E+02  0.23646358358E+03  0.12699999809E+01 0.  1.
       -4    1    3    3    0  502  0.93293808082E+02  0.20239720820E+03 -0.42544560970E+03  0.48028527379E+03  0.12699999809E+01 0. -1.
</event>
<event>
 5   0  0.1984297E-01  0.4888990E+03  0.7818609E-02  0.1016718E+00
        1   -1    0    0  501    0  0.00000000000E+00  0.00000000000E+00  0.33545997386E+03  0.33545997390E+03  0.50400001928E-02 0.  1.
       -1   -1    0    0    0  501  0.00000000000E+00  0.00000000000E+00 -0.17813024751E+03  0.17813024758E+03  0.50400001928E-02 0. -1.
    10030    2    1    2    0    0  0.00000000000E+00  0.00000000000E+00  0.15732972635E+03  0.51359022148E+03  0.48889904153E+03 0.  0.
        3    1    3    3  502    0 -0.58353278541E+02 -0.14458243658E+03  0.27644535636E+03  0.31738183839E+03  0.10100000352E+00 0.  1.
       -3    1    3    3    0  502  0.58353278541E+02  0.14458243658E+03 -0.11911563001E+03  0.19620838309E+03  0.10100000352E+00 0. -1.
</event>
<event>
 5   0  0.1984680E-01  0.4888761E+03  0.7818609E-02  0.1016724E+00
        1   -1    0    0  501    0  0.00000000000E+00  0.00000000000E+00  0.19364498796E+03  0.19364498803E+03  0.50400001928E-02 0.  1.
       -1   -1    0    0    0  501  0.00000000000E+00  0.00000000000E+00 -0.30855407905E+03  0.30855407909E+03  0.50400001928E-02 0. -1.
    10030    2    1    2    0    0  0.00000000000E+00  0.00000000000E+00 -0.11490909109E+03  0.50219906712E+03  0.48887606180E+03 0.  0.
        5    1    3    3  502    0 -0.76239554950E+02  0.21165713697E+03  0.40628673967E+02  0.22865693192E+03  0.46999998093E+01 0.  1.
       -5    1    3    3    0  502  0.76239554950E+02 -0.21165713697E+03 -0.15553776506E+03  0.27354213520E+03  0.46999998093E+01 0. -1.
</event>
<event>
 5   0  0.3178149E-01  0.5254934E+03  0.7818609E-02  0.1007331E+00
       -2   -1    0    0    0  501  0.00000000000E+00  0.00000000000E+00  0.31835850266E+03  0.31835850267E+03  0.25500000920E-02 0.  1.
        2   -1    0    0  501    0  0.00000000000E+00  0.00000000000E+00 -0.21684932839E+03  0.21684932840E+03  0.25500000920E-02 0. -1.
    10030    2    1    2    0    0  0.00000000000E+00  0.00000000000E+00  0.10150917427E+03  0.53520783107E+03  0.52549339670E+03 0.  0.
        3    1    3    3  502    0 -0.18859618117E+03  0.79344338732E+02  0.21864047442E+03  0.29944567270E+03  0.10100000352E+00 0.  1.
       -3    1    3    3    0  502  0.18859618117E+03 -0.79344338732E+02 -0.11713130016E+03  0.23576215837E+03  0.10100000352E+00 0. -1.
</event>
<event>
 5   0  0.1967161E-01  0.4988539E+03  0.7818609E-02  0.1014078E+00
        1   -1    0    0  501    0  0.00000000000E+00  0.00000000000E+00  0.22644134458E+03  0.22644134463E+03  0.50400001928E-02 0. -1.
       -1   -1    0    0    0  501  0.00000000000E+00  0.00000000000E+00 -0.27474582624E+03  0.27474582629E+03  0.50400001928E-02 0.  1.
    10030    2    1    2    0    0  0.00000000000E+00  0.00000000000E+00 -0.48304481662E+02  0.50118717092E+03  0.49885394390E+03 0.  0.
        1    1    3    3  502    0 -0.12414631792E+03 -0.28840931554E+02  0.19125604371E+03  0.22983250829E+03  0.50400001928E-02 0. -1.
       -1    1    3    3    0  502  0.12414631792E+03  0.28840931554E+02 -0.23956052537E+03  0.27135466263E+03  0.50400001928E-02 0.  1.
</event>
<event>
 5   0  0.3111146E-01  0.5015412E+03  0.7818609E-02  0.1013377E+00
       -2   -1    0    0    0  501  0.00000000000E+00  0.00000000000E+00  0.78114592106E+02  0.78114592148E+02  0.25500000920E-02 0. -1.
        2   -1    0    0  501    0  0.00000000000E+00  0.00000000000E+00 -0.80504659356E+03  0.80504659356E+03  0.25500000920E-02 0.  1.
    10030    2    1    2    0    0  0.00000000000E+00  0.00000000000E+00 -0.72693200145E+03  0.88316118571E+03  0.50154117001E+03 0.  0.
        1    1    3    3  502    0 -0.20085720858E+03  0.55358096466E+02 -0.11771077025E+03  0.23929889791E+03  0.50400001928E-02 0. -1.
       -1    1    3    3    0  502  0.20085720858E+03 -0.55358096466E+02 -0.60922123121E+03  0.64386228781E+03  0.50400001928E-02 0.  1.
</event>
<event>
 5   0  0.1984297E-01  0.5104313E+03  0.7818609E-02  0.1011091E+00
        1   -1    0    0  501    0  0.00000000000E+00  0.00000000000E+00  0.60227078370E+03  0.60227078373E+03  0.50400001928E-02 0.  1.
       -1   -1    0    0    0  501  0.00000000000E+00  0.00000000000E+00 -0.10814907373E+03  0.10814907385E+03  0.50400001928E-02 0. -1.
    10030    2    1    2    0    0  0.00000000000E+00  0.00000000000E+00  0.49412170997E+03  0.71041985757E+03  0.51043129780E+03 0.  0.
        3    1    3    3  502    0 -0.20792389343E+03 -0.55407247745E+02  0.56060492876E+02  0.22236253647E+03  0.10100000352E+00 0. -1.
       -3    1    3    3    0  502  0.20792389343E+03  0.55407247745E+02  0.43806121710E+03  0.48805732111E+03  0.10100000352E+00 0.  1.
</event>
<event>
 5   0  0.2000612E-01  0.5032819E+03  0.7818609E-02  0.1012926E+00
       -1   -1    0    0    0  501  0.00000000000E+00  0.00000000000E+00  0.19551591271E+03  0.19551591278E+03  0.50400001928E-02 0.  1.
        1   -1    0    0  501    0  0.00000000000E+00  0.00000000000E+00 -0.32387736856E+03  0.32387736860E+03  0.50400001928E-02 0. -1.
    10030    2    1    2    0    0  0.00000000000E+00  0.00000000000E+00 -0.12836145585E+03  0.51939328138E+03  0.50328194622E+03 0.  0.
        2    1    3    3  502    0 -0.21990107559E+03  0.11558768227E+03 -0.22820528524E+02  0.24947499247E+03  0.25500000920E-02 0. -1.
       -2    1    3    3    0  502  0.21990107559E+03 -0.11558768227E+03 -0.10554092733E+03  0.26991828891E+03  0.25500000920E-02 0.  1.
</event>
<event>
 5   0  0.1984680E-01  0.4903329E+03  0.7818609E-02  0.1016333E+00
       -1   -1    0    0    0  501  0.00000000000E+00  0.00000000000E+00  0.46457984433E+03  0.46457984436E+03  0.50400001928E-02 0.  1.
        1   -1    0    0  501    0  0.00000000000E+00  0.00000000000E+00 -0.12937836983E+03  0.12937836992E+03  0.50400001928E-02 0. -1.
    10030    2    1    2    0    0  0.00000000000E+00  0.00000000000E+00  0.33520147450E+03  0.59395821428E+03  0.49033287857E+03 0.  0.
        5    1    3    3  502    0 -0.21719908549E+03  0.11201914660E+03  0.14459295947E+03  0.28399462296E+03  0.46999998093E+01 0.  1.
       -5    1    3    3    0  502  0.21719908549E+03 -0.11201914660E+03  0.19060851503E+03  0.30996359132E+03  0.46999998093E+01 0. -1.
</event>
<event>
 5   0  0.3187123E-01  0.4989690E+03  0.7818609E-02  0.1014048E+00
       -2   -1    0    0    0  501  0.00000000000E+00  0.00000000000E+00  0.51944205290E+02  0.51944205353E+02  0.25500000920E-02 0.  1.
        2   -1    0    0  501    0  0.00000000000E+00  0.00000000000E+00 -0.11982573937E+04  0.11982573937E+04  0.25500000920E-02 0. -1.
    10030    2    1    2    0    0  0.00000000000E+00  0.00000000000E+00 -0.11463131884E+04  0.12502015991E+04  0.49896904950E+03 0.  0.
        5    1    3    3  502    0 -0.12345050760E+03 -0.19385185947E+03 -0.33020850341E+03  0.40234104559E+03  0.46999998093E+01 0.  1.
       -5    1    3    3    0  502  0.12345050760E+03  0.19385185947E+03 -0.81610468502E+03  0.84786055348E+03  0.46999998093E+01 0. -1.
</event>
<event>
 5   0  0.3187123E-01  0.4918239E+03  0.7818609E-02  0.1015935E+00
       -2   -1    0    0    0  501  0.00000000000E+00  0.00000000000E+00  0.17451980457E+03  0.17451980459E+03  0.25500000920E-02 0. -1.
        2   -1    0    0  501    0  0.00000000000E+00  0.00000000000E+00 -0.34650903081E+03  0.34650903081E+03  0.25500000920E-02 0.  1.
    10030    2    1    2    0    0  0.00000000000E+00  0.00000000000E+00 -0.17198922624E+03  0.52102883540E+03  0.49182390485E+03 0.  0.
        5    1    3    3  502    0  0.59990190120E+02  0.13773166263E+03  0.12019520988E+03  0.19245210386E+03  0.46999998093E+01 0. -1.
       -5    1    3    3    0  502 -0.59990190120E+02 -0.13773166263E+03 -0.29218443612E+03  0.32857673154E+03  0.46999998093E+01 0.  1.
</event>
<event>
 5   0  0.3187123E-01  0.5003984E+03  0.7818609E-02  0.1013675E+00
       -2   -1    0    0    0  501  0.00000000000E+00  0.00000000000E+00  0.86834378427E+02  0.86834378464E+02  0.25500000920E-02 0. -1.
        2   -1    0    0  501    0  0.00000000000E+00  0.00000000000E+00 -0.72090860420E+03  0.72090860421E+03  0.25500000920E-02 0.  1.
    10030    2    1    2    0    0  0.00000000000E+00  0.00000000000E+00 -0.63407422578E+03  0.80774298267E+03  0.50039844350E+03 0.  0.
        5    1    3    3  502    0 -0.24586013169E+01 -0.16297145403E+03 -0.62336023875E+03  0.64433362228E+03  0.46999998093E+01 0. -1.
       -5    1    3    3    0  502  0.24586013169E+01  0.16297145403E+03 -0.10713987029E+02  0.16340936039E+03  0.46999998093E+01 0.  1.
</event>
<event>
 5   0  0.2013450E-01  0.4922876E+03  0.7818609E-02  0.1015812E+00
        1   -1    0    0  501    0  0.00000000000E+00  0.00000000000E+00  0.12160108362E+04  0.12160108362E+04  0.50400001928E-02 0.  1.
       -1   -1    0    0    0  501  0.00000000000E+00  0.00000000000E+00 -0.49824212167E+02  0.49824212422E+02  0.50400001928E-02 0. -1.
    10030    2    1    2    0    0  0.00000000000E+00  0.00000000000E+00  0.11661866241E+04  0.12658350487E+04  0.49228764790E+03 0.  0.
        4    1    3    3  502    0  0.12017837797E+03  0.95700985927E+01  0.31299935164E+02  0.12456214578E+03  0.12699999809E+01 0. -1.
       -4    1    3    3    0  502 -0.12017837797E+03 -0.95700985927E+01  0.11348866889E+04  0.11412729029E+04  0.12699999809E+01 0.  1.
</event>
<event>
 5   0  0.3329246E-01  0.4903495E+03  0.7818609E-02  0.1016329E+00
        2   -1    0    0  501    0  0.00000000000E+00  0.00000000000E+00  0.11405708398E+03  0.11405708401E+03  0.25500000920E-02 0.  1.
       -2   -1    0    0    0  501  0.00000000000E+00  0.00000000000E+00 -0.52702255230E+03  0.52702255231E+03  0.25500000920E-02 0. -1.
    10030    2    1    2    0    0  0.00000000000E+00  0.00000000000E+00 -0.41296546832E+03  0.64107963632E+03  0.49034948973E+03 0.  0.
        2    1    3    3  502    0  0.50932381949E+02  0.23466577638E+03 -0.14178959813E+03  0.27886631973E+03  0.25500000920E-02 0. -1.
       -2    1    3    3    0  502 -0.50932381949E+02 -0.23466577638E+03 -0.27117587019E+03  0.36221331659E+03  0.25500000920E-02 0.  1.
</event>
<event>
 5   0  0.3178149E-01  0.5164533E+03  0.7818609E-02  0.1009571E+00
       -2   -1    0    0    0  501  0.00000000000E+00  0.00000000000E+00  0.65590700549E+02  0.65590700598E+02  0.25500000920E-02 0.  1.
        2   -1    0    0  501    0  0.00000000000E+00  0.00000000000E+00 -0.10166228747E+04  0.10166228747E+04  0.25500000920E-02 0. -1.
    10030    2    1    2    0    0  0.00000000000E+00  0.00000000000E+00 -0.95103217418E+03  0.10822135753E+04  0.51645331474E+03 0.  0.
        3    1    3    3  502    0 -0.22534462036E+01 -0.21332198227E+02  0.63720439197E+02  0.67234256696E+02  0.10100000352E+00 0.  1.
       -3    1    3    3    0  502  0.22534462036E+01  0.21332198227E+02 -0.10147526134E+04  0.10149793186E+04  0.10100000352E+00 0. -1.
</event>
<event>
 5   0  0.1967161E-01  0.4599546E+03  0.7818609E-02  0.1024794E+00
        1   -1    0    0  501    0  0.00000000000E+00  0.00000000000E+00  0.48103195251E+03  0.48103195254E+03  0.50400001928E-02 0.  1.
       -1   -1    0    0    0  501  0.00000000000E+00  0.00000000000E+00 -0.10995021298E+03  0.10995021309E+03  0.50400001928E-02 0. -1.
    10030    2    1    2    0    0  0.00000000000E+00  0.00000000000E+00  0.37108173953E+03  0.59098216563E+03  0.45995463111E+03 0.  0.
        1    1    3    3  502    0  0.68900233577E+02  0.21382376232E+03  0.12231110969E+03  0.25578868446E+03  0.50400001928E-02 0. -1.
       -1    1    3    3    0  502 -0.68900233577E+02 -0.21382376232E+03  0.24877062984E+03  0.33519348117E+03  0.50400001928E-02 0.  1.
</event>
<event>
 5   0  0.3178149E-01  0.5000723E+03  0.7818609E-02  0.1013760E+00
       -2   -1    0    0    0  501  0.00000000000E+00  0.00000000000E+00  0.20123707801E+03  0.20123707803E+03  0.25500000920E-02 0. -1.
        2   -1    0    0  501    0  0.00000000000E+00  0.00000000000E+00 -0.31066872809E+03  0.31066872810E+03  0.25500000920E-02 0.  1.
    10030    2    1    2    0    0  0.00000000000E+00  0.00000000000E+00 -0.10943165008E+03  0.51190580613E+03  0.50007226309E+03 0.  0.
        3    1    3    3  502    0  0.15264863062E+03  0.16210996930E+03  0.61715782495E+02  0.23106296671E+03  0.10100000352E+00 0. -1.
       -3    1    3    3    0  502 -0.15264863062E+03 -0.16210996930E+03 -0.17114743257E+03  0.28084283942E+03  0.10100000352E+00 0.  1.
</event>
<event>
 5   0  0.2013450E-01  0.5051630E+03  0.7818609E-02  0.1012440E+00
       -1   -1    0    0    0  501  0.00000000000E+00  0.00000000000E+00  0.96534386520E+02  0.96534386652E+02  0.50400001928E-02 0. -1.
        1   -1    0    0  501    0  0.00000000000E+00  0.00000000000E+00 -0.66087755374E+03  0.66087755376E+03  0.50400001928E-02 0.  1.
    10030    2    1    2    0    0  0.00000000000E+00  0.00000000000E+00 -0.56434316722E+03  0.75741194041E+03  0.50516298072E+03 0.  0.
        4    1    3    3  502    0 -0.67044530283E+02  0.11455760126E+03 -0.60436398226E+03  0.61876962514E+03  0.12699999809E+01 0.  1.
       -4    1    3    3    0  502  0.67044530283E+02 -0.11455760126E+03  0.40020815040E+02  0.13864231527E+03  0.12699999809E+01 0. -1.
</event>
<event>
 5   0  0.3187123E-01  0.5260054E+03  0.7818609E-02  0.1007206E+00
       -2   -1    0    0    0  501  0.00000000000E+00  0.00000000000E+00  0.10405973609E+03  0.10405973612E+03  0.25500000920E-02 0.  1.
        2   -1    0    0  501    0  0.00000000000E+00  0.00000000000E+00 -0.66471830738E+03  0.66471830739E+03  0.25500000920E-02 0. -1.
    10030    2    1    2    0    0  0.00000000000E+00  0.00000000000E+00 -0.56065857130E+03  0.76877804351E+03  0.52600536747E+03 0.  0.
        5    1    3    3  502    0  0.13101919848E+03 -0.82285447614E+02 -0.59109618586E+03  0.61102677208E+03  0.46999998093E+01 0. -1.
       -5    1    3    3    0  502 -0.13101919848E+03  0.82285447614E+02  0.30437614558E+02  0.15775127143E+03  0.46999998093E+01 0.  1.
</event>
<event>
 5   0  0.1984297E-01  0.4713324E+03  0.7818609E-02  0.1021545E+00
        1   -1    0    0  501    0  0.00000000000E+00  0.00000000000E+00  0.49558302611E+03  0.49558302613E+03  0.50400001928E-02 0. -1.
       -1   -1    0    0    0  501  0.00000000000E+00  0.00000000000E+00 -0.11206711695E+03  0.11206711706E+03  0.50400001928E-02 0.  1.
    10030    2    1    2    0    0  0.00000000000E+00  0.00000000000E+00  0.38351590916E+03  0.60765014319E+03  0.47133241343E+03 0.  0.
        3    1    3    3  502    0  0.17289271898E+02  0.23139767533E+03  0.24483158865E+03  0.33732227925E+03  0.10100000352E+00 0. -1.
       -3    1    3    3    0  502 -0.17289271898E+02 -0.23139767533E+03  0.13868432051E+03  0.27032786395E+03  0.10100000352E+00 0.  1.
</event>
<event>
 5   0  0.3329246E-01  0.4991090E+03  0.7818609E-02  0.1014012E+00
       -2   -1    0    0    0  501  0.00000000000E+00  0.00000000000E+00  0.26956193207E+02  0.26956193328E+02  0.25500000920E-02 0.  1.
        2   -1    0    0  501    0  0.00000000000E+00  0.00000000000E+00 -0.23103209683E+04  0.23103209683E+04  0.25500000920E-02 0. -1.
    10030    2    1    2    0    0  0.00000000000E+00  0.00000000000E+00 -0.22833647751E+04  0.23372771616E+04  0.49910904033E+03 0.  0.
        2    1    3    3  502    0 -0.88020330251E+02  0.64874917032E+02 -0.91197157310E+02  0.14238418067E+03  0.25500000920E-02 0.  1.
       -2    1    3    3    0  502  0.88020330251E+02 -0.64874917032E+02 -0.21921676178E+04  0.21948929810E+04  0.25500000920E-02 0. -1.
</event>
<event>
 5   0  0.1984680E-01  0.4912816E+03  0.7818609E-02  0.1016080E+00
       -1   -1    0    0    0  501  0.00000000000E+00  0.00000000000E+00  0.10078382273E+03  0.10078382285E+03  0.50400001928E-02 0. -1.
        1   -1    0    0  501    0  0.00000000000E+00  0.00000000000E+00 -0.59870136002E+03  0.59870136004E+03  0.50400001928E-02 0.  1.
    10030    2    1    2    0    0  0.00000000000E+00  0.00000000000E+00 -0.49791753729E+03  0.69948518289E+03  0.49128163729E+03 0.  0.
        5    1    3    3  502    0  0.12079054065E+03  0.53413345691E+02  0.45853054210E+02  0.13988542736E+03  0.46999998093E+01 0. -1.
       -5    1    3    3    0  502 -0.12079054065E+03 -0.53413345691E+02 -0.54377059150E+03  0.55959975553E+03  0.46999998093E+01 0.  1.
</event>
<event>
 5   0  0.2000612E-01  0.4974475E+03  0.7818609E-02  0.1014447E+00
        1   -1    0    0  501    0  0.00000000000E+00  0.00000000000E+00  0.11138364859E+03  0.11138364870E+03  0.50400001928E-02 0. -1.
       -1   -1    0    0    0  501  0.00000000000E+00  0.00000000000E+00 -0.55540928947E+03  0.55540928950E+03  0.50400001928E-02 0.  1.
    10030    2    1    2    0    0  0.00000000000E+00  0.00000000000E+00 -0.44402564088E+03  0.66679293820E+03  0.49744753761E+03 0.  0.
        2    1    3    3  502    0  0.20159202608E+03  0.23453254998E+02 -0.41474629429E+03  0.46174006625E+03  0.25500000920E-02 0.  1.
       -2    1    3    3    0  502 -0.20159202608E+03 -0.23453254998E+02 -0.29279346598E+02  0.20505287195E+03  0.25500000920E-02 0. -1.
</event>
<event>
 5   0  0.1984680E-01  0.5036051E+03  0.7818609E-02  0.1012842E+00
        1   -1    0    0  501    0  0.00000000000E+00  0.00000000000E+00  0.68528957878E+03  0.68528957880E+03  0.50400001928E-02 0.  1.
       -1   -1    0    0    0  501  0.00000000000E+00  0.00000000000E+00 -0.92522219495E+02  0.92522219632E+02  0.50400001928E-02 0. -1.
    10030    2    1    2    0    0  0.00000000000E+00  0.00000000000E+00  0.59276735929E+03  0.77781179843E+03  0.50360505512E+03 0.  0.
        5    1    3    3  502    0  0.64777774194E+02 -0.69520369906E+02 -0.63694603212E+02  0.11449163436E+03  0.46999998093E+01 0. -1.
       -5    1    3    3    0  502 -0.64777774194E+02  0.69520369906E+02  0.65646196250E+03  0.66332016407E+03  0.46999998093E+01 0.  1.
</event>
<event>
 5   0  0.3187123E-01  0.4412997E+03  0.7818609E-02  0.1030349E+00
        2   -1    0    0  501    0  0.00000000000E+00  0.00000000000E+00  0.12813133006E+04  0.12813133006E+04  0.25500000920E-02 0. -1.
       -2   -1    0    0    0  501  0.00000000000E+00  0.00000000000E+00 -0.37997227099E+02  0.37997227184E+02  0.25500000920E-02 0.  1.
    10030    2    1    2    0    0  0.00000000000E+00  0.00000000000E+00  0.12433160735E+04  0.13193105278E+04  0.44129968288E+03 0.  0.
        5    1    3    3  502    0  0.69536836247E+01 -0.21511156355E+03  0.47695004491E+03  0.52328269017E+03  0.46999998093E+01 0.  1.
       -5    1    3    3    0  502 -0.69536836247E+01  0.21511156355E+03  0.76636602861E+03  0.79602783764E+03  0.46999998093E+01 0. -1.
</event>
<event>
 5   0  0.1984680E-01  0.5130317E+03  0.7818609E-02  0.1010432E+00
        1   -1    0    0  501    0  0.00000000000E+00  0.00000000000E+00  0.13968372357E+03  0.13968372366E+03  0.50400001928E-02 0.  1.
       -1   -1    0    0    0  501  0.00000000000E+00  0.00000000000E+00 -0.47106688205E+03  0.47106688207E+03  0.50400001928E-02 0. -1.
    10030    2    1    2    0    0  0.00000000000E+00  0.00000000000E+00 -0.33138315847E+03  0.61075060574E+03  0.51303168000E+03 0.  0.
        5    1    3    3  502    0  0.19184050269E+03  0.97826386102E+02  0.14571638864E+00  0.21539473420E+03  0.46999998093E+01 0.  1.
       -5    1    3    3    0  502 -0.19184050269E+03 -0.97826386102E+02 -0.33152887486E+03  0.39535587153E+03  0.46999998093E+01 0. -1.
</event>
<event>
 5   0  0.3111146E-01  0.4900482E+03  0.7818609E-02  0.1016410E+00
        2   -1    0    0  501    0  0.00000000000E+00  0.00000000000E+00  0.12206730791E+04  0.12206730791E+04  0.25500000920E-02 0. -1.
       -2   -1    0    0    0  501  0.00000000000E+00  0.00000000000E+00 -0.49183365389E+02  0.49183365455E+02  0.25500000920E-02 0.  1.
    10030    2    1    2    0    0  0.00000000000E+00  0.00000000000E+00  0.11714897137E+04  0.12698564446E+04  0.49004820218E+03 0.  0.
        1    1    3    3  502    0 -0.81521667718E+02 -0.16878260966E+03  0.17681797686E+03  0.25767799401E+03  0.50400001928E-02 0.  1.
       -1    1    3    3    0  502  0.81521667718E+02  0.16878260966E+03  0.99467173686E+03  0.10121784506E+04  0.50400001928E-02 0. -1.
</event>
<event>
 5   0  0.3187123E-01  0.5199742E+03  0.7818609E-02  0.1008693E+00
       -2   -1    0    0    0  501  0.00000000000E+00  0.00000000000E+00  0.59108969819E+02  0.59108969874E+02  0.25500000920E-02 0. -1.
        2   -1    0    0  501    0  0.00000000000E+00  0.00000000000E+00 -0.11435367600E+04  0.11435367600E+04  0.25500000920E-02 0.  1.
    10030    2    1    2    0    0  0.00000000000E+00  0.00000000000E+00 -0.10844277902E+04  0.12026457299E+04  0.51997415270E+03 0.  0.
        5    1    3    3  502    0  0.19868768419E+03  0.14584387374E+03 -0.73327581908E+03  0.77360374107E+03  0.46999998093E+01 0.  1.
       -5    1    3    3    0  502 -0.19868768419E+03 -0.14584387374E+03 -0.35115197112E+03  0.42904198882E+03  0.46999998093E+01 0. -1.
</event>
<event>
 5   0  0.3187123E-01  0.4970627E+03  0.7818609E-02  0.1014548E+00
       -2   -1    0    0    0  501  0.00000000000E+00  0.00000000000E+00  0.51146023052E+03  0.51146023053E+03  0.25500000920E-02 0. -1.
        2   -1    0    0  501    0  0.00000000000E+00  0.00000000000E+00 -0.12076759598E+03  0.12076759601E+03  0.25500000920E-02 0.  1.
    10030    2    1    2    0    0  0.00000000000E+00  0.00000000000E+00  0.39069263454E+03  0.63222782653E+03  0.49706266200E+03 0.  0.
        5    1    3    3  502    0  0.19547429923E+03 -0.13383283733E+03  0.99957645816E+02  0.25716735984E+03  0.46999998093E+01 0. -1.
       -5    1    3    3    0  502 -0.19547429923E+03  0.13383283733E+03  0.29073498872E+03  0.37506046669E+03  0.46999998093E+01 0.  1.
</event>
<event>
 5   0  0.1984297E-01  0.5097085E+03  0.7818609E-02  0.1011275E+00
        1   -1    0    0  501    0  0.00000000000E+00  0.00000000000E+00  0.35062478918E+03  0.35062478921E+03  0.50400001928E-02 0. -1.
       -1   -1    0    0    0  501  0.00000000000E+00  0.00000000000E+00 -0.18524274681E+03  0.18524274688E+03  0.50400001928E-02 0.  1.
    10030    2    1    2    0    0  0.00000000000E+00  0.00000000000E+00  0.16538204237E+03  0.53586753609E+03  0.50970854054E+03 0.  0.
        3    1    3    3  502    0 -0.43322010169E+02 -0.19986887115E+03 -0.77187036930E+02  0.21859142502E+03  0.10100000352E+00 0.  1.
       -3    1    3    3    0  502  0.43322010169E+02  0.19986887115E+03  0.24256907930E+03  0.31727611107E+03  0.10100000352E+00 0. -1.
</event>
<event>
 5   0  0.1984680E-01  0.4662671E+03  0.7818609E-02  0.1022979E+00
        1   -1    0    0  501    0  0.00000000000E+00  0.00000000000E+00  0.15560720526E+04  0.15560720526E+04  0.50400001928E-02 0. -1.
       -1   -1    0    0    0  501  0.00000000000E+00  0.00000000000E+00 -0.34928491628E+02  0.34928491991E+02  0.50400001928E-02 0.  1.
    10030    2    1    2    0    0  0.00000000000E+00  0.00000000000E+00  0.15211435610E+04  0.15910005446E+04  0.46626709066E+03 0.  0.
        5    1    3    3  502    0  0.19339464902E+03  0.93841154306E+02  0.10680779886E+04  0.10895046270E+04  0.46999998093E+01 0. -1.
       -5    1    3    3    0  502 -0.19339464902E+03 -0.93841154306E+02  0.45306557243E+03  0.50149591766E+03  0.46999998093E+01 0.  1.
</event>
<event>
 5   0  0.3187123E-01  0.4995126E+03  0.7818609E-02  0.1013906E+00
       -2   -1    0    0    0  501  0.00000000000E+00  0.00000000000E+00  0.37295506553E+03  0.37295506554E+03  0.25500000920E-02 0.  1.
        2   -1    0    0  501    0  0.00000000000E+00  0.00000000000E+00 -0.16725397840E+03  0.16725397842E+03  0.25500000920E-02 0. -1.
    10030    2    1    2    0    0  0.00000000000E+00  0.00000000000E+00  0.20570108713E+03  0.54020904396E+03  0.49951263641E+03 0.  0.
        5    1    3    3  502    0  0.12717316308E+03 -0.76351230613E+01 -0.12941389091E+03  0.18166274706E+03  0.46999998093E+01 0. -1.
       -5    1    3    3    0  502 -0.12717316308E+03  0.76351230613E+01  0.33511497804E+03  0.35854629690E+03  0.46999998093E+01 0.  1.
</event>
<event>
 5   0  0.2000612E-01  0.4374469E+03  0.7818609E-02  0.1031533E+00
       -1   -1    0    0    0  501  0.00000000000E+00  0.00000000000E+00  0.90124135559E+02  0.90124135700E+02  0.50400001928E-02 0.  1.
        1   -1    0    0  501    0  0.00000000000E+00  0.00000000000E+00 -0.53082269821E+03  0.53082269823E+03  0.50400001928E-02 0. -1.
    10030    2    1    2    0    0  0.00000000000E+00  0.00000000000E+00 -0.44069856265E+03  0.62094683393E+03  0.43744685100E+03 0.  0.
        2    1    3    3  502    0  0.29076989346E+02 -0.11907508292E+03 -0.47748904008E+03  0.49297071930E+03  0.25500000920E-02 0. -1.
       -2    1    3    3    0  502 -0.29076989346E+02  0.11907508292E+03  0.36790477430E+02  0.12797611464E+03  0.25500000920E-02 0.  1.
</event>
<event>
 5   0  0.3111146E-01  0.5025783E+03  0.7818609E-02  0.1013108E+00
       -2   -1    0    0    0  501  0.00000000000E+00  0.00000000000E+00  0.68612738395E+02  0.68612738442E+02  0.25500000920E-02 0. -1.
        2   -1    0    0  501    0  0.00000000000E+00  0.00000000000E+00 -0.92032824871E+03  0.92032824872E+03  0.25500000920E-02 0.  1.
    10030    2    1    2    0    0  0.00000000000E+00  0.00000000000E+00 -0.85171551032E+03  0.98894098716E+03  0.50257831784E+03 0.  0.
        1    1    3    3  502    0 -0.87652881830E+02  0.18429094634E+02  0.36135190710E+02  0.96583700774E+02  0.50400001928E-02 0. -1.
       -1    1    3    3    0  502  0.87652881830E+02 -0.18429094634E+02 -0.88785070103E+03  0.89235728638E+03  0.50400001928E-02 0.  1.
</event>
<event>
 5   0  0.1984680E-01  0.4976147E+03  0.7818609E-02  0.1014403E+00
       -1   -1    0    0    0  501  0.00000000000E+00  0.00000000000E+00  0.10367928683E+03  0.10367928695E+03  0.50400001928E-02 0. -1.
        1   -1    0    0  501    0  0.00000000000E+00  0.00000000000E+00 -0.59708264385E+03  0.59708264387E+03  0.50400001928E-02 0.  1.
    10030    2    1    2    0    0  0.00000000000E+00  0.00000000000E+00 -0.49340335702E+03  0.70076193082E+03  0.49761472141E+03 0.  0.
        5    1    3    3  502    0 -0.23468214190E+03 -0.64714876652E+02 -0.17462926712E+03  0.29963510128E+03  0.46999998093E+01 0.  1.
       -5    1    3    3    0  502  0.23468214190E+03  0.64714876652E+02 -0.31877408990E+03  0.40112682954E+03  0.46999998093E+01 0. -1.
</event>
<event>
 5   0  0.1967161E-01  0.5057364E+03  0.7818609E-02  0.1012292E+00
       -1   -1    0    0    0  501  0.00000000000E+00  0.00000000000E+00  0.33886704071E+02  0.33886704445E+02  0.50400001928E-02 0.  1.
        1   -1    0    0  501    0  0.00000000000E+00  0.00000000000E+00 -0.18869442581E+04  0.18869442581E+04  0.50400001928E-02 0. -1.
    10030    2    1    2    0    0  0.00000000000E+00  0.00000000000E+00 -0.18530575540E+04  0.19208309626E+04  0.50573638208E+03 0.  0.
        1    1    3    3  502    0  0.17636106958E+02  0.28007439055E+02 -0.18786818811E+04  0.18789734056E+04  0.50400001928E-02 0. -1.
       -1    1    3    3    0  502 -0.17636106958E+02 -0.28007439055E+02  0.25624327009E+02  0.41857556918E+02  0.50400001928E-02 0.  1.
</event>
<event>
 5   0  0.1967161E-01  0.4899095E+03  0.7818609E-02  0.1016447E+00
        1   -1    0    0  501    0  0.00000000000E+00  0.00000000000E+00  0.69426816138E+02  0.69426816321E+02  0.50400001928E-02 0.  1.
       -1   -1    0    0    0  501  0.00000000000E+00  0.00000000000E+00 -0.86426028941E+03  0.86426028942E+03  0.50400001928E-02 0. -1.
    10030    2    1    2    0    0  0.00000000000E+00  0.00000000000E+00 -0.79483347327E+03  0.93368710574E+03  0.48990954390E+03 0.  0.
        1    1    3    3  502    0 -0.12644484799E+03 -0.20374817340E+03 -0.49273181888E+03  0.54798381647E+03  0.50400001928E-02 0.  1.
       -1    1    3    3    0  502  0.12644484799E+03  0.20374817340E+03 -0.30210165439E+03  0.38570328928E+03  0.50400001928E-02 0. -1.
</event>
<event>
 5   0  0.2000612E-01  0.5003255E+03  0.7818609E-02  0.1013694E+00
       -1   -1    0    0    0  501  0.00000000000E+00  0.00000000000E+00  0.41185448667E+03  0.41185448670E+03  0.50400001928E-02 0. -1.
        1   -1    0    0  501    0  0.00000000000E+00  0.00000000000E+00 -0.15195025602E+03  0.15195025610E+03  0.50400001928E-02 0.  1.
    10030    2    1    2    0    0  0.00000000000E+00  0.00000000000E+00  0.25990423065E+03  0.56380474280E+03  0.50032547296E+03 0.  0.
        2    1    3    3  502    0 -0.21731370693E+03  0.26383351170E+02  0.26639285879E+03  0.34479919324E+03  0.25500000920E-02 0. -1.
       -2    1    3    3    0  502  0.21731370693E+03 -0.26383351170E+02 -0.64886281452E+01  0.21900554956E+03  0.25500000920E-02 0.  1.
</event>
<event>
 5   0  0.3117389E-01  0.4979291E+03  0.7818609E-02  0.1014321E+00
        2   -1    0    0  501    0  0.00000000000E+00  0.00000000000E+00  0.45096171121E+03  0.45096171122E+03  0.25500000920E-02 0. -1.
       -2   -1    0    0    0  501  0.00000000000E+00  0.00000000000E+00 -0.13744700776E+03  0.13744700778E+03  0.25500000920E-02 0.  1.
    10030    2    1    2    0    0  0.00000000000E+00  0.00000000000E+00  0.31351470345E+03  0.58840871900E+03  0.49792906253E+03 0.  0.
        4    1    3    3  502    0 -0.35607564283E+01 -0.14795708169E+03  0.39332931755E+03  0.42025413972E+03  0.12699999809E+01 0. -1.
       -4    1    3    3    0  502  0.35607564283E+01  0.14795708169E+03 -0.79814614096E+02  0.16815457928E+03  0.12699999809E+01 0.  1.
</event>
<event>
 5   0  0.3178149E-01  0.5194096E+03  0.7818609E-02  0.1008833E+00
       -2   -1    0    0    0  501  0.00000000000E+00  0.00000000000E+00  0.27190787728E+02  0.27190787848E+02  0.25500000920E-02 0.  1.
        2   -1    0    0  501    0  0.00000000000E+00  0.00000000000E+00 -0.24804941249E+04  0.24804941249E+04  0.25500000920E-02 0. -1.
    10030    2    1    2    0    0  0.00000000000E+00  0.00000000000E+00 -0.24533033371E+04  0.25076849127E+04  0.51940962394E+03 0.  0.
        3    1    3    3  502    0  0.59024478112E+01 -0.24038517217E+03 -0.17003500523E+04  0.17172682319E+04  0.10100000352E+00 0. -1.
       -3    1    3    3    0  502 -0.59024478112E+01  0.24038517217E+03 -0.75295328483E+03  0.79041668077E+03  0.10100000352E+00 0.  1.
</event>
<event>
 5   0  0.2013450E-01  0.5089082E+03  0.7818609E-02  0.1011480E+00
        1   -1    0    0  501    0  0.00000000000E+00  0.00000000000E+00  0.68700131767E+03  0.68700131769E+03  0.50400001928E-02 0.  1.
       -1   -1    0    0    0  501  0.00000000000E+00  0.00000000000E+00 -0.94245642391E+02  0.94245642526E+02  0.50400001928E-02 0. -1.
    10030    2    1    2    0    0  0.00000000000E+00  0.00000000000E+00  0.59275567528E+03  0.78124696021E+03  0.50890816683E+03 0.  0.
        4    1    3    3  502    0  0.23056311286E+03 -0.19856642489E+02  0.45878143267E+03  0.51384399493E+03  0.12699999809E+01 0.  1.
       -4    1    3    3    0  502 -0.23056311286E+03  0.19856642489E+02  0.13397424261E+03  0.26740296529E+03  0.12699999809E+01 0. -1.
</event>
<event>
 5   0  0.3187123E-01  0.4940060E+03  0.7818609E-02  0.1015355E+00
        2   -1    0    0  501    0  0.00000000000E+00  0.00000000000E+00  0.96643083338E+03  0.96643083338E+03  0.25500000920E-02 0.  1.
       -2   -1    0    0    0  501  0.00000000000E+00  0.00000000000E+00 -0.63129683132E+02  0.63129683184E+02  0.25500000920E-02 0. -1.
    10030    2    1    2    0    0  0.00000000000E+00  0.00000000000E+00  0.90330115025E+03  0.10295605166E+04  0.49400596073E+03 0.  0.
        5    1    3    3  502    0 -0.23647565489E+03 -0.70269106172E+02  0.42789728787E+03  0.49393993724E+03  0.46999998093E+01 0. -1.
       -5    1    3    3    0  502  0.23647565489E+03  0.70269106172E+02  0.47540386237E+03  0.53562057932E+03  0.46999998093E+01 0.  1.
</event>
<event>
 5   0  0.3178149E-01  0.4976885E+03  0.7818609E-02  0.1014384E+00
       -2   -1    0    0    0  501  0.00000000000E+00  0.00000000000E+00  0.40140595872E+03  0.40140595873E+03  0.25500000920E-02 0. -1.
        2   -1    0    0  501    0  0.00000000000E+00  0.00000000000E+00 -0.15426640001E+03  0.15426640004E+03  0.25500000920E-02 0.  1.
    10030    2    1    2    0    0  0.00000000000E+00  0.00000000000E+00  0.24713955870E+03  0.55567235876E+03  0.49768846562E+03 0.  0.
        3    1    3    3  502    0 -0.75633991615E+02 -0.12699188746E+03 -0.99943541993E+02  0.17842690928E+03  0.10100000352E+00 0.  1.
       -3    1    3    3    0  502  0.75633991615E+02  0.12699188746E+03  0.34708310070E+03  0.37724544948E+03  0.10100000352E+00 0. -1.
</event>
<event>
 5   0  0.3117389E-01  0.5084724E+03  0.7818609E-02  0.1011591E+00
        2   -1    0    0  501    0  0.00000000000E+00  0.00000000000E+00  0.39804969334E+03  0.39804969335E+03  0.25500000920E-02 0.  1.
       -2   -1    0    0    0  501  0.00000000000E+00  0.00000000000E+00 -0.16238184238E+03  0.16238184240E+03  0.25500000920E-02 0. -1.
    10030    2    1    2    0    0  0.00000000000E+00  0.00000000000E+00  0.23566785096E+03  0.56043153575E+03  0.50847238891E+03 0.  0.
        4    1    3    3  502    0 -0.62106505887E+02  0.20935516228E+03 -0.25652113564E+02  0.21987825240E+03  0.12699999809E+01 0.  1.
       -4    1    3    3    0  502  0.62106505887E+02 -0.20935516228E+03  0.26131996452E+03  0.34055328336E+03  0.12699999809E+01 0. -1.
</event>
<event>
 5   0  0.3329246E-01  0.4520951E+03  0.7818609E-02  0.1027099E+00
        2   -1    0    0  501    0  0.00000000000E+00  0.00000000000E+00  0.71666616403E+03  0.71666616404E+03  0.25500000920E-02 0.  1.
       -2   -1    0    0    0  501  0.00000000000E+00  0.00000000000E+00 -0.71298870998E+02  0.71298871044E+02  0.25500000920E-02 0. -1.
    10030    2    1    2    0    0  0.00000000000E+00  0.00000000000E+00  0.64536729304E+03  0.78796503508E+03  0.45209507141E+03 0.  0.
        2    1    3    3  502    0 -0.51462329468E+02 -0.84134324479E+02 -0.31821651091E+02  0.10363191301E+03  0.25500000920E-02 0. -1.
       -2    1    3    3    0  502  0.51462329468E+02  0.84134324479E+02  0.67718894413E+03  0.68433312207E+03  0.25500000920E-02 0.  1.
</event>
<event>
 5   0  0.3329246E-01  0.4963828E+03  0.7818609E-02  0.1014727E+00
        2   -1    0    0  501    0  0.00000000000E+00  0.00000000000E+00  0.18586256257E+03  0.18586256258E+03  0.25500000920E-02 0. -1.
       -2   -1    0    0    0  501  0.00000000000E+00  0.00000000000E+00 -0.33142212242E+03  0.33142212243E+03  0.25500000920E-02 0.  1.
    10030    2    1    2    0    0  0.00000000000E+00  0.00000000000E+00 -0.14555955985E+03  0.51728468501E+03  0.49638277557E+03 0.  0.
        2    1    3    3  502    0 -0.11063821642E+03 -0.11502374271E-01  0.15874226720E+03  0.19349398561E+03  0.25500000920E-02 0. -1.
       -2    1    3    3    0  502  0.11063821642E+03  0.11502374271E-01 -0.30430182705E+03  0.32379069940E+03  0.25500000920E-02 0.  1.
</event>
<event>
 5   0  0.3329246E-01  0.5164578E+03  0.7818609E-02  0.1009570E+00
        2   -1    0    0  501    0  0.00000000000E+00  0.00000000000E+00  0.65293179475E+03  0.65293179476E+03  0.25500000920E-02 0.  1.
       -2   -1    0    0    0  501  0.00000000000E+00  0.00000000000E+00 -0.10212731346E+03  0.10212731349E+03  0.25500000920E-02 0. -1.
    10030    2    1    2    0    0  0.00000000000E+00  0.00000000000E+00  0.55080448129E+03  0.75505910825E+03  0.51645782048E+03 0.  0.
        2    1    3    3  502    0  0.37363926995E+02  0.14761692081E+03  0.58030932582E+03  0.59995477495E+03  0.25500000920E-02 0.  1.
       -2    1    3    3    0  502 -0.37363926995E+02 -0.14761692081E+03 -0.29504844530E+02  0.15510433329E+03  0.25500000920E-02 0. -1.
</event>
<event>
 5   0  0.3178149E-01  0.5051899E+03  0.7818609E-02  0.1012433E+00
       -2   -1    0    0    0  501  0.00000000000E+00  0.00000000000E+00  0.55371473684E+02  0.55371473743E+02  0.25500000920E-02 0.  1.
        2   -1    0    0  501    0  0.00000000000E+00  0.00000000000E+00 -0.11522937905E+04  0.11522937905E+04  0.25500000920E-02 0. -1.
    10030    2    1    2    0    0  0.00000000000E+00  0.00000000000E+00 -0.10969223168E+04  0.12076652643E+04  0.50518988642E+03 0.  0.
        3    1    3    3  502    0  0.12048722171E+03  0.20271785549E+03 -0.76483264848E+03  0.80036284891E+03  0.10100000352E+00 0. -1.
       -3    1    3    3    0  502 -0.12048722171E+03 -0.20271785549E+03 -0.33208966836E+03  0.40730241537E+03  0.10100000352E+00 0.  1.
</event>
<event>
 5   0  0.3117389E-01  0.4959776E+03  0.7818609E-02  0.1014834E+00
       -2   -1    0    0    0  501  0.00000000000E+00  0.00000000000E+00  0.88565378448E+02  0.88565378484E+02  0.25500000920E-02 0.  1.
        2   -1    0    0  501    0  0.00000000000E+00  0.00000000000E+00 -0.69438469007E+03  0.69438469008E+03  0.25500000920E-02 0. -1.
    10030    2    1    2    0    0  0.00000000000E+00  0.00000000000E+00 -0.60581931163E+03  0.78295006856E+03  0.49597759176E+03 0.  0.
        4    1    3    3  502    0  0.10583340254E+03 -0.19264042496E+03 -0.48417928575E+03  0.53173511833E+03  0.12699999809E+01 0. -1.
       -4    1    3    3    0  502 -0.10583340254E+03  0.19264042496E+03 -0.12164002588E+03  0.25121495023E+03  0.12699999809E+01 0.  1.
</event>
<event>
 5   0  0.3111146E-01  0.4983624E+03  0.7818609E-02  0.1014207E+00
        2   -1    0    0  501    0  0.00000000000E+00  0.00000000000E+00  0.80880649171E+03  0.80880649171E+03  0.25500000920E-02 0.  1.
       -2   -1    0    0    0  501  0.00000000000E+00  0.00000000000E+00 -0.76769007222E+02  0.76769007264E+02  0.25500000920E-02 0. -1.
    10030    2    1    2    0    0  0.00000000000E+00  0.00000000000E+00  0.73203748449E+03  0.88557549898E+03  0.49836240397E+03 0.  0.
        1    1    3    3  502    0 -0.30817223213E+02  0.88187196391E+01  0.80512763766E+03  0.80576546465E+03  0.50400001928E-02 0.  1.
       -1    1    3    3    0  502  0.30817223213E+02 -0.88187196391E+01 -0.73090153178E+02  0.79810034329E+02  0.50400001928E-02 0. -1.
</event>
<event>
 5   0  0.2013450E-01  0.5189935E+03  0.7818609E-02  0.1008937E+00
        1   -1    0    0  501    0  0.00000000000E+00  0.00000000000E+00  0.73228627790E+03  0.73228627792E+03  0.50400001928E-02 0. -1.
       -1   -1    0    0    0  501  0.00000000000E+00  0.00000000000E+00 -0.91956599415E+02  0.91956599553E+02  0.50400001928E-02 0.  1.
    10030    2    1    2    0    0  0.00000000000E+00  0.00000000000E+00  0.64032967849E+03  0.82424287747E+03  0.51899347194E+03 0.  0.
        4    1    3    3  502    0  0.19895805797E+03 -0.12862108229E+03  0.15202074685E+03  0.28149531437E+03  0.12699999809E+01 0. -1.
       -4    1    3    3    0  502 -0.19895805797E+03  0.12862108229E+03  0.48830893163E+03  0.54274756310E+03  0.12699999809E+01 0.  1.
</event>
<event>
 5   0  0.1984297E-01  0.4833027E+03  0.7818609E-02  0.1018231E+00
        1   -1    0    0  501    0  0.00000000000E+00  0.00000000000E+00  0.15716981980E+03  0.15716981988E+03  0.50400001928E-02 0.  1.
       -1   -1    0    0    0  501  0.00000000000E+00  0.00000000000E+00 -0.37154316865E+03  0.37154316869E+03  0.50400001928E-02 0. -1.
    10030    2    1    2    0    0  0.00000000000E+00  0.00000000000E+00 -0.21437334886E+03  0.52871298856E+03  0.48330269146E+03 0.  0.
        3    1    3    3  502    0 -0.11825360074E+03  0.15380283614E+01 -0.33772156793E+03  0.35782977415E+03  0.10100000352E+00 0. -1.
       -3    1    3    3    0  502  0.11825360074E+03 -0.15380283614E+01  0.12334821908E+03  0.17088321442E+03  0.10100000352E+00 0.  1.
</event>
<event>
 5   0  0.2013450E-01  0.5191312E+03  0.7818609E-02  0.1008903E+00
        1   -1    0    0  501    0  0.00000000000E+00  0.00000000000E+00  0.40720471402E+03  0.40720471405E+03  0.50400001928E-02 0.  1.
       -1   -1    0    0    0  501  0.00000000000E+00  0.00000000000E+00 -0.16545559576E+03  0.16545559584E+03  0.50400001928E-02 0. -1.
    10030    2    1    2    0    0  0.00000000000E+00  0.00000000000E+00  0.24174911826E+03  0.57266030989E+03  0.51913119184E+03 0.  0.
        4    1    3    3  502    0  0.25299740975E+02 -0.99980861307E+02 -0.14188043911E+03  0.17540787161E+03  0.12699999809E+01 0. -1.
       -4    1    3    3    0  502 -0.25299740975E+02  0.99980861307E+02  0.38362955738E+03  0.39725243828E+03  0.12699999809E+01 0.  1.
</event>
<event>
 5   0  0.3117389E-01  0.4823274E+03  0.7818609E-02  0.1018497E+00
        2   -1    0    0  501    0  0.00000000000E+00  0.00000000000E+00  0.53829445503E+03  0.53829445503E+03  0.25500000920E-02 0. -1.
       -2   -1    0    0    0  501  0.00000000000E+00  0.00000000000E+00 -0.10804482291E+03  0.10804482294E+03  0.25500000920E-02 0.  1.
    10030    2    1    2    0    0  0.00000000000E+00  0.00000000000E+00  0.43024963212E+03  0.64633927797E+03  0.48232739535E+03 0.  0.
        4    1    3    3  502    0 -0.21737462334E+03  0.95316370507E+02  0.27231463998E+03  0.36123927446E+03  0.12699999809E+01 0.  1.
       -4    1    3    3    0  502  0.21737462334E+03 -0.95316370507E+02  0.15793499214E+03  0.28510000351E+03  0.12699999809E+01 0. -1.
</event>
<event>
 5   0  0.3329246E-01  0.4911447E+03  0.7818609E-02  0.1016116E+00
       -2   -1    0    0    0  501  0.00000000000E+00  0.00000000000E+00  0.98807804925E+02  0.98807804958E+02  0.25500000920E-02 0. -1.
        2   -1    0    0  501    0  0.00000000000E+00  0.00000000000E+00 -0.61033404778E+03  0.61033404779E+03  0.25500000920E-02 0.  1.
    10030    2    1    2    0    0  0.00000000000E+00  0.00000000000E+00 -0.51152624286E+03  0.70914185275E+03  0.49114465301E+03 0.  0.
        2    1    3    3  502    0  0.54758319164E+02 -0.36430261152E+02  0.85854802489E+02  0.10815121156E+03  0.25500000920E-02 0. -1.
       -2    1    3    3    0  502 -0.54758319164E+02  0.36430261152E+02 -0.59738104535E+03  0.60099064118E+03  0.25500000920E-02 0.  1.
</event>
<event>
 5   0  0.3329246E-01  0.3403077E+03  0.7818609E-02  0.1066665E+00
        2   -1    0    0  501    0  0.00000000000E+00  0.00000000000E+00  0.67961202063E+02  0.67961202111E+02  0.25500000920E-02 0.  1.
       -2   -1    0    0    0  501  0.00000000000E+00  0.00000000000E+00 -0.42601273980E+03  0.42601273981E+03  0.25500000920E-02 0. -1.
    10030    2    1    2    0    0  0.00000000000E+00  0.00000000000E+00 -0.35805153774E+03  0.49397394192E+03  0.34030773077E+03 0.  0.
        2    1    3    3  502    0 -0.13418406740E+03 -0.66188954700E+02 -0.61405399435E+02  0.16173114961E+03  0.25500000920E-02 0.  1.
       -2    1    3    3    0  502  0.13418406740E+03  0.66188954700E+02 -0.29664613831E+03  0.33224279231E+03  0.25500000920E-02 0. -1.
</event>
<event>
 5   0  0.3111146E-01  0.4738486E+03  0.7818609E-02  0.1020840E+00
       -2   -1    0    0    0  501  0.00000000000E+00  0.00000000000E+00  0.16684099465E+03  0.16684099467E+03  0.25500000920E-02 0.  1.
        2   -1    0    0  501    0  0.00000000000E+00  0.00000000000E+00 -0.33644684165E+03  0.33644684166E+03  0.25500000920E-02 0. -1.
    10030    2    1    2    0    0  0.00000000000E+00  0.00000000000E+00 -0.16960584701E+03  0.50328783633E+03  0.47384860753E+03 0.  0.
        1    1    3    3  502    0 -0.12206725575E+03 -0.44161233806E+02 -0.29531468443E+03  0.32258548070E+03  0.50400001928E-02 0. -1.
       -1    1    3    3    0  502  0.12206725575E+03  0.44161233806E+02  0.12570883742E+03  0.18070235563E+03  0.50400001928E-02 0.  1.
</event>
<event>
 5   0  0.3187123E-01  0.4946152E+03  0.7818609E-02  0.1015194E+00
        2   -1    0    0  501    0  0.00000000000E+00  0.00000000000E+00  0.52676853950E+03  0.52676853951E+03  0.25500000920E-02 0. -1.
       -2   -1    0    0    0  501  0.00000000000E+00  0.00000000000E+00 -0.11610610812E+03  0.11610610815E+03  0.25500000920E-02 0.  1.
    10030    2    1    2    0    0  0.00000000000E+00  0.00000000000E+00  0.41066243138E+03  0.64287464765E+03  0.49461518380E+03 0.  0.
        5    1    3    3  502    0  0.69950833668E+02 -0.23300933226E+03  0.14789934976E+03  0.28475037437E+03  0.46999998093E+01 0.  1.
       -5    1    3    3    0  502 -0.69950833668E+02  0.23300933226E+03  0.26276308162E+03  0.35812427328E+03  0.46999998093E+01 0. -1.
</event>
<event>
 5   0  0.2000612E-01  0.3473784E+03  0.7818609E-02  0.1063696E+00
       -1   -1    0    0    0  501  0.00000000000E+00  0.00000000000E+00  0.29597542564E+02  0.29597542993E+02  0.50400001928E-02 0. -1.
        1   -1    0    0  501    0  0.00000000000E+00  0.00000000000E+00 -0.10192719458E+04  0.10192719458E+04  0.50400001928E-02 0.  1.
    10030    2    1    2    0    0  0.00000000000E+00  0.00000000000E+00 -0.98967440321E+03  0.10488694888E+04  0.34737843935E+03 0.  0.
        2    1    3    3  502    0 -0.53625952052E+02 -0.52387362103E+00  0.39734279777E+01  0.53775508491E+02  0.25500000920E-02 0. -1.
       -2    1    3    3    0  502  0.53625952052E+02  0.52387362103E+00 -0.99364783118E+03  0.99509398029E+03  0.25500000920E-02 0.  1.
</event>
<event>
 5   0  0.1984297E-01  0.4825425E+03  0.7818609E-02  0.1018439E+00
       -1   -1    0    0    0  501  0.00000000000E+00  0.00000000000E+00  0.19323056730E+03  0.19323056737E+03  0.50400001928E-02 0. -1.
        1   -1    0    0  501    0  0.00000000000E+00  0.00000000000E+00 -0.30125572901E+03  0.30125572906E+03  0.50400001928E-02 0.  1.
    10030    2    1    2    0    0  0.00000000000E+00  0.00000000000E+00 -0.10802516171E+03  0.49448629643E+03  0.48254249739E+03 0.  0.
        3    1    3    3  502    0 -0.23897398319E+03 -0.29395300719E+02 -0.38165103031E+02  0.24378111829E+03  0.10100000352E+00 0. -1.
       -3    1    3    3    0  502  0.23897398319E+03  0.29395300719E+02 -0.69860058680E+02  0.25070517814E+03  0.10100000352E+00 0.  1.
</event>
<event>
 5   0  0.1967161E-01  0.4956253E+03  0.7818609E-02  0.1014927E+00
        1   -1    0    0  501    0  0.00000000000E+00  0.00000000000E+00  0.47254771564E+03  0.47254771567E+03  0.50400001928E-02 0.  1.
       -1   -1    0    0    0  501  0.00000000000E+00  0.00000000000E+00 -0.12995747320E+03  0.12995747330E+03  0.50400001928E-02 0. -1.
    10030    2    1    2    0    0  0.00000000000E+00  0.00000000000E+00  0.34259024244E+03  0.60250518897E+03  0.49562529043E+03 0.  0.
        1    1    3    3  502    0 -0.57962504605E+02  0.10218260176E+03 -0.93955984721E+02  0.15042826574E+03  0.50400001928E-02 0. -1.
       -1    1    3    3    0  502  0.57962504605E+02 -0.10218260176E+03  0.43654622716E+03  0.45207692323E+03  0.50400001928E-02 0.  1.
</event>
<event>
 5   0  0.2000612E-01  0.4969777E+03  0.7818609E-02  0.1014571E+00
       -1   -1    0    0    0  501  0.00000000000E+00  0.00000000000E+00  0.27063305985E+03  0.27063305989E+03  0.50400001928E-02 0. -1.
        1   -1    0    0  501    0  0.00000000000E+00  0.00000000000E+00 -0.22815652617E+03  0.22815652623E+03  0.50400001928E-02 0.  1.
    10030    2    1    2    0    0  0.00000000000E+00  0.00000000000E+00  0.42476533676E+02  0.49878958612E+03  0.49697766078E+03 0.  0.
        2    1    3    3  502    0  0.88898620066E+02 -0.12128502706E+03 -0.17730530682E+03  0.23248697656E+03  0.25500000920E-02 0.  1.
       -2    1    3    3    0  502 -0.88898620066E+02  0.12128502706E+03  0.21978184050E+03  0.26630260956E+03  0.25500000920E-02 0. -1.
</event>
<event>
 5   0  0.3178149E-01  0.4952990E+03  0.7818609E-02  0.1015013E+00
        2   -1    0    0  501    0  0.00000000000E+00  0.00000000000E+00  0.56782403799E+03  0.56782403799E+03  0.25500000920E-02 0.  1.
       -2   -1    0    0    0  501  0.00000000000E+00  0.00000000000E+00 -0.10800931796E+03  0.10800931799E+03  0.25500000920E-02 0. -1.
    10030    2    1    2    0    0  0.00000000000E+00  0.00000000000E+00  0.45981472003E+03  0.67583335598E+03  0.49529904936E+03 0.  0.
        3    1    3    3  502    0 -0.34650472122E+02  0.15216974183E+03 -0.32466337579E+02  0.15940626971E+03  0.10100000352E+00 0. -1.
       -3    1    3    3    0  502  0.34650472122E+02 -0.15216974183E+03  0.49228105761E+03  0.51642708627E+03  0.10100000352E+00 0.  1.
</event>
<event>
 5   0  0.2000612E-01  0.5631553E+03  0.7818609E-02  0.9984940E-01
       -1   -1    0    0    0  501  0.00000000000E+00  0.00000000000E+00  0.48334400103E+03  0.48334400106E+03  0.50400001928E-02 0.  1.
        1   -1    0    0  501    0  0.00000000000E+00  0.00000000000E+00 -0.16403634315E+03  0.16403634323E+03  0.50400001928E-02 0. -1.
    10030    2    1    2    0    0  0.00000000000E+00  0.00000000000E+00  0.31930765788E+03  0.64738034429E+03  0.56315533363E+03 0.  0.
        2    1    3    3  502    0 -0.17658141853E+03 -0.10830755795E+02 -0.92169629328E+02  0.19948319032E+03  0.25500000920E-02 0. -1.
       -2    1    3    3    0  502  0.17658141853E+03  0.10830755795E+02  0.41147728721E+03  0.44789715397E+03  0.25500000920E-02 0.  1.
</event>
<event>
 5   0  0.3187123E-01  0.5092684E+03  0.7818609E-02  0.1011388E+00
       -2   -1    0    0    0  501  0.00000000000E+00  0.00000000000E+00  0.33896462947E+02  0.33896463043E+02  0.25500000920E-02 0.  1.
        2   -1    0    0  501    0  0.00000000000E+00  0.00000000000E+00 -0.19128419491E+04  0.19128419491E+04  0.25500000920E-02 0. -1.
    10030    2    1    2    0    0  0.00000000000E+00  0.00000000000E+00 -0.18789454861E+04  0.19467384121E+04  0.50926840211E+03 0.  0.
        5    1    3    3  502    0  0.31069348107E+02 -0.15777841876E+03 -0.18498103672E+03  0.24515180555E+03  0.46999998093E+01 0.  1.
       -5    1    3    3    0  502 -0.31069348107E+02  0.15777841876E+03 -0.16939644494E+04  0.17015866066E+04  0.46999998093E+01 0. -1.
</event>
<event>
 5   0  0.3111146E-01  0.5064601E+03  0.7818609E-02  0.1012106E+00
       -2   -1    0    0    0  501  0.00000000000E+00  0.00000000000E+00  0.62627123066E+02  0.62627123117E+02  0.25500000920E-02 0. -1.
        2   -1    0    0  501    0  0.00000000000E+00  0.00000000000E+00 -0.10239247043E+04  0.10239247043E+04  0.25500000920E-02 0.  1.
    10030    2    1    2    0    0  0.00000000000E+00  0.00000000000E+00 -0.96129758125E+03  0.10865518274E+04  0.50646010108E+03 0.  0.
        1    1    3    3  502    0 -0.11324695977E+03 -0.95804232380E+02 -0.92096065721E+03  0.93283002578E+03  0.50400001928E-02 0.  1.
       -1    1    3    3    0  502  0.11324695977E+03  0.95804232380E+02 -0.40336924047E+02  0.15372180166E+03  0.50400001928E-02 0. -1.
</event>
<event>
 5   0  0.1984680E-01  0.5043297E+03  0.7818609E-02  0.1012655E+00
       -1   -1    0    0    0  501  0.00000000000E+00  0.00000000000E+00  0.33583440871E+02  0.33583441249E+02  0.50400001928E-02 0. -1.
        1   -1    0    0  501    0  0.00000000000E+00  0.00000000000E+00 -0.18934068064E+04  0.18934068064E+04  0.50400001928E-02 0.  1.
    10030    2    1    2    0    0  0.00000000000E+00  0.00000000000E+00 -0.18598233655E+04  0.19269902476E+04  0.50432971714E+03 0.  0.
        5    1    3    3  502    0  0.84985903059E+02  0.11206986724E+03 -0.13041519532E+03  0.19186576566E+03  0.46999998093E+01 0. -1.
       -5    1    3    3    0  502 -0.84985903059E+02 -0.11206986724E+03 -0.17294081702E+04  0.17351244820E+04  0.46999998093E+01 0.  1.
</event>
<event>
 5   0  0.1984297E-01  0.5100188E+03  0.7818609E-02  0.1011196E+00
       -1   -1    0    0    0  501  0.00000000000E+00  0.00000000000E+00  0.62841235474E+03  0.62841235476E+03  0.50400001928E-02 0.  1.
        1   -1    0    0  501    0  0.00000000000E+00  0.00000000000E+00 -0.10348268230E+03  0.10348268242E+03  0.50400001928E-02 0. -1.
    10030    2    1    2    0    0  0.00000000000E+00  0.00000000000E+00  0.52492967245E+03  0.73189503718E+03  0.51001880792E+03 0.  0.
        3    1    3    3  502    0  0.15546253700E+03 -0.19275377046E+03  0.34983916058E+03  0.42861412123E+03  0.10100000352E+00 0. -1.
       -3    1    3    3    0  502 -0.15546253700E+03  0.19275377046E+03  0.17509051186E+03  0.30328091596E+03  0.10100000352E+00 0.  1.
</event>
<event>
 5   0  0.2013450E-01  0.4906464E+03  0.7818609E-02  0.1016250E+00
        1   -1    0    0  501    0  0.00000000000E+00  0.00000000000E+00  0.25426991656E+03  0.25426991661E+03  0.50400001928E-02 0.  1.
       -1   -1    0    0    0  501  0.00000000000E+00  0.00000000000E+00 -0.23669125037E+03  0.23669125043E+03  0.50400001928E-02 0. -1.
    10030    2    1    2    0    0  0.00000000000E+00  0.00000000000E+00  0.17578666189E+02  0.49096116704E+03  0.49064636760E+03 0.  0.
        4    1    3    3  502    0 -0.10542765034E+03  0.82651062273E+02 -0.19685569693E+03  0.23811754632E+03  0.12699999809E+01 0. -1.
       -4    1    3    3    0  502  0.10542765034E+03 -0.82651062273E+02  0.21443436312E+03  0.25284362072E+03  0.12699999809E+01 0.  1.
</event>
<event>
 5   0  0.1984680E-01  0.5015585E+03  0.7818609E-02  0.1013373E+00
        1   -1    0    0  501    0  0.00000000000E+00  0.00000000000E+00  0.59160244066E+03  0.59160244068E+03  0.50400001928E-02 0.  1.
       -1   -1    0    0    0  501  0.00000000000E+00  0.00000000000E+00 -0.10630487611E+03  0.10630487623E+03  0.50400001928E-02 0. -1.
    10030    2    1    2    0    0  0.00000000000E+00  0.00000000000E+00  0.48529756455E+03  0.69790731692E+03  0.50155846803E+03 0.  0.
        5    1    3    3  502    0  0.15918246172E+03 -0.18454599894E+03  0.32463801256E+03  0.40596577570E+03  0.46999998093E+01 0. -1.
       -5    1    3    3    0  502 -0.15918246172E+03  0.18454599894E+03  0.16065955198E+03  0.29194154121E+03  0.46999998093E+01 0.  1.
</event>
<event>
 5   0  0.3329246E-01  0.4931987E+03  0.7818609E-02  0.1015570E+00
        2   -1    0    0  501    0  0.00000000000E+00  0.00000000000E+00  0.60253223516E+03  0.60253223516E+03  0.25500000920E-02 0.  1.
       -2   -1    0    0    0  501  0.00000000000E+00  0.00000000000E+00 -0.10092610103E+03  0.10092610106E+03  0.25500000920E-02 0. -1.
    10030    2    1    2    0    0  0.00000000000E+00  0.00000000000E+00  0.50160613413E+03  0.70345833622E+03  0.49319865877E+03 0.  0.
        2    1    3    3  502    0 -0.50103300576E+02 -0.85183303632E+02  0.57305222637E+03  0.58151129834E+03  0.25500000920E-02 0.  1.
       -2    1    3    3    0  502  0.50103300576E+02  0.85183303632E+02 -0.71446092240E+02  0.12194703789E+03  0.25500000920E-02 0. -1.
</event>
<event>
 5   0  0.2000612E-01  0.5020041E+03  0.7818609E-02  0.1013257E+00
       -1   -1    0    0    0  501  0.00000000000E+00  0.00000000000E+00  0.25835242274E+03  0.25835242279E+03  0.50400001928E-02 0.  1.
        1   -1    0    0  501    0  0.00000000000E+00  0.00000000000E+00 -0.24386082068E+03  0.24386082073E+03  0.50400001928E-02 0. -1.
    10030    2    1    2    0    0  0.00000000000E+00  0.00000000000E+00  0.14491602061E+02  0.50221324353E+03  0.50200411895E+03 0.  0.
        2    1    3    3  502    0  0.15415490339E+03 -0.16215017537E+03  0.12107202053E+03  0.25439113148E+03  0.25500000920E-02 0.  1.
       -2    1    3    3    0  502 -0.15415490339E+03  0.16215017537E+03 -0.10658041847E+03  0.24782211205E+03  0.25500000920E-02 0. -1.
</event>
<event>
 5   0  0.3187123E-01  0.5070679E+03  0.7818609E-02  0.1011950E+00
       -2   -1    0    0    0  501  0.00000000000E+00  0.00000000000E+00  0.58578209713E+02  0.58578209768E+02  0.25500000920E-02 0.  1.
        2   -1    0    0  501    0  0.00000000000E+00  0.00000000000E+00 -0.10973273151E+04  0.10973273151E+04  0.25500000920E-02 0. -1.
    10030    2    1    2    0    0  0.00000000000E+00  0.00000000000E+00 -0.10387491054E+04  0.11559055248E+04  0.50706792294E+03 0.  0.
        5    1    3    3  502    0 -0.84162265593E+02 -0.89896978150E+02 -0.10244593924E+04  0.10318448964E+04  0.46999998093E+01 0. -1.
       -5    1    3    3    0  502  0.84162265593E+02  0.89896978150E+02 -0.14289712980E+02  0.12406062843E+03  0.46999998093E+01 0.  1.
</event>
<event>
 5   0  0.1967161E-01  0.5022799E+03  0.7818609E-02  0.1013186E+00
        1   -1    0    0  501    0  0.00000000000E+00  0.00000000000E+00  0.30124215237E+03  0.30124215241E+03  0.50400001928E-02 0. -1.
       -1   -1    0    0    0  501  0.00000000000E+00  0.00000000000E+00 -0.20937064928E+03  0.20937064934E+03  0.50400001928E-02 0.  1.
    10030    2    1    2    0    0  0.00000000000E+00  0.00000000000E+00  0.91871503094E+02  0.51061280175E+03  0.50227986246E+03 0.  0.
        1    1    3    3  502    0  0.17010163419E+03 -0.72877676414E+02  0.21853332415E+03  0.28636084834E+03  0.50400001928E-02 0. -1.
       -1    1    3    3    0  502 -0.17010163419E+03  0.72877676414E+02 -0.12666182105E+03  0.22425195341E+03  0.50400001928E-02 0.  1.
</event>
<event>
 5   0  0.3178149E-01  0.4995442E+03  0.7818609E-02  0.1013898E+00
        2   -1    0    0  501    0  0.00000000000E+00  0.00000000000E+00  0.15404869050E+03  0.15404869053E+03  0.25500000920E-02 0.  1.
       -2   -1    0    0    0  501  0.00000000000E+00  0.00000000000E+00 -0.40497650549E+03  0.40497650550E+03  0.25500000920E-02 0. -1.
    10030    2    1    2    0    0  0.00000000000E+00  0.00000000000E+00 -0.25092781498E+03  0.55902519602E+03  0.49954419369E+03 0.  0.
        3    1    3    3  502    0 -0.68077552568E+02  0.20075562402E+01  0.14345670154E+03  0.15880308204E+03  0.10100000352E+00 0.  1.
       -3    1    3    3    0  502  0.68077552568E+02 -0.20075562402E+01 -0.39438451653E+03  0.40022211398E+03  0.10100000352E+00 0. -1.
</event>
<event>
 5   0  0.3187123E-01  0.4920030E+03  0.7818609E-02  0.1015888E+00
       -2   -1    0    0    0  501  0.00000000000E+00  0.00000000000E+00  0.28386530708E+03  0.28386530710E+03  0.25500000920E-02 0.  1.
        2   -1    0    0  501    0  0.00000000000E+00  0.00000000000E+00 -0.21318821756E+03  0.21318821758E+03  0.25500000920E-02 0. -1.
    10030    2    1    2    0    0  0.00000000000E+00  0.00000000000E+00  0.70677089520E+02  0.49705352467E+03  0.49200300346E+03 0.  0.
        5    1    3    3  502    0 -0.18983840350E+03  0.14006613727E+03 -0.34927610221E+02  0.23853546949E+03  0.46999998093E+01 0. -1.
       -5    1    3    3    0  502  0.18983840350E+03 -0.14006613727E+03  0.10560469974E+03  0.25851805518E+03  0.46999998093E+01 0.  1.
</event>
<event>
 5   0  0.3187123E-01  0.5549628E+03  0.7818609E-02  0.1000352E+00
       -2   -1    0    0    0  501  0.00000000000E+00  0.00000000000E+00  0.76517686833E+03  0.76517686834E+03  0.25500000920E-02 0. -1.
        2   -1    0    0  501    0  0.00000000000E+00  0.00000000000E+00 -0.10062500905E+03  0.10062500908E+03  0.25500000920E-02 0.  1.
    10030    2    1    2    0    0  0.00000000000E+00  0.00000000000E+00  0.66455185928E+03  0.86580187742E+03  0.55496280710E+03 0.  0.
        5    1    3    3  502    0  0.13999295534E+03 -0.67492183118E+02  0.69083142240E+03  0.70811253802E+03  0.46999998093E+01 0. -1.
       -5    1    3    3    0  502 -0.13999295534E+03  0.67492183118E+02 -0.26279563116E+02  0.15768933940E+03  0.46999998093E+01 0.  1.
</event>
<event>
 5   0  0.3178149E-01  0.5141619E+03  0.7818609E-02  0.1010147E+00
        2   -1    0    0  501    0  0.00000000000E+00  0.00000000000E+00  0.79047794298E+03  0.79047794298E+03  0.25500000920E-02 0.  1.
       -2   -1    0    0    0  501  0.00000000000E+00  0.00000000000E+00 -0.83608425831E+02  0.83608425870E+02  0.25500000920E-02 0. -1.
    10030    2    1    2    0    0  0.00000000000E+00  0.00000000000E+00  0.70686951715E+03  0.87408636885E+03  0.51416190635E+03 0.  0.
        3    1    3    3  502    0 -0.64836469171E+02  0.77520298025E+02  0.75529284182E+03  0.76202391790E+03  0.10100000352E+00 0.  1.
       -3    1    3    3    0  502  0.64836469171E+02 -0.77520298025E+02 -0.48423324674E+02  0.11206245095E+03  0.10100000352E+00 0. -1.
</event>
<event>
 5   0  0.1967161E-01  0.4988136E+03  0.7818609E-02  0.1014089E+00
       -1   -1    0    0    0  501  0.00000000000E+00  0.00000000000E+00  0.31768669299E+03  0.31768669303E+03  0.50400001928E-02 0.  1.
        1   -1    0    0  501    0  0.00000000000E+00  0.00000000000E+00 -0.19580223076E+03  0.19580223083E+03  0.50400001928E-02 0. -1.
    10030    2    1    2    0    0  0.00000000000E+00  0.00000000000E+00  0.12188446223E+03  0.51348892386E+03  0.49881364536E+03 0.  0.
        1    1    3    3  502    0  0.22318740424E+03  0.81809068872E+02 -0.16766543266E+02  0.23829909391E+03  0.50400001928E-02 0.  1.
       -1    1    3    3    0  502 -0.22318740424E+03 -0.81809068872E+02  0.13865100549E+03  0.27518982995E+03  0.50400001928E-02 0. -1.
</event>
<event>
 5   0  0.2000612E-01  0.4780248E+03  0.7818609E-02  0.1019679E+00
       -1   -1    0    0    0  501  0.00000000000E+00  0.00000000000E+00  0.98849453879E+02  0.98849454008E+02  0.50400001928E-02 0.  1.
        1   -1    0    0  501    0  0.00000000000E+00  0.00000000000E+00 -0.57791855740E+03  0.57791855742E+03  0.50400001928E-02 0. -1.
    10030    2    1    2    0    0  0.00000000000E+00  0.00000000000E+00 -0.47906910352E+03  0.67676801143E+03  0.47802482712E+03 0.  0.
        2    1    3    3  502    0  0.11416044964E+03  0.20528231107E+03 -0.30210883619E+03  0.38267895737E+03  0.25500000920E-02 0. -1.
       -2    1    3    3    0  502 -0.11416044964E+03 -0.20528231107E+03 -0.17696026733E+03  0.29408905406E+03  0.25500000920E-02 0.  1.
</event>
<event>
 5   0  0.1984680E-01  0.4591576E+03  0.7818609E-02  0.1025026E+00
       -1   -1    0    0    0  501  0.00000000000E+00  0.00000000000E+00  0.33901893189E+03  0.33901893193E+03  0.50400001928E-02 0.  1.
        1   -1    0    0  501    0  0.00000000000E+00  0.00000000000E+00 -0.15546749428E+03  0.15546749436E+03  0.50400001928E-02 0. -1.
    10030    2    1    2    0    0  0.00000000000E+00  0.00000000000E+00  0.18355143761E+03  0.49448642629E+03  0.45915759336E+03 0.  0.
        5    1    3    3  502    0 -0.15444288952E+03  0.11429530896E+03 -0.43458058901E+02  0.19704496100E+03  0.46999998093E+01 0. -1.
       -5    1    3    3    0  502  0.15444288952E+03 -0.11429530896E+03  0.22700949651E+03  0.29744146530E+03  0.46999998093E+01 0.  1.
</event>
<event>
 5   0  0.3329246E-01  0.4953182E+03  0.7818609E-02  0.1015008E+00
        2   -1    0    0  501    0  0.00000000000E+00  0.00000000000E+00  0.12439510645E+04  0.12439510645E+04  0.25500000920E-02 0. -1.
       -2   -1    0    0    0  501  0.00000000000E+00  0.00000000000E+00 -0.49306632648E+02  0.49306632714E+02  0.25500000920E-02 0.  1.
    10030    2    1    2    0    0  0.00000000000E+00  0.00000000000E+00  0.11946444318E+04  0.12932576972E+04  0.49531823392E+03 0.  0.
        2    1    3    3  502    0  0.16646147720E+03 -0.17434339030E+03  0.74571125442E+03  0.78370295145E+03  0.25500000920E-02 0.  1.
       -2    1    3    3    0  502 -0.16646147720E+03  0.17434339030E+03  0.44893317742E+03  0.50955474576E+03  0.25500000920E-02 0. -1.
</event>
<event>
 5   0  0.1984297E-01  0.4955452E+03  0.7818609E-02  0.1014948E+00
       -1   -1    0    0    0  501  0.00000000000E+00  0.00000000000E+00  0.11206556240E+03  0.11206556251E+03  0.50400001928E-02 0.  1.
        1   -1    0    0  501    0  0.00000000000E+00  0.00000000000E+00 -0.54781569178E+03  0.54781569180E+03  0.50400001928E-02 0. -1.
    10030    2    1    2    0    0  0.00000000000E+00  0.00000000000E+00 -0.43575012938E+03  0.65988125431E+03  0.49554524974E+03 0.  0.
        3    1    3    3  502    0 -0.13586383587E+03  0.86545899987E+02  0.32817889499E+02  0.16439646825E+03  0.10100000352E+00 0.  1.
       -3    1    3    3    0  502  0.13586383587E+03 -0.86545899987E+02 -0.46856801888E+03  0.49548478606E+03  0.10100000352E+00 0. -1.
</event>
<event>
 5   0  0.2013450E-01  0.4850789E+03  0.7818609E-02  0.1017749E+00
       -1   -1    0    0    0  501  0.00000000000E+00  0.00000000000E+00  0.11262659830E+03  0.11262659841E+03  0.50400001928E-02 0. -1.
        1   -1    0    0  501    0  0.00000000000E+00  0.00000000000E+00 -0.52230463431E+03  0.52230463433E+03  0.50400001928E-02 0.  1.
    10030    2    1    2    0    0  0.00000000000E+00  0.00000000000E+00 -0.40967803601E+03  0.63493123274E+03  0.48507893906E+03 0.  0.
        4    1    3    3  502    0  0.69329874224E+02  0.13081768513E+03 -0.45628824522E+03  0.47970873854E+03  0.12699999809E+01 0.  1.
       -4    1    3    3    0  502 -0.69329874224E+02 -0.13081768513E+03  0.46610209214E+02  0.15522249420E+03  0.12699999809E+01 0. -1.
</event>
<event>
 5   0  0.3117389E-01  0.5000964E+03  0.7818609E-02  0.1013754E+00
       -2   -1    0    0    0  501  0.00000000000E+00  0.00000000000E+00  0.16109660928E+03  0.16109660930E+03  0.25500000920E-02 0. -1.
        2   -1    0    0  501    0  0.00000000000E+00  0.00000000000E+00 -0.38811561459E+03  0.38811561460E+03  0.25500000920E-02 0.  1.
    10030    2    1    2    0    0  0.00000000000E+00  0.00000000000E+00 -0.22701900531E+03  0.54921222391E+03  0.50009642882E+03 0.  0.
        4    1    3    3  502    0  0.63833046513E+02  0.13984490718E+03 -0.33008650626E+03  0.36412905735E+03  0.12699999809E+01 0.  1.
       -4    1    3    3    0  502 -0.63833046513E+02 -0.13984490718E+03  0.10306750095E+03  0.18508316656E+03  0.12699999809E+01 0. -1.
</event>
<event>
 5   0  0.1292375E-01  0.4991750E+03  0.7818609E-02  0.1013994E+00
        3   -1    0    0  501    0  0.00000000000E+00  0.00000000000E+00  0.25717878943E+03  0.25717880926E+03  0.10100000352E+00 0.  1.
       -3   -1    0    0    0  501  0.00000000000E+00  0.00000000000E+00 -0.24222021996E+03  0.24222024102E+03  0.10100000352E+00 0. -1.
    10030    2    1    2    0    0  0.00000000000E+00  0.00000000000E+00  0.14958569468E+02  0.49939905028E+03  0.49917497195E+03 0.  0.
        4    1    3    3  502    0 -0.20486520143E+03  0.13924814155E+03 -0.23071361078E+02  0.24878443738E+03  0.12699999809E+01 0. -1.
       -4    1    3    3    0  502  0.20486520143E+03 -0.13924814155E+03  0.38029930546E+02  0.25061461290E+03  0.12699999809E+01 0.  1.
</event>
<event>
 5   0  0.2013450E-01  0.5007408E+03  0.7818609E-02  0.1013586E+00
        1   -1    0    0  501    0  0.00000000000E+00  0.00000000000E+00  0.11763809889E+04  0.11763809889E+04  0.50400001928E-02 0.  1.
       -1   -1    0    0    0  501  0.00000000000E+00  0.00000000000E+00 -0.53286587066E+02  0.53286587304E+02  0.50400001928E-02 0. -1.
    10030    2    1    2    0    0  0.00000000000E+00  0.00000000000E+00  0.11230944019E+04  0.12296675762E+04  0.50074076384E+03 0.  0.
        4    1    3    3  502    0 -0.14072260721E+02 -0.24597968399E+03  0.67081003666E+03  0.71462700176E+03  0.12699999809E+01 0. -1.
       -4    1    3    3    0  502  0.14072260721E+02  0.24597968399E+03  0.45228436521E+03  0.51504057449E+03  0.12699999809E+01 0.  1.
</event>
<event>
 5   0  0.1292375E-01  0.5027002E+03  0.7818609E-02  0.1013077E+00
       -3   -1    0    0    0  501  0.00000000000E+00  0.00000000000E+00  0.21687302292E+03  0.21687304644E+03  0.10100000352E+00 0.  1.
        3   -1    0    0  501    0  0.00000000000E+00  0.00000000000E+00 -0.29130803984E+03  0.29130805735E+03  0.10100000352E+00 0. -1.
    10030    2    1    2    0    0  0.00000000000E+00  0.00000000000E+00 -0.74435016925E+02  0.50818110379E+03  0.50270017158E+03 0.  0.
        3    1    3    3  502    0 -0.50118860306E+02 -0.21812738378E+03 -0.15285614846E+03  0.27102853731E+03  0.10100000352E+00 0. -1.
       -3    1    3    3    0  502  0.50118860306E+02  0.21812738378E+03  0.78421131538E+02  0.23715256648E+03  0.10100000352E+00 0.  1.
</event>
<event>
 5   0  0.2013450E-01  0.5064047E+03  0.7818609E-02  0.1012121E+00
        1   -1    0    0  501    0  0.00000000000E+00  0.00000000000E+00  0.10000815467E+04  0.10000815467E+04  0.50400001928E-02 0.  1.
       -1   -1    0    0    0  501  0.00000000000E+00  0.00000000000E+00 -0.64106212252E+02  0.64106212450E+02  0.50400001928E-02 0. -1.
    10030    2    1    2    0    0  0.00000000000E+00  0.00000000000E+00  0.93597533448E+03  0.10641877592E+04  0.50640473938E+03 0.  0.
        4    1    3    3  502    0 -0.17368477670E+03 -0.11069088942E+03  0.77748706539E+03  0.80430505681E+03  0.12699999809E+01 0. -1.
       -4    1    3    3    0  502  0.17368477670E+03  0.11069088942E+03  0.15848826909E+03  0.25988270238E+03  0.12699999809E+01 0.  1.
</event>
<event>
 5   0  0.1967161E-01  0.5021033E+03  0.7818609E-02  0.1013231E+00
        1   -1    0    0  501    0  0.00000000000E+00  0.00000000000E+00  0.12403836141E+04  0.12403836141E+04  0.50400001928E-02 0. -1.
       -1   -1    0    0    0  501  0.00000000000E+00  0.00000000000E+00 -0.50812455099E+02  0.50812455349E+02  0.50400001928E-02 0.  1.
    10030    2    1    2    0    0  0.00000000000E+00  0.00000000000E+00  0.11895711590E+04  0.12911960695E+04  0.50210332350E+03 0.  0.
        1    1    3    3  502    0  0.24988011538E+03  0.16564334956E+02  0.54932703936E+03  0.60371735560E+03  0.50400001928E-02 0. -1.
       -1    1    3    3    0  502 -0.24988011538E+03 -0.16564334956E+02  0.64024411967E+03  0.68747871389E+03  0.50400001928E-02 0.  1.
</event>
<event>
 5   0  0.3111146E-01  0.5254406E+03  0.7818609E-02  0.1007344E+00
        2   -1    0    0  501    0  0.00000000000E+00  0.00000000000E+00  0.75512370239E+03  0.75512370240E+03  0.25500000920E-02 0.  1.
       -2   -1    0    0    0  501  0.00000000000E+00  0.00000000000E+00 -0.91404836549E+02  0.91404836585E+02  0.25500000920E-02 0. -1.
    10030    2    1    2    0    0  0.00000000000E+00  0.00000000000E+00  0.66371886584E+03  0.84652853898E+03  0.52544060981E+03 0.  0.
        1    1    3    3  502    0  0.16519274180E+03  0.10341839767E+03  0.48025382289E+02  0.20072479740E+03  0.50400001928E-02 0. -1.
       -1    1    3    3    0  502 -0.16519274180E+03 -0.10341839767E+03  0.61569348355E+03  0.64580374158E+03  0.50400001928E-02 0.  1.
</event>
<event>
 5   0  0.1984297E-01  0.3050474E+03  0.7818609E-02  0.1082744E+00
        1   -1    0    0  501    0  0.00000000000E+00  0.00000000000E+00  0.40297183779E+03  0.40297183783E+03  0.50400001928E-02 0. -1.
       -1   -1    0    0    0  501  0.00000000000E+00  0.00000000000E+00 -0.57729800441E+02  0.57729800661E+02  0.50400001928E-02 0.  1.
    10030    2    1    2    0    0  0.00000000000E+00  0.00000000000E+00  0.34524203735E+03  0.46070163849E+03  0.30504743131E+03 0.  0.
        3    1    3    3  502    0 -0.71055993936E+02  0.12429903905E+03  0.25202503638E+03  0.28985485082E+03  0.10100000352E+00 0. -1.
       -3    1    3    3    0  502  0.71055993936E+02 -0.12429903905E+03  0.93217000977E+02  0.17084678767E+03  0.10100000352E+00 0.  1.
</event>
<event>
 5   0  0.3329246E-01  0.4825454E+03  0.7818609E-02  0.1018438E+00
        2   -1    0    0  501    0  0.00000000000E+00  0.00000000000E+00  0.11079035287E+04  0.11079035287E+04  0.25500000920E-02 0.  1.
       -2   -1    0    0    0  501  0.00000000000E+00  0.00000000000E+00 -0.52542936934E+02  0.52542936996E+02  0.25500000920E-02 0. -1.
    10030    2    1    2    0    0  0.00000000000E+00  0.00000000000E+00  0.10553605918E+04  0.11604464657E+04  0.48254535652E+03 0.  0.
        2    1    3    3  502    0  0.68056067097E+02  0.12327045194E+03  0.99884124111E+03  0.10087175311E+04  0.25500000920E-02 0.  1.
       -2    1    3    3    0  502 -0.68056067097E+02 -0.12327045194E+03  0.56519350658E+02  0.15172893461E+03  0.25500000920E-02 0. -1.
</event>
<event>
 5   0  0.3178149E-01  0.4796633E+03  0.7818609E-02  0.1019228E+00
        2   -1    0    0  501    0  0.00000000000E+00  0.00000000000E+00  0.64916665387E+03  0.64916665387E+03  0.25500000920E-02 0.  1.
       -2   -1    0    0    0  501  0.00000000000E+00  0.00000000000E+00 -0.88604704806E+02  0.88604704843E+02  0.25500000920E-02 0. -1.
    10030    2    1    2    0    0  0.00000000000E+00  0.00000000000E+00  0.56056194906E+03  0.73777135871E+03  0.47966329754E+03 0.  0.
        3    1    3    3  502    0 -0.22396895211E+03 -0.83477777111E+02  0.24996127894E+03  0.34584864023E+03  0.10100000352E+00 0. -1.
       -3    1    3    3    0  502  0.22396895211E+03  0.83477777111E+02  0.31060067012E+03  0.39192271848E+03  0.10100000352E+00 0.  1.
</event>
<event>
 5   0  0.1984680E-01  0.4976217E+03  0.7818609E-02  0.1014402E+00
        1   -1    0    0  501    0  0.00000000000E+00  0.00000000000E+00  0.10609819694E+04  0.10609819694E+04  0.50400001928E-02 0. -1.
       -1   -1    0    0    0  501  0.00000000000E+00  0.00000000000E+00 -0.58348620241E+02  0.58348620459E+02  0.50400001928E-02 0.  1.
    10030    2    1    2    0    0  0.00000000000E+00  0.00000000000E+00  0.10026333491E+04  0.11193305899E+04  0.49762168017E+03 0.  0.
        5    1    3    3  502    0  0.49888494583E+01  0.15953481390E+03  0.72115931818E+02  0.17521142396E+03  0.46999998093E+01 0.  1.
       -5    1    3    3    0  502 -0.49888494583E+01 -0.15953481390E+03  0.93051741732E+03  0.94411916589E+03  0.46999998093E+01 0. -1.
</event>
<event>
 5   0  0.1984680E-01  0.5047317E+03  0.7818609E-02  0.1012551E+00
       -1   -1    0    0    0  501  0.00000000000E+00  0.00000000000E+00  0.78708136151E+02  0.78708136312E+02  0.50400001928E-02 0. -1.
        1   -1    0    0  501    0  0.00000000000E+00  0.00000000000E+00 -0.80917338243E+03  0.80917338245E+03  0.50400001928E-02 0.  1.
    10030    2    1    2    0    0  0.00000000000E+00  0.00000000000E+00 -0.73046524628E+03  0.88788151876E+03  0.50473172610E+03 0.  0.
        5    1    3    3  502    0 -0.25172467121E+02 -0.13694873913E+03  0.49257428495E+01  0.13940933682E+03  0.46999998093E+01 0. -1.
       -5    1    3    3    0  502  0.25172467121E+02  0.13694873913E+03 -0.73539098913E+03  0.74847218194E+03  0.46999998093E+01 0.  1.
</event>
<event>
 5   0  0.3117389E-01  0.4817111E+03  0.7818609E-02  0.1018666E+00
       -2   -1    0    0    0  501  0.00000000000E+00  0.00000000000E+00  0.10440042693E+03  0.10440042696E+03  0.25500000920E-02 0. -1.
        2   -1    0    0  501    0  0.00000000000E+00  0.00000000000E+00 -0.55566249815E+03  0.55566249816E+03  0.25500000920E-02 0.  1.
    10030    2    1    2    0    0  0.00000000000E+00  0.00000000000E+00 -0.45126207122E+03  0.66006292512E+03  0.48171112525E+03 0.  0.
        4    1    3    3  502    0 -0.50375308955E+02  0.23277868591E+03 -0.17648901075E+03  0.29643476885E+03  0.12699999809E+01 0. -1.
       -4    1    3    3    0  502  0.50375308955E+02 -0.23277868591E+03 -0.27477306047E+03  0.36362815627E+03  0.12699999809E+01 0.  1.
</event>
<event>
 5   0  0.3117389E-01  0.4938916E+03  0.7818609E-02  0.1015386E+00
        2   -1    0    0  501    0  0.00000000000E+00  0.00000000000E+00  0.74604414461E+03  0.74604414462E+03  0.25500000920E-02 0.  1.
       -2   -1    0    0    0  501  0.00000000000E+00  0.00000000000E+00 -0.81740780563E+02  0.81740780603E+02  0.25500000920E-02 0. -1.
    10030    2    1    2    0    0  0.00000000000E+00  0.00000000000E+00  0.66430336405E+03  0.82778492522E+03  0.49389161051E+03 0.  0.
        4    1    3    3  502    0 -0.21942907620E+03 -0.29945098993E+02  0.51525374779E+03  0.56083318906E+03  0.12699999809E+01 0.  1.
       -4    1    3    3    0  502  0.21942907620E+03  0.29945098993E+02  0.14904961626E+03  0.26695173617E+03  0.12699999809E+01 0. -1.
</event>
<event>
 5   0  0.3329246E-01  0.4905377E+03  0.7818609E-02  0.1016279E+00
       -2   -1    0    0    0  501  0.00000000000E+00  0.00000000000E+00  0.23130159508E+03  0.23130159510E+03  0.25500000920E-02 0. -1.
        2   -1    0    0  501    0  0.00000000000E+00  0.00000000000E+00 -0.26007947794E+03  0.26007947795E+03  0.25500000920E-02 0.  1.
    10030    2    1    2    0    0  0.00000000000E+00  0.00000000000E+00 -0.28777882852E+02  0.49138107305E+03  0.49053765646E+03 0.  0.
        2    1    3    3  502    0  0.19583307933E+03  0.12697440146E+03 -0.89908913031E+02  0.25011338676E+03  0.25500000920E-02 0.  1.
       -2    1    3    3    0  502 -0.19583307933E+03 -0.12697440146E+03  0.61131030179E+02  0.24126768629E+03  0.25500000920E-02 0. -1.
</event>
<event>
 5   0  0.1984297E-01  0.5104490E+03  0.7818609E-02  0.1011087E+00
        1   -1    0    0  501    0  0.00000000000E+00  0.00000000000E+00  0.82461582162E+03  0.82461582163E+03  0.50400001928E-02 0. -1.
       -1   -1    0    0    0  501  0.00000000000E+00  0.00000000000E+00 -0.78993805471E+02  0.78993805632E+02  0.50400001928E-02 0.  1.
    10030    2    1    2    0    0  0.00000000000E+00  0.00000000000E+00  0.74562201614E+03  0.90360962726E+03  0.51044898621E+03 0.  0.
        3    1    3    3  502    0  0.14985587540E+03 -0.17906111267E+03  0.19038446576E+03  0.30127382971E+03  0.10100000352E+00 0. -1.
       -3    1    3    3    0  502 -0.14985587540E+03  0.17906111267E+03  0.55523755038E+03  0.60233579756E+03  0.10100000352E+00 0.  1.
</event>
<event>
 5   0  0.3178149E-01  0.5347922E+03  0.7818609E-02  0.1005077E+00
        2   -1    0    0  501    0  0.00000000000E+00  0.00000000000E+00  0.70965876286E+03  0.70965876286E+03  0.25500000920E-02 0.  1.
       -2   -1    0    0    0  501  0.00000000000E+00  0.00000000000E+00 -0.10075359839E+03  0.10075359842E+03  0.25500000920E-02 0. -1.
    10030    2    1    2    0    0  0.00000000000E+00  0.00000000000E+00  0.60890516447E+03  0.81041236129E+03  0.53479219891E+03 0.  0.
        3    1    3    3  502    0 -0.92857692887E+02 -0.92354728828E+02  0.65772980719E+03  0.67064182432E+03  0.10100000352E+00 0.  1.
       -3    1    3    3    0  502  0.92857692887E+02  0.92354728828E+02 -0.48824642723E+02  0.13977053696E+03  0.10100000352E+00 0. -1.
</event>
<event>
 5   0  0.1984680E-01  0.5060752E+03  0.7818609E-02  0.1012205E+00
       -1   -1    0    0    0  501  0.00000000000E+00  0.00000000000E+00  0.38798592660E+03  0.38798592663E+03  0.50400001928E-02 0.  1.
        1   -1    0    0  501    0  0.00000000000E+00  0.00000000000E+00 -0.16502664437E+03  0.16502664445E+03  0.50400001928E-02 0. -1.
    10030    2    1    2    0    0  0.00000000000E+00  0.00000000000E+00  0.22295928222E+03  0.55301257108E+03  0.50607515474E+03 0.  0.
        5    1    3    3  502    0 -0.18633803125E+03 -0.63618382909E+02 -0.62115205849E+02  0.20651767316E+03  0.46999998093E+01 0. -1.
       -5    1    3    3    0  502  0.18633803125E+03  0.63618382909E+02  0.28507448807E+03  0.34649489792E+03  0.46999998093E+01 0.  1.
</event>
<event>
 5   0  0.1984297E-01  0.3749892E+03  0.7818609E-02  0.1052801E+00
        1   -1    0    0  501    0  0.00000000000E+00  0.00000000000E+00  0.77352085247E+03  0.77352085248E+03  0.50400001928E-02 0. -1.
       -1   -1    0    0    0  501  0.00000000000E+00  0.00000000000E+00 -0.45447030242E+02  0.45447030521E+02  0.50400001928E-02 0.  1.
    10030    2    1    2    0    0  0.00000000000E+00  0.00000000000E+00  0.72807382222E+03  0.81896788300E+03  0.37498920356E+03 0.  0.
        3    1    3    3  502    0  0.28287289920E+02  0.12716072188E+03  0.69530229016E+02  0.14766341086E+03  0.10100000352E+00 0.  1.
       -3    1    3    3    0  502 -0.28287289920E+02 -0.12716072188E+03  0.65854359321E+03  0.67130447214E+03  0.10100000352E+00 0. -1.
</event>
<event>
 5   0  0.1984680E-01  0.5004348E+03  0.7818609E-02  0.1013665E+00
       -1   -1    0    0    0  501  0.00000000000E+00  0.00000000000E+00  0.70283135801E+02  0.70283135982E+02  0.50400001928E-02 0.  1.
        1   -1    0    0  501    0  0.00000000000E+00  0.00000000000E+00 -0.89080771476E+03  0.89080771477E+03  0.50400001928E-02 0. -1.
    10030    2    1    2    0    0  0.00000000000E+00  0.00000000000E+00 -0.82052457896E+03  0.96109085075E+03  0.50043484964E+03 0.  0.
        5    1    3    3  502    0  0.10339864289E+00  0.30857079100E+02  0.66529572975E+02  0.73487713942E+02  0.46999998093E+01 0.  1.
       -5    1    3    3    0  502 -0.10339864289E+00 -0.30857079100E+02 -0.88705415193E+03  0.88760313681E+03  0.46999998093E+01 0. -1.
</event>
<event>
 5   0  0.3117389E-01  0.4980342E+03  0.7818609E-02  0.1014293E+00
       -2   -1    0    0    0  501  0.00000000000E+00  0.00000000000E+00  0.19604427800E+03  0.19604427802E+03  0.25500000920E-02 0. -1.
        2   -1    0    0  501    0  0.00000000000E+00  0.00000000000E+00 -0.31630368798E+03  0.31630368799E+03  0.25500000920E-02 0.  1.
    10030    2    1    2    0    0  0.00000000000E+00  0.00000000000E+00 -0.12025940998E+03  0.51234796601E+03  0.49803424841E+03 0.  0.
        4    1    3    3  502    0  0.14488258850E+02 -0.15862196757E+03  0.13677958948E+03  0.20995501241E+03  0.12699999809E+01 0. -1.
       -4    1    3    3    0  502 -0.14488258850E+02  0.15862196757E+03 -0.25703899947E+03  0.30239295360E+03  0.12699999809E+01 0.  1.
</event>
<event>
 5   0  0.2000612E-01  0.4908943E+03  0.7818609E-02  0.1016183E+00
       -1   -1    0    0    0  501  0.00000000000E+00  0.00000000000E+00  0.11551854595E+03  0.11551854606E+03  0.50400001928E-02 0. -1.
        1   -1    0    0  501    0  0.00000000000E+00  0.00000000000E+00 -0.52151192863E+03  0.52151192865E+03  0.50400001928E-02 0.  1.
    10030    2    1    2    0    0  0.00000000000E+00  0.00000000000E+00 -0.40599338267E+03  0.63703047472E+03  0.49089428490E+03 0.  0.
        2    1    3    3  502    0  0.96109048285E+02 -0.17103270378E+03 -0.39440175448E+03  0.44050184888E+03  0.25500000920E-02 0.  1.
       -2    1    3    3    0  502 -0.96109048285E+02  0.17103270378E+03 -0.11591628195E+02  0.19652862584E+03  0.25500000920E-02 0. -1.
</event>
<event>
 5   0  0.1984297E-01  0.5075616E+03  0.7818609E-02  0.1011824E+00
        1   -1    0    0  501    0  0.00000000000E+00  0.00000000000E+00  0.67976973769E+03  0.67976973770E+03  0.50400001928E-02 0. -1.
       -1   -1    0    0    0  501  0.00000000000E+00  0.00000000000E+00 -0.94744884650E+02  0.94744884784E+02  0.50400001928E-02 0.  1.
    10030    2    1    2    0    0  0.00000000000E+00  0.00000000000E+00  0.58502485304E+03  0.77451462249E+03  0.50756164333E+03 0.  0.
        3    1    3    3  502    0  0.32269509699E+02  0.11066565899E+03 -0.52489342186E+02  0.12666234871E+03  0.10100000352E+00 0.  1.
       -3    1    3    3    0  502 -0.32269509699E+02 -0.11066565899E+03  0.63751419522E+03  0.64785227378E+03  0.10100000352E+00 0. -1.
</event>
<event>
 5   0  0.3329246E-01  0.5017088E+03  0.7818609E-02  0.1013334E+00
       -2   -1    0    0    0  501  0.00000000000E+00  0.00000000000E+00  0.46464525939E+03  0.46464525940E+03  0.25500000920E-02 0. -1.
        2   -1    0    0  501    0  0.00000000000E+00  0.00000000000E+00 -0.13543221790E+03  0.13543221792E+03  0.25500000920E-02 0.  1.
    10030    2    1    2    0    0  0.00000000000E+00  0.00000000000E+00  0.32921304149E+03  0.60007747732E+03  0.50170883199E+03 0.  0.
        2    1    3    3  502    0 -0.20284548746E+03 -0.74846403418E+02  0.12467609300E+02  0.21657266026E+03  0.25500000920E-02 0.  1.
       -2    1    3    3    0  502  0.20284548746E+03  0.74846403418E+02  0.31674543219E+03  0.38350481706E+03  0.25500000920E-02 0. -1.
</event>
<event>
 5   0  0.1984297E-01  0.4920967E+03  0.7818609E-02  0.1015863E+00
        1   -1    0    0  501    0  0.00000000000E+00  0.00000000000E+00  0.89026374424E+03  0.89026374425E+03  0.50400001928E-02 0. -1.
       -1   -1    0    0    0  501  0.00000000000E+00  0.00000000000E+00 -0.68002072997E+02  0.68002073184E+02  0.50400001928E-02 0.  1.
    10030    2    1    2    0    0  0.00000000000E+00  0.00000000000E+00  0.82226167124E+03  0.95826581744E+03  0.49209665806E+03 0.  0.
        3    1    3    3  502    0 -0.91517949822E+02  0.21022051179E+03  0.23726768376E+03  0.32994569656E+03  0.10100000352E+00 0.  1.
       -3    1    3    3    0  502  0.91517949822E+02 -0.21022051179E+03  0.58499398748E+03  0.62832012088E+03  0.10100000352E+00 0. -1.
</event>
<event>
 5   0  0.3117389E-01  0.4753007E+03  0.7818609E-02  0.1020435E+00
        2   -1    0    0  501    0  0.00000000000E+00  0.00000000000E+00  0.36821851076E+03  0.36821851077E+03  0.25500000920E-02 0. -1.
       -2   -1    0    0    0  501  0.00000000000E+00  0.00000000000E+00 -0.15338091036E+03  0.15338091039E+03  0.25500000920E-02 0.  1.
    10030    2    1    2    0    0  0.00000000000E+00  0.00000000000E+00  0.21483760040E+03  0.52159942116E+03  0.47530070651E+03 0.  0.
        4    1    3    3  502    0 -0.15845577744E+03  0.12078139417E+03  0.24957333645E+03  0.31935065641E+03  0.12699999809E+01 0. -1.
       -4    1    3    3    0  502  0.15845577744E+03 -0.12078139417E+03 -0.34735736054E+02  0.20224876475E+03  0.12699999809E+01 0.  1.
</event>
<event>
 5   0  0.3111146E-01  0.2887306E+03  0.7818609E-02  0.1091014E+00
       -2   -1    0    0    0  501  0.00000000000E+00  0.00000000000E+00  0.93707222913E+02  0.93707222947E+02  0.25500000920E-02 0. -1.
        2   -1    0    0  501    0  0.00000000000E+00  0.00000000000E+00 -0.22240915663E+03  0.22240915664E+03  0.25500000920E-02 0.  1.
    10030    2    1    2    0    0  0.00000000000E+00  0.00000000000E+00 -0.12870193372E+03  0.31611637959E+03  0.28873063174E+03 0.  0.
        1    1    3    3  502    0 -0.10462797997E+03 -0.13554027451E+02  0.43538136951E+02  0.11413279654E+03  0.50400001928E-02 0. -1.
       -1    1    3    3    0  502  0.10462797997E+03  0.13554027451E+02 -0.17224007067E+03  0.20198358305E+03  0.50400001928E-02 0.  1.
</event>
<event>
 5   0  0.3111146E-01  0.4723684E+03  0.7818609E-02  0.1021254E+00
       -2   -1    0    0    0  501  0.00000000000E+00  0.00000000000E+00  0.13723653085E+03  0.13723653088E+03  0.25500000920E-02 0. -1.
        2   -1    0    0  501    0  0.00000000000E+00  0.00000000000E+00 -0.40647324104E+03  0.40647324105E+03  0.25500000920E-02 0.  1.
    10030    2    1    2    0    0  0.00000000000E+00  0.00000000000E+00 -0.26923671018E+03  0.54370977192E+03  0.47236840493E+03 0.  0.
        1    1    3    3  502    0 -0.13751847613E+03  0.10748376461E+03  0.48532351416E+02  0.18116147519E+03  0.50400001928E-02 0. -1.
       -1    1    3    3    0  502  0.13751847613E+03 -0.10748376461E+03 -0.31776906160E+03  0.36254829674E+03  0.50400001928E-02 0.  1.
</event>
<event>
 5   0  0.3178149E-01  0.5184015E+03  0.7818609E-02  0.1009084E+00
       -2   -1    0    0    0  501  0.00000000000E+00  0.00000000000E+00  0.23256849967E+03  0.23256849968E+03  0.25500000920E-02 0.  1.
        2   -1    0    0  501    0  0.00000000000E+00  0.00000000000E+00 -0.28888272677E+03  0.28888272678E+03  0.25500000920E-02 0. -1.
    10030    2    1    2    0    0  0.00000000000E+00  0.00000000000E+00 -0.56314227096E+02  0.52145122646E+03  0.51840147512E+03 0.  0.
        3    1    3    3  502    0 -0.47380842015E+01 -0.19318505581E+03  0.14560781770E+03  0.24195983553E+03  0.10100000352E+00 0.  1.
       -3    1    3    3    0  502  0.47380842015E+01  0.19318505581E+03 -0.20192204479E+03  0.27949139093E+03  0.10100000352E+00 0. -1.
</event>
<event>
 5   0  0.3187123E-01  0.4530869E+03  0.7818609E-02  0.1026805E+00
       -2   -1    0    0    0  501  0.00000000000E+00  0.00000000000E+00  0.31000383310E+02  0.31000383415E+02  0.25500000920E-02 0. -1.
        2   -1    0    0  501    0  0.00000000000E+00  0.00000000000E+00 -0.16555257103E+04  0.16555257103E+04  0.25500000920E-02 0.  1.
    10030    2    1    2    0    0  0.00000000000E+00  0.00000000000E+00 -0.16245253270E+04  0.16865260937E+04  0.45308688654E+03 0.  0.
        5    1    3    3  502    0  0.13167128248E+03 -0.14483174547E+03 -0.38807897627E+03  0.43467337502E+03  0.46999998093E+01 0. -1.
       -5    1    3    3    0  502 -0.13167128248E+03  0.14483174547E+03 -0.12364463507E+04  0.12518527187E+04  0.46999998093E+01 0.  1.
</event>
<event>
 5   0  0.1292375E-01  0.5030490E+03  0.7818609E-02  0.1012986E+00
        3   -1    0    0  501    0  0.00000000000E+00  0.00000000000E+00  0.13242515539E+03  0.13242519390E+03  0.10100000352E+00 0.  1.
       -3   -1    0    0    0  501  0.00000000000E+00  0.00000000000E+00 -0.47773829291E+03  0.47773830358E+03  0.10100000352E+00 0. -1.
    10030    2    1    2    0    0  0.00000000000E+00  0.00000000000E+00 -0.34531313752E+03  0.61016349749E+03  0.50304903411E+03 0.  0.
        5    1    3    3  502    0 -0.16022741824E+03  0.11376560629E+03  0.17688720960E+02  0.19735860655E+03  0.46999998093E+01 0.  1.
       -5    1    3    3    0  502  0.16022741824E+03 -0.11376560629E+03 -0.36300185848E+03  0.41280489094E+03  0.46999998093E+01 0. -1.
</event>
<event>
 5   0  0.1984297E-01  0.5110207E+03  0.7818609E-02  0.1010942E+00
       -1   -1    0    0    0  501  0.00000000000E+00  0.00000000000E+00  0.88051926791E+03  0.88051926792E+03  0.50400001928E-02 0.  1.
        1   -1    0    0  501    0  0.00000000000E+00  0.00000000000E+00 -0.74144347010E+02  0.74144347182E+02  0.50400001928E-02 0. -1.
    10030    2    1    2    0    0  0.00000000000E+00  0.00000000000E+00  0.80637492090E+03  0.95466361511E+03  0.51102065022E+03 0.  0.
        3    1    3    3  502    0  0.83966041369E+02 -0.66660420949E+02 -0.30093080406E+02  0.11135309387E+03  0.10100000352E+00 0. -1.
       -3    1    3    3    0  502 -0.83966041369E+02  0.66660420949E+02  0.83646800131E+03  0.84331052124E+03  0.10100000352E+00 0.  1.
</event>
<event>
 5   0  0.2013450E-01  0.5031326E+03  0.7818609E-02  0.1012964E+00
        1   -1    0    0  501    0  0.00000000000E+00  0.00000000000E+00  0.60830373193E+03  0.60830373195E+03  0.50400001928E-02 0. -1.
       -1   -1    0    0    0  501  0.00000000000E+00  0.00000000000E+00 -0.10403619776E+03  0.10403619789E+03  0.50400001928E-02 0.  1.
    10030    2    1    2    0    0  0.00000000000E+00  0.00000000000E+00  0.50426753417E+03  0.71233992984E+03  0.50313261634E+03 0.  0.
        4    1    3    3  502    0 -0.26480249886E+02  0.19076013058E+03  0.22994008219E+02  0.19396125481E+03  0.12699999809E+01 0.  1.
       -4    1    3    3    0  502  0.26480249886E+02 -0.19076013058E+03  0.48127352595E+03  0.51837867504E+03  0.12699999809E+01 0. -1.
</event>
<event>
 5   0  0.3117389E-01  0.4940588E+03  0.7818609E-02  0.1015341E+00
        2   -1    0    0  501    0  0.00000000000E+00  0.00000000000E+00  0.63723710830E+03  0.63723710831E+03  0.25500000920E-02 0. -1.
       -2   -1    0    0    0  501  0.00000000000E+00  0.00000000000E+00 -0.95762651461E+02  0.95762651495E+02  0.25500000920E-02 0.  1.
    10030    2    1    2    0    0  0.00000000000E+00  0.00000000000E+00  0.54147445684E+03  0.73299975980E+03  0.49405876215E+03 0.  0.
        4    1    3    3  502    0  0.71097480004E+02  0.23367943471E+03  0.32547030705E+03  0.40693176767E+03  0.12699999809E+01 0.  1.
       -4    1    3    3    0  502 -0.71097480004E+02 -0.23367943471E+03  0.21600414979E+03  0.32606799213E+03  0.12699999809E+01 0. -1.
</event>
<event>
 5   0  0.1984297E-01  0.5249977E+03  0.7818609E-02  0.1007453E+00
        1   -1    0    0  501    0  0.00000000000E+00  0.00000000000E+00  0.13764015974E+04  0.13764015974E+04  0.50400001928E-02 0. -1.
       -1   -1    0    0    0  501  0.00000000000E+00  0.00000000000E+00 -0.50062174041E+02  0.50062174295E+02  0.50400001928E-02 0.  1.
    10030    2    1    2    0    0  0.00000000000E+00  0.00000000000E+00  0.13263394234E+04  0.14264637717E+04  0.52499773908E+03 0.  0.
        3    1    3    3  502    0  0.27491049568E+02  0.20995354461E+03  0.10847069285E+04  0.11051811524E+04  0.10100000352E+00 0. -1.
       -3    1    3    3    0  502 -0.27491049568E+02 -0.20995354461E+03  0.24163249493E+03  0.32128261937E+03  0.10100000352E+00 0.  1.
</event>
<event>
 5   0  0.2000612E-01  0.4943274E+03  0.7818609E-02  0.1015270E+00
       -1   -1    0    0    0  501  0.00000000000E+00  0.00000000000E+00  0.13891385983E+03  0.13891385992E+03  0.50400001928E-02 0. -1.
        1   -1    0    0  501    0  0.00000000000E+00  0.00000000000E+00 -0.43976808933E+03  0.43976808936E+03  0.50400001928E-02 0.  1.
    10030    2    1    2    0    0  0.00000000000E+00  0.00000000000E+00 -0.30085422950E+03  0.57868194928E+03  0.49432735208E+03 0.  0.
        2    1    3    3  502    0 -0.23700556924E+03 -0.69960187178E+02 -0.14471428172E+03  0.28637089758E+03  0.25500000920E-02 0.  1.
       -2    1    3    3    0  502  0.23700556924E+03  0.69960187178E+02 -0.15613994778E+03  0.29231105170E+03  0.25500000920E-02 0. -1.
</event>
<event>
 5   0  0.1984297E-01  0.5036569E+03  0.7818609E-02  0.1012829E+00
       -1   -1    0    0    0  501  0.00000000000E+00  0.00000000000E+00  0.25677560355E+03  0.25677560360E+03  0.50400001928E-02 0. -1.
        1   -1    0    0  501    0  0.00000000000E+00  0.00000000000E+00 -0.24697657975E+03  0.24697657980E+03  0.50400001928E-02 0.  1.
    10030    2    1    2    0    0  0.00000000000E+00  0.00000000000E+00  0.97990237984E+01  0.50375218340E+03  0.50365686872E+03 0.  0.
        3    1    3    3  502    0  0.52602979686E+01  0.67093827115E+02  0.24761454759E+03  0.25659740208E+03  0.10100000352E+00 0. -1.
       -3    1    3    3    0  502 -0.52602979686E+01 -0.67093827115E+02 -0.23781552379E+03  0.24715478132E+03  0.10100000352E+00 0.  1.
</event>
<event>
 5   0  0.1967161E-01  0.5196355E+03  0.7818609E-02  0.1008777E+00
        1   -1    0    0  501    0  0.00000000000E+00  0.00000000000E+00  0.11285979224E+04  0.11285979225E+04  0.50400001928E-02 0.  1.
       -1   -1    0    0    0  501  0.00000000000E+00  0.00000000000E+00 -0.59813387946E+02  0.59813388159E+02  0.50400001928E-02 0. -1.
    10030    2    1    2    0    0  0.00000000000E+00  0.00000000000E+00  0.10687845345E+04  0.11884113106E+04  0.51963550881E+03 0.  0.
        1    1    3    3  502    0 -0.10590381813E+03  0.13503622654E+03  0.88250334019E+02  0.19297285470E+03  0.50400001928E-02 0. -1.
       -1    1    3    3    0  502  0.10590381813E+03 -0.13503622654E+03  0.98053420048E+03  0.99543845591E+03  0.50400001928E-02 0.  1.
</event>
<event>
 5   0  0.1984680E-01  0.5077459E+03  0.7818609E-02  0.1011777E+00
       -1   -1    0    0    0  501  0.00000000000E+00  0.00000000000E+00  0.16710051597E+03  0.16710051604E+03  0.50400001928E-02 0.  1.
        1   -1    0    0  501    0  0.00000000000E+00  0.00000000000E+00 -0.38570486553E+03  0.38570486557E+03  0.50400001928E-02 0. -1.
    10030    2    1    2    0    0  0.00000000000E+00  0.00000000000E+00 -0.21860434957E+03  0.55280538161E+03  0.50774592887E+03 0.  0.
        5    1    3    3  502    0  0.24486852318E+02  0.84762380811E+02  0.14982149276E+03  0.17393342642E+03  0.46999998093E+01 0.  1.
       -5    1    3    3    0  502 -0.24486852318E+02 -0.84762380811E+02 -0.36842584232E+03  0.37887195519E+03  0.46999998093E+01 0. -1.
</event>
<event>
 5   0  0.1292375E-01  0.4979346E+03  0.7818609E-02  0.1014319E+00
        4   -1    0    0  501    0  0.00000000000E+00  0.00000000000E+00  0.10504452208E+03  0.10505219902E+03  0.12699999809E+01 0.  1.
       -4   -1    0    0    0  501  0.00000000000E+00  0.00000000000E+00 -0.59005050738E+03  0.59005187412E+03  0.12699999809E+01 0. -1.
    10030    2    1    2    0    0  0.00000000000E+00  0.00000000000E+00 -0.48500598530E+03  0.69510407314E+03  0.49793460085E+03 0.  0.
        3    1    3    3  502    0  0.14925581580E+03  0.19921325739E+03 -0.24897375465E+03  0.35206698393E+03  0.10100000352E+00 0. -1.
       -3    1    3    3    0  502 -0.14925581580E+03 -0.19921325739E+03 -0.23603223065E+03  0.34303708921E+03  0.10100000352E+00 0.  1.
</event>
<event>
 5   0  0.1292375E-01  0.4890645E+03  0.7818609E-02  0.1016673E+00
       -3   -1    0    0    0  501  0.00000000000E+00  0.00000000000E+00  0.92653003636E+03  0.92653004186E+03  0.10100000352E+00 0.  1.
        3   -1    0    0  501    0  0.00000000000E+00  0.00000000000E+00 -0.64537548244E+02  0.64537627276E+02  0.10100000352E+00 0. -1.
    10030    2    1    2    0    0  0.00000000000E+00  0.00000000000E+00  0.86199248811E+03  0.99106766914E+03  0.48906448987E+03 0.  0.
        2    1    3    3  502    0 -0.20853051732E+03 -0.12718617865E+03  0.40747554814E+03  0.47507643915E+03  0.25500000920E-02 0. -1.
       -2    1    3    3    0  502  0.20853051732E+03  0.12718617865E+03  0.45451693998E+03  0.51599122999E+03  0.25500000920E-02 0.  1.
</event>
<event>
 5   0  0.1292375E-01  0.5008655E+03  0.7818609E-02  0.1013553E+00
        4   -1    0    0  501    0  0.00000000000E+00  0.00000000000E+00  0.38902183253E+03  0.38902390555E+03  0.12699999809E+01 0. -1.
       -4   -1    0    0    0  501  0.00000000000E+00  0.00000000000E+00 -0.16121106511E+03  0.16121606748E+03  0.12699999809E+01 0.  1.
    10030    2    1    2    0    0  0.00000000000E+00  0.00000000000E+00  0.22781076742E+03  0.55023997303E+03  0.50086553302E+03 0.  0.
        4    1    3    3  502    0 -0.13697958661E+02 -0.55385377963E+02  0.38178684052E+03  0.38602846871E+03  0.12699999809E+01 0. -1.
       -4    1    3    3    0  502  0.13697958661E+02  0.55385377963E+02 -0.15397607310E+03  0.16421150432E+03  0.12699999809E+01 0.  1.
</event>
<event>
 5   0  0.3187123E-01  0.4660669E+03  0.7818609E-02  0.1023036E+00
       -2   -1    0    0    0  501  0.00000000000E+00  0.00000000000E+00  0.12415244733E+03  0.12415244736E+03  0.25500000920E-02 0. -1.
        2   -1    0    0  501    0  0.00000000000E+00  0.00000000000E+00 -0.43740249621E+03  0.43740249622E+03  0.25500000920E-02 0.  1.
    10030    2    1    2    0    0  0.00000000000E+00  0.00000000000E+00 -0.31325004888E+03  0.56155494357E+03  0.46606690671E+03 0.  0.
        5    1    3    3  502    0 -0.20065746694E+03  0.81726331490E+02 -0.53399117529E+02  0.22319535849E+03  0.46999998093E+01 0. -1.
       -5    1    3    3    0  502  0.20065746694E+03 -0.81726331490E+02 -0.25985093135E+03  0.33835958509E+03  0.46999998093E+01 0.  1.
</event>
<event>
 5   0  0.1967161E-01  0.5264954E+03  0.7818609E-02  0.1007086E+00
        1   -1    0    0  501    0  0.00000000000E+00  0.00000000000E+00  0.19381733648E+04  0.19381733648E+04  0.50400001928E-02 0. -1.
       -1   -1    0    0    0  501  0.00000000000E+00  0.00000000000E+00 -0.35754984085E+02  0.35754984440E+02  0.50400001928E-02 0.  1.
    10030    2    1    2    0    0  0.00000000000E+00  0.00000000000E+00  0.19024183807E+04  0.19739283492E+04  0.52649542512E+03 0.  0.
        1    1    3    3  502    0  0.78942642462E+02 -0.72206136751E+02  0.49425619254E+02  0.11784972994E+03  0.50400001928E-02 0.  1.
       -1    1    3    3    0  502 -0.78942642462E+02  0.72206136751E+02  0.18529927614E+04  0.18560786193E+04  0.50400001928E-02 0. -1.
</event>
<event>
 5   0  0.3187123E-01  0.4886916E+03  0.7818609E-02  0.1016773E+00
        2   -1    0    0  501    0  0.00000000000E+00  0.00000000000E+00  0.13614405214E+04  0.13614405214E+04  0.25500000920E-02 0. -1.
       -2   -1    0    0    0  501  0.00000000000E+00  0.00000000000E+00 -0.43854189514E+02  0.43854189588E+02  0.25500000920E-02 0.  1.
    10030    2    1    2    0    0  0.00000000000E+00  0.00000000000E+00  0.13175863319E+04  0.14052947110E+04  0.48869160292E+03 0.  0.
        5    1    3    3  502    0  0.62770076849E+02  0.11053365803E+03  0.12587250834E+04  0.12651358416E+04  0.46999998093E+01 0. -1.
       -5    1    3    3    0  502 -0.62770076849E+02 -0.11053365803E+03  0.58861248526E+02  0.14015886944E+03  0.46999998093E+01 0.  1.
</event>
<event>
 5   0  0.1984297E-01  0.3794627E+03  0.7818609E-02  0.1051133E+00
        1   -1    0    0  501    0  0.00000000000E+00  0.00000000000E+00  0.16554491127E+04  0.16554491127E+04  0.50400001928E-02 0.  1.
       -1   -1    0    0    0  501  0.00000000000E+00  0.00000000000E+00 -0.21745142367E+02  0.21745142951E+02  0.50400001928E-02 0. -1.
    10030    2    1    2    0    0  0.00000000000E+00  0.00000000000E+00  0.16337039703E+04  0.16771942557E+04  0.37946265763E+03 0.  0.
        3    1    3    3  502    0  0.11868701380E+03 -0.12200738914E+03  0.11873233909E+04  0.11994620690E+04  0.10100000352E+00 0.  1.
       -3    1    3    3    0  502 -0.11868701380E+03  0.12200738914E+03  0.44638057942E+03  0.47773218662E+03  0.10100000352E+00 0. -1.
</event>
<event>
 5   0  0.3117389E-01  0.4956877E+03  0.7818609E-02  0.1014911E+00
        2   -1    0    0  501    0  0.00000000000E+00  0.00000000000E+00  0.13191369207E+04  0.13191369207E+04  0.25500000920E-02 0.  1.
       -2   -1    0    0    0  501  0.00000000000E+00  0.00000000000E+00 -0.46565738876E+02  0.46565738945E+02  0.25500000920E-02 0. -1.
    10030    2    1    2    0    0  0.00000000000E+00  0.00000000000E+00  0.12725711818E+04  0.13657026597E+04  0.49568774623E+03 0.  0.
        4    1    3    3  502    0  0.13232302021E+03 -0.90793830231E+02  0.11591572910E+03  0.19796709433E+03  0.12699999809E+01 0. -1.
       -4    1    3    3    0  502 -0.13232302021E+03  0.90793830231E+02  0.11566554527E+04  0.11677355653E+04  0.12699999809E+01 0.  1.
</event>
<event>
 5   0  0.2013450E-01  0.5084979E+03  0.7818609E-02  0.1011584E+00
       -1   -1    0    0    0  501  0.00000000000E+00  0.00000000000E+00  0.14244846954E+03  0.14244846963E+03  0.50400001928E-02 0.  1.
        1   -1    0    0  501    0  0.00000000000E+00  0.00000000000E+00 -0.45379589647E+03  0.45379589650E+03  0.50400001928E-02 0. -1.
    10030    2    1    2    0    0  0.00000000000E+00  0.00000000000E+00 -0.31134742693E+03  0.59624436612E+03  0.50849790941E+03 0.  0.
        4    1    3    3  502    0  0.30981092730E+02  0.91651368991E+02  0.12001787754E+03  0.15416129661E+03  0.12699999809E+01 0.  1.
       -4    1    3    3    0  502 -0.30981092730E+02 -0.91651368991E+02 -0.43136530447E+03  0.44208306951E+03  0.12699999809E+01 0. -1.
</event>
<event>
 5   0  0.3117389E-01  0.5125730E+03  0.7818609E-02  0.1010548E+00
       -2   -1    0    0    0  501  0.00000000000E+00  0.00000000000E+00  0.21800815199E+03  0.21800815201E+03  0.25500000920E-02 0.  1.
        2   -1    0    0  501    0  0.00000000000E+00  0.00000000000E+00 -0.30128587612E+03  0.30128587613E+03  0.25500000920E-02 0. -1.
    10030    2    1    2    0    0  0.00000000000E+00  0.00000000000E+00 -0.83277724126E+02  0.51929402814E+03  0.51257302731E+03 0.  0.
        4    1    3    3  502    0  0.59642270827E+02  0.13806248799E+03 -0.25187543747E+03  0.29336206292E+03  0.12699999809E+01 0. -1.
       -4    1    3    3    0  502 -0.59642270827E+02 -0.13806248799E+03  0.16859771335E+03  0.22593196521E+03  0.12699999809E+01 0.  1.
</event>
<event>
 5   0  0.3329246E-01  0.5202579E+03  0.7818609E-02  0.1008623E+00
       -2   -1    0    0    0  501  0.00000000000E+00  0.00000000000E+00  0.35310921127E+02  0.35310921219E+02  0.25500000920E-02 0.  1.
        2   -1    0    0  501    0  0.00000000000E+00  0.00000000000E+00 -0.19163211209E+04  0.19163211209E+04  0.25500000920E-02 0. -1.
    10030    2    1    2    0    0  0.00000000000E+00  0.00000000000E+00 -0.18810101998E+04  0.19516320421E+04  0.52025787469E+03 0.  0.
        2    1    3    3  502    0 -0.30175937764E+02 -0.16515132604E+03 -0.16858824458E+04  0.16942211098E+04  0.25500000920E-02 0. -1.
       -2    1    3    3    0  502  0.30175937764E+02  0.16515132604E+03 -0.19512775392E+03  0.25741093231E+03  0.25500000920E-02 0.  1.
</event>
<event>
 5   0  0.1967161E-01  0.4973269E+03  0.7818609E-02  0.1014479E+00
       -1   -1    0    0    0  501  0.00000000000E+00  0.00000000000E+00  0.23189398289E+03  0.23189398294E+03  0.50400001928E-02 0.  1.
        1   -1    0    0  501    0  0.00000000000E+00  0.00000000000E+00 -0.26664563108E+03  0.26664563113E+03  0.50400001928E-02 0. -1.
    10030    2    1    2    0    0  0.00000000000E+00  0.00000000000E+00 -0.34751648190E+02  0.49853961407E+03  0.49732692441E+03 0.  0.
        1    1    3    3  502    0  0.28697036828E+02 -0.36460542904E+02 -0.26226770529E+03  0.26634045952E+03  0.50400001928E-02 0. -1.
       -1    1    3    3    0  502 -0.28697036828E+02  0.36460542904E+02  0.22751605710E+03  0.23219915455E+03  0.50400001928E-02 0.  1.
</event>
<event>
 5   0  0.1984680E-01  0.5023690E+03  0.7818609E-02  0.1013162E+00
       -1   -1    0    0    0  501  0.00000000000E+00  0.00000000000E+00  0.17175539786E+03  0.17175539793E+03  0.50400001928E-02 0. -1.
        1   -1    0    0  501    0  0.00000000000E+00  0.00000000000E+00 -0.36734589908E+03  0.36734589912E+03  0.50400001928E-02 0.  1.
    10030    2    1    2    0    0  0.00000000000E+00  0.00000000000E+00 -0.19559050122E+03  0.53910129705E+03  0.50236895237E+03 0.  0.
        5    1    3    3  502    0  0.20079913114E+03 -0.12345871768E+03 -0.48034692616E+01  0.23581244529E+03  0.46999998093E+01 0. -1.
       -5    1    3    3    0  502 -0.20079913114E+03  0.12345871768E+03 -0.19078703196E+03  0.30328885176E+03  0.46999998093E+01 0.  1.
</event>
<event>
 5   0  0.1967161E-01  0.5125624E+03  0.7818609E-02  0.1010551E+00
        1   -1    0    0  501    0  0.00000000000E+00  0.00000000000E+00  0.14733217609E+03  0.14733217618E+03  0.50400001928E-02 0.  1.
       -1   -1    0    0    0  501  0.00000000000E+00  0.00000000000E+00 -0.44579577631E+03  0.44579577634E+03  0.50400001928E-02 0. -1.
    10030    2    1    2    0    0  0.00000000000E+00  0.00000000000E+00 -0.29846360021E+03  0.59312795252E+03  0.51256243269E+03 0.  0.
        1    1    3    3  502    0  0.88547240034E+02 -0.56288987768E+02 -0.41980209826E+03  0.43271568679E+03  0.50400001928E-02 0. -1.
       -1    1    3    3    0  502 -0.88547240034E+02  0.56288987768E+02  0.12133849805E+03  0.16041226573E+03  0.50400001928E-02 0.  1.
</event>
<event>
 5   0  0.3187123E-01  0.5085116E+03  0.7818609E-02  0.1011581E+00
        2   -1    0    0  501    0  0.00000000000E+00  0.00000000000E+00  0.23381429843E+03  0.23381429844E+03  0.25500000920E-02 0. -1.
       -2   -1    0    0    0  501  0.00000000000E+00  0.00000000000E+00 -0.27648443741E+03  0.27648443742E+03  0.25500000920E-02 0.  1.
    10030    2    1    2    0    0  0.00000000000E+00  0.00000000000E+00 -0.42670138978E+02  0.51029873587E+03  0.50851161154E+03 0.  0.
        5    1    3    3  502    0 -0.13341095982E+03 -0.12356140141E+03 -0.19960516464E+03  0.27005594951E+03  0.46999998093E+01 0.  1.
       -5    1    3    3    0  502  0.13341095982E+03  0.12356140141E+03  0.15693502566E+03  0.24024278635E+03  0.46999998093E+01 0. -1.
</event>
<event>
 5   0  0.3178149E-01  0.5055791E+03  0.7818609E-02  0.1012333E+00
        2   -1    0    0  501    0  0.00000000000E+00  0.00000000000E+00  0.71005773178E+03  0.71005773178E+03  0.25500000920E-02 0.  1.
       -2   -1    0    0    0  501  0.00000000000E+00  0.00000000000E+00 -0.89996281020E+02  0.89996281056E+02  0.25500000920E-02 0. -1.
    10030    2    1    2    0    0  0.00000000000E+00  0.00000000000E+00  0.62006145076E+03  0.80005401284E+03  0.50557909445E+03 0.  0.
        3    1    3    3  502    0  0.13856437737E+03  0.15267054772E+03  0.54149173431E+03  0.57941495609E+03  0.10100000352E+00 0.  1.
       -3    1    3    3    0  502 -0.13856437737E+03 -0.15267054772E+03  0.78569716451E+02  0.22063905675E+03  0.10100000352E+00 0. -1.
</event>
<event>
 5   0  0.3187123E-01  0.4679687E+03  0.7818609E-02  0.1022495E+00
        2   -1    0    0  501    0  0.00000000000E+00  0.00000000000E+00  0.28885073804E+03  0.28885073805E+03  0.25500000920E-02 0.  1.
       -2   -1    0    0    0  501  0.00000000000E+00  0.00000000000E+00 -0.18953966201E+03  0.18953966203E+03  0.25500000920E-02 0. -1.
    10030    2    1    2    0    0  0.00000000000E+00  0.00000000000E+00  0.99311076024E+02  0.47839040008E+03  0.46796867958E+03 0.  0.
        5    1    3    3  502    0  0.22286214896E+02  0.20783169718E+03 -0.57735831432E+02  0.21690137380E+03  0.46999998093E+01 0. -1.
       -5    1    3    3    0  502 -0.22286214896E+02 -0.20783169718E+03  0.15704690746E+03  0.26148902628E+03  0.46999998093E+01 0.  1.
</event>
<event>
 5   0  0.2000612E-01  0.5038841E+03  0.7818609E-02  0.1012770E+00
       -1   -1    0    0    0  501  0.00000000000E+00  0.00000000000E+00  0.13713690530E+03  0.13713690539E+03  0.50400001928E-02 0.  1.
        1   -1    0    0  501    0  0.00000000000E+00  0.00000000000E+00 -0.46285714146E+03  0.46285714149E+03  0.50400001928E-02 0. -1.
    10030    2    1    2    0    0  0.00000000000E+00  0.00000000000E+00 -0.32572023616E+03  0.59999404688E+03  0.50388409783E+03 0.  0.
        2    1    3    3  502    0 -0.59763802541E+02  0.16441322162E+03  0.53026256840E+02  0.18279825891E+03  0.25500000920E-02 0.  1.
       -2    1    3    3    0  502  0.59763802541E+02 -0.16441322162E+03 -0.37874649300E+03  0.41719578797E+03  0.25500000920E-02 0. -1.
</event>
<event>
 5   0  0.3117389E-01  0.5020779E+03  0.7818609E-02  0.1013238E+00
       -2   -1    0    0    0  501  0.00000000000E+00  0.00000000000E+00  0.79237977985E+02  0.79237978026E+02  0.25500000920E-02 0. -1.
        2   -1    0    0  501    0  0.00000000000E+00  0.00000000000E+00 -0.79533268393E+03  0.79533268394E+03  0.25500000920E-02 0.  1.
    10030    2    1    2    0    0  0.00000000000E+00  0.00000000000E+00 -0.71609470595E+03  0.87457066196E+03  0.50207789722E+03 0.  0.
        4    1    3    3  502    0  0.13047311339E+03  0.10517761684E+03 -0.68361713092E+03  0.70386046841E+03  0.12699999809E+01 0.  1.
       -4    1    3    3    0  502 -0.13047311339E+03 -0.10517761684E+03 -0.32477575027E+02  0.17071019355E+03  0.12699999809E+01 0. -1.
</event>
<event>
 5   0  0.1967161E-01  0.3811589E+03  0.7818609E-02  0.1050506E+00
        1   -1    0    0  501    0  0.00000000000E+00  0.00000000000E+00  0.26020941086E+02  0.26020941575E+02  0.50400001928E-02 0.  1.
       -1   -1    0    0    0  501  0.00000000000E+00  0.00000000000E+00 -0.13958191809E+04  0.13958191809E+04  0.50400001928E-02 0. -1.
    10030    2    1    2    0    0  0.00000000000E+00  0.00000000000E+00 -0.13697982398E+04  0.14218401225E+04  0.38115891188E+03 0.  0.
        1    1    3    3  502    0  0.14414237039E+02  0.12976083523E+03 -0.12027927603E+04  0.12098578713E+04  0.50400001928E-02 0. -1.
       -1    1    3    3    0  502 -0.14414237039E+02 -0.12976083523E+03 -0.16700547954E+03  0.21198225117E+03  0.50400001928E-02 0.  1.
</event>
<event>
 5   0  0.3178149E-01  0.4857781E+03  0.7818609E-02  0.1017559E+00
       -2   -1    0    0    0  501  0.00000000000E+00  0.00000000000E+00  0.16273036348E+03  0.16273036350E+03  0.25500000920E-02 0.  1.
        2   -1    0    0  501    0  0.00000000000E+00  0.00000000000E+00 -0.36253275765E+03  0.36253275766E+03  0.25500000920E-02 0. -1.
    10030    2    1    2    0    0  0.00000000000E+00  0.00000000000E+00 -0.19980239417E+03  0.52526312116E+03  0.48577808692E+03 0.  0.
        3    1    3    3  502    0 -0.13397855738E+02  0.23605260581E+03 -0.39749039017E+02  0.23975056111E+03  0.10100000352E+00 0.  1.
       -3    1    3    3    0  502  0.13397855738E+02 -0.23605260581E+03 -0.16005335516E+03  0.28551256005E+03  0.10100000352E+00 0. -1.
</event>
<event>
 5   0  0.1967161E-01  0.5051811E+03  0.7818609E-02  0.1012435E+00
        1   -1    0    0  501    0  0.00000000000E+00  0.00000000000E+00  0.65025906177E+03  0.65025906179E+03  0.50400001928E-02 0. -1.
       -1   -1    0    0    0  501  0.00000000000E+00  0.00000000000E+00 -0.98117792950E+02  0.98117793080E+02  0.50400001928E-02 0.  1.
    10030    2    1    2    0    0  0.00000000000E+00  0.00000000000E+00  0.55214126882E+03  0.74837685487E+03  0.50518109245E+03 0.  0.
        1    1    3    3  502    0 -0.14677156257E+02 -0.24498217794E+03  0.36458738617E+03  0.43949476516E+03  0.50400001928E-02 0.  1.
       -1    1    3    3    0  502  0.14677156257E+02  0.24498217794E+03  0.18755388265E+03  0.30888208971E+03  0.50400001928E-02 0. -1.
</event>
<event>
 5   0  0.1292375E-01  0.5090321E+03  0.7818609E-02  0.1011448E+00
        3   -1    0    0  501    0  0.00000000000E+00  0.00000000000E+00  0.16649926791E+03  0.16649929855E+03  0.10100000352E+00 0.  1.
       -3   -1    0    0    0  501  0.00000000000E+00  0.00000000000E+00 -0.38906121377E+03  0.38906122688E+03  0.10100000352E+00 0. -1.
    10030    2    1    2    0    0  0.00000000000E+00  0.00000000000E+00 -0.22256194586E+03  0.55556052543E+03  0.50903209886E+03 0.  0.
        3    1    3    3  502    0  0.16741362682E+03 -0.18506953452E+03 -0.56706823541E+02  0.25591742631E+03  0.10100000352E+00 0.  1.
       -3    1    3    3    0  502 -0.16741362682E+03  0.18506953452E+03 -0.16585512232E+03  0.29964309912E+03  0.10100000352E+00 0. -1.
</event>
<event>
 5   0  0.3187123E-01  0.4945440E+03  0.7818609E-02  0.1015213E+00
        2   -1    0    0  501    0  0.00000000000E+00  0.00000000000E+00  0.11266055638E+04  0.11266055638E+04  0.25500000920E-02 0. -1.
       -2   -1    0    0    0  501  0.00000000000E+00  0.00000000000E+00 -0.54272277015E+02  0.54272277075E+02  0.25500000920E-02 0.  1.
    10030    2    1    2    0    0  0.00000000000E+00  0.00000000000E+00  0.10723332868E+04  0.11808778409E+04  0.49454402952E+03 0.  0.
        5    1    3    3  502    0 -0.10525249766E+03  0.15166098907E+03  0.92883069558E+03  0.94700987055E+03  0.46999998093E+01 0. -1.
       -5    1    3    3    0  502  0.10525249766E+03 -0.15166098907E+03  0.14350259122E+03  0.23386797035E+03  0.46999998093E+01 0.  1.
</event>
<event>
 5   0  0.1984680E-01  0.5098487E+03  0.7818609E-02  0.1011240E+00
        1   -1    0    0  501    0  0.00000000000E+00  0.00000000000E+00  0.16068307733E+04  0.16068307733E+04  0.50400001928E-02 0.  1.
       -1   -1    0    0    0  501  0.00000000000E+00  0.00000000000E+00 -0.40443857957E+02  0.40443858271E+02  0.50400001928E-02 0. -1.
    10030    2    1    2    0    0  0.00000000000E+00  0.00000000000E+00  0.15663869153E+04  0.16472746315E+04  0.50984874549E+03 0.  0.
        5    1    3    3  502    0  0.10524303337E+03 -0.11957393832E+03  0.14260575636E+04  0.14349342450E+04  0.46999998093E+01 0.  1.
       -5    1    3    3    0  502 -0.10524303337E+03  0.11957393832E+03  0.14032935167E+03  0.21234038650E+03  0.46999998093E+01 0. -1.
</event>
<event>
 5   0  0.2000612E-01  0.4865453E+03  0.7818609E-02  0.1017352E+00
        1   -1    0    0  501    0  0.00000000000E+00  0.00000000000E+00  0.12459694098E+04  0.12459694098E+04  0.50400001928E-02 0. -1.
       -1   -1    0    0    0  501  0.00000000000E+00  0.00000000000E+00 -0.47498430073E+02  0.47498430341E+02  0.50400001928E-02 0.  1.
    10030    2    1    2    0    0  0.00000000000E+00  0.00000000000E+00  0.11984709797E+04  0.12934678401E+04  0.48654533627E+03 0.  0.
        2    1    3    3  502    0  0.19062500708E+02 -0.12201152950E+03  0.11564466895E+04  0.11630215552E+04  0.25500000920E-02 0. -1.
       -2    1    3    3    0  502 -0.19062500708E+02  0.12201152950E+03  0.42024290172E+02  0.13044628487E+03  0.25500000920E-02 0.  1.
</event>
<event>
 5   0  0.3329246E-01  0.4046827E+03  0.7818609E-02  0.1042170E+00
        2   -1    0    0  501    0  0.00000000000E+00  0.00000000000E+00  0.70546870571E+03  0.70546870571E+03  0.25500000920E-02 0. -1.
       -2   -1    0    0    0  501  0.00000000000E+00  0.00000000000E+00 -0.58035210058E+02  0.58035210114E+02  0.25500000920E-02 0.  1.
    10030    2    1    2    0    0  0.00000000000E+00  0.00000000000E+00  0.64743349565E+03  0.76350391582E+03  0.40468271299E+03 0.  0.
        2    1    3    3  502    0 -0.11287614258E+03 -0.90980789238E+02  0.57411699148E+02  0.15593149386E+03  0.25500000920E-02 0.  1.
       -2    1    3    3    0  502  0.11287614258E+03  0.90980789238E+02  0.59002179650E+03  0.60757242196E+03  0.25500000920E-02 0. -1.
</event>
<event>
 5   0  0.3178149E-01  0.5000582E+03  0.7818609E-02  0.1013764E+00
        2   -1    0    0  501    0  0.00000000000E+00  0.00000000000E+00  0.23782184597E+03  0.23782184598E+03  0.25500000920E-02 0.  1.
       -2   -1    0    0    0  501  0.00000000000E+00  0.00000000000E+00 -0.26286298732E+03  0.26286298733E+03  0.25500000920E-02 0. -1.
    10030    2    1    2    0    0  0.00000000000E+00  0.00000000000E+00 -0.25041141348E+02  0.50068483331E+03  0.50005824016E+03 0.  0.
        3    1    3    3  502    0 -0.44801182754E+02 -0.38076027898E+01  0.23374067670E+03  0.23802596069E+03  0.10100000352E+00 0.  1.
       -3    1    3    3    0  502  0.44801182754E+02  0.38076027898E+01 -0.25878181805E+03  0.26265887263E+03  0.10100000352E+00 0. -1.
</event>
<event>
 5   0  0.1984297E-01  0.5304734E+03  0.7818609E-02  0.1006117E+00
        1   -1    0    0  501    0  0.00000000000E+00  0.00000000000E+00  0.11398772666E+04  0.11398772666E+04  0.50400001928E-02 0.  1.
       -1   -1    0    0    0  501  0.00000000000E+00  0.00000000000E+00 -0.61717617183E+02  0.61717617389E+02  0.50400001928E-02 0. -1.
    10030    2    1    2    0    0  0.00000000000E+00  0.00000000000E+00  0.10781596494E+04  0.12015948840E+04  0.53047340709E+03 0.  0.
        3    1    3    3  502    0  0.21721723377E+03 -0.15209784448E+03  0.55217415056E+03  0.61254663797E+03  0.10100000352E+00 0. -1.
       -3    1    3    3    0  502 -0.21721723377E+03  0.15209784448E+03  0.52598549889E+03  0.58904824606E+03  0.10100000352E+00 0.  1.
</event>
<event>
 5   0  0.1292375E-01  0.4972810E+03  0.7818609E-02  0.1014491E+00
       -4   -1    0    0    0  501  0.00000000000E+00  0.00000000000E+00  0.34983794564E+03  0.34984025084E+03  0.12699999809E+01 0. -1.
        4   -1    0    0  501    0  0.00000000000E+00  0.00000000000E+00 -0.17671121917E+03  0.17671578277E+03  0.12699999809E+01 0.  1.
    10030    2    1    2    0    0  0.00000000000E+00  0.00000000000E+00  0.17312672647E+03  0.52655603361E+03  0.49728100015E+03 0.  0.
        2    1    3    3  502    0  0.99757084483E+02  0.34354302485E+02  0.32496300842E+03  0.34166160284E+03  0.25500000920E-02 0. -1.
       -2    1    3    3    0  502 -0.99757084483E+02 -0.34354302485E+02 -0.15183628196E+03  0.18489443077E+03  0.25500000920E-02 0.  1.
</event>
<event>
 5   0  0.3117389E-01  0.4987753E+03  0.7818609E-02  0.1014099E+00
        2   -1    0    0  501    0  0.00000000000E+00  0.00000000000E+00  0.36275245164E+03  0.36275245165E+03  0.25500000920E-02 0.  1.
       -2   -1    0    0    0  501  0.00000000000E+00  0.00000000000E+00 -0.17145080149E+03  0.17145080151E+03  0.25500000920E-02 0. -1.
    10030    2    1    2    0    0  0.00000000000E+00  0.00000000000E+00  0.19130165015E+03  0.53420325315E+03  0.49877529443E+03 0.  0.
        4    1    3    3  502    0 -0.11942303079E+03  0.18826517220E+03  0.21533308659E+03  0.30996062076E+03  0.12699999809E+01 0.  1.
       -4    1    3    3    0  502  0.11942303079E+03 -0.18826517220E+03 -0.24031436435E+02  0.22424263239E+03  0.12699999809E+01 0. -1.
</event>
<event>
 5   0  0.3329246E-01  0.5074998E+03  0.7818609E-02  0.1011840E+00
       -2   -1    0    0    0  501  0.00000000000E+00  0.00000000000E+00  0.26168993127E+03  0.26168993128E+03  0.25500000920E-02 0.  1.
        2   -1    0    0  501    0  0.00000000000E+00  0.00000000000E+00 -0.24605079511E+03  0.24605079512E+03  0.25500000920E-02 0. -1.
    10030    2    1    2    0    0  0.00000000000E+00  0.00000000000E+00  0.15639136161E+02  0.50774072640E+03  0.50749981544E+03 0.  0.
        2    1    3    3  502    0 -0.11797928964E+03 -0.21760865026E+03  0.63670598613E+02  0.25559065434E+03  0.25500000920E-02 0.  1.
       -2    1    3    3    0  502  0.11797928964E+03  0.21760865026E+03 -0.48031462451E+02  0.25215007207E+03  0.25500000920E-02 0. -1.
</event>
<event>
 5   0  0.1292375E-01  0.4571332E+03  0.7818609E-02  0.1025616E+00
       -4   -1    0    0    0  501  0.00000000000E+00  0.00000000000E+00  0.12077986963E+03  0.12078654647E+03  0.12699999809E+01 0.  1.
        4   -1    0    0  501    0  0.00000000000E+00  0.00000000000E+00 -0.43252508213E+03  0.43252694664E+03  0.12699999809E+01 0. -1.
    10030    2    1    2    0    0  0.00000000000E+00  0.00000000000E+00 -0.31174521250E+03  0.55331349311E+03  0.45713317988E+03 0.  0.
        1    1    3    3  502    0 -0.70235356048E+02 -0.18589889905E+03 -0.29255274449E+03  0.35366440907E+03  0.50400001928E-02 0. -1.
       -1    1    3    3    0  502  0.70235356048E+02  0.18589889905E+03 -0.19192468008E+02  0.19964908405E+03  0.50400001928E-02 0.  1.
</event>
<event>
 5   0  0.3117389E-01  0.5006257E+03  0.7818609E-02  0.1013616E+00
       -2   -1    0    0    0  501  0.00000000000E+00  0.00000000000E+00  0.73911516889E+02  0.73911516933E+02  0.25500000920E-02 0. -1.
        2   -1    0    0  501    0  0.00000000000E+00  0.00000000000E+00 -0.84772330317E+03  0.84772330318E+03  0.25500000920E-02 0.  1.
    10030    2    1    2    0    0  0.00000000000E+00  0.00000000000E+00 -0.77381178629E+03  0.92163482011E+03  0.50062566958E+03 0.  0.
        4    1    3    3  502    0  0.13306863742E+02  0.78614140997E+02 -0.82371419137E+03  0.82756506557E+03  0.12699999809E+01 0.  1.
       -4    1    3    3    0  502 -0.13306863742E+02 -0.78614140997E+02  0.49902405081E+02  0.94069754544E+02  0.12699999809E+01 0. -1.
</event>
<event>
 5   0  0.3187123E-01  0.4980418E+03  0.7818609E-02  0.1014291E+00
       -2   -1    0    0    0  501  0.00000000000E+00  0.00000000000E+00  0.72089052676E+02  0.72089052721E+02  0.25500000920E-02 0. -1.
        2   -1    0    0  501    0  0.00000000000E+00  0.00000000000E+00 -0.86020558917E+03  0.86020558917E+03  0.25500000920E-02 0.  1.
    10030    2    1    2    0    0  0.00000000000E+00  0.00000000000E+00 -0.78811653649E+03  0.93229464189E+03  0.49804178962E+03 0.  0.
        5    1    3    3  502    0  0.69516120251E+02 -0.15270902104E+03 -0.73839386130E+03  0.75723188027E+03  0.46999998093E+01 0.  1.
       -5    1    3    3    0  502 -0.69516120251E+02  0.15270902104E+03 -0.49722675187E+02  0.17506276163E+03  0.46999998093E+01 0. -1.
</event>
<event>
 5   0  0.3117389E-01  0.5180838E+03  0.7818609E-02  0.1009164E+00
       -2   -1    0    0    0  501  0.00000000000E+00  0.00000000000E+00  0.44789366694E+02  0.44789366766E+02  0.25500000920E-02 0.  1.
        2   -1    0    0  501    0  0.00000000000E+00  0.00000000000E+00 -0.14981836732E+04  0.14981836732E+04  0.25500000920E-02 0. -1.
    10030    2    1    2    0    0  0.00000000000E+00  0.00000000000E+00 -0.14533943065E+04  0.15429730399E+04  0.51808376917E+03 0.  0.
        4    1    3    3  502    0  0.65015982397E+02  0.22659907968E+02 -0.14704236762E+04  0.14720353086E+04  0.12699999809E+01 0. -1.
       -4    1    3    3    0  502 -0.65015982397E+02 -0.22659907968E+02  0.17029369696E+02  0.70937731345E+02  0.12699999809E+01 0.  1.
</event>
<event>
 5   0  0.3329246E-01  0.4941250E+03  0.7818609E-02  0.1015324E+00
       -2   -1    0    0    0  501  0.00000000000E+00  0.00000000000E+00  0.10395054711E+03  0.10395054715E+03  0.25500000920E-02 0. -1.
        2   -1    0    0  501    0  0.00000000000E+00  0.00000000000E+00 -0.58720120803E+03  0.58720120803E+03  0.25500000920E-02 0.  1.
    10030    2    1    2    0    0  0.00000000000E+00  0.00000000000E+00 -0.48325066091E+03  0.69115175518E+03  0.49412503217E+03 0.  0.
        2    1    3    3  502    0  0.19189515241E+03  0.50422285980E+02 -0.35703024398E+02  0.20159578964E+03  0.25500000920E-02 0. -1.
       -2    1    3    3    0  502 -0.19189515241E+03 -0.50422285980E+02 -0.44754763651E+03  0.48955596554E+03  0.25500000920E-02 0.  1.
</event>
<event>
 5   0  0.3187123E-01  0.4360965E+03  0.7818609E-02  0.1031951E+00
       -2   -1    0    0    0  501  0.00000000000E+00  0.00000000000E+00  0.19358826998E+03  0.19358826999E+03  0.25500000920E-02 0. -1.
        2   -1    0    0  501    0  0.00000000000E+00  0.00000000000E+00 -0.24559873051E+03  0.24559873052E+03  0.25500000920E-02 0.  1.
    10030    2    1    2    0    0  0.00000000000E+00  0.00000000000E+00 -0.52010460532E+02  0.43918700052E+03  0.43609647260E+03 0.  0.
        5    1    3    3  502    0  0.89548640853E+02 -0.16208866367E+03 -0.14184757269E+03  0.23331206108E+03  0.46999998093E+01 0.  1.
       -5    1    3    3    0  502 -0.89548640853E+02  0.16208866367E+03  0.89837112160E+02  0.20587493944E+03  0.46999998093E+01 0. -1.
</event>
<event>
 5   0  0.1967161E-01  0.4955335E+03  0.7818609E-02  0.1014951E+00
       -1   -1    0    0    0  501  0.00000000000E+00  0.00000000000E+00  0.10370690302E+03  0.10370690314E+03  0.50400001928E-02 0.  1.
        1   -1    0    0  501    0  0.00000000000E+00  0.00000000000E+00 -0.59194093320E+03  0.59194093322E+03  0.50400001928E-02 0. -1.
    10030    2    1    2    0    0  0.00000000000E+00  0.00000000000E+00 -0.48823403018E+03  0.69564783637E+03  0.49553349434E+03 0.  0.
        1    1    3    3  502    0 -0.52853128859E+01 -0.21434813178E+03 -0.69818983425E+02  0.22549444916E+03  0.50400001928E-02 0.  1.
       -1    1    3    3    0  502  0.52853128859E+01  0.21434813178E+03 -0.41841504675E+03  0.47015338721E+03  0.50400001928E-02 0. -1.
</event>
<event>
 5   0  0.3178149E-01  0.5143986E+03  0.7818609E-02  0.1010088E+00
       -2   -1    0    0    0  501  0.00000000000E+00  0.00000000000E+00  0.66532747978E+02  0.66532748027E+02  0.25500000920E-02 0. -1.
        2   -1    0    0  501    0  0.00000000000E+00  0.00000000000E+00 -0.99426957858E+03  0.99426957858E+03  0.25500000920E-02 0.  1.
    10030    2    1    2    0    0  0.00000000000E+00  0.00000000000E+00 -0.92773683060E+03  0.10608023266E+04  0.51439862878E+03 0.  0.
        3    1    3    3  502    0 -0.87312315867E+02  0.16865090864E+03 -0.82156023048E+03  0.84322463910E+03  0.10100000352E+00 0.  1.
       -3    1    3    3    0  502  0.87312315867E+02 -0.16865090864E+03 -0.10617660012E+03  0.21757768751E+03  0.10100000352E+00 0. -1.
</event>
<event>
 5   0  0.1967161E-01  0.5116287E+03  0.7818609E-02  0.1010787E+00
       -1   -1    0    0    0  501  0.00000000000E+00  0.00000000000E+00  0.10139114437E+03  0.10139114450E+03  0.50400001928E-02 0. -1.
        1   -1    0    0  501    0  0.00000000000E+00  0.00000000000E+00 -0.64543105929E+03  0.64543105931E+03  0.50400001928E-02 0.  1.
    10030    2    1    2    0    0  0.00000000000E+00  0.00000000000E+00 -0.54403991491E+03  0.74682220380E+03  0.51162874731E+03 0.  0.
        1    1    3    3  502    0  0.21127205834E+03 -0.33472150411E+02 -0.47681855241E+03  0.52260137718E+03  0.50400001928E-02 0.  1.
       -1    1    3    3    0  502 -0.21127205834E+03  0.33472150411E+02 -0.67221362506E+02  0.22422082662E+03  0.50400001928E-02 0. -1.
</event>
<event>
 5   0  0.3329246E-01  0.5254393E+03  0.7818609E-02  0.1007344E+00
       -2   -1    0    0    0  501  0.00000000000E+00  0.00000000000E+00  0.24122423223E+03  0.24122423224E+03  0.25500000920E-02 0. -1.
        2   -1    0    0  501    0  0.00000000000E+00  0.00000000000E+00 -0.28613053138E+03  0.28613053139E+03  0.25500000920E-02 0.  1.
    10030    2    1    2    0    0  0.00000000000E+00  0.00000000000E+00 -0.44906299152E+02  0.52735476363E+03  0.52543931240E+03 0.  0.
        2    1    3    3  502    0  0.25707068894E+02 -0.20410369080E+03 -0.18645768097E+03  0.27764300241E+03  0.25500000920E-02 0.  1.
       -2    1    3    3    0  502 -0.25707068894E+02  0.20410369080E+03  0.14155138181E+03  0.24971176122E+03  0.25500000920E-02 0. -1.
</event>
<event>
 5   0  0.3187123E-01  0.5116427E+03  0.7818609E-02  0.1010784E+00
       -2   -1    0    0    0  501  0.00000000000E+00  0.00000000000E+00  0.62932653461E+02  0.62932653513E+02  0.25500000920E-02 0. -1.
        2   -1    0    0  501    0  0.00000000000E+00  0.00000000000E+00 -0.10399142279E+04  0.10399142279E+04  0.25500000920E-02 0.  1.
    10030    2    1    2    0    0  0.00000000000E+00  0.00000000000E+00 -0.97698157446E+03  0.11028468814E+04  0.51164269472E+03 0.  0.
        5    1    3    3  502    0 -0.23935957679E+03  0.56660309579E+02 -0.33731225538E+03  0.41749855726E+03  0.46999998093E+01 0. -1.
       -5    1    3    3    0  502  0.23935957679E+03 -0.56660309579E+02 -0.63966931908E+03  0.68534832417E+03  0.46999998093E+01 0.  1.
</event>
<event>
 5   0  0.1967161E-01  0.4754221E+03  0.7818609E-02  0.1020401E+00
       -1   -1    0    0    0  501  0.00000000000E+00  0.00000000000E+00  0.78778701200E+02  0.78778701361E+02  0.50400001928E-02 0.  1.
        1   -1    0    0  501    0  0.00000000000E+00  0.00000000000E+00 -0.71728200808E+03  0.71728200809E+03  0.50400001928E-02 0. -1.
    10030    2    1    2    0    0  0.00000000000E+00  0.00000000000E+00 -0.63850330688E+03  0.79606070945E+03  0.47542210744E+03 0.  0.
        1    1    3    3  502    0 -0.19644625928E+03  0.12240788110E+03 -0.40991427560E+03  0.47074890920E+03  0.50400001928E-02 0.  1.
       -1    1    3    3    0  502  0.19644625928E+03 -0.12240788110E+03 -0.22858903127E+03  0.32531180026E+03  0.50400001928E-02 0. -1.
</event>
<event>
 5   0  0.2013450E-01  0.4958313E+03  0.7818609E-02  0.1014873E+00
        1   -1    0    0  501    0  0.00000000000E+00  0.00000000000E+00  0.62362712764E+03  0.62362712767E+03  0.50400001928E-02 0.  1.
       -1   -1    0    0    0  501  0.00000000000E+00  0.00000000000E+00 -0.98555963089E+02  0.98555963218E+02  0.50400001928E-02 0. -1.
    10030    2    1    2    0    0  0.00000000000E+00  0.00000000000E+00  0.52507116456E+03  0.72218309088E+03  0.49583131094E+03 0.  0.
        4    1    3    3  502    0  0.17656719636E+03  0.16528153665E+03  0.18320461907E+03  0.30341309552E+03  0.12699999809E+01 0.  1.
       -4    1    3    3    0  502 -0.17656719636E+03 -0.16528153665E+03  0.34186654549E+03  0.41876999536E+03  0.12699999809E+01 0. -1.
</event>
<event>
 5   0  0.1984297E-01  0.5488784E+03  0.7818609E-02  0.1001754E+00
        1   -1    0    0  501    0  0.00000000000E+00  0.00000000000E+00  0.13157234702E+03  0.13157234711E+03  0.50400001928E-02 0.  1.
       -1   -1    0    0    0  501  0.00000000000E+00  0.00000000000E+00 -0.57243699014E+03  0.57243699016E+03  0.50400001928E-02 0. -1.
    10030    2    1    2    0    0  0.00000000000E+00  0.00000000000E+00 -0.44086464312E+03  0.70400933727E+03  0.54887841405E+03 0.  0.
        3    1    3    3  502    0 -0.28618156943E+02 -0.20501746558E+03  0.10675533709E+02  0.20728033510E+03  0.10100000352E+00 0.  1.
       -3    1    3    3    0  502  0.28618156943E+02  0.20501746558E+03 -0.45154017683E+03  0.49672900216E+03  0.10100000352E+00 0. -1.
</event>
<event>
 5   0  0.1984680E-01  0.5075228E+03  0.7818609E-02  0.1011834E+00
       -1   -1    0    0    0  501  0.00000000000E+00  0.00000000000E+00  0.34501928977E+02  0.34501929345E+02  0.50400001928E-02 0. -1.
        1   -1    0    0  501    0  0.00000000000E+00  0.00000000000E+00 -0.18664130364E+04  0.18664130364E+04  0.50400001928E-02 0.  1.
    10030    2    1    2    0    0  0.00000000000E+00  0.00000000000E+00 -0.18319111074E+04  0.19009149657E+04  0.50752280887E+03 0.  0.
        5    1    3    3  502    0 -0.13073857304E+03  0.19395667022E+03 -0.12840998495E+04  0.13052380158E+04  0.46999998093E+01 0.  1.
       -5    1    3    3    0  502  0.13073857304E+03 -0.19395667022E+03 -0.54781125795E+03  0.59567694998E+03  0.46999998093E+01 0. -1.
</event>
<event>
 5   0  0.1984680E-01  0.4924538E+03  0.7818609E-02  0.1015768E+00
       -1   -1    0    0    0  501  0.00000000000E+00  0.00000000000E+00  0.87248097840E+02  0.87248097985E+02  0.50400001928E-02 0.  1.
        1   -1    0    0  501    0  0.00000000000E+00  0.00000000000E+00 -0.69488823366E+03  0.69488823368E+03  0.50400001928E-02 0. -1.
    10030    2    1    2    0    0  0.00000000000E+00  0.00000000000E+00 -0.60764013582E+03  0.78213633167E+03  0.49245376092E+03 0.  0.
        5    1    3    3  502    0 -0.19943315684E+03 -0.80830212754E+02 -0.11390390488E+03  0.24352268248E+03  0.46999998093E+01 0.  1.
       -5    1    3    3    0  502  0.19943315684E+03  0.80830212754E+02 -0.49373623094E+03  0.53861364918E+03  0.46999998093E+01 0. -1.
</event>
<event>
 5   0  0.1984297E-01  0.4833256E+03  0.7818609E-02  0.1018225E+00
       -1   -1    0    0    0  501  0.00000000000E+00  0.00000000000E+00  0.77329399129E+02  0.77329399293E+02  0.50400001928E-02 0. -1.
        1   -1    0    0  501    0  0.00000000000E+00  0.00000000000E+00 -0.75522251822E+03  0.75522251823E+03  0.50400001928E-02 0.  1.
    10030    2    1    2    0    0  0.00000000000E+00  0.00000000000E+00 -0.67789311909E+03  0.83255191753E+03  0.48332557813E+03 0.  0.
        3    1    3    3  502    0  0.12284630411E+03  0.19382312980E+03 -0.46947750301E+03  0.52255885421E+03  0.10100000352E+00 0.  1.
       -3    1    3    3    0  502 -0.12284630411E+03 -0.19382312980E+03 -0.20841561608E+03  0.30999306332E+03  0.10100000352E+00 0. -1.
</event>
<event>
 5   0  0.3187123E-01  0.4997422E+03  0.7818609E-02  0.1013846E+00
        2   -1    0    0  501    0  0.00000000000E+00  0.00000000000E+00  0.10991888341E+04  0.10991888341E+04  0.25500000920E-02 0. -1.
       -2   -1    0    0    0  501  0.00000000000E+00  0.00000000000E+00 -0.56801483552E+02  0.56801483609E+02  0.25500000920E-02 0.  1.
    10030    2    1    2    0    0  0.00000000000E+00  0.00000000000E+00  0.10423873506E+04  0.11559903178E+04  0.49974215959E+03 0.  0.
        5    1    3    3  502    0 -0.24453551083E+03  0.47466942386E+02  0.47713759681E+03  0.53826861599E+03  0.46999998093E+01 0.  1.
       -5    1    3    3    0  502  0.24453551083E+03 -0.47466942386E+02  0.56524975378E+03  0.61772170176E+03  0.46999998093E+01 0. -1.
</event>
<event>
 5   0  0.1292375E-01  0.5051786E+03  0.7818609E-02  0.1012436E+00
        3   -1    0    0  501    0  0.00000000000E+00  0.00000000000E+00  0.97035598754E+02  0.97035651317E+02  0.10100000352E+00 0.  1.
       -3   -1    0    0    0  501  0.00000000000E+00  0.00000000000E+00 -0.65750431278E+03  0.65750432054E+03  0.10100000352E+00 0. -1.
    10030    2    1    2    0    0  0.00000000000E+00  0.00000000000E+00 -0.56046871403E+03  0.75453997185E+03  0.50517857212E+03 0.  0.
        1    1    3    3  502    0 -0.24939530136E+03 -0.31219822236E+02 -0.24278510989E+03  0.34945286270E+03  0.50400001928E-02 0. -1.
       -1    1    3    3    0  502  0.24939530136E+03  0.31219822236E+02 -0.31768360414E+03  0.40508710916E+03  0.50400001928E-02 0.  1.
</event>
<event>
 5   0  0.1984680E-01  0.5022210E+03  0.7818609E-02  0.1013201E+00
       -1   -1    0    0    0  501  0.00000000000E+00  0.00000000000E+00  0.11309800937E+04  0.11309800937E+04  0.50400001928E-02 0.  1.
        1   -1    0    0  501    0  0.00000000000E+00  0.00000000000E+00 -0.55753847262E+02  0.55753847490E+02  0.50400001928E-02 0. -1.
    10030    2    1    2    0    0  0.00000000000E+00  0.00000000000E+00  0.10752262464E+04  0.11867339412E+04  0.50222103317E+03 0.  0.
        5    1    3    3  502    0 -0.72480198089E+02  0.19674305506E+03  0.21127323165E+03  0.29769057298E+03  0.46999998093E+01 0. -1.
       -5    1    3    3    0  502  0.72480198089E+02 -0.19674305506E+03  0.86395301473E+03  0.88904336817E+03  0.46999998093E+01 0.  1.
</event>
<event>
 5   0  0.3187123E-01  0.5068969E+03  0.7818609E-02  0.1011994E+00
       -2   -1    0    0    0  501  0.00000000000E+00  0.00000000000E+00  0.58280163446E+02  0.58280163502E+02  0.25500000920E-02 0. -1.
        2   -1    0    0  501    0  0.00000000000E+00  0.00000000000E+00 -0.11021950817E+04  0.11021950817E+04  0.25500000920E-02 0.  1.
    10030    2    1    2    0    0  0.00000000000E+00  0.00000000000E+00 -0.10439149182E+04  0.11604752452E+04  0.50689687134E+03 0.  0.
        5    1    3    3  502    0 -0.22652648689E+03  0.70379705110E+02 -0.72603881113E+03  0.76382065789E+03  0.46999998093E+01 0.  1.
       -5    1    3    3    0  502  0.22652648689E+03 -0.70379705110E+02 -0.31787610708E+03  0.39665458727E+03  0.46999998093E+01 0. -1.
</event>
<event>
 5   0  0.2013450E-01  0.4949456E+03  0.7818609E-02  0.1015107E+00
       -1   -1    0    0    0  501  0.00000000000E+00  0.00000000000E+00  0.10498353752E+03  0.10498353764E+03  0.50400001928E-02 0. -1.
        1   -1    0    0  501    0  0.00000000000E+00  0.00000000000E+00 -0.58335615193E+03  0.58335615195E+03  0.50400001928E-02 0.  1.
    10030    2    1    2    0    0  0.00000000000E+00  0.00000000000E+00 -0.47837261441E+03  0.68833968959E+03  0.49494562333E+03 0.  0.
        4    1    3    3  502    0  0.26557066527E+02  0.24273715809E+03 -0.18330400508E+03  0.30533355020E+03  0.12699999809E+01 0. -1.
       -4    1    3    3    0  502 -0.26557066527E+02 -0.24273715809E+03 -0.29506860933E+03  0.38300613940E+03  0.12699999809E+01 0.  1.
</event>
<event>
 5   0  0.1984680E-01  0.4948145E+03  0.7818609E-02  0.1015141E+00
       -1   -1    0    0    0  501  0.00000000000E+00  0.00000000000E+00  0.45989587992E+02  0.45989588268E+02  0.50400001928E-02 0.  1.
        1   -1    0    0  501    0  0.00000000000E+00  0.00000000000E+00 -0.13309607314E+04  0.13309607314E+04  0.50400001928E-02 0. -1.
    10030    2    1    2    0    0  0.00000000000E+00  0.00000000000E+00 -0.12849711434E+04  0.13769503197E+04  0.49481445358E+03 0.  0.
        5    1    3    3  502    0  0.11390696336E+03 -0.19080494088E+03 -0.94485945679E+03  0.97065071207E+03  0.46999998093E+01 0.  1.
       -5    1    3    3    0  502 -0.11390696336E+03  0.19080494088E+03 -0.34011168664E+03  0.40629960762E+03  0.46999998093E+01 0. -1.
</event>
<event>
 5   0  0.3178149E-01  0.4964184E+03  0.7818609E-02  0.1014718E+00
       -2   -1    0    0    0  501  0.00000000000E+00  0.00000000000E+00  0.29280650580E+03  0.29280650581E+03  0.25500000920E-02 0.  1.
        2   -1    0    0  501    0  0.00000000000E+00  0.00000000000E+00 -0.21040454349E+03  0.21040454351E+03  0.25500000920E-02 0. -1.
    10030    2    1    2    0    0  0.00000000000E+00  0.00000000000E+00  0.82401962306E+02  0.50321104931E+03  0.49641844925E+03 0.  0.
        3    1    3    3  502    0  0.24165373967E+02  0.18869696531E+03  0.20281050613E+03  0.27806945466E+03  0.10100000352E+00 0.  1.
       -3    1    3    3    0  502 -0.24165373967E+02 -0.18869696531E+03 -0.12040854382E+03  0.22514159465E+03  0.10100000352E+00 0. -1.
</event>
<event>
 5   0  0.3187123E-01  0.4866472E+03  0.7818609E-02  0.1017324E+00
        2   -1    0    0  501    0  0.00000000000E+00  0.00000000000E+00  0.59126487847E+03  0.59126487848E+03  0.25500000920E-02 0. -1.
       -2   -1    0    0    0  501  0.00000000000E+00  0.00000000000E+00 -0.10013512845E+03  0.10013512848E+03  0.25500000920E-02 0.  1.
    10030    2    1    2    0    0  0.00000000000E+00  0.00000000000E+00  0.49112975003E+03  0.69140000696E+03  0.48664724211E+03 0.  0.
        5    1    3    3  502    0  0.18074076575E+03 -0.12694653363E+03  0.10066560934E+03  0.24277211888E+03  0.46999998093E+01 0.  1.
       -5    1    3    3    0  502 -0.18074076575E+03  0.12694653363E+03  0.39046414069E+03  0.44862788808E+03  0.46999998093E+01 0. -1.
</event>
<event>
 5   0  0.1984680E-01  0.5057130E+03  0.7818609E-02  0.1012298E+00
       -1   -1    0    0    0  501  0.00000000000E+00  0.00000000000E+00  0.19901882765E+03  0.19901882771E+03  0.50400001928E-02 0.  1.
        1   -1    0    0  501    0  0.00000000000E+00  0.00000000000E+00 -0.32125814380E+03  0.32125814384E+03  0.50400001928E-02 0. -1.
    10030    2    1    2    0    0  0.00000000000E+00  0.00000000000E+00 -0.12223931615E+03  0.52027697156E+03  0.50571303792E+03 0.  0.
        5    1    3    3  502    0  0.87700438880E+02  0.43069131083E+02  0.17876483813E+03  0.20377751196E+03  0.46999998093E+01 0.  1.
       -5    1    3    3    0  502 -0.87700438880E+02 -0.43069131083E+02 -0.30100415428E+03  0.31649945960E+03  0.46999998093E+01 0. -1.
</event>
<event>
 5   0  0.3117389E-01  0.5023917E+03  0.7818609E-02  0.1013157E+00
        2   -1    0    0  501    0  0.00000000000E+00  0.00000000000E+00  0.15097356943E+04  0.15097356943E+04  0.25500000920E-02 0. -1.
       -2   -1    0    0    0  501  0.00000000000E+00  0.00000000000E+00 -0.41794967542E+02  0.41794967620E+02  0.25500000920E-02 0.  1.
    10030    2    1    2    0    0  0.00000000000E+00  0.00000000000E+00  0.14679407267E+04  0.15515306619E+04  0.50239169739E+03 0.  0.
        4    1    3    3  502    0  0.16622095555E+03  0.14110419702E+02  0.13139542225E+04  0.13245021034E+04  0.12699999809E+01 0. -1.
       -4    1    3    3    0  502 -0.16622095555E+03 -0.14110419702E+02  0.15398650417E+03  0.22702855850E+03  0.12699999809E+01 0.  1.
</event>
<event>
 5   0  0.1967161E-01  0.4866393E+03  0.7818609E-02  0.1017326E+00
        1   -1    0    0  501    0  0.00000000000E+00  0.00000000000E+00  0.49437096188E+03  0.49437096190E+03  0.50400001928E-02 0. -1.
       -1   -1    0    0    0  501  0.00000000000E+00  0.00000000000E+00 -0.11975712643E+03  0.11975712654E+03  0.50400001928E-02 0.  1.
    10030    2    1    2    0    0  0.00000000000E+00  0.00000000000E+00  0.37461383545E+03  0.61412808844E+03  0.48663927431E+03 0.  0.
        1    1    3    3  502    0  0.16093747789E+03  0.14436366491E+03  0.32818972113E+03  0.39300156821E+03  0.50400001928E-02 0. -1.
       -1    1    3    3    0  502 -0.16093747789E+03 -0.14436366491E+03  0.46424114322E+02  0.22112652023E+03  0.50400001928E-02 0.  1.
</event>
<event>
 5   0  0.2000612E-01  0.5014029E+03  0.7818609E-02  0.1013413E+00
        1   -1    0    0  501    0  0.00000000000E+00  0.00000000000E+00  0.94609917487E+03  0.94609917489E+03  0.50400001928E-02 0.  1.
       -1   -1    0    0    0  501  0.00000000000E+00  0.00000000000E+00 -0.66431952038E+02  0.66431952229E+02  0.50400001928E-02 0. -1.
    10030    2    1    2    0    0  0.00000000000E+00  0.00000000000E+00  0.87966722283E+03  0.10125311271E+04  0.50140289234E+03 0.  0.
        2    1    3    3  502    0 -0.92624417507E+02 -0.39665515969E+02 -0.23742450253E+02  0.10351975573E+03  0.25500000920E-02 0. -1.
       -2    1    3    3    0  502  0.92624417507E+02  0.39665515969E+02  0.90340967309E+03  0.90901137139E+03  0.25500000920E-02 0.  1.
</event>
<event>
 5   0  0.2013450E-01  0.4985615E+03  0.7818609E-02  0.1014155E+00
        1   -1    0    0  501    0  0.00000000000E+00  0.00000000000E+00  0.77613065189E+03  0.77613065191E+03  0.50400001928E-02 0.  1.
       -1   -1    0    0    0  501  0.00000000000E+00  0.00000000000E+00 -0.80065001101E+02  0.80065001260E+02  0.50400001928E-02 0. -1.
    10030    2    1    2    0    0  0.00000000000E+00  0.00000000000E+00  0.69606565079E+03  0.85619565317E+03  0.49856153712E+03 0.  0.
        4    1    3    3  502    0 -0.64689110683E+02  0.23047132693E+03  0.46747786198E+03  0.52520365376E+03  0.12699999809E+01 0.  1.
       -4    1    3    3    0  502  0.64689110683E+02 -0.23047132693E+03  0.22858778881E+03  0.33099199941E+03  0.12699999809E+01 0. -1.
</event>
<event>
 5   0  0.2013450E-01  0.5066681E+03  0.7818609E-02  0.1012053E+00
        1   -1    0    0  501    0  0.00000000000E+00  0.00000000000E+00  0.12433965111E+03  0.12433965122E+03  0.50400001928E-02 0.  1.
       -1   -1    0    0    0  501  0.00000000000E+00  0.00000000000E+00 -0.51615185981E+03  0.51615185983E+03  0.50400001928E-02 0. -1.
    10030    2    1    2    0    0  0.00000000000E+00  0.00000000000E+00 -0.39181220869E+03  0.64049151105E+03  0.50666810522E+03 0.  0.
        4    1    3    3  502    0 -0.56868520083E+02  0.28123841256E+02 -0.50594288899E+03  0.50990665699E+03  0.12699999809E+01 0. -1.
       -4    1    3    3    0  502  0.56868520083E+02 -0.28123841256E+02  0.11413068030E+03  0.13058485406E+03  0.12699999809E+01 0.  1.
</event>
<event>
 5   0  0.1967161E-01  0.5067301E+03  0.7818609E-02  0.1012037E+00
        1   -1    0    0  501    0  0.00000000000E+00  0.00000000000E+00  0.39761200928E+03  0.39761200932E+03  0.50400001928E-02 0. -1.
       -1   -1    0    0    0  501  0.00000000000E+00  0.00000000000E+00 -0.16144847028E+03  0.16144847036E+03  0.50400001928E-02 0.  1.
    10030    2    1    2    0    0  0.00000000000E+00  0.00000000000E+00  0.23616353900E+03  0.55906047967E+03  0.50673010842E+03 0.  0.
        1    1    3    3  502    0  0.85907124718E+02  0.12430996589E+03 -0.10629443922E+03  0.18474715027E+03  0.50400001928E-02 0.  1.
       -1    1    3    3    0  502 -0.85907124718E+02 -0.12430996589E+03  0.34245797823E+03  0.37431332941E+03  0.50400001928E-02 0. -1.
</event>
<event>
 5   0  0.1984680E-01  0.4765141E+03  0.7818609E-02  0.1020098E+00
        1   -1    0    0  501    0  0.00000000000E+00  0.00000000000E+00  0.83238599836E+02  0.83238599988E+02  0.50400001928E-02 0.  1.
       -1   -1    0    0    0  501  0.00000000000E+00  0.00000000000E+00 -0.68197237926E+03  0.68197237928E+03  0.50400001928E-02 0. -1.
    10030    2    1    2    0    0  0.00000000000E+00  0.00000000000E+00 -0.59873377943E+03  0.76521097927E+03  0.47651411749E+03 0.  0.
        5    1    3    3  502    0 -0.20536652934E+02  0.87424939840E+02 -0.65367272492E+03  0.65982952004E+03  0.46999998093E+01 0. -1.
       -5    1    3    3    0  502  0.20536652934E+02 -0.87424939840E+02  0.54938945488E+02  0.10538145923E+03  0.46999998093E+01 0.  1.
</event>
<event>
 5   0  0.3117389E-01  0.4963361E+03  0.7818609E-02  0.1014740E+00
       -2   -1    0    0    0  501  0.00000000000E+00  0.00000000000E+00  0.52006793010E+02  0.52006793072E+02  0.25500000920E-02 0. -1.
        2   -1    0    0  501    0  0.00000000000E+00  0.00000000000E+00 -0.11842179578E+04  0.11842179578E+04  0.25500000920E-02 0.  1.
    10030    2    1    2    0    0  0.00000000000E+00  0.00000000000E+00 -0.11322111647E+04  0.12362247508E+04  0.49633608875E+03 0.  0.
        4    1    3    3  502    0  0.20859160850E+01 -0.21680343521E+03 -0.86682803729E+03  0.89353261815E+03  0.12699999809E+01 0.  1.
       -4    1    3    3    0  502 -0.20859160850E+01  0.21680343521E+03 -0.26538312745E+03  0.34269213268E+03  0.12699999809E+01 0. -1.
</event>
<event>
 5   0  0.1984680E-01  0.4960177E+03  0.7818609E-02  0.1014824E+00
        1   -1    0    0  501    0  0.00000000000E+00  0.00000000000E+00  0.17955967031E+03  0.17955967038E+03  0.50400001928E-02 0.  1.
       -1   -1    0    0    0  501  0.00000000000E+00  0.00000000000E+00 -0.34255127412E+03  0.34255127416E+03  0.50400001928E-02 0. -1.
    10030    2    1    2    0    0  0.00000000000E+00  0.00000000000E+00 -0.16299160381E+03  0.52211094454E+03  0.49601771692E+03 0.  0.
        5    1    3    3  502    0 -0.11652355666E+03  0.48033458887E+02 -0.30627414460E+03  0.33122634871E+03  0.46999998093E+01 0. -1.
       -5    1    3    3    0  502  0.11652355666E+03 -0.48033458887E+02  0.14328254079E+03  0.19088459583E+03  0.46999998093E+01 0.  1.
</event>
<event>
 5   0  0.3117389E-01  0.4987248E+03  0.7818609E-02  0.1014112E+00
        2   -1    0    0  501    0  0.00000000000E+00  0.00000000000E+00  0.65254984510E+03  0.65254984510E+03  0.25500000920E-02 0.  1.
       -2   -1    0    0    0  501  0.00000000000E+00  0.00000000000E+00 -0.95290210253E+02  0.95290210287E+02  0.25500000920E-02 0. -1.
    10030    2    1    2    0    0  0.00000000000E+00  0.00000000000E+00  0.55725963485E+03  0.74784005539E+03  0.49872482174E+03 0.  0.
        4    1    3    3  502    0  0.18069293206E+03 -0.33609259998E+02  0.25926707387E+02  0.18561606910E+03  0.12699999809E+01 0. -1.
       -4    1    3    3    0  502 -0.18069293206E+03  0.33609259998E+02  0.53133292746E+03  0.56222398629E+03  0.12699999809E+01 0.  1.
</event>
<event>
 5   0  0.1967161E-01  0.4972002E+03  0.7818609E-02  0.1014512E+00
       -1   -1    0    0    0  501  0.00000000000E+00  0.00000000000E+00  0.34179646218E+03  0.34179646222E+03  0.50400001928E-02 0.  1.
        1   -1    0    0  501    0  0.00000000000E+00  0.00000000000E+00 -0.18081522894E+03  0.18081522901E+03  0.50400001928E-02 0. -1.
    10030    2    1    2    0    0  0.00000000000E+00  0.00000000000E+00  0.16098123324E+03  0.52261169123E+03  0.49720018338E+03 0.  0.
        1    1    3    3  502    0  0.24256597683E+03 -0.47292277054E+02  0.10883536975E+03  0.27003694251E+03  0.50400001928E-02 0.  1.
       -1    1    3    3    0  502 -0.24256597683E+03  0.47292277054E+02  0.52145863488E+02  0.25257474872E+03  0.50400001928E-02 0. -1.
</event>
<event>
 5   0  0.1292375E-01  0.5064884E+03  0.7818609E-02  0.1012099E+00
        3   -1    0    0  501    0  0.00000000000E+00  0.00000000000E+00  0.26384786134E+03  0.26384788067E+03  0.10100000352E+00 0.  1.
       -3   -1    0    0    0  501  0.00000000000E+00  0.00000000000E+00 -0.24306661980E+03  0.24306664078E+03  0.10100000352E+00 0. -1.
    10030    2    1    2    0    0  0.00000000000E+00  0.00000000000E+00  0.20781241543E+02  0.50691452145E+03  0.50648837307E+03 0.  0.
        4    1    3    3  502    0 -0.15333746431E+02  0.24442465019E+03 -0.54103272371E+02  0.25081329786E+03  0.12699999809E+01 0. -1.
       -4    1    3    3    0  502  0.15333746431E+02 -0.24442465019E+03  0.74884513914E+02  0.25610122359E+03  0.12699999809E+01 0.  1.
</event>
<event>
 5   0  0.3111146E-01  0.5038157E+03  0.7818609E-02  0.1012788E+00
        2   -1    0    0  501    0  0.00000000000E+00  0.00000000000E+00  0.84427937348E+02  0.84427937386E+02  0.25500000920E-02 0.  1.
       -2   -1    0    0    0  501  0.00000000000E+00  0.00000000000E+00 -0.75161806119E+03  0.75161806119E+03  0.25500000920E-02 0. -1.
    10030    2    1    2    0    0  0.00000000000E+00  0.00000000000E+00 -0.66719012384E+03  0.83604599858E+03  0.50381569089E+03 0.  0.
        1    1    3    3  502    0 -0.57736641392E+02 -0.19067928558E+03 -0.77776807751E+02  0.21387225523E+03  0.50400001928E-02 0.  1.
       -1    1    3    3    0  502  0.57736641392E+02  0.19067928558E+03 -0.58941331609E+03  0.62217374335E+03  0.50400001928E-02 0. -1.
</event>
<event>
 5   0  0.1967161E-01  0.4670562E+03  0.7818609E-02  0.1022754E+00
        1   -1    0    0  501    0  0.00000000000E+00  0.00000000000E+00  0.35941137708E+03  0.35941137711E+03  0.50400001928E-02 0.  1.
       -1   -1    0    0    0  501  0.00000000000E+00  0.00000000000E+00 -0.15173527569E+03  0.15173527578E+03  0.50400001928E-02 0. -1.
    10030    2    1    2    0    0  0.00000000000E+00  0.00000000000E+00  0.20767610138E+03  0.51114665289E+03  0.46705624680E+03 0.  0.
        1    1    3    3  502    0 -0.18291933617E+03 -0.59658932298E+02 -0.41006659453E+02  0.19672370953E+03  0.50400001928E-02 0. -1.
       -1    1    3    3    0  502  0.18291933617E+03  0.59658932298E+02  0.24868276084E+03  0.31442294336E+03  0.50400001928E-02 0.  1.
</event>
<event>
 5   0  0.3329246E-01  0.4932682E+03  0.7818609E-02  0.1015551E+00
        2   -1    0    0  501    0  0.00000000000E+00  0.00000000000E+00  0.12989304153E+04  0.12989304153E+04  0.25500000920E-02 0.  1.
       -2   -1    0    0    0  501  0.00000000000E+00  0.00000000000E+00 -0.46829582367E+02  0.46829582437E+02  0.25500000920E-02 0. -1.
    10030    2    1    2    0    0  0.00000000000E+00  0.00000000000E+00  0.12521008329E+04  0.13457599977E+04  0.49326815798E+03 0.  0.
        2    1    3    3  502    0 -0.17426662951E+03 -0.55827406202E+02  0.10771849965E+04  0.10926175333E+04  0.25500000920E-02 0.  1.
       -2    1    3    3    0  502  0.17426662951E+03  0.55827406202E+02  0.17491583642E+03  0.25314246440E+03  0.25500000920E-02 0. -1.
</event>
<event>
 5   0  0.1967161E-01  0.5005828E+03  0.7818609E-02  0.1013627E+00
        1   -1    0    0  501    0  0.00000000000E+00  0.00000000000E+00  0.69253913389E+03  0.69253913390E+03  0.50400001928E-02 0.  1.
       -1   -1    0    0    0  501  0.00000000000E+00  0.00000000000E+00 -0.90458116321E+02  0.90458116462E+02  0.50400001928E-02 0. -1.
    10030    2    1    2    0    0  0.00000000000E+00  0.00000000000E+00  0.60208101756E+03  0.78299725037E+03  0.50058280271E+03 0.  0.
        1    1    3    3  502    0 -0.23582004410E+03  0.31852591798E+02  0.17967749967E+03  0.29817727062E+03  0.50400001928E-02 0.  1.
       -1    1    3    3    0  502  0.23582004410E+03 -0.31852591798E+02  0.42240351790E+03  0.48481997975E+03  0.50400001928E-02 0. -1.
</event>
<event>
 5   0  0.1984297E-01  0.4073357E+03  0.7818609E-02  0.1041269E+00
        1   -1    0    0  501    0  0.00000000000E+00  0.00000000000E+00  0.23149453974E+03  0.23149453980E+03  0.50400001928E-02 0. -1.
       -1   -1    0    0    0  501  0.00000000000E+00  0.00000000000E+00 -0.17918602770E+03  0.17918602777E+03  0.50400001928E-02 0.  1.
    10030    2    1    2    0    0  0.00000000000E+00  0.00000000000E+00  0.52308512042E+02  0.41068056757E+03  0.40733567011E+03 0.  0.
        3    1    3    3  502    0 -0.55215256016E+02  0.58446041767E+02 -0.16250774454E+03  0.18131034590E+03  0.10100000352E+00 0.  1.
       -3    1    3    3    0  502  0.55215256016E+02 -0.58446041767E+02  0.21481625658E+03  0.22937022167E+03  0.10100000352E+00 0. -1.
</event>
<event>
 5   0  0.1967161E-01  0.5002699E+03  0.7818609E-02  0.1013709E+00
        1   -1    0    0  501    0  0.00000000000E+00  0.00000000000E+00  0.22982349553E+03  0.22982349559E+03  0.50400001928E-02 0.  1.
       -1   -1    0    0    0  501  0.00000000000E+00  0.00000000000E+00 -0.27224145112E+03  0.27224145117E+03  0.50400001928E-02 0. -1.
    10030    2    1    2    0    0  0.00000000000E+00  0.00000000000E+00 -0.42417955594E+02  0.50206494676E+03  0.50026985498E+03 0.  0.
        1    1    3    3  502    0  0.18715109100E+03 -0.15384390761E+03  0.41255850671E+02  0.24575500811E+03  0.50400001928E-02 0.  1.
       -1    1    3    3    0  502 -0.18715109100E+03  0.15384390761E+03 -0.83673806265E+02  0.25630993865E+03  0.50400001928E-02 0. -1.
</event>
<event>
 5   0  0.3187123E-01  0.4915664E+03  0.7818609E-02  0.1016004E+00
       -2   -1    0    0    0  501  0.00000000000E+00  0.00000000000E+00  0.10095588175E+03  0.10095588178E+03  0.25500000920E-02 0. -1.
        2   -1    0    0  501    0  0.00000000000E+00  0.00000000000E+00 -0.59837396866E+03  0.59837396867E+03  0.25500000920E-02 0.  1.
    10030    2    1    2    0    0  0.00000000000E+00  0.00000000000E+00 -0.49741808691E+03  0.69932985045E+03  0.49156636026E+03 0.  0.
        5    1    3    3  502    0 -0.75232986105E+02 -0.22364338477E+03 -0.34635462276E+03  0.41911809846E+03  0.46999998093E+01 0.  1.
       -5    1    3    3    0  502  0.75232986105E+02  0.22364338477E+03 -0.15106346416E+03  0.28021175199E+03  0.46999998093E+01 0. -1.
</event>
<event>
 5   0  0.3178149E-01  0.4927790E+03  0.7818609E-02  0.1015681E+00
       -2   -1    0    0    0  501  0.00000000000E+00  0.00000000000E+00  0.63683722716E+02  0.63683722767E+02  0.25500000920E-02 0. -1.
        2   -1    0    0  501    0  0.00000000000E+00  0.00000000000E+00 -0.95326999023E+03  0.95326999023E+03  0.25500000920E-02 0.  1.
    10030    2    1    2    0    0  0.00000000000E+00  0.00000000000E+00 -0.88958626751E+03  0.10169537130E+04  0.49277898396E+03 0.  0.
        3    1    3    3  502    0  0.88103254280E+02  0.12637353430E+03 -0.84162356344E+03  0.85560661891E+03  0.10100000352E+00 0.  1.
       -3    1    3    3    0  502 -0.88103254280E+02 -0.12637353430E+03 -0.47962704070E+02  0.16134709409E+03  0.10100000352E+00 0. -1.
</event>
<event>
 5   0  0.3111146E-01  0.3912894E+03  0.7818609E-02  0.1046838E+00
        2   -1    0    0  501    0  0.00000000000E+00  0.00000000000E+00  0.90745758004E+02  0.90745758040E+02  0.25500000920E-02 0. -1.
       -2   -1    0    0    0  501  0.00000000000E+00  0.00000000000E+00 -0.42180314928E+03  0.42180314929E+03  0.25500000920E-02 0.  1.
    10030    2    1    2    0    0  0.00000000000E+00  0.00000000000E+00 -0.33105739128E+03  0.51254890733E+03  0.39128938918E+03 0.  0.
        1    1    3    3  502    0  0.17513236592E+03 -0.30949171392E+02 -0.58728683085E+02  0.18729189797E+03  0.50400001928E-02 0. -1.
       -1    1    3    3    0  502 -0.17513236592E+03  0.30949171392E+02 -0.27232870819E+03  0.32525700936E+03  0.50400001928E-02 0.  1.
</event>
<event>
 5   0  0.2000612E-01  0.5087908E+03  0.7818609E-02  0.1011510E+00
        1   -1    0    0  501    0  0.00000000000E+00  0.00000000000E+00  0.65165648751E+03  0.65165648753E+03  0.50400001928E-02 0.  1.
       -1   -1    0    0    0  501  0.00000000000E+00  0.00000000000E+00 -0.99311561134E+02  0.99311561262E+02  0.50400001928E-02 0. -1.
    10030    2    1    2    0    0  0.00000000000E+00  0.00000000000E+00  0.55234492638E+03  0.75096804879E+03  0.50879081420E+03 0.  0.
        2    1    3    3  502    0  0.95279812239E+02  0.17992366802E+03  0.50130871540E+03  0.54107411422E+03  0.25500000920E-02 0.  1.
       -2    1    3    3    0  502 -0.95279812239E+02 -0.17992366802E+03  0.51036210977E+02  0.20989393457E+03  0.25500000920E-02 0. -1.
</event>
<event>
 5   0  0.1967161E-01  0.5209131E+03  0.7818609E-02  0.1008460E+00
       -1   -1    0    0    0  501  0.00000000000E+00  0.00000000000E+00  0.13467474277E+03  0.13467474287E+03  0.50400001928E-02 0. -1.
        1   -1    0    0  501    0  0.00000000000E+00  0.00000000000E+00 -0.50371450687E+03  0.50371450689E+03  0.50400001928E-02 0.  1.
    10030    2    1    2    0    0  0.00000000000E+00  0.00000000000E+00 -0.36903976410E+03  0.63838924976E+03  0.52091312781E+03 0.  0.
        1    1    3    3  502    0 -0.14540855859E+03 -0.11400515156E+03  0.40444923669E+02  0.18914707338E+03  0.50400001928E-02 0. -1.
       -1    1    3    3    0  502  0.14540855859E+03  0.11400515156E+03 -0.40948468777E+03  0.44924217637E+03  0.50400001928E-02 0.  1.
</event>
<event>
 5   0  0.3187123E-01  0.4866273E+03  0.7818609E-02  0.1017330E+00
       -2   -1    0    0    0  501  0.00000000000E+00  0.00000000000E+00  0.10386985550E+03  0.10386985553E+03  0.25500000920E-02 0. -1.
        2   -1    0    0  501    0  0.00000000000E+00  0.00000000000E+00 -0.56995866328E+03  0.56995866328E+03  0.25500000920E-02 0.  1.
    10030    2    1    2    0    0  0.00000000000E+00  0.00000000000E+00 -0.46608880778E+03  0.67382851882E+03  0.48662726602E+03 0.  0.
        5    1    3    3  502    0  0.19163147589E+03 -0.48598402352E+02 -0.42933388504E+03  0.47268816581E+03  0.46999998093E+01 0.  1.
       -5    1    3    3    0  502 -0.19163147589E+03  0.48598402352E+02 -0.36754922739E+02  0.20114035300E+03  0.46999998093E+01 0. -1.
</event>
<event>
 5   0  0.1984297E-01  0.4993476E+03  0.7818609E-02  0.1013949E+00
       -1   -1    0    0    0  501  0.00000000000E+00  0.00000000000E+00  0.72726802991E+02  0.72726803166E+02  0.50400001928E-02 0. -1.
        1   -1    0    0  501    0  0.00000000000E+00  0.00000000000E+00 -0.85713951171E+03  0.85713951173E+03  0.50400001928E-02 0.  1.
    10030    2    1    2    0    0  0.00000000000E+00  0.00000000000E+00 -0.78441270872E+03  0.92986631489E+03  0.49934764040E+03 0.  0.
        3    1    3    3  502    0 -0.79496026673E+02  0.21803071228E+03 -0.56368709508E+03  0.60959015831E+03  0.10100000352E+00 0. -1.
       -3    1    3    3    0  502  0.79496026673E+02 -0.21803071228E+03 -0.22072561364E+03  0.32027615658E+03  0.10100000352E+00 0.  1.
</event>
<event>
 5   0  0.2013450E-01  0.4854039E+03  0.7818609E-02  0.1017661E+00
       -1   -1    0    0    0  501  0.00000000000E+00  0.00000000000E+00  0.99278042925E+02  0.99278043053E+02  0.50400001928E-02 0. -1.
        1   -1    0    0  501    0  0.00000000000E+00  0.00000000000E+00 -0.59332593447E+03  0.59332593449E+03  0.50400001928E-02 0.  1.
    10030    2    1    2    0    0  0.00000000000E+00  0.00000000000E+00 -0.49404789154E+03  0.69260397755E+03  0.48540390457E+03 0.  0.
        4    1    3    3  502    0  0.20085068052E+03 -0.11755056657E+03 -0.34529618591E+03  0.41640148951E+03  0.12699999809E+01 0. -1.
       -4    1    3    3    0  502 -0.20085068052E+03  0.11755056657E+03 -0.14875170564E+03  0.27620248803E+03  0.12699999809E+01 0.  1.
</event>
<event>
 5   0  0.3187123E-01  0.4941925E+03  0.7818609E-02  0.1015306E+00
       -2   -1    0    0    0  501  0.00000000000E+00  0.00000000000E+00  0.15329588492E+03  0.15329588494E+03  0.25500000920E-02 0.  1.
        2   -1    0    0  501    0  0.00000000000E+00  0.00000000000E+00 -0.39829222619E+03  0.39829222620E+03  0.25500000920E-02 0. -1.
    10030    2    1    2    0    0  0.00000000000E+00  0.00000000000E+00 -0.24499634127E+03  0.55158811114E+03  0.49419251018E+03 0.  0.
        5    1    3    3  502    0 -0.16815467897E+03 -0.14374999014E+02  0.78877249582E+02  0.18635006616E+03  0.46999998093E+01 0.  1.
       -5    1    3    3    0  502  0.16815467897E+03  0.14374999014E+02 -0.32387359085E+03  0.36523804499E+03  0.46999998093E+01 0. -1.
</event>
<event>
 5   0  0.1984680E-01  0.5142333E+03  0.7818609E-02  0.1010129E+00
       -1   -1    0    0    0  501  0.00000000000E+00  0.00000000000E+00  0.22530663290E+03  0.22530663296E+03  0.50400001928E-02 0.  1.
        1   -1    0    0  501    0  0.00000000000E+00  0.00000000000E+00 -0.29341779353E+03  0.29341779358E+03  0.50400001928E-02 0. -1.
    10030    2    1    2    0    0  0.00000000000E+00  0.00000000000E+00 -0.68111160632E+02  0.51872442653E+03  0.51423331327E+03 0.  0.
        5    1    3    3  502    0  0.19314586672E+01  0.14918607936E+03 -0.24523214460E+03  0.28709077232E+03  0.46999998093E+01 0. -1.
       -5    1    3    3    0  502 -0.19314586672E+01 -0.14918607936E+03  0.17712098397E+03  0.23163365422E+03  0.46999998093E+01 0.  1.
</event>
<event>
 5   0  0.3187123E-01  0.6755957E+03  0.7818609E-02  0.9759902E-01
       -2   -1    0    0    0  501  0.00000000000E+00  0.00000000000E+00  0.18682681112E+03  0.18682681114E+03  0.25500000920E-02 0. -1.
        2   -1    0    0  501    0  0.00000000000E+00  0.00000000000E+00 -0.61076565370E+03  0.61076565370E+03  0.25500000920E-02 0.  1.
    10030    2    1    2    0    0  0.00000000000E+00  0.00000000000E+00 -0.42393884257E+03  0.79759246484E+03  0.67559573543E+03 0.  0.
        5    1    3    3  502    0  0.29042291994E+03 -0.10277719495E+03 -0.48483291653E+02  0.31189957325E+03  0.46999998093E+01 0. -1.
       -5    1    3    3    0  502 -0.29042291994E+03  0.10277719495E+03 -0.37545555092E+03  0.48569289159E+03  0.46999998093E+01 0.  1.
</event>
<event>
 5   0  0.3117389E-01  0.3882768E+03  0.7818609E-02  0.1047916E+00
        2   -1    0    0  501    0  0.00000000000E+00  0.00000000000E+00  0.28962597066E+03  0.28962597067E+03  0.25500000920E-02 0. -1.
       -2   -1    0    0    0  501  0.00000000000E+00  0.00000000000E+00 -0.13013235851E+03  0.13013235854E+03  0.25500000920E-02 0.  1.
    10030    2    1    2    0    0  0.00000000000E+00  0.00000000000E+00  0.15949361215E+03  0.41975832921E+03  0.38827676035E+03 0.  0.
        4    1    3    3  502    0  0.19281131627E+03 -0.12034626364E+02  0.59034543333E+02  0.20200922285E+03  0.12699999809E+01 0.  1.
       -4    1    3    3    0  502 -0.19281131627E+03  0.12034626364E+02  0.10045906882E+03  0.21774910636E+03  0.12699999809E+01 0. -1.
</event>
<event>
 5   0  0.3111146E-01  0.4973671E+03  0.7818609E-02  0.1014468E+00
        2   -1    0    0  501    0  0.00000000000E+00  0.00000000000E+00  0.15467598232E+03  0.15467598235E+03  0.25500000920E-02 0. -1.
       -2   -1    0    0    0  501  0.00000000000E+00  0.00000000000E+00 -0.39982619183E+03  0.39982619184E+03  0.25500000920E-02 0.  1.
    10030    2    1    2    0    0  0.00000000000E+00  0.00000000000E+00 -0.24515020950E+03  0.55450217418E+03  0.49736710381E+03 0.  0.
        1    1    3    3  502    0  0.95748394482E+02  0.76841835832E+02 -0.36368493867E+03  0.38384783107E+03  0.50400001928E-02 0.  1.
       -1    1    3    3    0  502 -0.95748394482E+02 -0.76841835832E+02  0.11853472916E+03  0.17065434311E+03  0.50400001928E-02 0. -1.
</event>
<event>
 5   0  0.3111146E-01  0.4922900E+03  0.7818609E-02  0.1015811E+00
        2   -1    0    0  501    0  0.00000000000E+00  0.00000000000E+00  0.11283328104E+04  0.11283328104E+04  0.25500000920E-02 0. -1.
       -2   -1    0    0    0  501  0.00000000000E+00  0.00000000000E+00 -0.53696349351E+02  0.53696349412E+02  0.25500000920E-02 0.  1.
    10030    2    1    2    0    0  0.00000000000E+00  0.00000000000E+00  0.10746364611E+04  0.11820291598E+04  0.49228996663E+03 0.  0.
        1    1    3    3  502    0 -0.17197917659E+03 -0.82851168379E+02  0.91042368511E+03  0.93022171535E+03  0.50400001928E-02 0. -1.
       -1    1    3    3    0  502  0.17197917659E+03  0.82851168379E+02  0.16421277595E+03  0.25180744447E+03  0.50400001928E-02 0.  1.
</event>
<event>
 5   0  0.1292375E-01  0.4984661E+03  0.7818609E-02  0.1014180E+00
        3   -1    0    0  501    0  0.00000000000E+00  0.00000000000E+00  0.23214973009E+03  0.23214975206E+03  0.10100000352E+00 0.  1.
       -3   -1    0    0    0  501  0.00000000000E+00  0.00000000000E+00 -0.26757347456E+03  0.26757349362E+03  0.10100000352E+00 0. -1.
    10030    2    1    2    0    0  0.00000000000E+00  0.00000000000E+00 -0.35423744470E+02  0.49972324568E+03  0.49846612783E+03 0.  0.
        3    1    3    3  502    0 -0.29942642223E+02 -0.13981092150E+03 -0.22236748056E+03  0.26436898874E+03  0.10100000352E+00 0. -1.
       -3    1    3    3    0  502  0.29942642223E+02  0.13981092150E+03  0.18694373609E+03  0.23535425694E+03  0.10100000352E+00 0.  1.
</event>
<event>
 5   0  0.2000612E-01  0.4485119E+03  0.7818609E-02  0.1028167E+00
       -1   -1    0    0    0  501  0.00000000000E+00  0.00000000000E+00  0.77453858097E+02  0.77453858261E+02  0.50400001928E-02 0.  1.
        1   -1    0    0  501    0  0.00000000000E+00  0.00000000000E+00 -0.64929926449E+03  0.64929926451E+03  0.50400001928E-02 0. -1.
    10030    2    1    2    0    0  0.00000000000E+00  0.00000000000E+00 -0.57184540639E+03  0.72675312277E+03  0.44851190914E+03 0.  0.
        2    1    3    3  502    0  0.37536936993E+02 -0.21312998195E+03 -0.38119855968E+03  0.43834433127E+03  0.25500000920E-02 0.  1.
       -2    1    3    3    0  502 -0.37536936993E+02  0.21312998195E+03 -0.19064684671E+03  0.28840879150E+03  0.25500000920E-02 0. -1.
</event>
<event>
 5   0  0.3111146E-01  0.4889250E+03  0.7818609E-02  0.1016711E+00
       -2   -1    0    0    0  501  0.00000000000E+00  0.00000000000E+00  0.51651310529E+02  0.51651310592E+02  0.25500000920E-02 0.  1.
        2   -1    0    0  501    0  0.00000000000E+00  0.00000000000E+00 -0.11570260617E+04  0.11570260617E+04  0.25500000920E-02 0. -1.
    10030    2    1    2    0    0  0.00000000000E+00  0.00000000000E+00 -0.11053747512E+04  0.12086773723E+04  0.48892499402E+03 0.  0.
        1    1    3    3  502    0 -0.87871231285E+02  0.20087034141E+03 -0.81999191588E+03  0.84879737834E+03  0.50400001928E-02 0.  1.
       -1    1    3    3    0  502  0.87871231285E+02 -0.20087034141E+03 -0.28538283529E+03  0.35987999395E+03  0.50400001928E-02 0. -1.
</event>
<event>
 5   0  0.1984680E-01  0.4888528E+03  0.7818609E-02  0.1016730E+00
        1   -1    0    0  501    0  0.00000000000E+00  0.00000000000E+00  0.43658444656E+03  0.43658444659E+03  0.50400001928E-02 0. -1.
       -1   -1    0    0    0  501  0.00000000000E+00  0.00000000000E+00 -0.13684471459E+03  0.13684471468E+03  0.50400001928E-02 0.  1.
    10030    2    1    2    0    0  0.00000000000E+00  0.00000000000E+00  0.29973973198E+03  0.57342916127E+03  0.48885283682E+03 0.  0.
        5    1    3    3  502    0  0.15665763450E+03 -0.16542596433E+03  0.46174076619E+02  0.23251128891E+03  0.46999998093E+01 0.  1.
       -5    1    3    3    0  502 -0.15665763450E+03  0.16542596433E+03  0.25356565536E+03  0.34091787236E+03  0.46999998093E+01 0. -1.
</event>
<event>
 5   0  0.1984297E-01  0.5285745E+03  0.7818609E-02  0.1006578E+00
        1   -1    0    0  501    0  0.00000000000E+00  0.00000000000E+00  0.63771001529E+03  0.63771001531E+03  0.50400001928E-02 0. -1.
       -1   -1    0    0    0  501  0.00000000000E+00  0.00000000000E+00 -0.10952902148E+03  0.10952902160E+03  0.50400001928E-02 0.  1.
    10030    2    1    2    0    0  0.00000000000E+00  0.00000000000E+00  0.52818099381E+03  0.74723903691E+03  0.52857451325E+03 0.  0.
        3    1    3    3  502    0 -0.58303516136E+02 -0.24586929158E+03  0.15461655099E+03  0.29623858050E+03  0.10100000352E+00 0.  1.
       -3    1    3    3    0  502  0.58303516136E+02  0.24586929158E+03  0.37356444282E+03  0.45100045640E+03  0.10100000352E+00 0. -1.
</event>
<event>
 5   0  0.3117389E-01  0.5213892E+03  0.7818609E-02  0.1008342E+00
        2   -1    0    0  501    0  0.00000000000E+00  0.00000000000E+00  0.36000342097E+03  0.36000342098E+03  0.25500000920E-02 0. -1.
       -2   -1    0    0    0  501  0.00000000000E+00  0.00000000000E+00 -0.18878061774E+03  0.18878061776E+03  0.25500000920E-02 0.  1.
    10030    2    1    2    0    0  0.00000000000E+00  0.00000000000E+00  0.17122280323E+03  0.54878403874E+03  0.52138917598E+03 0.  0.
        4    1    3    3  502    0  0.23636780212E+03 -0.10959615794E+03  0.76256227286E+02  0.27147316776E+03  0.12699999809E+01 0. -1.
       -4    1    3    3    0  502 -0.23636780212E+03  0.10959615794E+03  0.94966575943E+02  0.27731087097E+03  0.12699999809E+01 0.  1.
</event>
<event>
 5   0  0.2013450E-01  0.5142967E+03  0.7818609E-02  0.1010113E+00
        1   -1    0    0  501    0  0.00000000000E+00  0.00000000000E+00  0.52964178029E+03  0.52964178032E+03  0.50400001928E-02 0.  1.
       -1   -1    0    0    0  501  0.00000000000E+00  0.00000000000E+00 -0.12484904924E+03  0.12484904934E+03  0.50400001928E-02 0. -1.
    10030    2    1    2    0    0  0.00000000000E+00  0.00000000000E+00  0.40479273106E+03  0.65449082966E+03  0.51429669549E+03 0.  0.
        4    1    3    3  502    0  0.53184603584E+02  0.23812605410E+03  0.30571218160E+03  0.39114469264E+03  0.12699999809E+01 0.  1.
       -4    1    3    3    0  502 -0.53184603584E+02 -0.23812605410E+03  0.99080549453E+02  0.26334613702E+03  0.12699999809E+01 0. -1.
</event>
<event>
 5   0  0.3178149E-01  0.5022441E+03  0.7818609E-02  0.1013195E+00
       -2   -1    0    0    0  501  0.00000000000E+00  0.00000000000E+00  0.79012565401E+02  0.79012565443E+02  0.25500000920E-02 0. -1.
        2   -1    0    0  501    0  0.00000000000E+00  0.00000000000E+00 -0.79812966368E+03  0.79812966369E+03  0.25500000920E-02 0.  1.
    10030    2    1    2    0    0  0.00000000000E+00  0.00000000000E+00 -0.71911709828E+03  0.87714222913E+03  0.50224405331E+03 0.  0.
        3    1    3    3  502    0  0.17451426938E+03 -0.47033914782E+02 -0.55081075784E+02  0.18894802054E+03  0.10100000352E+00 0. -1.
       -3    1    3    3    0  502 -0.17451426938E+03  0.47033914782E+02 -0.66403602250E+03  0.68819420859E+03  0.10100000352E+00 0.  1.
</event>
<event>
 5   0  0.3178149E-01  0.5251398E+03  0.7818609E-02  0.1007418E+00
        2   -1    0    0  501    0  0.00000000000E+00  0.00000000000E+00  0.76581074473E+03  0.76581074473E+03  0.25500000920E-02 0. -1.
       -2   -1    0    0    0  501  0.00000000000E+00  0.00000000000E+00 -0.90026112566E+02  0.90026112603E+02  0.25500000920E-02 0.  1.
    10030    2    1    2    0    0  0.00000000000E+00  0.00000000000E+00  0.67578463216E+03  0.85583685733E+03  0.52513984548E+03 0.  0.
        3    1    3    3  502    0 -0.83318464271E+02 -0.24804314864E+03  0.30235131521E+03  0.39985459618E+03  0.10100000352E+00 0.  1.
       -3    1    3    3    0  502  0.83318464271E+02  0.24804314864E+03  0.37343331695E+03  0.45598226115E+03  0.10100000352E+00 0. -1.
</event>
<event>
 5   0  0.3178149E-01  0.4817786E+03  0.7818609E-02  0.1018647E+00
        2   -1    0    0  501    0  0.00000000000E+00  0.00000000000E+00  0.10464692837E+04  0.10464692837E+04  0.25500000920E-02 0. -1.
       -2   -1    0    0    0  501  0.00000000000E+00  0.00000000000E+00 -0.55450902059E+02  0.55450902118E+02  0.25500000920E-02 0.  1.
    10030    2    1    2    0    0  0.00000000000E+00  0.00000000000E+00  0.99101838167E+03  0.11019201859E+04  0.48177864542E+03 0.  0.
        3    1    3    3  502    0  0.61432737276E+02 -0.23003177148E+03  0.57920474078E+03  0.62623217662E+03  0.10100000352E+00 0.  1.
       -3    1    3    3    0  502 -0.61432737276E+02  0.23003177148E+03  0.41181364090E+03  0.47568800923E+03  0.10100000352E+00 0. -1.
</event>
<event>
 5   0  0.2000612E-01  0.5135821E+03  0.7818609E-02  0.1010293E+00
       -1   -1    0    0    0  501  0.00000000000E+00  0.00000000000E+00  0.86584313912E+02  0.86584314059E+02  0.50400001928E-02 0.  1.
        1   -1    0    0  501    0  0.00000000000E+00  0.00000000000E+00 -0.76158878614E+03  0.76158878615E+03  0.50400001928E-02 0. -1.
    10030    2    1    2    0    0  0.00000000000E+00  0.00000000000E+00 -0.67500447222E+03  0.84817310021E+03  0.51358209704E+03 0.  0.
        2    1    3    3  502    0 -0.13927398177E+03 -0.18234465642E+03 -0.14708074502E+03  0.27254276964E+03  0.25500000920E-02 0.  1.
       -2    1    3    3    0  502  0.13927398177E+03  0.18234465642E+03 -0.52792372720E+03  0.57563033057E+03  0.25500000920E-02 0. -1.
</event>
<event>
 5   0  0.3187123E-01  0.2699165E+03  0.7818609E-02  0.1101327E+00
        2   -1    0    0  501    0  0.00000000000E+00  0.00000000000E+00  0.16171663905E+03  0.16171663907E+03  0.25500000920E-02 0. -1.
       -2   -1    0    0    0  501  0.00000000000E+00  0.00000000000E+00 -0.11262743950E+03  0.11262743953E+03  0.25500000920E-02 0.  1.
    10030    2    1    2    0    0  0.00000000000E+00  0.00000000000E+00  0.49089199544E+02  0.27434407860E+03  0.26991651292E+03 0.  0.
        5    1    3    3  502    0  0.63439036907E+02 -0.37402128494E+02  0.13939463984E+03  0.15772249755E+03  0.46999998093E+01 0. -1.
       -5    1    3    3    0  502 -0.63439036907E+02  0.37402128494E+02 -0.90305440297E+02  0.11662158104E+03  0.46999998093E+01 0.  1.
</event>
<event>
 5   0  0.3187123E-01  0.4903240E+03  0.7818609E-02  0.1016336E+00
        2   -1    0    0  501    0  0.00000000000E+00  0.00000000000E+00  0.35684423401E+03  0.35684423402E+03  0.25500000920E-02 0. -1.
       -2   -1    0    0    0  501  0.00000000000E+00  0.00000000000E+00 -0.16843316641E+03  0.16843316643E+03  0.25500000920E-02 0.  1.
    10030    2    1    2    0    0  0.00000000000E+00  0.00000000000E+00  0.18841106759E+03  0.52527740045E+03  0.49032399190E+03 0.  0.
        5    1    3    3  502    0 -0.93347796915E+02 -0.86140581111E+02 -0.13037733688E+03  0.18208336243E+03  0.46999998093E+01 0.  1.
       -5    1    3    3    0  502  0.93347796915E+02  0.86140581111E+02  0.31878840448E+03  0.34319403802E+03  0.46999998093E+01 0. -1.
</event>
<event>
 5   0  0.3117389E-01  0.6906584E+03  0.7818609E-02  0.9733342E-01
       -2   -1    0    0    0  501  0.00000000000E+00  0.00000000000E+00  0.35639337203E+02  0.35639337294E+02  0.25500000920E-02 0.  1.
        2   -1    0    0  501    0  0.00000000000E+00  0.00000000000E+00 -0.33460853655E+04  0.33460853655E+04  0.25500000920E-02 0. -1.
    10030    2    1    2    0    0  0.00000000000E+00  0.00000000000E+00 -0.33104460283E+04  0.33817247028E+04  0.69065842442E+03 0.  0.
        4    1    3    3  502    0 -0.15113984187E+02  0.19719310739E+03 -0.30413140072E+04  0.30477378591E+04  0.12699999809E+01 0. -1.
       -4    1    3    3    0  502  0.15113984187E+02 -0.19719310739E+03 -0.26913202108E+03  0.33398684374E+03  0.12699999809E+01 0.  1.
</event>
<event>
 5   0  0.3117389E-01  0.4963947E+03  0.7818609E-02  0.1014724E+00
       -2   -1    0    0    0  501  0.00000000000E+00  0.00000000000E+00  0.79195916768E+02  0.79195916809E+02  0.25500000920E-02 0.  1.
        2   -1    0    0  501    0  0.00000000000E+00  0.00000000000E+00 -0.77784229008E+03  0.77784229008E+03  0.25500000920E-02 0. -1.
    10030    2    1    2    0    0  0.00000000000E+00  0.00000000000E+00 -0.69864637331E+03  0.85703820689E+03  0.49639473520E+03 0.  0.
        4    1    3    3  502    0  0.90553028256E+02  0.14421960027E+03 -0.37585253181E+02  0.17439440411E+03  0.12699999809E+01 0.  1.
       -4    1    3    3    0  502 -0.90553028256E+02 -0.14421960027E+03 -0.66106112013E+03  0.68264380278E+03  0.12699999809E+01 0. -1.
</event>
<event>
 5   0  0.2000612E-01  0.5001185E+03  0.7818609E-02  0.1013748E+00
       -1   -1    0    0    0  501  0.00000000000E+00  0.00000000000E+00  0.72463463869E+02  0.72463464044E+02  0.50400001928E-02 0. -1.
        1   -1    0    0  501    0  0.00000000000E+00  0.00000000000E+00 -0.86291257435E+03  0.86291257437E+03  0.50400001928E-02 0.  1.
    10030    2    1    2    0    0  0.00000000000E+00  0.00000000000E+00 -0.79044911048E+03  0.93537603841E+03  0.50011852292E+03 0.  0.
        2    1    3    3  502    0  0.63817814287E+02  0.14058010019E+03 -0.27319300344E+02  0.15678591189E+03  0.25500000920E-02 0. -1.
       -2    1    3    3    0  502 -0.63817814287E+02 -0.14058010019E+03 -0.76312981014E+03  0.77859012652E+03  0.25500000920E-02 0.  1.
</event>
<event>
 5   0  0.3178149E-01  0.5036142E+03  0.7818609E-02  0.1012840E+00
       -2   -1    0    0    0  501  0.00000000000E+00  0.00000000000E+00  0.40427914791E+03  0.40427914792E+03  0.25500000920E-02 0.  1.
        2   -1    0    0  501    0  0.00000000000E+00  0.00000000000E+00 -0.15683918447E+03  0.15683918450E+03  0.25500000920E-02 0. -1.
    10030    2    1    2    0    0  0.00000000000E+00  0.00000000000E+00  0.24743996344E+03  0.56111833242E+03  0.50361418513E+03 0.  0.
        3    1    3    3  502    0  0.77206895837E+02 -0.61682631204E+02 -0.13433101643E+03  0.16676475626E+03  0.10100000352E+00 0. -1.
       -3    1    3    3    0  502 -0.77206895837E+02  0.61682631204E+02  0.38177097986E+03  0.39435357615E+03  0.10100000352E+00 0.  1.
</event>
<event>
 5   0  0.2013450E-01  0.4987943E+03  0.7818609E-02  0.1014094E+00
        1   -1    0    0  501    0  0.00000000000E+00  0.00000000000E+00  0.10820307708E+04  0.10820307708E+04  0.50400001928E-02 0.  1.
       -1   -1    0    0    0  501  0.00000000000E+00  0.00000000000E+00 -0.57483528545E+02  0.57483528766E+02  0.50400001928E-02 0. -1.
    10030    2    1    2    0    0  0.00000000000E+00  0.00000000000E+00  0.10245472423E+04  0.11395142996E+04  0.49879433370E+03 0.  0.
        4    1    3    3  502    0  0.67881833639E+02  0.15366902654E+03  0.93336796943E+03  0.94836674990E+03  0.12699999809E+01 0.  1.
       -4    1    3    3    0  502 -0.67881833639E+02 -0.15366902654E+03  0.91179272824E+02  0.19114754968E+03  0.12699999809E+01 0. -1.
</event>
<event>
 5   0  0.3111146E-01  0.5015230E+03  0.7818609E-02  0.1013382E+00
        2   -1    0    0  501    0  0.00000000000E+00  0.00000000000E+00  0.10427613887E+04  0.10427613887E+04  0.25500000920E-02 0.  1.
       -2   -1    0    0    0  501  0.00000000000E+00  0.00000000000E+00 -0.60302713562E+02  0.60302713616E+02  0.25500000920E-02 0. -1.
    10030    2    1    2    0    0  0.00000000000E+00  0.00000000000E+00  0.98245867515E+03  0.11030641023E+04  0.50152304581E+03 0.  0.
        1    1    3    3  502    0 -0.17961395756E+03 -0.16019626213E+03  0.64608730736E+03  0.68945835619E+03  0.50400001928E-02 0.  1.
       -1    1    3    3    0  502  0.17961395756E+03  0.16019626213E+03  0.33637136779E+03  0.41360574615E+03  0.50400001928E-02 0. -1.
</event>
<event>
 5   0  0.3329246E-01  0.5080546E+03  0.7818609E-02  0.1011698E+00
       -2   -1    0    0    0  501  0.00000000000E+00  0.00000000000E+00  0.58881532357E+03  0.58881532358E+03  0.25500000920E-02 0.  1.
        2   -1    0    0  501    0  0.00000000000E+00  0.00000000000E+00 -0.10959272510E+03  0.10959272513E+03  0.25500000920E-02 0. -1.
    10030    2    1    2    0    0  0.00000000000E+00  0.00000000000E+00  0.47922259848E+03  0.69840804871E+03  0.50805462660E+03 0.  0.
        2    1    3    3  502    0 -0.10192846403E+03 -0.17585376001E+03  0.44906679833E+03  0.49292488887E+03  0.25500000920E-02 0.  1.
       -2    1    3    3    0  502  0.10192846403E+03  0.17585376001E+03  0.30155800143E+02  0.20548315984E+03  0.25500000920E-02 0. -1.
</event>
<event>
 5   0  0.2013450E-01  0.5040596E+03  0.7818609E-02  0.1012725E+00
        1   -1    0    0  501    0  0.00000000000E+00  0.00000000000E+00  0.36645094330E+03  0.36645094333E+03  0.50400001928E-02 0. -1.
       -1   -1    0    0    0  501  0.00000000000E+00  0.00000000000E+00 -0.17333566578E+03  0.17333566585E+03  0.50400001928E-02 0.  1.
    10030    2    1    2    0    0  0.00000000000E+00  0.00000000000E+00  0.19311527752E+03  0.53978660918E+03  0.50405959275E+03 0.  0.
        4    1    3    3  502    0  0.64186026174E+02 -0.12781824206E+03 -0.12565948369E+03  0.19039240453E+03  0.12699999809E+01 0.  1.
       -4    1    3    3    0  502 -0.64186026174E+02  0.12781824206E+03  0.31877476121E+03  0.34939420466E+03  0.12699999809E+01 0. -1.
</event>
<event>
 5   0  0.2000612E-01  0.5081705E+03  0.7818609E-02  0.1011668E+00
       -1   -1    0    0    0  501  0.00000000000E+00  0.00000000000E+00  0.10519112400E+03  0.10519112412E+03  0.50400001928E-02 0.  1.
        1   -1    0    0  501    0  0.00000000000E+00  0.00000000000E+00 -0.61373337487E+03  0.61373337489E+03  0.50400001928E-02 0. -1.
    10030    2    1    2    0    0  0.00000000000E+00  0.00000000000E+00 -0.50854225087E+03  0.71892449901E+03  0.50817045796E+03 0.  0.
        2    1    3    3  502    0 -0.21173553037E+03  0.12946767213E+03 -0.17723008355E+03  0.30496608905E+03  0.25500000920E-02 0.  1.
       -2    1    3    3    0  502  0.21173553037E+03 -0.12946767213E+03 -0.33131216732E+03  0.41395840996E+03  0.25500000920E-02 0. -1.
</event>
<event>
 5   0  0.3117389E-01  0.5059906E+03  0.7818609E-02  0.1012227E+00
       -2   -1    0    0    0  501  0.00000000000E+00  0.00000000000E+00  0.37893180472E+02  0.37893180558E+02  0.25500000920E-02 0.  1.
        2   -1    0    0  501    0  0.00000000000E+00  0.00000000000E+00 -0.16891332421E+04  0.16891332421E+04  0.25500000920E-02 0. -1.
    10030    2    1    2    0    0  0.00000000000E+00  0.00000000000E+00 -0.16512400617E+04  0.17270264227E+04  0.50599063573E+03 0.  0.
        4    1    3    3  502    0  0.20579383520E+03 -0.14451868747E+03 -0.92022453992E+03  0.95396623127E+03  0.12699999809E+01 0. -1.
       -4    1    3    3    0  502 -0.20579383520E+03  0.14451868747E+03 -0.73101552174E+03  0.77306019142E+03  0.12699999809E+01 0.  1.
</event>
<event>
 5   0  0.3117389E-01  0.5057183E+03  0.7818609E-02  0.1012297E+00
       -2   -1    0    0    0  501  0.00000000000E+00  0.00000000000E+00  0.49619193483E+02  0.49619193548E+02  0.25500000920E-02 0.  1.
        2   -1    0    0  501    0  0.00000000000E+00  0.00000000000E+00 -0.12885690922E+04  0.12885690922E+04  0.25500000920E-02 0. -1.
    10030    2    1    2    0    0  0.00000000000E+00  0.00000000000E+00 -0.12389498987E+04  0.13381882857E+04  0.50571833720E+03 0.  0.
        4    1    3    3  502    0 -0.16817675081E+03 -0.17398150472E+03 -0.42532947230E+03  0.48934625410E+03  0.12699999809E+01 0.  1.
       -4    1    3    3    0  502  0.16817675081E+03  0.17398150472E+03 -0.81362042637E+03  0.84884203160E+03  0.12699999809E+01 0. -1.
</event>
<event>
 5   0  0.2013450E-01  0.4927239E+03  0.7818609E-02  0.1015696E+00
        1   -1    0    0  501    0  0.00000000000E+00  0.00000000000E+00  0.19985767396E+03  0.19985767402E+03  0.50400001928E-02 0. -1.
       -1   -1    0    0    0  501  0.00000000000E+00  0.00000000000E+00 -0.30368718449E+03  0.30368718454E+03  0.50400001928E-02 0.  1.
    10030    2    1    2    0    0  0.00000000000E+00  0.00000000000E+00 -0.10382951054E+03  0.50354485856E+03  0.49272391592E+03 0.  0.
        4    1    3    3  502    0 -0.17838789997E+03  0.98868924955E+02  0.89305730435E+02  0.22265316878E+03  0.12699999809E+01 0.  1.
       -4    1    3    3    0  502  0.17838789997E+03 -0.98868924955E+02 -0.19313524097E+03  0.28089168978E+03  0.12699999809E+01 0. -1.
</event>
<event>
 5   0  0.2000612E-01  0.4539204E+03  0.7818609E-02  0.1026559E+00
       -1   -1    0    0    0  501  0.00000000000E+00  0.00000000000E+00  0.11382891222E+03  0.11382891233E+03  0.50400001928E-02 0. -1.
        1   -1    0    0  501    0  0.00000000000E+00  0.00000000000E+00 -0.45252939529E+03  0.45252939532E+03  0.50400001928E-02 0.  1.
    10030    2    1    2    0    0  0.00000000000E+00  0.00000000000E+00 -0.33870048307E+03  0.56635830766E+03  0.45392038445E+03 0.  0.
        2    1    3    3  502    0 -0.14477971146E+03 -0.12466941336E+03 -0.16501139717E+02  0.19177047504E+03  0.25500000920E-02 0. -1.
       -2    1    3    3    0  502  0.14477971146E+03  0.12466941336E+03 -0.32219934335E+03  0.37458783262E+03  0.25500000920E-02 0.  1.
</event>
<event>
 5   0  0.3187123E-01  0.4538323E+03  0.7818609E-02  0.1026585E+00
        2   -1    0    0  501    0  0.00000000000E+00  0.00000000000E+00  0.42309919484E+03  0.42309919485E+03  0.25500000920E-02 0. -1.
       -2   -1    0    0    0  501  0.00000000000E+00  0.00000000000E+00 -0.12169947075E+03  0.12169947077E+03  0.25500000920E-02 0.  1.
    10030    2    1    2    0    0  0.00000000000E+00  0.00000000000E+00  0.30139972409E+03  0.54479866562E+03  0.45383233951E+03 0.  0.
        5    1    3    3  502    0 -0.10207493099E+02  0.38059700259E+02 -0.11750152803E+03  0.12402190447E+03  0.46999998093E+01 0.  1.
       -5    1    3    3    0  502  0.10207493099E+02 -0.38059700259E+02  0.41890125213E+03  0.42077676116E+03  0.46999998093E+01 0. -1.
</event>
<event>
 5   0  0.3187123E-01  0.5162779E+03  0.7818609E-02  0.1009615E+00
       -2   -1    0    0    0  501  0.00000000000E+00  0.00000000000E+00  0.58240517036E+02  0.58240517091E+02  0.25500000920E-02 0. -1.
        2   -1    0    0  501    0  0.00000000000E+00  0.00000000000E+00 -0.11441470738E+04  0.11441470738E+04  0.25500000920E-02 0.  1.
    10030    2    1    2    0    0  0.00000000000E+00  0.00000000000E+00 -0.10859065568E+04  0.12023875909E+04  0.51627789872E+03 0.  0.
        5    1    3    3  502    0 -0.24614907399E+03 -0.48642236001E+01 -0.72336231451E+03  0.76412574577E+03  0.46999998093E+01 0. -1.
       -5    1    3    3    0  502  0.24614907399E+03  0.48642236001E+01 -0.36254424224E+03  0.43826184511E+03  0.46999998093E+01 0.  1.
</event>
<event>
 5   0  0.1984297E-01  0.5058324E+03  0.7818609E-02  0.1012268E+00
        1   -1    0    0  501    0  0.00000000000E+00  0.00000000000E+00  0.52770727426E+03  0.52770727428E+03  0.50400001928E-02 0. -1.
       -1   -1    0    0    0  501  0.00000000000E+00  0.00000000000E+00 -0.12121608838E+03  0.12121608849E+03  0.50400001928E-02 0.  1.
    10030    2    1    2    0    0  0.00000000000E+00  0.00000000000E+00  0.40649118588E+03  0.64892336277E+03  0.50583242933E+03 0.  0.
        3    1    3    3  502    0 -0.16404214368E+03  0.13694417090E+03  0.29685961761E+02  0.21574243294E+03  0.10100000352E+00 0.  1.
       -3    1    3    3    0  502  0.16404214368E+03 -0.13694417090E+03  0.37680522412E+03  0.43318092983E+03  0.10100000352E+00 0. -1.
</event>
<event>
 5   0  0.3329246E-01  0.4968988E+03  0.7818609E-02  0.1014592E+00
        2   -1    0    0  501    0  0.00000000000E+00  0.00000000000E+00  0.41849681007E+03  0.41849681008E+03  0.25500000920E-02 0. -1.
       -2   -1    0    0    0  501  0.00000000000E+00  0.00000000000E+00 -0.14749718062E+03  0.14749718064E+03  0.25500000920E-02 0.  1.
    10030    2    1    2    0    0  0.00000000000E+00  0.00000000000E+00  0.27099962945E+03  0.56599399072E+03  0.49689878081E+03 0.  0.
        2    1    3    3  502    0  0.15812959476E+03 -0.13400535170E+03  0.29153216924E+03  0.35770575720E+03  0.25500000920E-02 0. -1.
       -2    1    3    3    0  502 -0.15812959476E+03  0.13400535170E+03 -0.20532539796E+02  0.20828823352E+03  0.25500000920E-02 0.  1.
</event>
<event>
 5   0  0.2013450E-01  0.5154367E+03  0.7818609E-02  0.1009826E+00
       -1   -1    0    0    0  501  0.00000000000E+00  0.00000000000E+00  0.96534118656E+02  0.96534118788E+02  0.50400001928E-02 0. -1.
        1   -1    0    0  501    0  0.00000000000E+00  0.00000000000E+00 -0.68803393505E+03  0.68803393507E+03  0.50400001928E-02 0.  1.
    10030    2    1    2    0    0  0.00000000000E+00  0.00000000000E+00 -0.59149981639E+03  0.78456805385E+03  0.51543670643E+03 0.  0.
        4    1    3    3  502    0  0.15658872755E+03  0.17024151017E+03 -0.46873209963E+03  0.52269837909E+03  0.12699999809E+01 0. -1.
       -4    1    3    3    0  502 -0.15658872755E+03 -0.17024151017E+03 -0.12276771676E+03  0.26186967476E+03  0.12699999809E+01 0.  1.
</event>
<event>
 5   0  0.3178149E-01  0.4956010E+03  0.7818609E-02  0.1014934E+00
       -2   -1    0    0    0  501  0.00000000000E+00  0.00000000000E+00  0.90491749622E+03  0.90491749622E+03  0.25500000920E-02 0. -1.
        2   -1    0    0  501    0  0.00000000000E+00  0.00000000000E+00 -0.67857098967E+02  0.67857099015E+02  0.25500000920E-02 0.  1.
    10030    2    1    2    0    0  0.00000000000E+00  0.00000000000E+00  0.83706039725E+03  0.97277459523E+03  0.49560095288E+03 0.  0.
        3    1    3    3  502    0 -0.43499462962E+02 -0.24392222193E+03  0.42608444610E+03  0.49288763328E+03  0.10100000352E+00 0. -1.
       -3    1    3    3    0  502  0.43499462962E+02  0.24392222193E+03  0.41097595115E+03  0.47988696195E+03  0.10100000352E+00 0.  1.
</event>
<event>
 5   0  0.1292375E-01  0.4965040E+03  0.7818609E-02  0.1014695E+00
        4   -1    0    0  501    0  0.00000000000E+00  0.00000000000E+00  0.91691847796E+02  0.91700642594E+02  0.12699999809E+01 0.  1.
       -4   -1    0    0    0  501  0.00000000000E+00  0.00000000000E+00 -0.67209072813E+03  0.67209192804E+03  0.12699999809E+01 0. -1.
    10030    2    1    2    0    0  0.00000000000E+00  0.00000000000E+00 -0.58039888034E+03  0.76379257064E+03  0.49650400871E+03 0.  0.
        2    1    3    3  502    0  0.19706748866E+03  0.23187677003E+02 -0.51969496377E+03  0.55628780215E+03  0.25500000920E-02 0. -1.
       -2    1    3    3    0  502 -0.19706748866E+03 -0.23187677003E+02 -0.60703916567E+02  0.20750476848E+03  0.25500000920E-02 0.  1.
</event>
<event>
 5   0  0.3329246E-01  0.5163150E+03  0.7818609E-02  0.1009606E+00
        2   -1    0    0  501    0  0.00000000000E+00  0.00000000000E+00  0.82332356912E+02  0.82332356952E+02  0.25500000920E-02 0.  1.
       -2   -1    0    0    0  501  0.00000000000E+00  0.00000000000E+00 -0.80946673712E+03  0.80946673713E+03  0.25500000920E-02 0. -1.
    10030    2    1    2    0    0  0.00000000000E+00  0.00000000000E+00 -0.72713438021E+03  0.89179909408E+03  0.51631503689E+03 0.  0.
        2    1    3    3  502    0 -0.62954106951E+02 -0.39315789923E+02  0.63505714619E+02  0.97682786176E+02  0.25500000920E-02 0.  1.
       -2    1    3    3    0  502  0.62954106951E+02  0.39315789923E+02 -0.79064009483E+03  0.79411630790E+03  0.25500000920E-02 0. -1.
</event>
<event>
 5   0  0.1967161E-01  0.5420798E+03  0.7818609E-02  0.1003344E+00
       -1   -1    0    0    0  501  0.00000000000E+00  0.00000000000E+00  0.81323586286E+02  0.81323586442E+02  0.50400001928E-02 0.  1.
        1   -1    0    0  501    0  0.00000000000E+00  0.00000000000E+00 -0.90333731602E+03  0.90333731604E+03  0.50400001928E-02 0. -1.
    10030    2    1    2    0    0  0.00000000000E+00  0.00000000000E+00 -0.82201372974E+03  0.98466090248E+03  0.54207981054E+03 0.  0.
        1    1    3    3  502    0 -0.13685752475E+03 -0.14229221508E+02 -0.83517878647E+03  0.84643727364E+03  0.50400001928E-02 0. -1.
       -1    1    3    3    0  502  0.13685752475E+03  0.14229221508E+02  0.13165056729E+02  0.13822362884E+03  0.50400001928E-02 0.  1.
</event>
<event>
 5   0  0.3329246E-01  0.5084928E+03  0.7818609E-02  0.1011586E+00
        2   -1    0    0  501    0  0.00000000000E+00  0.00000000000E+00  0.77295960650E+02  0.77295960692E+02  0.25500000920E-02 0.  1.
       -2   -1    0    0    0  501  0.00000000000E+00  0.00000000000E+00 -0.83628215670E+03  0.83628215670E+03  0.25500000920E-02 0. -1.
    10030    2    1    2    0    0  0.00000000000E+00  0.00000000000E+00 -0.75898619605E+03  0.91357811739E+03  0.50849280308E+03 0.  0.
        2    1    3    3  502    0  0.58732475661E+02 -0.14410500199E+03 -0.74072696201E+03  0.75689641798E+03  0.25500000920E-02 0. -1.
       -2    1    3    3    0  502 -0.58732475661E+02  0.14410500199E+03 -0.18259234039E+02  0.15668169941E+03  0.25500000920E-02 0.  1.
</event>
<event>
 5   0  0.1984297E-01  0.5015743E+03  0.7818609E-02  0.1013369E+00
       -1   -1    0    0    0  501  0.00000000000E+00  0.00000000000E+00  0.99465378997E+02  0.99465379125E+02  0.50400001928E-02 0.  1.
        1   -1    0    0  501    0  0.00000000000E+00  0.00000000000E+00 -0.63232254099E+03  0.63232254101E+03  0.50400001928E-02 0. -1.
    10030    2    1    2    0    0  0.00000000000E+00  0.00000000000E+00 -0.53285716199E+03  0.73178792014E+03  0.50157432647E+03 0.  0.
        3    1    3    3  502    0 -0.16025232398E+03  0.17092352206E+03 -0.39691193646E+03  0.46090644739E+03  0.10100000352E+00 0. -1.
       -3    1    3    3    0  502  0.16025232398E+03 -0.17092352206E+03 -0.13594522553E+03  0.27088147275E+03  0.10100000352E+00 0.  1.
</event>
<event>
 5   0  0.2013450E-01  0.5033753E+03  0.7818609E-02  0.1012902E+00
        1   -1    0    0  501    0  0.00000000000E+00  0.00000000000E+00  0.25309951074E+03  0.25309951079E+03  0.50400001928E-02 0. -1.
       -1   -1    0    0    0  501  0.00000000000E+00  0.00000000000E+00 -0.25028362746E+03  0.25028362751E+03  0.50400001928E-02 0.  1.
    10030    2    1    2    0    0  0.00000000000E+00  0.00000000000E+00  0.28158832742E+01  0.50338313830E+03  0.50337526233E+03 0.  0.
        4    1    3    3  502    0 -0.18259673087E+03 -0.16560473603E+03 -0.49372337496E+02  0.25140750850E+03  0.12699999809E+01 0. -1.
       -4    1    3    3    0  502  0.18259673087E+03  0.16560473603E+03  0.52188220770E+02  0.25197562979E+03  0.12699999809E+01 0.  1.
</event>
<event>
 5   0  0.3178149E-01  0.5011051E+03  0.7818609E-02  0.1013491E+00
        2   -1    0    0  501    0  0.00000000000E+00  0.00000000000E+00  0.12827137664E+03  0.12827137667E+03  0.25500000920E-02 0.  1.
       -2   -1    0    0    0  501  0.00000000000E+00  0.00000000000E+00 -0.48940451246E+03  0.48940451246E+03  0.25500000920E-02 0. -1.
    10030    2    1    2    0    0  0.00000000000E+00  0.00000000000E+00 -0.36113313582E+03  0.61767588913E+03  0.50110514089E+03 0.  0.
        3    1    3    3  502    0 -0.34472179590E+02 -0.21127418240E+02  0.12422376615E+03  0.13063787064E+03  0.10100000352E+00 0.  1.
       -3    1    3    3    0  502  0.34472179590E+02  0.21127418240E+02 -0.48535690197E+03  0.48703801849E+03  0.10100000352E+00 0. -1.
</event>
<event>
 5   0  0.1967161E-01  0.5066623E+03  0.7818609E-02  0.1012054E+00
       -1   -1    0    0    0  501  0.00000000000E+00  0.00000000000E+00  0.66323133611E+03  0.66323133613E+03  0.50400001928E-02 0.  1.
        1   -1    0    0  501    0  0.00000000000E+00  0.00000000000E+00 -0.96763648899E+02  0.96763649030E+02  0.50400001928E-02 0. -1.
    10030    2    1    2    0    0  0.00000000000E+00  0.00000000000E+00  0.56646768721E+03  0.75999498516E+03  0.50666234991E+03 0.  0.
        1    1    3    3  502    0 -0.80891696583E+02  0.76910685535E+02  0.62435825830E+03  0.63425701010E+03  0.50400001928E-02 0.  1.
       -1    1    3    3    0  502  0.80891696583E+02 -0.76910685535E+02 -0.57890571090E+02  0.12573797506E+03  0.50400001928E-02 0. -1.
</event>
<event>
 5   0  0.2000612E-01  0.4805420E+03  0.7818609E-02  0.1018986E+00
       -1   -1    0    0    0  501  0.00000000000E+00  0.00000000000E+00  0.11660935479E+03  0.11660935490E+03  0.50400001928E-02 0. -1.
        1   -1    0    0  501    0  0.00000000000E+00  0.00000000000E+00 -0.49507313776E+03  0.49507313778E+03  0.50400001928E-02 0.  1.
    10030    2    1    2    0    0  0.00000000000E+00  0.00000000000E+00 -0.37846378297E+03  0.61168249268E+03  0.48054202401E+03 0.  0.
        2    1    3    3  502    0 -0.68035781171E+02 -0.18554561347E+03 -0.15285783859E+02  0.19821628942E+03  0.25500000920E-02 0. -1.
       -2    1    3    3    0  502  0.68035781171E+02  0.18554561347E+03 -0.36317799911E+03  0.41346620326E+03  0.25500000920E-02 0.  1.
</event>
<event>
 5   0  0.2000612E-01  0.4936232E+03  0.7818609E-02  0.1015457E+00
       -1   -1    0    0    0  501  0.00000000000E+00  0.00000000000E+00  0.57339931966E+02  0.57339932187E+02  0.50400001928E-02 0.  1.
        1   -1    0    0  501    0  0.00000000000E+00  0.00000000000E+00 -0.10623653730E+04  0.10623653730E+04  0.50400001928E-02 0. -1.
    10030    2    1    2    0    0  0.00000000000E+00  0.00000000000E+00 -0.10050254410E+04  0.11197053052E+04  0.49362316939E+03 0.  0.
        2    1    3    3  502    0 -0.17117744564E+03 -0.16571130509E+03 -0.64871079223E+03  0.69107716392E+03  0.25500000920E-02 0. -1.
       -2    1    3    3    0  502  0.17117744564E+03  0.16571130509E+03 -0.35631464877E+03  0.42862814124E+03  0.25500000920E-02 0.  1.
</event>
<event>
 5   0  0.3117389E-01  0.4734656E+03  0.7818609E-02  0.1020947E+00
        2   -1    0    0  501    0  0.00000000000E+00  0.00000000000E+00  0.13315063851E+04  0.13315063851E+04  0.25500000920E-02 0.  1.
       -2   -1    0    0    0  501  0.00000000000E+00  0.00000000000E+00 -0.42089478482E+02  0.42089478559E+02  0.25500000920E-02 0. -1.
    10030    2    1    2    0    0  0.00000000000E+00  0.00000000000E+00  0.12894169066E+04  0.13735958636E+04  0.47346556114E+03 0.  0.
        4    1    3    3  502    0  0.15441196653E+03  0.73138139340E+02  0.11200776396E+04  0.11330347631E+04  0.12699999809E+01 0.  1.
       -4    1    3    3    0  502 -0.15441196653E+03 -0.73138139340E+02  0.16933926701E+03  0.24056110053E+03  0.12699999809E+01 0. -1.
</event>
<event>
 5   0  0.2013450E-01  0.5091969E+03  0.7818609E-02  0.1011406E+00
       -1   -1    0    0    0  501  0.00000000000E+00  0.00000000000E+00  0.51333709834E+02  0.51333710082E+02  0.50400001928E-02 0. -1.
        1   -1    0    0  501    0  0.00000000000E+00  0.00000000000E+00 -0.12627251951E+04  0.12627251951E+04  0.50400001928E-02 0.  1.
    10030    2    1    2    0    0  0.00000000000E+00  0.00000000000E+00 -0.12113914852E+04  0.13140589052E+04  0.50919689290E+03 0.  0.
        4    1    3    3  502    0 -0.34704119443E+02  0.21539167670E+03 -0.26704204444E+03  0.34483476724E+03  0.12699999809E+01 0. -1.
       -4    1    3    3    0  502  0.34704119443E+02 -0.21539167670E+03 -0.94434944080E+03  0.96922413793E+03  0.12699999809E+01 0.  1.
</event>
<event>
 5   0  0.2013450E-01  0.5162471E+03  0.7818609E-02  0.1009623E+00
       -1   -1    0    0    0  501  0.00000000000E+00  0.00000000000E+00  0.12673576000E+03  0.12673576010E+03  0.50400001928E-02 0. -1.
        1   -1    0    0  501    0  0.00000000000E+00  0.00000000000E+00 -0.52572197330E+03  0.52572197333E+03  0.50400001928E-02 0.  1.
    10030    2    1    2    0    0  0.00000000000E+00  0.00000000000E+00 -0.39898621330E+03  0.65245773343E+03  0.51624712639E+03 0.  0.
        4    1    3    3  502    0  0.23306341064E+03  0.85028965333E+02 -0.10943402520E+03  0.27115659147E+03  0.12699999809E+01 0. -1.
       -4    1    3    3    0  502 -0.23306341064E+03 -0.85028965333E+02 -0.28955218810E+03  0.38130114196E+03  0.12699999809E+01 0.  1.
</event>
<event>
 5   0  0.3187123E-01  0.4849401E+03  0.7818609E-02  0.1017786E+00
        2   -1    0    0  501    0  0.00000000000E+00  0.00000000000E+00  0.20408498488E+04  0.20408498488E+04  0.25500000920E-02 0. -1.
       -2   -1    0    0    0  501  0.00000000000E+00  0.00000000000E+00 -0.28807476199E+02  0.28807476312E+02  0.25500000920E-02 0.  1.
    10030    2    1    2    0    0  0.00000000000E+00  0.00000000000E+00  0.20120423726E+04  0.20696573251E+04  0.48494013471E+03 0.  0.
        5    1    3    3  502    0  0.16978767299E+02  0.18820903065E+03  0.16541002156E+04  0.16648665205E+04  0.46999998093E+01 0. -1.
       -5    1    3    3    0  502 -0.16978767299E+02 -0.18820903065E+03  0.35794215697E+03  0.40479080460E+03  0.46999998093E+01 0.  1.
</event>
<event>
 5   0  0.3111146E-01  0.4906795E+03  0.7818609E-02  0.1016241E+00
        2   -1    0    0  501    0  0.00000000000E+00  0.00000000000E+00  0.12414847123E+04  0.12414847123E+04  0.25500000920E-02 0. -1.
       -2   -1    0    0    0  501  0.00000000000E+00  0.00000000000E+00 -0.48483560262E+02  0.48483560329E+02  0.25500000920E-02 0.  1.
    10030    2    1    2    0    0  0.00000000000E+00  0.00000000000E+00  0.11930011521E+04  0.12899682727E+04  0.49067952437E+03 0.  0.
        1    1    3    3  502    0 -0.15661072465E+03  0.18609039997E+03  0.51192202164E+03  0.56676336535E+03  0.50400001928E-02 0.  1.
       -1    1    3    3    0  502  0.15661072465E+03 -0.18609039997E+03  0.68107913043E+03  0.72320490732E+03  0.50400001928E-02 0. -1.
</event>
<event>
 5   0  0.3111146E-01  0.4917487E+03  0.7818609E-02  0.1015955E+00
        2   -1    0    0  501    0  0.00000000000E+00  0.00000000000E+00  0.20350230273E+04  0.20350230273E+04  0.25500000920E-02 0.  1.
       -2   -1    0    0    0  501  0.00000000000E+00  0.00000000000E+00 -0.29706883372E+02  0.29706883482E+02  0.25500000920E-02 0. -1.
    10030    2    1    2    0    0  0.00000000000E+00  0.00000000000E+00  0.20053161440E+04  0.20647299108E+04  0.49174868316E+03 0.  0.
        1    1    3    3  502    0  0.30599887667E+02  0.24158071855E+03  0.85986382146E+03  0.89367968993E+03  0.50400001928E-02 0. -1.
       -1    1    3    3    0  502 -0.30599887667E+02 -0.24158071855E+03  0.11454523225E+04  0.11710502209E+04  0.50400001928E-02 0.  1.
</event>
<event>
 5   0  0.1292375E-01  0.4904572E+03  0.7818609E-02  0.1016300E+00
       -3   -1    0    0    0  501  0.00000000000E+00  0.00000000000E+00  0.35568042316E+03  0.35568043751E+03  0.10100000352E+00 0.  1.
        3   -1    0    0  501    0  0.00000000000E+00  0.00000000000E+00 -0.16907610908E+03  0.16907613925E+03  0.10100000352E+00 0. -1.
    10030    2    1    2    0    0  0.00000000000E+00  0.00000000000E+00  0.18660431408E+03  0.52475657675E+03  0.49045723036E+03 0.  0.
        1    1    3    3  502    0  0.41977701913E+02 -0.78998184501E+02  0.33759921876E+03  0.34925073105E+03  0.50400001928E-02 0.  1.
       -1    1    3    3    0  502 -0.41977701913E+02  0.78998184501E+02 -0.15099490467E+03  0.17550584570E+03  0.50400001928E-02 0. -1.
</event>
<event>
 5   0  0.1967161E-01  0.4906851E+03  0.7818609E-02  0.1016239E+00
        1   -1    0    0  501    0  0.00000000000E+00  0.00000000000E+00  0.31079524256E+03  0.31079524260E+03  0.50400001928E-02 0. -1.
       -1   -1    0    0    0  501  0.00000000000E+00  0.00000000000E+00 -0.19367401247E+03  0.19367401253E+03  0.50400001928E-02 0.  1.
    10030    2    1    2    0    0  0.00000000000E+00  0.00000000000E+00  0.11712123010E+03  0.50446925514E+03  0.49068507909E+03 0.  0.
        1    1    3    3  502    0  0.28817310495E+00 -0.92165542411E+02  0.29232070545E+03  0.30650606048E+03  0.50400001928E-02 0. -1.
       -1    1    3    3    0  502 -0.28817310495E+00  0.92165542411E+02 -0.17519947535E+03  0.19796319466E+03  0.50400001928E-02 0.  1.
</event>
<event>
 5   0  0.3187123E-01  0.4886962E+03  0.7818609E-02  0.1016772E+00
        2   -1    0    0  501    0  0.00000000000E+00  0.00000000000E+00  0.85767781524E+03  0.85767781525E+03  0.25500000920E-02 0.  1.
       -2   -1    0    0    0  501  0.00000000000E+00  0.00000000000E+00 -0.69613540435E+02  0.69613540482E+02  0.25500000920E-02 0. -1.
    10030    2    1    2    0    0  0.00000000000E+00  0.00000000000E+00  0.78806427481E+03  0.92729135573E+03  0.48869618085E+03 0.  0.
        5    1    3    3  502    0 -0.28668999772E+02  0.24217432295E+03  0.36630131858E+03  0.44007847054E+03  0.46999998093E+01 0. -1.
       -5    1    3    3    0  502  0.28668999772E+02 -0.24217432295E+03  0.42176295623E+03  0.48721288519E+03  0.46999998093E+01 0.  1.
</event>
<event>
 5   0  0.3329246E-01  0.4948666E+03  0.7818609E-02  0.1015128E+00
        2   -1    0    0  501    0  0.00000000000E+00  0.00000000000E+00  0.49083263480E+03  0.49083263481E+03  0.25500000920E-02 0. -1.
       -2   -1    0    0    0  501  0.00000000000E+00  0.00000000000E+00 -0.12473344180E+03  0.12473344183E+03  0.25500000920E-02 0.  1.
    10030    2    1    2    0    0  0.00000000000E+00  0.00000000000E+00  0.36609919300E+03  0.61556607664E+03  0.49486662405E+03 0.  0.
        2    1    3    3  502    0  0.30173405922E+02 -0.17055208771E+03 -0.36754767623E+02  0.17705751043E+03  0.25500000920E-02 0.  1.
       -2    1    3    3    0  502 -0.30173405922E+02  0.17055208771E+03  0.40285396062E+03  0.43850856621E+03  0.25500000920E-02 0. -1.
</event>
<event>
 5   0  0.1984680E-01  0.4944584E+03  0.7818609E-02  0.1015236E+00
        1   -1    0    0  501    0  0.00000000000E+00  0.00000000000E+00  0.82194155350E+02  0.82194155504E+02  0.50400001928E-02 0. -1.
       -1   -1    0    0    0  501  0.00000000000E+00  0.00000000000E+00 -0.74363291007E+03  0.74363291009E+03  0.50400001928E-02 0.  1.
    10030    2    1    2    0    0  0.00000000000E+00  0.00000000000E+00 -0.66143875472E+03  0.82582706559E+03  0.49445840676E+03 0.  0.
        5    1    3    3  502    0  0.95281104524E+02 -0.52586094365E+02  0.39953400958E+02  0.11602650752E+03  0.46999998093E+01 0. -1.
       -5    1    3    3    0  502 -0.95281104524E+02  0.52586094365E+02 -0.70139215568E+03  0.70980055808E+03  0.46999998093E+01 0.  1.
</event>
<event>
 5   0  0.3111146E-01  0.4963776E+03  0.7818609E-02  0.1014729E+00
        2   -1    0    0  501    0  0.00000000000E+00  0.00000000000E+00  0.90011730784E+03  0.90011730785E+03  0.25500000920E-02 0.  1.
       -2   -1    0    0    0  501  0.00000000000E+00  0.00000000000E+00 -0.68432947342E+02  0.68432947389E+02  0.25500000920E-02 0. -1.
    10030    2    1    2    0    0  0.00000000000E+00  0.00000000000E+00  0.83168436050E+03  0.96855025523E+03  0.49637759963E+03 0.  0.
        1    1    3    3  502    0  0.82765881291E+02  0.10203814179E+03  0.49888574193E+01  0.13147951251E+03  0.50400001928E-02 0. -1.
       -1    1    3    3    0  502 -0.82765881291E+02 -0.10203814179E+03  0.82669550308E+03  0.83707074272E+03  0.50400001928E-02 0.  1.
</event>
<event>
 5   0  0.3117389E-01  0.4754213E+03  0.7818609E-02  0.1020401E+00
       -2   -1    0    0    0  501  0.00000000000E+00  0.00000000000E+00  0.10554181394E+03  0.10554181397E+03  0.25500000920E-02 0.  1.
        2   -1    0    0  501    0  0.00000000000E+00  0.00000000000E+00 -0.53539308804E+03  0.53539308804E+03  0.25500000920E-02 0. -1.
    10030    2    1    2    0    0  0.00000000000E+00  0.00000000000E+00 -0.42985127409E+03  0.64093490202E+03  0.47542131924E+03 0.  0.
        4    1    3    3  502    0 -0.95465514494E+02  0.26835971512E+02 -0.50617058982E+03  0.51579464200E+03  0.12699999809E+01 0. -1.
       -4    1    3    3    0  502  0.95465514494E+02 -0.26835971512E+02  0.76319315722E+02  0.12514026002E+03  0.12699999809E+01 0.  1.
</event>
<event>
 5   0  0.3111146E-01  0.5007123E+03  0.7818609E-02  0.1013593E+00
       -2   -1    0    0    0  501  0.00000000000E+00  0.00000000000E+00  0.57435681962E+03  0.57435681962E+03  0.25500000920E-02 0.  1.
        2   -1    0    0  501    0  0.00000000000E+00  0.00000000000E+00 -0.10912761456E+03  0.10912761459E+03  0.25500000920E-02 0. -1.
    10030    2    1    2    0    0  0.00000000000E+00  0.00000000000E+00  0.46522920506E+03  0.68348443421E+03  0.50071225127E+03 0.  0.
        1    1    3    3  502    0  0.27562492692E+02  0.12089476183E+03  0.52949706757E+03  0.54382201043E+03  0.50400001928E-02 0.  1.
       -1    1    3    3    0  502 -0.27562492692E+02 -0.12089476183E+03 -0.64267862506E+02  0.13966242378E+03  0.50400001928E-02 0. -1.
</event>
<event>
 5   0  0.3329246E-01  0.4902149E+03  0.7818609E-02  0.1016365E+00
        2   -1    0    0  501    0  0.00000000000E+00  0.00000000000E+00  0.39042701642E+03  0.39042701643E+03  0.25500000920E-02 0. -1.
       -2   -1    0    0    0  501  0.00000000000E+00  0.00000000000E+00 -0.15387681523E+03  0.15387681525E+03  0.25500000920E-02 0.  1.
    10030    2    1    2    0    0  0.00000000000E+00  0.00000000000E+00  0.23655020119E+03  0.54430383168E+03  0.49021491562E+03 0.  0.
        2    1    3    3  502    0 -0.20504428080E+03 -0.10063841047E+03  0.19546089597E+02  0.22924505747E+03  0.25500000920E-02 0.  1.
       -2    1    3    3    0  502  0.20504428080E+03  0.10063841047E+03  0.21700411159E+03  0.31505877421E+03  0.25500000920E-02 0. -1.
</event>
<event>
 5   0  0.2000612E-01  0.5020630E+03  0.7818609E-02  0.1013242E+00
        1   -1    0    0  501    0  0.00000000000E+00  0.00000000000E+00  0.73079175111E+03  0.73079175113E+03  0.50400001928E-02 0.  1.
       -1   -1    0    0    0  501  0.00000000000E+00  0.00000000000E+00 -0.86230879845E+02  0.86230879992E+02  0.50400001928E-02 0. -1.
    10030    2    1    2    0    0  0.00000000000E+00  0.00000000000E+00  0.64456087127E+03  0.81702263112E+03  0.50206300700E+03 0.  0.
        2    1    3    3  502    0 -0.79931915130E+02  0.19781440502E+03  0.53753864230E+03  0.57833160199E+03  0.25500000920E-02 0.  1.
       -2    1    3    3    0  502  0.79931915130E+02 -0.19781440502E+03  0.10702222897E+03  0.23869102913E+03  0.25500000920E-02 0. -1.
</event>
<event>
 5   0  0.2000612E-01  0.4927099E+03  0.7818609E-02  0.1015699E+00
        1   -1    0    0  501    0  0.00000000000E+00  0.00000000000E+00  0.11726445385E+03  0.11726445396E+03  0.50400001928E-02 0.  1.
       -1   -1    0    0    0  501  0.00000000000E+00  0.00000000000E+00 -0.51755469924E+03  0.51755469926E+03  0.50400001928E-02 0. -1.
    10030    2    1    2    0    0  0.00000000000E+00  0.00000000000E+00 -0.40029024539E+03  0.63481915322E+03  0.49270993164E+03 0.  0.
        2    1    3    3  502    0  0.25070488563E+02 -0.23349579696E+03 -0.10422933278E+03  0.25692911554E+03  0.25500000920E-02 0. -1.
       -2    1    3    3    0  502 -0.25070488563E+02  0.23349579696E+03 -0.29606091261E+03  0.37789003768E+03  0.25500000920E-02 0.  1.
</event>
<event>
 5   0  0.3111146E-01  0.4833777E+03  0.7818609E-02  0.1018211E+00
       -2   -1    0    0    0  501  0.00000000000E+00  0.00000000000E+00  0.40907847669E+02  0.40907847749E+02  0.25500000920E-02 0.  1.
        2   -1    0    0  501    0  0.00000000000E+00  0.00000000000E+00 -0.14279288208E+04  0.14279288208E+04  0.25500000920E-02 0. -1.
    10030    2    1    2    0    0  0.00000000000E+00  0.00000000000E+00 -0.13870209732E+04  0.14688366686E+04  0.48337767737E+03 0.  0.
        1    1    3    3  502    0  0.17158194140E+03  0.10087244244E+03 -0.27688927252E+03  0.34100334532E+03  0.50400001928E-02 0.  1.
       -1    1    3    3    0  502 -0.17158194140E+03 -0.10087244244E+03 -0.11101317007E+04  0.11278333233E+04  0.50400001928E-02 0. -1.
</event>
<event>
 5   0  0.1967161E-01  0.3348833E+03  0.7818609E-02  0.1068996E+00
       -1   -1    0    0    0  501  0.00000000000E+00  0.00000000000E+00  0.54694829933E+02  0.54694830165E+02  0.50400001928E-02 0.  1.
        1   -1    0    0  501    0  0.00000000000E+00  0.00000000000E+00 -0.51260253045E+03  0.51260253048E+03  0.50400001928E-02 0. -1.
    10030    2    1    2    0    0  0.00000000000E+00  0.00000000000E+00 -0.45790770052E+03  0.56729736065E+03  0.33488331281E+03 0.  0.
        1    1    3    3  502    0 -0.12023073752E+03  0.85060960278E+02 -0.36390116481E+03  0.39257464893E+03  0.50400001928E-02 0. -1.
       -1    1    3    3    0  502  0.12023073752E+03 -0.85060960278E+02 -0.94006535712E+02  0.17472271171E+03  0.50400001928E-02 0.  1.
</event>
<event>
 5   0  0.1984680E-01  0.5238737E+03  0.7818609E-02  0.1007729E+00
       -1   -1    0    0    0  501  0.00000000000E+00  0.00000000000E+00  0.15696784140E+03  0.15696784148E+03  0.50400001928E-02 0.  1.
        1   -1    0    0  501    0  0.00000000000E+00  0.00000000000E+00 -0.43710176962E+03  0.43710176965E+03  0.50400001928E-02 0. -1.
    10030    2    1    2    0    0  0.00000000000E+00  0.00000000000E+00 -0.28013392822E+03  0.59406961112E+03  0.52387373013E+03 0.  0.
        5    1    3    3  502    0  0.85145442287E+02 -0.16633326095E+03  0.68021166446E+02  0.19891070640E+03  0.46999998093E+01 0.  1.
       -5    1    3    3    0  502 -0.85145442287E+02  0.16633326095E+03 -0.34815509467E+03  0.39515890472E+03  0.46999998093E+01 0. -1.
</event>
<event>
 5   0  0.3111146E-01  0.4935059E+03  0.7818609E-02  0.1015488E+00
        2   -1    0    0  501    0  0.00000000000E+00  0.00000000000E+00  0.94256106955E+03  0.94256106956E+03  0.25500000920E-02 0.  1.
       -2   -1    0    0    0  501  0.00000000000E+00  0.00000000000E+00 -0.64597437465E+02  0.64597437516E+02  0.25500000920E-02 0. -1.
    10030    2    1    2    0    0  0.00000000000E+00  0.00000000000E+00  0.87796363209E+03  0.10071585071E+04  0.49350594637E+03 0.  0.
        1    1    3    3  502    0  0.17557760608E+03 -0.11081477970E+03  0.16685793541E+03  0.26636250072E+03  0.50400001928E-02 0. -1.
       -1    1    3    3    0  502 -0.17557760608E+03  0.11081477970E+03  0.71110569668E+03  0.74079600636E+03  0.50400001928E-02 0.  1.
</event>
<event>
 5   0  0.2013450E-01  0.5492612E+03  0.7818609E-02  0.1001665E+00
       -1   -1    0    0    0  501  0.00000000000E+00  0.00000000000E+00  0.18505179393E+03  0.18505179400E+03  0.50400001928E-02 0.  1.
        1   -1    0    0  501    0  0.00000000000E+00  0.00000000000E+00 -0.40757214045E+03  0.40757214048E+03  0.50400001928E-02 0. -1.
    10030    2    1    2    0    0  0.00000000000E+00  0.00000000000E+00 -0.22252034652E+03  0.59262393447E+03  0.54926116110E+03 0.  0.
        4    1    3    3  502    0  0.15537197938E+03  0.19113235413E+03 -0.24229039804E+03  0.34551161870E+03  0.12699999809E+01 0. -1.
       -4    1    3    3    0  502 -0.15537197938E+03 -0.19113235413E+03  0.19770051519E+02  0.24711231578E+03  0.12699999809E+01 0.  1.
</event>
<event>
 5   0  0.3329246E-01  0.5060090E+03  0.7818609E-02  0.1012222E+00
       -2   -1    0    0    0  501  0.00000000000E+00  0.00000000000E+00  0.19375773164E+03  0.19375773166E+03  0.25500000920E-02 0.  1.
        2   -1    0    0  501    0  0.00000000000E+00  0.00000000000E+00 -0.33036762155E+03  0.33036762156E+03  0.25500000920E-02 0. -1.
    10030    2    1    2    0    0  0.00000000000E+00  0.00000000000E+00 -0.13660988991E+03  0.52412535322E+03  0.50600901560E+03 0.  0.
        2    1    3    3  502    0  0.59399940324E+02 -0.22121751749E+03  0.42993158140E+02  0.23305354450E+03  0.25500000920E-02 0. -1.
       -2    1    3    3    0  502 -0.59399940324E+02  0.22121751749E+03 -0.17960304805E+03  0.29107180872E+03  0.25500000920E-02 0.  1.
</event>
<event>
 5   0  0.2013450E-01  0.4912956E+03  0.7818609E-02  0.1016076E+00
       -1   -1    0    0    0  501  0.00000000000E+00  0.00000000000E+00  0.16636350736E+03  0.16636350744E+03  0.50400001928E-02 0. -1.
        1   -1    0    0  501    0  0.00000000000E+00  0.00000000000E+00 -0.36271683883E+03  0.36271683886E+03  0.50400001928E-02 0.  1.
    10030    2    1    2    0    0  0.00000000000E+00  0.00000000000E+00 -0.19635333146E+03  0.52908034630E+03  0.49129561576E+03 0.  0.
        4    1    3    3  502    0 -0.51100114119E+02 -0.59658185169E+02 -0.34882326339E+03  0.35756062801E+03  0.12699999809E+01 0.  1.
       -4    1    3    3    0  502  0.51100114119E+02  0.59658185169E+02  0.15246993193E+03  0.17151971829E+03  0.12699999809E+01 0. -1.
</event>
<event>
 5   0  0.1967161E-01  0.4935693E+03  0.7818609E-02  0.1015471E+00
       -1   -1    0    0    0  501  0.00000000000E+00  0.00000000000E+00  0.43633542374E+02  0.43633542665E+02  0.50400001928E-02 0.  1.
        1   -1    0    0  501    0  0.00000000000E+00  0.00000000000E+00 -0.13957763178E+04  0.13957763178E+04  0.50400001928E-02 0. -1.
    10030    2    1    2    0    0  0.00000000000E+00  0.00000000000E+00 -0.13521427754E+04  0.14394098605E+04  0.49356930749E+03 0.  0.
        1    1    3    3  502    0 -0.20625845783E+03  0.19494222763E+02 -0.10671213501E+04  0.10870467110E+04  0.50400001928E-02 0. -1.
       -1    1    3    3    0  502  0.20625845783E+03 -0.19494222763E+02 -0.28502142533E+03  0.35236314942E+03  0.50400001928E-02 0.  1.
</event>
<event>
 5   0  0.3187123E-01  0.5177815E+03  0.7818609E-02  0.1009239E+00
       -2   -1    0    0    0  501  0.00000000000E+00  0.00000000000E+00  0.28352454837E+02  0.28352454952E+02  0.25500000920E-02 0.  1.
        2   -1    0    0  501    0  0.00000000000E+00  0.00000000000E+00 -0.23639720013E+04  0.23639720013E+04  0.25500000920E-02 0. -1.
    10030    2    1    2    0    0  0.00000000000E+00  0.00000000000E+00 -0.23356195464E+04  0.23923244562E+04  0.51778145792E+03 0.  0.
        5    1    3    3  502    0 -0.13115711535E+03 -0.98979437049E+02 -0.24370553548E+03  0.29396189530E+03  0.46999998093E+01 0.  1.
       -5    1    3    3    0  502  0.13115711535E+03  0.98979437049E+02 -0.20919140109E+04  0.20983625609E+04  0.46999998093E+01 0. -1.
</event>
<event>
 5   0  0.1984297E-01  0.4789032E+03  0.7818609E-02  0.1019437E+00
       -1   -1    0    0    0  501  0.00000000000E+00  0.00000000000E+00  0.18495722200E+03  0.18495722206E+03  0.50400001928E-02 0.  1.
        1   -1    0    0  501    0  0.00000000000E+00  0.00000000000E+00 -0.31000182311E+03  0.31000182315E+03  0.50400001928E-02 0. -1.
    10030    2    1    2    0    0  0.00000000000E+00  0.00000000000E+00 -0.12504460111E+03  0.49495904521E+03  0.47890323049E+03 0.  0.
        3    1    3    3  502    0  0.16384985105E+02 -0.12199008496E+03  0.14975859397E+03  0.19384967174E+03  0.10100000352E+00 0.  1.
       -3    1    3    3    0  502 -0.16384985105E+02  0.12199008496E+03 -0.27480319508E+03  0.30110937347E+03  0.10100000352E+00 0. -1.
</event>
<event>
 5   0  0.1292375E-01  0.4848715E+03  0.7818609E-02  0.1017805E+00
       -3   -1    0    0    0  501  0.00000000000E+00  0.00000000000E+00  0.97437484143E+03  0.97437484666E+03  0.10100000352E+00 0.  1.
        3   -1    0    0  501    0  0.00000000000E+00  0.00000000000E+00 -0.60320784182E+02  0.60320868738E+02  0.10100000352E+00 0. -1.
    10030    2    1    2    0    0  0.00000000000E+00  0.00000000000E+00  0.91405405725E+03  0.10346957154E+04  0.48487153340E+03 0.  0.
        3    1    3    3  502    0 -0.76655346062E+02 -0.12746979917E+03  0.86555886766E+03  0.87824640925E+03  0.10100000352E+00 0.  1.
       -3    1    3    3    0  502  0.76655346062E+02  0.12746979917E+03  0.48495189590E+02  0.15644930615E+03  0.10100000352E+00 0. -1.
</event>
<event>
 5   0  0.1984297E-01  0.5171318E+03  0.7818609E-02  0.1009402E+00
        1   -1    0    0  501    0  0.00000000000E+00  0.00000000000E+00  0.23895600517E+03  0.23895600522E+03  0.50400001928E-02 0. -1.
       -1   -1    0    0    0  501  0.00000000000E+00  0.00000000000E+00 -0.27978505138E+03  0.27978505142E+03  0.50400001928E-02 0.  1.
    10030    2    1    2    0    0  0.00000000000E+00  0.00000000000E+00 -0.40829046209E+02  0.51874105664E+03  0.51713177511E+03 0.  0.
        3    1    3    3  502    0 -0.14435817607E+02 -0.10547322323E+03  0.21595261118E+03  0.24076655525E+03  0.10100000352E+00 0. -1.
       -3    1    3    3    0  502  0.14435817607E+02  0.10547322323E+03 -0.25678165739E+03  0.27797450139E+03  0.10100000352E+00 0.  1.
</event>
<event>
 5   0  0.3329246E-01  0.5037603E+03  0.7818609E-02  0.1012802E+00
       -2   -1    0    0    0  501  0.00000000000E+00  0.00000000000E+00  0.22560155103E+03  0.22560155105E+03  0.25500000920E-02 0.  1.
        2   -1    0    0  501    0  0.00000000000E+00  0.00000000000E+00 -0.28121977317E+03  0.28121977318E+03  0.25500000920E-02 0. -1.
    10030    2    1    2    0    0  0.00000000000E+00  0.00000000000E+00 -0.55618222136E+02  0.50682132423E+03  0.50376032799E+03 0.  0.
        2    1    3    3  502    0  0.24824687995E+03  0.28722964066E+02 -0.59498038008E+02  0.25688818307E+03  0.25500000920E-02 0. -1.
       -2    1    3    3    0  502 -0.24824687995E+03 -0.28722964066E+02  0.38798158714E+01  0.24993314115E+03  0.25500000920E-02 0.  1.
</event>
<event>
 5   0  0.3117389E-01  0.5211000E+03  0.7818609E-02  0.1008414E+00
       -2   -1    0    0    0  501  0.00000000000E+00  0.00000000000E+00  0.93192765054E+03  0.93192765054E+03  0.25500000920E-02 0. -1.
        2   -1    0    0  501    0  0.00000000000E+00  0.00000000000E+00 -0.72845028652E+02  0.72845028697E+02  0.25500000920E-02 0.  1.
    10030    2    1    2    0    0  0.00000000000E+00  0.00000000000E+00  0.85908262188E+03  0.10047726792E+04  0.52109997670E+03 0.  0.
        4    1    3    3  502    0 -0.20300508237E+03  0.16331839722E+03  0.43117877527E+03  0.50378637484E+03  0.12699999809E+01 0.  1.
       -4    1    3    3    0  502  0.20300508237E+03 -0.16331839722E+03  0.42790384662E+03  0.50098630439E+03  0.12699999809E+01 0. -1.
</event>
<event>
 5   0  0.1984297E-01  0.5060211E+03  0.7818609E-02  0.1012219E+00
        1   -1    0    0  501    0  0.00000000000E+00  0.00000000000E+00  0.29860820163E+03  0.29860820167E+03  0.50400001928E-02 0.  1.
       -1   -1    0    0    0  501  0.00000000000E+00  0.00000000000E+00 -0.21437565284E+03  0.21437565290E+03  0.50400001928E-02 0. -1.
    10030    2    1    2    0    0  0.00000000000E+00  0.00000000000E+00  0.84232548788E+02  0.51298385458E+03  0.50602105962E+03 0.  0.
        3    1    3    3  502    0  0.15748555760E+03 -0.18180230367E+03 -0.37452831660E+02  0.24342658703E+03  0.10100000352E+00 0. -1.
       -3    1    3    3    0  502 -0.15748555760E+03  0.18180230367E+03  0.12168538045E+03  0.26955726755E+03  0.10100000352E+00 0.  1.
</event>
<event>
 5   0  0.3329246E-01  0.5277649E+03  0.7818609E-02  0.1006776E+00
       -2   -1    0    0    0  501  0.00000000000E+00  0.00000000000E+00  0.29075873482E+03  0.29075873483E+03  0.25500000920E-02 0.  1.
        2   -1    0    0  501    0  0.00000000000E+00  0.00000000000E+00 -0.23949043873E+03  0.23949043875E+03  0.25500000920E-02 0. -1.
    10030    2    1    2    0    0  0.00000000000E+00  0.00000000000E+00  0.51268296087E+02  0.53024917358E+03  0.52776486042E+03 0.  0.
        2    1    3    3  502    0  0.91201538547E+02  0.23659580312E+03  0.99044100103E+02  0.27222238787E+03  0.25500000920E-02 0.  1.
       -2    1    3    3    0  502 -0.91201538547E+02 -0.23659580312E+03 -0.47775804016E+02  0.25802678571E+03  0.25500000920E-02 0. -1.
</event>
<event>
 5   0  0.3117389E-01  0.4946029E+03  0.7818609E-02  0.1015197E+00
       -2   -1    0    0    0  501  0.00000000000E+00  0.00000000000E+00  0.22872902275E+03  0.22872902276E+03  0.25500000920E-02 0.  1.
        2   -1    0    0  501    0  0.00000000000E+00  0.00000000000E+00 -0.26738190209E+03  0.26738190210E+03  0.25500000920E-02 0. -1.
    10030    2    1    2    0    0  0.00000000000E+00  0.00000000000E+00 -0.38652879340E+02  0.49611092486E+03  0.49460287573E+03 0.  0.
        4    1    3    3  502    0  0.16321947765E+03  0.26930299053E+02 -0.20370897399E+03  0.26242103169E+03  0.12699999809E+01 0. -1.
       -4    1    3    3    0  502 -0.16321947765E+03 -0.26930299053E+02  0.16505609465E+03  0.23368989317E+03  0.12699999809E+01 0.  1.
</event>
<event>
 5   0  0.3178149E-01  0.5080801E+03  0.7818609E-02  0.1011691E+00
       -2   -1    0    0    0  501  0.00000000000E+00  0.00000000000E+00  0.46108938514E+03  0.46108938514E+03  0.25500000920E-02 0.  1.
        2   -1    0    0  501    0  0.00000000000E+00  0.00000000000E+00 -0.13996491777E+03  0.13996491779E+03  0.25500000920E-02 0. -1.
    10030    2    1    2    0    0  0.00000000000E+00  0.00000000000E+00  0.32112446737E+03  0.60105430294E+03  0.50808006410E+03 0.  0.
        3    1    3    3  502    0  0.19488790705E+03  0.10349571195E+03  0.30946728689E+03  0.38008245232E+03  0.10100000352E+00 0.  1.
       -3    1    3    3    0  502 -0.19488790705E+03 -0.10349571195E+03  0.11657180481E+02  0.22097185062E+03  0.10100000352E+00 0. -1.
</event>
<event>
 5   0  0.1984297E-01  0.5018997E+03  0.7818609E-02  0.1013284E+00
       -1   -1    0    0    0  501  0.00000000000E+00  0.00000000000E+00  0.76683460547E+02  0.76683460712E+02  0.50400001928E-02 0.  1.
        1   -1    0    0  501    0  0.00000000000E+00  0.00000000000E+00 -0.82124394594E+03  0.82124394596E+03  0.50400001928E-02 0. -1.
    10030    2    1    2    0    0  0.00000000000E+00  0.00000000000E+00 -0.74456048540E+03  0.89792740667E+03  0.50189970237E+03 0.  0.
        3    1    3    3  502    0  0.21857537239E+03 -0.58035011127E+02 -0.17767090366E+03  0.28759383884E+03  0.10100000352E+00 0. -1.
       -3    1    3    3    0  502 -0.21857537239E+03  0.58035011127E+02 -0.56688958174E+03  0.61033356783E+03  0.10100000352E+00 0.  1.
</event>
<event>
 5   0  0.3329246E-01  0.5102489E+03  0.7818609E-02  0.1011138E+00
       -2   -1    0    0    0  501  0.00000000000E+00  0.00000000000E+00  0.49887149695E+02  0.49887149760E+02  0.25500000920E-02 0.  1.
        2   -1    0    0  501    0  0.00000000000E+00  0.00000000000E+00 -0.13047146757E+04  0.13047146757E+04  0.25500000920E-02 0. -1.
    10030    2    1    2    0    0  0.00000000000E+00  0.00000000000E+00 -0.12548275260E+04  0.13546018255E+04  0.51024894466E+03 0.  0.
        2    1    3    3  502    0 -0.27282810536E+01  0.44931705121E+02  0.39261102573E+02  0.59730526737E+02  0.25500000920E-02 0.  1.
       -2    1    3    3    0  502  0.27282810536E+01 -0.44931705121E+02 -0.12940886286E+04  0.12948712987E+04  0.25500000920E-02 0. -1.
</event>
<event>
 5   0  0.1984680E-01  0.5030382E+03  0.7818609E-02  0.1012989E+00
        1   -1    0    0  501    0  0.00000000000E+00  0.00000000000E+00  0.75531737430E+03  0.75531737432E+03  0.50400001928E-02 0.  1.
       -1   -1    0    0    0  501  0.00000000000E+00  0.00000000000E+00 -0.83755323604E+02  0.83755323755E+02  0.50400001928E-02 0. -1.
    10030    2    1    2    0    0  0.00000000000E+00  0.00000000000E+00  0.67156205070E+03  0.83907269807E+03  0.50303817421E+03 0.  0.
        5    1    3    3  502    0 -0.18919988085E+01 -0.10114797802E+03 -0.48242795230E+02  0.11217820825E+03  0.46999998093E+01 0. -1.
       -5    1    3    3    0  502  0.18919988085E+01  0.10114797802E+03  0.71980484593E+03  0.72689448982E+03  0.46999998093E+01 0.  1.
</event>
<event>
 5   0  0.2000612E-01  0.4845667E+03  0.7818609E-02  0.1017888E+00
       -1   -1    0    0    0  501  0.00000000000E+00  0.00000000000E+00  0.74403408127E+02  0.74403408297E+02  0.50400001928E-02 0.  1.
        1   -1    0    0  501    0  0.00000000000E+00  0.00000000000E+00 -0.78895862868E+03  0.78895862870E+03  0.50400001928E-02 0. -1.
    10030    2    1    2    0    0  0.00000000000E+00  0.00000000000E+00 -0.71455522056E+03  0.86336203700E+03  0.48456665558E+03 0.  0.
        2    1    3    3  502    0 -0.48899607346E+00  0.16404913388E+03 -0.39607133520E+02  0.16876339199E+03  0.25500000920E-02 0.  1.
       -2    1    3    3    0  502  0.48899607346E+00 -0.16404913388E+03 -0.67494808704E+03  0.69459864501E+03  0.25500000920E-02 0. -1.
</event>
<event>
 5   0  0.3329246E-01  0.4971101E+03  0.7818609E-02  0.1014536E+00
       -2   -1    0    0    0  501  0.00000000000E+00  0.00000000000E+00  0.47460781205E+02  0.47460781273E+02  0.25500000920E-02 0.  1.
        2   -1    0    0  501    0  0.00000000000E+00  0.00000000000E+00 -0.13016980054E+04  0.13016980054E+04  0.25500000920E-02 0. -1.
    10030    2    1    2    0    0  0.00000000000E+00  0.00000000000E+00 -0.12542372242E+04  0.13491587867E+04  0.49711006538E+03 0.  0.
        2    1    3    3  502    0 -0.42485848535E+02  0.45365234094E+01  0.37418909670E+02  0.56796145801E+02  0.25500000920E-02 0.  1.
       -2    1    3    3    0  502  0.42485848535E+02 -0.45365234094E+01 -0.12916561338E+04  0.12923626409E+04  0.25500000920E-02 0. -1.
</event>
<event>
 5   0  0.1984297E-01  0.4776477E+03  0.7818609E-02  0.1019784E+00
       -1   -1    0    0    0  501  0.00000000000E+00  0.00000000000E+00  0.28421907984E+02  0.28421908430E+02  0.50400001928E-02 0.  1.
        1   -1    0    0  501    0  0.00000000000E+00  0.00000000000E+00 -0.20067911161E+04  0.20067911161E+04  0.50400001928E-02 0. -1.
    10030    2    1    2    0    0  0.00000000000E+00  0.00000000000E+00 -0.19783692081E+04  0.20352130245E+04  0.47764770660E+03 0.  0.
        3    1    3    3  502    0 -0.15740802584E+02 -0.10981124498E+03 -0.88019744017E+02  0.14161132697E+03  0.10100000352E+00 0.  1.
       -3    1    3    3    0  502  0.15740802584E+02  0.10981124498E+03 -0.18903494641E+04  0.18936016975E+04  0.10100000352E+00 0. -1.
</event>
<event>
 5   0  0.1984297E-01  0.5042481E+03  0.7818609E-02  0.1012676E+00
        1   -1    0    0  501    0  0.00000000000E+00  0.00000000000E+00  0.16804899504E+03  0.16804899511E+03  0.50400001928E-02 0.  1.
       -1   -1    0    0    0  501  0.00000000000E+00  0.00000000000E+00 -0.37826194321E+03  0.37826194324E+03  0.50400001928E-02 0. -1.
    10030    2    1    2    0    0  0.00000000000E+00  0.00000000000E+00 -0.21021294817E+03  0.54631093835E+03  0.50424811134E+03 0.  0.
        3    1    3    3  502    0 -0.40608255418E+02 -0.23105148660E+03 -0.50283645778E+01  0.23464678672E+03  0.10100000352E+00 0.  1.
       -3    1    3    3    0  502  0.40608255418E+02  0.23105148660E+03 -0.20518458359E+03  0.31166415163E+03  0.10100000352E+00 0. -1.
</event>
<event>
 5   0  0.1984297E-01  0.4863985E+03  0.7818609E-02  0.1017391E+00
        1   -1    0    0  501    0  0.00000000000E+00  0.00000000000E+00  0.12115690890E+04  0.12115690890E+04  0.50400001928E-02 0.  1.
       -1   -1    0    0    0  501  0.00000000000E+00  0.00000000000E+00 -0.48817590583E+02  0.48817590843E+02  0.50400001928E-02 0. -1.
    10030    2    1    2    0    0  0.00000000000E+00  0.00000000000E+00  0.11627514984E+04  0.12603866798E+04  0.48639853585E+03 0.  0.
        3    1    3    3  502    0 -0.20439336057E+03 -0.12674564120E+03  0.48777516087E+03  0.54384347120E+03  0.10100000352E+00 0.  1.
       -3    1    3    3    0  502  0.20439336057E+03  0.12674564120E+03  0.67497633751E+03  0.71654320861E+03  0.10100000352E+00 0. -1.
</event>
<event>
 5   0  0.1292375E-01  0.4741994E+03  0.7818609E-02  0.1020742E+00
       -4   -1    0    0    0  501  0.00000000000E+00  0.00000000000E+00  0.26982664744E+03  0.26982963619E+03  0.12699999809E+01 0. -1.
        4   -1    0    0  501    0  0.00000000000E+00  0.00000000000E+00 -0.20833607164E+03  0.20833994251E+03  0.12699999809E+01 0.  1.
    10030    2    1    2    0    0  0.00000000000E+00  0.00000000000E+00  0.61490575799E+02  0.47816957871E+03  0.47419938327E+03 0.  0.
        5    1    3    3  502    0 -0.20391427211E+03 -0.10284837670E+03  0.94801583747E+02  0.24732215679E+03  0.46999998093E+01 0. -1.
       -5    1    3    3    0  502  0.20391427211E+03  0.10284837670E+03 -0.33311007948E+02  0.23084742192E+03  0.46999998093E+01 0.  1.
</event>
<event>
 5   0  0.3187123E-01  0.4955496E+03  0.7818609E-02  0.1014947E+00
        2   -1    0    0  501    0  0.00000000000E+00  0.00000000000E+00  0.29938880819E+03  0.29938880820E+03  0.25500000920E-02 0. -1.
       -2   -1    0    0    0  501  0.00000000000E+00  0.00000000000E+00 -0.20505894493E+03  0.20505894495E+03  0.25500000920E-02 0.  1.
    10030    2    1    2    0    0  0.00000000000E+00  0.00000000000E+00  0.94329863255E+02  0.50444775314E+03  0.49554960655E+03 0.  0.
        5    1    3    3  502    0  0.16349926000E+03 -0.50141475883E+02  0.22961517900E+03  0.28634139772E+03  0.46999998093E+01 0. -1.
       -5    1    3    3    0  502 -0.16349926000E+03  0.50141475883E+02 -0.13528531574E+03  0.21810635543E+03  0.46999998093E+01 0.  1.
</event>
<event>
 5   0  0.2013450E-01  0.5029721E+03  0.7818609E-02  0.1013006E+00
        1   -1    0    0  501    0  0.00000000000E+00  0.00000000000E+00  0.86901600429E+03  0.86901600430E+03  0.50400001928E-02 0. -1.
       -1   -1    0    0    0  501  0.00000000000E+00  0.00000000000E+00 -0.72777998806E+02  0.72777998981E+02  0.50400001928E-02 0.  1.
    10030    2    1    2    0    0  0.00000000000E+00  0.00000000000E+00  0.79623800548E+03  0.94179400328E+03  0.50297214957E+03 0.  0.
        4    1    3    3  502    0  0.15385071028E+03 -0.13301124413E+03  0.67510099070E+03  0.70507091322E+03  0.12699999809E+01 0. -1.
       -4    1    3    3    0  502 -0.15385071028E+03  0.13301124413E+03  0.12113701478E+03  0.23672309006E+03  0.12699999809E+01 0.  1.
</event>
<event>
 5   0  0.1984297E-01  0.4907933E+03  0.7818609E-02  0.1016210E+00
        1   -1    0    0  501    0  0.00000000000E+00  0.00000000000E+00  0.12737160772E+04  0.12737160772E+04  0.50400001928E-02 0.  1.
       -1   -1    0    0    0  501  0.00000000000E+00  0.00000000000E+00 -0.47278607348E+02  0.47278607616E+02  0.50400001928E-02 0. -1.
    10030    2    1    2    0    0  0.00000000000E+00  0.00000000000E+00  0.12264374698E+04  0.13209946848E+04  0.49079332705E+03 0.  0.
        3    1    3    3  502    0 -0.70176763512E+02  0.20118383850E+03  0.94087882927E+03  0.96470342416E+03  0.10100000352E+00 0.  1.
       -3    1    3    3    0  502  0.70176763512E+02 -0.20118383850E+03  0.28555864054E+03  0.35629126062E+03  0.10100000352E+00 0. -1.
</event>
<event>
 5   0  0.1292375E-01  0.4885887E+03  0.7818609E-02  0.1016801E+00
       -3   -1    0    0    0  501  0.00000000000E+00  0.00000000000E+00  0.21946191365E+03  0.21946193689E+03  0.10100000352E+00 0. -1.
        3   -1    0    0  501    0  0.00000000000E+00  0.00000000000E+00 -0.27193657718E+03  0.27193659593E+03  0.10100000352E+00 0.  1.
    10030    2    1    2    0    0  0.00000000000E+00  0.00000000000E+00 -0.52474663523E+02  0.49139853283E+03  0.48858871022E+03 0.  0.
        5    1    3    3  502    0  0.20173861993E+02  0.20695134224E+03 -0.15512186301E+03  0.25946237713E+03  0.46999998093E+01 0.  1.
       -5    1    3    3    0  502 -0.20173861993E+02 -0.20695134224E+03  0.10264719949E+03  0.23193615570E+03  0.46999998093E+01 0. -1.
</event>
<event>
 5   0  0.3329246E-01  0.3512398E+03  0.7818609E-02  0.1062107E+00
       -2   -1    0    0    0  501  0.00000000000E+00  0.00000000000E+00  0.57484788619E+02  0.57484788676E+02  0.25500000920E-02 0. -1.
        2   -1    0    0  501    0  0.00000000000E+00  0.00000000000E+00 -0.53653076372E+03  0.53653076372E+03  0.25500000920E-02 0.  1.
    10030    2    1    2    0    0  0.00000000000E+00  0.00000000000E+00 -0.47904597510E+03  0.59401555240E+03  0.35123984716E+03 0.  0.
        2    1    3    3  502    0  0.55943245658E+02  0.39529437688E+02 -0.51300640529E+03  0.51755946040E+03  0.25500000920E-02 0.  1.
       -2    1    3    3    0  502 -0.55943245658E+02 -0.39529437688E+02  0.33960430188E+02  0.76456091999E+02  0.25500000920E-02 0. -1.
</event>
<event>
 5   0  0.1292375E-01  0.4925614E+03  0.7818609E-02  0.1015739E+00
        4   -1    0    0  501    0  0.00000000000E+00  0.00000000000E+00  0.10869839023E+03  0.10870580913E+03  0.12699999809E+01 0.  1.
       -4   -1    0    0    0  501  0.00000000000E+00  0.00000000000E+00 -0.55797729762E+03  0.55797874293E+03  0.12699999809E+01 0. -1.
    10030    2    1    2    0    0  0.00000000000E+00  0.00000000000E+00 -0.44927890739E+03  0.66668455206E+03  0.49256142290E+03 0.  0.
        1    1    3    3  502    0  0.94665350928E+02 -0.21963184215E+03 -0.14508701843E+03  0.27973186750E+03  0.50400001928E-02 0.  1.
       -1    1    3    3    0  502 -0.94665350928E+02  0.21963184215E+03 -0.30419188895E+03  0.38695268455E+03  0.50400001928E-02 0. -1.
</event>
<event>
 5   0  0.3187123E-01  0.4996815E+03  0.7818609E-02  0.1013862E+00
       -2   -1    0    0    0  501  0.00000000000E+00  0.00000000000E+00  0.99715726801E+02  0.99715726834E+02  0.25500000920E-02 0.  1.
        2   -1    0    0  501    0  0.00000000000E+00  0.00000000000E+00 -0.62598359359E+03  0.62598359360E+03  0.25500000920E-02 0. -1.
    10030    2    1    2    0    0  0.00000000000E+00  0.00000000000E+00 -0.52626786679E+03  0.72569932043E+03  0.49968153464E+03 0.  0.
        5    1    3    3  502    0 -0.97063198850E+02  0.20736652008E+03 -0.11807463546E+03  0.25765451240E+03  0.46999998093E+01 0.  1.
       -5    1    3    3    0  502  0.97063198850E+02 -0.20736652008E+03 -0.40819323133E+03  0.46804480803E+03  0.46999998093E+01 0. -1.
</event>
<event>
 5   0  0.1967161E-01  0.4983617E+03  0.7818609E-02  0.1014207E+00
        1   -1    0    0  501    0  0.00000000000E+00  0.00000000000E+00  0.27544340696E+03  0.27544340700E+03  0.50400001928E-02 0.  1.
       -1   -1    0    0    0  501  0.00000000000E+00  0.00000000000E+00 -0.22542237803E+03  0.22542237809E+03  0.50400001928E-02 0. -1.
    10030    2    1    2    0    0  0.00000000000E+00  0.00000000000E+00  0.50021028928E+02  0.50086578509E+03  0.49836174747E+03 0.  0.
        1    1    3    3  502    0 -0.48395678390E+02  0.85105440620E+02  0.25530379003E+03  0.27343208103E+03  0.50400001928E-02 0.  1.
       -1    1    3    3    0  502  0.48395678390E+02 -0.85105440620E+02 -0.20528276110E+03  0.22743370406E+03  0.50400001928E-02 0. -1.
</event>
<event>
 5   0  0.3178149E-01  0.4936810E+03  0.7818609E-02  0.1015442E+00
       -2   -1    0    0    0  501  0.00000000000E+00  0.00000000000E+00  0.92348929556E+02  0.92348929591E+02  0.25500000920E-02 0.  1.
        2   -1    0    0  501    0  0.00000000000E+00  0.00000000000E+00 -0.65978287793E+03  0.65978287794E+03  0.25500000920E-02 0. -1.
    10030    2    1    2    0    0  0.00000000000E+00  0.00000000000E+00 -0.56743394838E+03  0.75213180753E+03  0.49368104088E+03 0.  0.
        3    1    3    3  502    0  0.18605677485E+03  0.67449594336E+02 -0.50847410706E+03  0.54563036847E+03  0.10100000352E+00 0. -1.
       -3    1    3    3    0  502 -0.18605677485E+03 -0.67449594336E+02 -0.58959841322E+02  0.20650143906E+03  0.10100000352E+00 0.  1.
</event>
<event>
 5   0  0.3187123E-01  0.4984507E+03  0.7818609E-02  0.1014184E+00
       -2   -1    0    0    0  501  0.00000000000E+00  0.00000000000E+00  0.27850113407E+03  0.27850113408E+03  0.25500000920E-02 0. -1.
        2   -1    0    0  501    0  0.00000000000E+00  0.00000000000E+00 -0.22302702832E+03  0.22302702833E+03  0.25500000920E-02 0.  1.
    10030    2    1    2    0    0  0.00000000000E+00  0.00000000000E+00  0.55474105753E+02  0.50152816242E+03  0.49845072102E+03 0.  0.
        5    1    3    3  502    0  0.21849890962E+03  0.10552759551E+03 -0.29299289398E+02  0.24445528278E+03  0.46999998093E+01 0.  1.
       -5    1    3    3    0  502 -0.21849890962E+03 -0.10552759551E+03  0.84773395151E+02  0.25707287964E+03  0.46999998093E+01 0. -1.
</event>
<event>
 5   0  0.1967161E-01  0.5013612E+03  0.7818609E-02  0.1013424E+00
       -1   -1    0    0    0  501  0.00000000000E+00  0.00000000000E+00  0.10296471253E+03  0.10296471265E+03  0.50400001928E-02 0.  1.
        1   -1    0    0  501    0  0.00000000000E+00  0.00000000000E+00 -0.61031369191E+03  0.61031369193E+03  0.50400001928E-02 0. -1.
    10030    2    1    2    0    0  0.00000000000E+00  0.00000000000E+00 -0.50734897938E+03  0.71327840458E+03  0.50136124258E+03 0.  0.
        1    1    3    3  502    0  0.21093380545E+01 -0.11079248441E+03  0.66228020401E+02  0.12909521532E+03  0.50400001928E-02 0.  1.
       -1    1    3    3    0  502 -0.21093380545E+01  0.11079248441E+03 -0.57357699978E+03  0.58418318926E+03  0.50400001928E-02 0. -1.
</event>
<event>
 5   0  0.3329246E-01  0.4864601E+03  0.7818609E-02  0.1017375E+00
        2   -1    0    0  501    0  0.00000000000E+00  0.00000000000E+00  0.28407504260E+03  0.28407504261E+03  0.25500000920E-02 0. -1.
       -2   -1    0    0    0  501  0.00000000000E+00  0.00000000000E+00 -0.20825787154E+03  0.20825787155E+03  0.25500000920E-02 0.  1.
    10030    2    1    2    0    0  0.00000000000E+00  0.00000000000E+00  0.75817171064E+02  0.49233291416E+03  0.48646012677E+03 0.  0.
        2    1    3    3  502    0 -0.19077026739E+02 -0.24247935918E+03  0.38749978143E+02  0.24629602796E+03  0.25500000920E-02 0. -1.
       -2    1    3    3    0  502  0.19077026739E+02  0.24247935918E+03  0.37067192921E+02  0.24603688620E+03  0.25500000920E-02 0.  1.
</event>
<event>
 5   0  0.3187123E-01  0.5160924E+03  0.7818609E-02  0.1009662E+00
        2   -1    0    0  501    0  0.00000000000E+00  0.00000000000E+00  0.20761836269E+04  0.20761836269E+04  0.25500000920E-02 0. -1.
       -2   -1    0    0    0  501  0.00000000000E+00  0.00000000000E+00 -0.32072235313E+02  0.32072235414E+02  0.25500000920E-02 0.  1.
    10030    2    1    2    0    0  0.00000000000E+00  0.00000000000E+00  0.20441113916E+04  0.21082558624E+04  0.51609243337E+03 0.  0.
        5    1    3    3  502    0 -0.19270327451E+03  0.17107122360E+03  0.96944837019E+03  0.10031212031E+04  0.46999998093E+01 0. -1.
       -5    1    3    3    0  502  0.19270327451E+03 -0.17107122360E+03  0.10746630214E+04  0.11051346593E+04  0.46999998093E+01 0.  1.
</event>
<event>
 5   0  0.2000612E-01  0.4782621E+03  0.7818609E-02  0.1019614E+00
        1   -1    0    0  501    0  0.00000000000E+00  0.00000000000E+00  0.81368989215E+03  0.81368989216E+03  0.50400001928E-02 0. -1.
       -1   -1    0    0    0  501  0.00000000000E+00  0.00000000000E+00 -0.70276954949E+02  0.70276955130E+02  0.50400001928E-02 0.  1.
    10030    2    1    2    0    0  0.00000000000E+00  0.00000000000E+00  0.74341293720E+03  0.88396684729E+03  0.47826205361E+03 0.  0.
        2    1    3    3  502    0 -0.22723113526E+03 -0.69598913459E+02  0.32260835062E+03  0.40069208313E+03  0.25500000920E-02 0.  1.
       -2    1    3    3    0  502  0.22723113526E+03  0.69598913459E+02  0.42080458657E+03  0.48327476416E+03  0.25500000920E-02 0. -1.
</event>
<event>
 5   0  0.3187123E-01  0.4946874E+03  0.7818609E-02  0.1015175E+00
       -2   -1    0    0    0  501  0.00000000000E+00  0.00000000000E+00  0.39448865636E+03  0.39448865637E+03  0.25500000920E-02 0. -1.
        2   -1    0    0  501    0  0.00000000000E+00  0.00000000000E+00 -0.15508406261E+03  0.15508406263E+03  0.25500000920E-02 0.  1.
    10030    2    1    2    0    0  0.00000000000E+00  0.00000000000E+00  0.23940459375E+03  0.54957271900E+03  0.49468739014E+03 0.  0.
        5    1    3    3  502    0  0.11697034100E+03 -0.15786116393E+03  0.28654681652E+03  0.34746708594E+03  0.46999998093E+01 0. -1.
       -5    1    3    3    0  502 -0.11697034100E+03  0.15786116393E+03 -0.47142222769E+02  0.20210563307E+03  0.46999998093E+01 0.  1.
</event>
<event>
 5   0  0.2013450E-01  0.4904609E+03  0.7818609E-02  0.1016299E+00
       -1   -1    0    0    0  501  0.00000000000E+00  0.00000000000E+00  0.12198953618E+03  0.12198953629E+03  0.50400001928E-02 0.  1.
        1   -1    0    0  501    0  0.00000000000E+00  0.00000000000E+00 -0.49297655134E+03  0.49297655137E+03  0.50400001928E-02 0. -1.
    10030    2    1    2    0    0  0.00000000000E+00  0.00000000000E+00 -0.37098701516E+03  0.61496608766E+03  0.49046092969E+03 0.  0.
        4    1    3    3  502    0  0.97017975843E+02 -0.20961610200E+03 -0.82212439549E+02  0.24517727458E+03  0.12699999809E+01 0.  1.
       -4    1    3    3    0  502 -0.97017975843E+02  0.20961610200E+03 -0.28877457561E+03  0.36978881307E+03  0.12699999809E+01 0. -1.
</event>
<event>
 5   0  0.1984680E-01  0.5423686E+03  0.7818609E-02  0.1003276E+00
        1   -1    0    0  501    0  0.00000000000E+00  0.00000000000E+00  0.12228971608E+04  0.12228971608E+04  0.50400001928E-02 0. -1.
       -1   -1    0    0    0  501  0.00000000000E+00  0.00000000000E+00 -0.60136629279E+02  0.60136629490E+02  0.50400001928E-02 0.  1.
    10030    2    1    2    0    0  0.00000000000E+00  0.00000000000E+00  0.11627605315E+04  0.12830337903E+04  0.54236855862E+03 0.  0.
        5    1    3    3  502    0 -0.37954783971E+02 -0.55120656878E+02 -0.40195235311E+02  0.78208691211E+02  0.46999998093E+01 0.  1.
       -5    1    3    3    0  502  0.37954783971E+02  0.55120656878E+02  0.12029557668E+04  0.12048250991E+04  0.46999998093E+01 0. -1.
</event>
<event>
 5   0  0.1984680E-01  0.5054272E+03  0.7818609E-02  0.1012372E+00
        1   -1    0    0  501    0  0.00000000000E+00  0.00000000000E+00  0.10371599608E+03  0.10371599620E+03  0.50400001928E-02 0.  1.
       -1   -1    0    0    0  501  0.00000000000E+00  0.00000000000E+00 -0.61576002796E+03  0.61576002798E+03  0.50400001928E-02 0. -1.
    10030    2    1    2    0    0  0.00000000000E+00  0.00000000000E+00 -0.51204403188E+03  0.71947602418E+03  0.50542720425E+03 0.  0.
        5    1    3    3  502    0 -0.74327126866E+02 -0.81641540804E+02 -0.57954279042E+03  0.58998457514E+03  0.46999998093E+01 0. -1.
       -5    1    3    3    0  502  0.74327126866E+02  0.81641540804E+02  0.67498758544E+02  0.12949144905E+03  0.46999998093E+01 0.  1.
</event>
<event>
 5   0  0.1984680E-01  0.4651030E+03  0.7818609E-02  0.1023312E+00
        1   -1    0    0  501    0  0.00000000000E+00  0.00000000000E+00  0.69658738930E+02  0.69658739112E+02  0.50400001928E-02 0. -1.
       -1   -1    0    0    0  501  0.00000000000E+00  0.00000000000E+00 -0.77635905495E+03  0.77635905497E+03  0.50400001928E-02 0.  1.
    10030    2    1    2    0    0  0.00000000000E+00  0.00000000000E+00 -0.70670031602E+03  0.84601779408E+03  0.46510296842E+03 0.  0.
        5    1    3    3  502    0 -0.12872062867E+03 -0.10714767212E+03 -0.59998962071E+02  0.17796513516E+03  0.46999998093E+01 0. -1.
       -5    1    3    3    0  502  0.12872062867E+03  0.10714767212E+03 -0.64670135395E+03  0.66805265892E+03  0.46999998093E+01 0.  1.
</event>
<event>
 5   0  0.3178149E-01  0.5041343E+03  0.7818609E-02  0.1012705E+00
       -2   -1    0    0    0  501  0.00000000000E+00  0.00000000000E+00  0.16102103575E+03  0.16102103577E+03  0.25500000920E-02 0. -1.
        2   -1    0    0  501    0  0.00000000000E+00  0.00000000000E+00 -0.39459353773E+03  0.39459353774E+03  0.25500000920E-02 0.  1.
    10030    2    1    2    0    0  0.00000000000E+00  0.00000000000E+00 -0.23357250198E+03  0.55561457351E+03  0.50413434779E+03 0.  0.
        3    1    3    3  502    0 -0.22530779061E+03 -0.48059944699E+02 -0.22952842327E+03  0.32520250012E+03  0.10100000352E+00 0.  1.
       -3    1    3    3    0  502  0.22530779061E+03  0.48059944699E+02 -0.40440787144E+01  0.23041207340E+03  0.10100000352E+00 0. -1.
</event>
<event>
 5   0  0.1984297E-01  0.4957699E+03  0.7818609E-02  0.1014889E+00
        1   -1    0    0  501    0  0.00000000000E+00  0.00000000000E+00  0.40928472213E+03  0.40928472216E+03  0.50400001928E-02 0.  1.
       -1   -1    0    0    0  501  0.00000000000E+00  0.00000000000E+00 -0.15013253961E+03  0.15013253969E+03  0.50400001928E-02 0. -1.
    10030    2    1    2    0    0  0.00000000000E+00  0.00000000000E+00  0.25915218252E+03  0.55941726185E+03  0.49576992562E+03 0.  0.
        3    1    3    3  502    0 -0.11232720443E+03 -0.51849068513E+02  0.37195800578E+03  0.39199297829E+03  0.10100000352E+00 0.  1.
       -3    1    3    3    0  502  0.11232720443E+03  0.51849068513E+02 -0.11280582326E+03  0.16742428356E+03  0.10100000352E+00 0. -1.
</event>
<event>
 5   0  0.1984680E-01  0.4961099E+03  0.7818609E-02  0.1014799E+00
        1   -1    0    0  501    0  0.00000000000E+00  0.00000000000E+00  0.37858186782E+03  0.37858186786E+03  0.50400001928E-02 0.  1.
       -1   -1    0    0    0  501  0.00000000000E+00  0.00000000000E+00 -0.16253093317E+03  0.16253093325E+03  0.50400001928E-02 0. -1.
    10030    2    1    2    0    0  0.00000000000E+00  0.00000000000E+00  0.21605093465E+03  0.54111280111E+03  0.49610992447E+03 0.  0.
        5    1    3    3  502    0  0.18179063500E+03  0.90015435845E+02 -0.47600988810E+02  0.20841918769E+03  0.46999998093E+01 0. -1.
       -5    1    3    3    0  502 -0.18179063500E+03 -0.90015435845E+02  0.26365192346E+03  0.33269361341E+03  0.46999998093E+01 0.  1.
</event>
<event>
 5   0  0.3178149E-01  0.4981691E+03  0.7818609E-02  0.1014258E+00
       -2   -1    0    0    0  501  0.00000000000E+00  0.00000000000E+00  0.76021262591E+02  0.76021262633E+02  0.25500000920E-02 0.  1.
        2   -1    0    0  501    0  0.00000000000E+00  0.00000000000E+00 -0.81612845117E+03  0.81612845117E+03  0.25500000920E-02 0. -1.
    10030    2    1    2    0    0  0.00000000000E+00  0.00000000000E+00 -0.74010718858E+03  0.89214971381E+03  0.49816910910E+03 0.  0.
        3    1    3    3  502    0  0.15518112251E+03  0.13223160018E+03 -0.62631973577E+03  0.65866744149E+03  0.10100000352E+00 0.  1.
       -3    1    3    3    0  502 -0.15518112251E+03 -0.13223160018E+03 -0.11378745281E+03  0.23348227232E+03  0.10100000352E+00 0. -1.
</event>
<event>
 5   0  0.1292375E-01  0.4979665E+03  0.7818609E-02  0.1014311E+00
        3   -1    0    0  501    0  0.00000000000E+00  0.00000000000E+00  0.30728605671E+03  0.30728607331E+03  0.10100000352E+00 0. -1.
       -3   -1    0    0    0  501  0.00000000000E+00  0.00000000000E+00 -0.20174243429E+03  0.20174245957E+03  0.10100000352E+00 0.  1.
    10030    2    1    2    0    0  0.00000000000E+00  0.00000000000E+00  0.10554362242E+03  0.50902853288E+03  0.49796645575E+03 0.  0.
        5    1    3    3  502    0 -0.19237304412E+03  0.52394122350E+02 -0.99596540561E+02  0.22292171956E+03  0.46999998093E+01 0.  1.
       -5    1    3    3    0  502  0.19237304412E+03 -0.52394122350E+02  0.20514016298E+03  0.28610681332E+03  0.46999998093E+01 0. -1.
</event>
<event>
 5   0  0.3111146E-01  0.4078753E+03  0.7818609E-02  0.1041086E+00
       -2   -1    0    0    0  501  0.00000000000E+00  0.00000000000E+00  0.40943986508E+02  0.40943986587E+02  0.25500000920E-02 0. -1.
        2   -1    0    0  501    0  0.00000000000E+00  0.00000000000E+00 -0.10157919936E+04  0.10157919936E+04  0.25500000920E-02 0.  1.
    10030    2    1    2    0    0  0.00000000000E+00  0.00000000000E+00 -0.97484800714E+03  0.10567359802E+04  0.40787534236E+03 0.  0.
        1    1    3    3  502    0 -0.69402821903E+02 -0.89121698342E+02 -0.47507770618E+02  0.12254149133E+03  0.50400001928E-02 0. -1.
       -1    1    3    3    0  502  0.69402821903E+02  0.89121698342E+02 -0.92734023652E+03  0.93419448890E+03  0.50400001928E-02 0.  1.
</event>
<event>
 5   0  0.3117389E-01  0.5169091E+03  0.7818609E-02  0.1009457E+00
        2   -1    0    0  501    0  0.00000000000E+00  0.00000000000E+00  0.20146386190E+04  0.20146386190E+04  0.25500000920E-02 0.  1.
       -2   -1    0    0    0  501  0.00000000000E+00  0.00000000000E+00 -0.33156696510E+02  0.33156696608E+02  0.25500000920E-02 0. -1.
    10030    2    1    2    0    0  0.00000000000E+00  0.00000000000E+00  0.19814819225E+04  0.20477953157E+04  0.51690912691E+03 0.  0.
        4    1    3    3  502    0  0.15934913994E+03  0.17842717610E+03  0.13782660172E+04  0.13988735585E+04  0.12699999809E+01 0.  1.
       -4    1    3    3    0  502 -0.15934913994E+03 -0.17842717610E+03  0.60321590529E+03  0.64892175712E+03  0.12699999809E+01 0. -1.
</event>
<event>
 5   0  0.1292375E-01  0.5177750E+03  0.7818609E-02  0.1009241E+00
       -3   -1    0    0    0  501  0.00000000000E+00  0.00000000000E+00  0.18887534707E+03  0.18887537408E+03  0.10100000352E+00 0.  1.
        3   -1    0    0  501    0  0.00000000000E+00  0.00000000000E+00 -0.35485165443E+03  0.35485166880E+03  0.10100000352E+00 0. -1.
    10030    2    1    2    0    0  0.00000000000E+00  0.00000000000E+00 -0.16597630735E+03  0.54372704288E+03  0.51777501152E+03 0.  0.
        5    1    3    3  502    0  0.14130497593E+03 -0.21541497418E+03 -0.10934482631E+03  0.27990907160E+03  0.46999998093E+01 0. -1.
       -5    1    3    3    0  502 -0.14130497593E+03  0.21541497418E+03 -0.56631481046E+02  0.26381797128E+03  0.46999998093E+01 0.  1.
</event>
<event>
 5   0  0.2000612E-01  0.4977128E+03  0.7818609E-02  0.1014378E+00
        1   -1    0    0  501    0  0.00000000000E+00  0.00000000000E+00  0.43794223592E+03  0.43794223595E+03  0.50400001928E-02 0.  1.
       -1   -1    0    0    0  501  0.00000000000E+00  0.00000000000E+00 -0.14141024356E+03  0.14141024365E+03  0.50400001928E-02 0. -1.
    10030    2    1    2    0    0  0.00000000000E+00  0.00000000000E+00  0.29653199236E+03  0.57935247960E+03  0.49771284203E+03 0.  0.
        2    1    3    3  502    0  0.12997155406E+03 -0.13096446334E+03 -0.46113782137E+02  0.19018616257E+03  0.25500000920E-02 0. -1.
       -2    1    3    3    0  502 -0.12997155406E+03  0.13096446334E+03  0.34264577450E+03  0.38916631703E+03  0.25500000920E-02 0.  1.
</event>
<event>
 5   0  0.3187123E-01  0.5005942E+03  0.7818609E-02  0.1013624E+00
        2   -1    0    0  501    0  0.00000000000E+00  0.00000000000E+00  0.13744284888E+04  0.13744284888E+04  0.25500000920E-02 0. -1.
       -2   -1    0    0    0  501  0.00000000000E+00  0.00000000000E+00 -0.45581588547E+02  0.45581588619E+02  0.25500000920E-02 0.  1.
    10030    2    1    2    0    0  0.00000000000E+00  0.00000000000E+00  0.13288469003E+04  0.14200100774E+04  0.50059418261E+03 0.  0.
        5    1    3    3  502    0  0.14598212584E+03  0.81727504442E+02  0.13649889504E+03  0.21597269362E+03  0.46999998093E+01 0. -1.
       -5    1    3    3    0  502 -0.14598212584E+03 -0.81727504442E+02  0.11923480052E+04  0.12040373838E+04  0.46999998093E+01 0.  1.
</event>
<event>
 5   0  0.2013450E-01  0.4055576E+03  0.7818609E-02  0.1041872E+00
       -1   -1    0    0    0  501  0.00000000000E+00  0.00000000000E+00  0.67217929204E+02  0.67217929393E+02  0.50400001928E-02 0. -1.
        1   -1    0    0  501    0  0.00000000000E+00  0.00000000000E+00 -0.61173030318E+03  0.61173030320E+03  0.50400001928E-02 0.  1.
    10030    2    1    2    0    0  0.00000000000E+00  0.00000000000E+00 -0.54451237398E+03  0.67894823260E+03  0.40555761259E+03 0.  0.
        4    1    3    3  502    0  0.10286079235E+03 -0.15201195374E+03 -0.41655688082E+03  0.45520239953E+03  0.12699999809E+01 0.  1.
       -4    1    3    3    0  502 -0.10286079235E+03  0.15201195374E+03 -0.12795549316E+03  0.22374583306E+03  0.12699999809E+01 0. -1.
</event>
<event>
 5   0  0.3111146E-01  0.4956755E+03  0.7818609E-02  0.1014914E+00
       -2   -1    0    0    0  501  0.00000000000E+00  0.00000000000E+00  0.68679384576E+02  0.68679384624E+02  0.25500000920E-02 0.  1.
        2   -1    0    0  501    0  0.00000000000E+00  0.00000000000E+00 -0.89435207485E+03  0.89435207486E+03  0.25500000920E-02 0. -1.
    10030    2    1    2    0    0  0.00000000000E+00  0.00000000000E+00 -0.82567269028E+03  0.96303145948E+03  0.49567549917E+03 0.  0.
        1    1    3    3  502    0 -0.12627849299E+03  0.16887962280E+03 -0.15983834533E+03  0.26460325292E+03  0.50400001928E-02 0.  1.
       -1    1    3    3    0  502  0.12627849299E+03 -0.16887962280E+03 -0.66583434494E+03  0.69842820656E+03  0.50400001928E-02 0. -1.
</event>
<event>
 5   0  0.3187123E-01  0.4981216E+03  0.7818609E-02  0.1014270E+00
        2   -1    0    0  501    0  0.00000000000E+00  0.00000000000E+00  0.11824545822E+04  0.11824545822E+04  0.25500000920E-02 0.  1.
       -2   -1    0    0    0  501  0.00000000000E+00  0.00000000000E+00 -0.52459765732E+02  0.52459765794E+02  0.25500000920E-02 0. -1.
    10030    2    1    2    0    0  0.00000000000E+00  0.00000000000E+00  0.11299948165E+04  0.12349143480E+04  0.49812163338E+03 0.  0.
        5    1    3    3  502    0 -0.10134834224E+03 -0.20846609699E+03  0.79058027944E+03  0.82387430371E+03  0.46999998093E+01 0.  1.
       -5    1    3    3    0  502  0.10134834224E+03  0.20846609699E+03  0.33941453703E+03  0.41104004429E+03  0.46999998093E+01 0. -1.
</event>
<event>
 5   0  0.3329246E-01  0.3461677E+03  0.7818609E-02  0.1064199E+00
       -2   -1    0    0    0  501  0.00000000000E+00  0.00000000000E+00  0.16087664688E+02  0.16087664890E+02  0.25500000920E-02 0. -1.
        2   -1    0    0  501    0  0.00000000000E+00  0.00000000000E+00 -0.18621735624E+04  0.18621735624E+04  0.25500000920E-02 0.  1.
    10030    2    1    2    0    0  0.00000000000E+00  0.00000000000E+00 -0.18460858977E+04  0.18782612272E+04  0.34616772844E+03 0.  0.
        2    1    3    3  502    0 -0.76983231657E+00  0.16810260676E+03 -0.11466878883E+04  0.11589444302E+04  0.25500000920E-02 0. -1.
       -2    1    3    3    0  502  0.76983231657E+00 -0.16810260676E+03 -0.69939800932E+03  0.71931679703E+03  0.25500000920E-02 0.  1.
</event>
<event>
 5   0  0.1967161E-01  0.5018598E+03  0.7818609E-02  0.1013295E+00
       -1   -1    0    0    0  501  0.00000000000E+00  0.00000000000E+00  0.15101989173E+03  0.15101989181E+03  0.50400001928E-02 0.  1.
        1   -1    0    0  501    0  0.00000000000E+00  0.00000000000E+00 -0.41693720986E+03  0.41693720989E+03  0.50400001928E-02 0. -1.
    10030    2    1    2    0    0  0.00000000000E+00  0.00000000000E+00 -0.26591731813E+03  0.56795710170E+03  0.50185979047E+03 0.  0.
        1    1    3    3  502    0  0.15383826516E+02  0.10165898583E+03 -0.39200436711E+03  0.40526366156E+03  0.50400001928E-02 0. -1.
       -1    1    3    3    0  502 -0.15383826516E+02 -0.10165898583E+03  0.12608704899E+03  0.16269344014E+03  0.50400001928E-02 0.  1.
</event>
<event>
 5   0  0.2013450E-01  0.4977371E+03  0.7818609E-02  0.1014371E+00
        1   -1    0    0  501    0  0.00000000000E+00  0.00000000000E+00  0.28924547206E+03  0.28924547210E+03  0.50400001928E-02 0.  1.
       -1   -1    0    0    0  501  0.00000000000E+00  0.00000000000E+00 -0.21412802842E+03  0.21412802848E+03  0.50400001928E-02 0. -1.
    10030    2    1    2    0    0  0.00000000000E+00  0.00000000000E+00  0.75117443640E+02  0.50337350058E+03  0.49773713017E+03 0.  0.
        4    1    3    3  502    0  0.77786824334E+01 -0.21958509805E+03 -0.80622726056E+02  0.23405076381E+03  0.12699999809E+01 0. -1.
       -4    1    3    3    0  502 -0.77786824334E+01  0.21958509805E+03  0.15574016970E+03  0.26932273677E+03  0.12699999809E+01 0.  1.
</event>
<event>
 5   0  0.3329246E-01  0.4554683E+03  0.7818609E-02  0.1026104E+00
        2   -1    0    0  501    0  0.00000000000E+00  0.00000000000E+00  0.17151917935E+04  0.17151917935E+04  0.25500000920E-02 0. -1.
       -2   -1    0    0    0  501  0.00000000000E+00  0.00000000000E+00 -0.30237346940E+02  0.30237347047E+02  0.25500000920E-02 0.  1.
    10030    2    1    2    0    0  0.00000000000E+00  0.00000000000E+00  0.16849544465E+04  0.17454291405E+04  0.45546832787E+03 0.  0.
        2    1    3    3  502    0 -0.20398472111E+02 -0.58632894497E+02  0.16821403420E+04  0.16832854910E+04  0.25500000920E-02 0. -1.
       -2    1    3    3    0  502  0.20398472111E+02  0.58632894497E+02  0.28141044911E+01  0.62143649492E+02  0.25500000920E-02 0.  1.
</event>
<event>
 5   0  0.3187123E-01  0.4993099E+03  0.7818609E-02  0.1013959E+00
        2   -1    0    0  501    0  0.00000000000E+00  0.00000000000E+00  0.16550597469E+04  0.16550597469E+04  0.25500000920E-02 0.  1.
       -2   -1    0    0    0  501  0.00000000000E+00  0.00000000000E+00 -0.37658815805E+02  0.37658815892E+02  0.25500000920E-02 0. -1.
    10030    2    1    2    0    0  0.00000000000E+00  0.00000000000E+00  0.16174009311E+04  0.16927185628E+04  0.49930988465E+03 0.  0.
        5    1    3    3  502    0  0.20345012232E+03  0.65226600871E+01  0.12984637806E+04  0.13143305433E+04  0.46999998093E+01 0.  1.
       -5    1    3    3    0  502 -0.20345012232E+03 -0.65226600871E+01  0.31893715042E+03  0.37838801948E+03  0.46999998093E+01 0. -1.
</event>
<event>
 5   0  0.2013450E-01  0.4933575E+03  0.7818609E-02  0.1015527E+00
       -1   -1    0    0    0  501  0.00000000000E+00  0.00000000000E+00  0.36679757043E+03  0.36679757047E+03  0.50400001928E-02 0.  1.
        1   -1    0    0  501    0  0.00000000000E+00  0.00000000000E+00 -0.16589639244E+03  0.16589639252E+03  0.50400001928E-02 0. -1.
    10030    2    1    2    0    0  0.00000000000E+00  0.00000000000E+00  0.20090117799E+03  0.53269396298E+03  0.49335745143E+03 0.  0.
        4    1    3    3  502    0  0.90232886218E+02  0.18267675618E+03  0.25059166084E+03  0.32297146064E+03  0.12699999809E+01 0.  1.
       -4    1    3    3    0  502 -0.90232886218E+02 -0.18267675618E+03 -0.49690482849E+02  0.20972250235E+03  0.12699999809E+01 0. -1.
</event>
<event>
 5   0  0.2000612E-01  0.5003216E+03  0.7818609E-02  0.1013695E+00
        1   -1    0    0  501    0  0.00000000000E+00  0.00000000000E+00  0.14397102398E+04  0.14397102398E+04  0.50400001928E-02 0.  1.
       -1   -1    0    0    0  501  0.00000000000E+00  0.00000000000E+00 -0.43467370027E+02  0.43467370319E+02  0.50400001928E-02 0. -1.
    10030    2    1    2    0    0  0.00000000000E+00  0.00000000000E+00  0.13962428697E+04  0.14831776101E+04  0.50032156838E+03 0.  0.
        2    1    3    3  502    0  0.18955317387E+03 -0.11492050467E+02  0.21538078787E+03  0.28714344279E+03  0.25500000920E-02 0. -1.
       -2    1    3    3    0  502 -0.18955317387E+03  0.11492050467E+02  0.11808620819E+04  0.11960341673E+04  0.25500000920E-02 0.  1.
</event>
<event>
 5   0  0.1292375E-01  0.5782409E+03  0.7818609E-02  0.9951607E-01
       -3   -1    0    0    0  501  0.00000000000E+00  0.00000000000E+00  0.11506828261E+04  0.11506828305E+04  0.10100000352E+00 0. -1.
        3   -1    0    0  501    0  0.00000000000E+00  0.00000000000E+00 -0.72644339681E+02  0.72644409893E+02  0.10100000352E+00 0.  1.
    10030    2    1    2    0    0  0.00000000000E+00  0.00000000000E+00  0.10780384864E+04  0.12233272404E+04  0.57824091774E+03 0.  0.
        4    1    3    3  502    0 -0.15314001331E+03 -0.23340069097E+03  0.37983826559E+03  0.47138780969E+03  0.12699999809E+01 0.  1.
       -4    1    3    3    0  502  0.15314001331E+03  0.23340069097E+03  0.69820022079E+03  0.75193943069E+03  0.12699999809E+01 0. -1.
</event>
<event>
 5   0  0.3117389E-01  0.4889769E+03  0.7818609E-02  0.1016697E+00
       -2   -1    0    0    0  501  0.00000000000E+00  0.00000000000E+00  0.32542524543E+03  0.32542524544E+03  0.25500000920E-02 0. -1.
        2   -1    0    0  501    0  0.00000000000E+00  0.00000000000E+00 -0.18368148943E+03  0.18368148945E+03  0.25500000920E-02 0.  1.
    10030    2    1    2    0    0  0.00000000000E+00  0.00000000000E+00  0.14174375600E+03  0.50910673489E+03  0.48897686565E+03 0.  0.
        4    1    3    3  502    0  0.13885954224E+03  0.18049837223E+03  0.16347928418E+03  0.28033680476E+03  0.12699999809E+01 0. -1.
       -4    1    3    3    0  502 -0.13885954224E+03 -0.18049837223E+03 -0.21735528178E+02  0.22876993013E+03  0.12699999809E+01 0.  1.
</event>
<event>
 5   0  0.1984680E-01  0.5763159E+03  0.7818609E-02  0.9955799E-01
        1   -1    0    0  501    0  0.00000000000E+00  0.00000000000E+00  0.63880262962E+03  0.63880262964E+03  0.50400001928E-02 0.  1.
       -1   -1    0    0    0  501  0.00000000000E+00  0.00000000000E+00 -0.12998537230E+03  0.12998537240E+03  0.50400001928E-02 0. -1.
    10030    2    1    2    0    0  0.00000000000E+00  0.00000000000E+00  0.50881725732E+03  0.76878800204E+03  0.57631587756E+03 0.  0.
        5    1    3    3  502    0 -0.96948819351E+02 -0.16758998850E+03  0.53903987821E+03  0.57277531207E+03  0.46999998093E+01 0.  1.
       -5    1    3    3    0  502  0.96948819351E+02  0.16758998850E+03 -0.30222620885E+02  0.19601268997E+03  0.46999998093E+01 0. -1.
</event>
<event>
 5   0  0.3117389E-01  0.5883262E+03  0.7818609E-02  0.9929926E-01
        2   -1    0    0  501    0  0.00000000000E+00  0.00000000000E+00  0.26276844693E+03  0.26276844694E+03  0.25500000920E-02 0.  1.
       -2   -1    0    0    0  501  0.00000000000E+00  0.00000000000E+00 -0.32930866812E+03  0.32930866813E+03  0.25500000920E-02 0. -1.
    10030    2    1    2    0    0  0.00000000000E+00  0.00000000000E+00 -0.66540221194E+02  0.59207711508E+03  0.58832619282E+03 0.  0.
        4    1    3    3  502    0  0.79127096625E+02 -0.28232462450E+03 -0.94119323061E+01  0.29335727089E+03  0.12699999809E+01 0. -1.
       -4    1    3    3    0  502 -0.79127096625E+02  0.28232462450E+03 -0.57128288888E+02  0.29871984418E+03  0.12699999809E+01 0.  1.
</event>
<event>
 5   0  0.3117389E-01  0.5154763E+03  0.7818609E-02  0.1009817E+00
        2   -1    0    0  501    0  0.00000000000E+00  0.00000000000E+00  0.47149165235E+03  0.47149165236E+03  0.25500000920E-02 0. -1.
       -2   -1    0    0    0  501  0.00000000000E+00  0.00000000000E+00 -0.14089102423E+03  0.14089102426E+03  0.25500000920E-02 0.  1.
    10030    2    1    2    0    0  0.00000000000E+00  0.00000000000E+00  0.33060062812E+03  0.61238267661E+03  0.51547625290E+03 0.  0.
        4    1    3    3  502    0  0.17167416839E+03 -0.18511136437E+03  0.10369516210E+03  0.27293320951E+03  0.12699999809E+01 0. -1.
       -4    1    3    3    0  502 -0.17167416839E+03  0.18511136437E+03  0.22690546602E+03  0.33944946711E+03  0.12699999809E+01 0.  1.
</event>
<event>
 5   0  0.3178149E-01  0.5026587E+03  0.7818609E-02  0.1013087E+00
       -2   -1    0    0    0  501  0.00000000000E+00  0.00000000000E+00  0.79491055353E+02  0.79491055394E+02  0.25500000920E-02 0. -1.
        2   -1    0    0  501    0  0.00000000000E+00  0.00000000000E+00 -0.79463598917E+03  0.79463598917E+03  0.25500000920E-02 0.  1.
    10030    2    1    2    0    0  0.00000000000E+00  0.00000000000E+00 -0.71514493382E+03  0.87412704457E+03  0.50265874476E+03 0.  0.
        3    1    3    3  502    0  0.60600344565E+02 -0.18980099370E+03 -0.91160098789E+02  0.21910498119E+03  0.10100000352E+00 0. -1.
       -3    1    3    3    0  502 -0.60600344565E+02  0.18980099370E+03 -0.62398483503E+03  0.65502206338E+03  0.10100000352E+00 0.  1.
</event>
<event>
 5   0  0.2000612E-01  0.5141551E+03  0.7818609E-02  0.1010149E+00
        1   -1    0    0  501    0  0.00000000000E+00  0.00000000000E+00  0.51948117558E+03  0.51948117560E+03  0.50400001928E-02 0.  1.
       -1   -1    0    0    0  501  0.00000000000E+00  0.00000000000E+00 -0.12722092978E+03  0.12722092988E+03  0.50400001928E-02 0. -1.
    10030    2    1    2    0    0  0.00000000000E+00  0.00000000000E+00  0.39226024580E+03  0.64670210548E+03  0.51415514467E+03 0.  0.
        2    1    3    3  502    0 -0.17503097760E+03 -0.13994976166E+03  0.35456794312E+03  0.41945226809E+03  0.25500000920E-02 0.  1.
       -2    1    3    3    0  502  0.17503097760E+03  0.13994976166E+03  0.37692302682E+02  0.22724983739E+03  0.25500000920E-02 0. -1.
</event>
<event>
 5   0  0.2013450E-01  0.5023400E+03  0.7818609E-02  0.1013170E+00
       -1   -1    0    0    0  501  0.00000000000E+00  0.00000000000E+00  0.19479156708E+03  0.19479156715E+03  0.50400001928E-02 0.  1.
        1   -1    0    0  501    0  0.00000000000E+00  0.00000000000E+00 -0.32386603445E+03  0.32386603449E+03  0.50400001928E-02 0. -1.
    10030    2    1    2    0    0  0.00000000000E+00  0.00000000000E+00 -0.12907446737E+03  0.51865760164E+03  0.50234001394E+03 0.  0.
        4    1    3    3  502    0 -0.24810601583E+02  0.37239575108E+02 -0.31971395175E+03  0.32283273649E+03  0.12699999809E+01 0. -1.
       -4    1    3    3    0  502  0.24810601583E+02 -0.37239575108E+02  0.19063948438E+03  0.19582486515E+03  0.12699999809E+01 0.  1.
</event>
<event>
 5   0  0.1984680E-01  0.5028545E+03  0.7818609E-02  0.1013037E+00
        1   -1    0    0  501    0  0.00000000000E+00  0.00000000000E+00  0.52722347036E+03  0.52722347039E+03  0.50400001928E-02 0. -1.
       -1   -1    0    0    0  501  0.00000000000E+00  0.00000000000E+00 -0.11990297949E+03  0.11990297960E+03  0.50400001928E-02 0.  1.
    10030    2    1    2    0    0  0.00000000000E+00  0.00000000000E+00  0.40732049087E+03  0.64712644999E+03  0.50285451175E+03 0.  0.
        5    1    3    3  502    0  0.49646947092E+02 -0.21604808461E+03  0.51109064654E+02  0.22754300848E+03  0.46999998093E+01 0.  1.
       -5    1    3    3    0  502 -0.49646947092E+02  0.21604808461E+03  0.35621142621E+03  0.41958344150E+03  0.46999998093E+01 0. -1.
</event>
<event>
 5   0  0.3111146E-01  0.5036755E+03  0.7818609E-02  0.1012824E+00
        2   -1    0    0  501    0  0.00000000000E+00  0.00000000000E+00  0.30752697956E+03  0.30752697957E+03  0.25500000920E-02 0. -1.
       -2   -1    0    0    0  501  0.00000000000E+00  0.00000000000E+00 -0.20623311492E+03  0.20623311494E+03  0.25500000920E-02 0.  1.
    10030    2    1    2    0    0  0.00000000000E+00  0.00000000000E+00  0.10129386464E+03  0.51376009450E+03  0.50367547855E+03 0.  0.
        1    1    3    3  502    0  0.15505242480E+03  0.13373078971E+03 -0.98907462223E+02  0.22739363373E+03  0.50400001928E-02 0.  1.
       -1    1    3    3    0  502 -0.15505242480E+03 -0.13373078971E+03  0.20020132686E+03  0.28636646077E+03  0.50400001928E-02 0. -1.
</event>
<event>
 5   0  0.3187123E-01  0.5011601E+03  0.7818609E-02  0.1013477E+00
       -2   -1    0    0    0  501  0.00000000000E+00  0.00000000000E+00  0.17919679183E+04  0.17919679183E+04  0.25500000920E-02 0. -1.
        2   -1    0    0  501    0  0.00000000000E+00  0.00000000000E+00 -0.35039887284E+02  0.35039887377E+02  0.25500000920E-02 0.  1.
    10030    2    1    2    0    0  0.00000000000E+00  0.00000000000E+00  0.17569280310E+04  0.18270078057E+04  0.50116007008E+03 0.  0.
        5    1    3    3  502    0 -0.21572449032E+03  0.11211410106E+03  0.10990620105E+04  0.11256402713E+04  0.46999998093E+01 0. -1.
       -5    1    3    3    0  502  0.21572449032E+03 -0.11211410106E+03  0.65786602050E+03  0.70136753440E+03  0.46999998093E+01 0.  1.
</event>
<event>
 5   0  0.3117389E-01  0.4991919E+03  0.7818609E-02  0.1013990E+00
       -2   -1    0    0    0  501  0.00000000000E+00  0.00000000000E+00  0.21211587183E+03  0.21211587185E+03  0.25500000920E-02 0.  1.
        2   -1    0    0  501    0  0.00000000000E+00  0.00000000000E+00 -0.29369859842E+03  0.29369859843E+03  0.25500000920E-02 0. -1.
    10030    2    1    2    0    0  0.00000000000E+00  0.00000000000E+00 -0.81582726585E+02  0.50581447027E+03  0.49919188401E+03 0.  0.
        4    1    3    3  502    0  0.20687736636E+02  0.24576516967E+03 -0.19683032652E+01  0.24664547064E+03  0.12699999809E+01 0.  1.
       -4    1    3    3    0  502 -0.20687736636E+02 -0.24576516967E+03 -0.79614423320E+02  0.25916899963E+03  0.12699999809E+01 0. -1.
</event>
<event>
 5   0  0.1984680E-01  0.4993475E+03  0.7818609E-02  0.1013949E+00
        1   -1    0    0  501    0  0.00000000000E+00  0.00000000000E+00  0.89742633121E+03  0.89742633123E+03  0.50400001928E-02 0. -1.
       -1   -1    0    0    0  501  0.00000000000E+00  0.00000000000E+00 -0.69461942791E+02  0.69461942974E+02  0.50400001928E-02 0.  1.
    10030    2    1    2    0    0  0.00000000000E+00  0.00000000000E+00  0.82796438842E+03  0.96688827420E+03  0.49934748051E+03 0.  0.
        5    1    3    3  502    0  0.61964625904E+02 -0.10098037151E+03  0.83943278240E+03  0.84776537820E+03  0.46999998093E+01 0. -1.
       -5    1    3    3    0  502 -0.61964625904E+02  0.10098037151E+03 -0.11468393980E+02  0.11912289601E+03  0.46999998093E+01 0.  1.
</event>
<event>
 5   0  0.1967161E-01  0.4983878E+03  0.7818609E-02  0.1014201E+00
        1   -1    0    0  501    0  0.00000000000E+00  0.00000000000E+00  0.89286259916E+03  0.89286259918E+03  0.50400001928E-02 0.  1.
       -1   -1    0    0    0  501  0.00000000000E+00  0.00000000000E+00 -0.69548895957E+02  0.69548896139E+02  0.50400001928E-02 0. -1.
    10030    2    1    2    0    0  0.00000000000E+00  0.00000000000E+00  0.82331370321E+03  0.96241149532E+03  0.49838783335E+03 0.  0.
        1    1    3    3  502    0 -0.11704511237E+03  0.94022735699E+01 -0.12777280799E+02  0.11811528270E+03  0.50400001928E-02 0. -1.
       -1    1    3    3    0  502  0.11704511237E+03 -0.94022735699E+01  0.83609098401E+03  0.84429621262E+03  0.50400001928E-02 0.  1.
</event>
<event>
 5   0  0.1292375E-01  0.5175811E+03  0.7818609E-02  0.1009289E+00
       -4   -1    0    0    0  501  0.00000000000E+00  0.00000000000E+00  0.15243408163E+03  0.15243937202E+03  0.12699999809E+01 0.  1.
        4   -1    0    0  501    0  0.00000000000E+00  0.00000000000E+00 -0.43934026785E+03  0.43934210344E+03  0.12699999809E+01 0. -1.
    10030    2    1    2    0    0  0.00000000000E+00  0.00000000000E+00 -0.28690618622E+03  0.59178147546E+03  0.51758106129E+03 0.  0.
        1    1    3    3  502    0 -0.24845463941E+03 -0.72323287175E+02 -0.13946392761E+03  0.29395671934E+03  0.50400001928E-02 0. -1.
       -1    1    3    3    0  502  0.24845463941E+03  0.72323287175E+02 -0.14744225861E+03  0.29782475613E+03  0.50400001928E-02 0.  1.
</event>
<event>
 5   0  0.2000612E-01  0.5098432E+03  0.7818609E-02  0.1011241E+00
       -1   -1    0    0    0  501  0.00000000000E+00  0.00000000000E+00  0.16941116325E+03  0.16941116332E+03  0.50400001928E-02 0.  1.
        1   -1    0    0  501    0  0.00000000000E+00  0.00000000000E+00 -0.38359352502E+03  0.38359352505E+03  0.50400001928E-02 0. -1.
    10030    2    1    2    0    0  0.00000000000E+00  0.00000000000E+00 -0.21418236177E+03  0.55300468837E+03  0.50984321244E+03 0.  0.
        2    1    3    3  502    0 -0.14291575080E+03  0.14129037482E+03 -0.27720300772E+03  0.34238777627E+03  0.25500000920E-02 0. -1.
       -2    1    3    3    0  502  0.14291575080E+03 -0.14129037482E+03  0.63020645948E+02  0.21061691211E+03  0.25500000920E-02 0.  1.
</event>
<event>
 5   0  0.1984297E-01  0.4006770E+03  0.7818609E-02  0.1043546E+00
       -1   -1    0    0    0  501  0.00000000000E+00  0.00000000000E+00  0.25002310381E+02  0.25002310889E+02  0.50400001928E-02 0. -1.
        1   -1    0    0  501    0  0.00000000000E+00  0.00000000000E+00 -0.16052719359E+04  0.16052719359E+04  0.50400001928E-02 0.  1.
    10030    2    1    2    0    0  0.00000000000E+00  0.00000000000E+00 -0.15802696255E+04  0.16302742468E+04  0.40067696518E+03 0.  0.
        3    1    3    3  502    0 -0.79063982151E+02  0.63572783445E+02 -0.14930237331E+04  0.14964666685E+04  0.10100000352E+00 0.  1.
       -3    1    3    3    0  502  0.79063982151E+02 -0.63572783445E+02 -0.87245892402E+02  0.13380757830E+03  0.10100000352E+00 0. -1.
</event>
<event>
 5   0  0.3111146E-01  0.4897973E+03  0.7818609E-02  0.1016477E+00
       -2   -1    0    0    0  501  0.00000000000E+00  0.00000000000E+00  0.14834350842E+03  0.14834350844E+03  0.25500000920E-02 0.  1.
        2   -1    0    0  501    0  0.00000000000E+00  0.00000000000E+00 -0.40430051793E+03  0.40430051794E+03  0.25500000920E-02 0. -1.
    10030    2    1    2    0    0  0.00000000000E+00  0.00000000000E+00 -0.25595700951E+03  0.55264402638E+03  0.48979733480E+03 0.  0.
        1    1    3    3  502    0 -0.12910082195E+03 -0.14450662067E+03 -0.29694734886E+03  0.35457991153E+03  0.50400001928E-02 0. -1.
       -1    1    3    3    0  502  0.12910082195E+03  0.14450662067E+03  0.40990339349E+02  0.19806411484E+03  0.50400001928E-02 0.  1.
</event>
<event>
 5   0  0.2000612E-01  0.5210815E+03  0.7818609E-02  0.1008418E+00
        1   -1    0    0  501    0  0.00000000000E+00  0.00000000000E+00  0.26700183000E+03  0.26700183005E+03  0.50400001928E-02 0. -1.
       -1   -1    0    0    0  501  0.00000000000E+00  0.00000000000E+00 -0.25423600443E+03  0.25423600448E+03  0.50400001928E-02 0.  1.
    10030    2    1    2    0    0  0.00000000000E+00  0.00000000000E+00  0.12765825574E+02  0.52123783453E+03  0.52108148484E+03 0.  0.
        2    1    3    3  502    0 -0.18527732669E+03  0.14487907176E+03 -0.10573927899E+03  0.25787289184E+03  0.25500000920E-02 0.  1.
       -2    1    3    3    0  502  0.18527732669E+03 -0.14487907176E+03  0.11850510456E+03  0.26336494268E+03  0.25500000920E-02 0. -1.
</event>
<event>
 5   0  0.2013450E-01  0.5420728E+03  0.7818609E-02  0.1003346E+00
        1   -1    0    0  501    0  0.00000000000E+00  0.00000000000E+00  0.11058357449E+04  0.11058357449E+04  0.50400001928E-02 0. -1.
       -1   -1    0    0    0  501  0.00000000000E+00  0.00000000000E+00 -0.66430062599E+02  0.66430062790E+02  0.50400001928E-02 0.  1.
    10030    2    1    2    0    0  0.00000000000E+00  0.00000000000E+00  0.10394056823E+04  0.11722658077E+04  0.54207282860E+03 0.  0.
        4    1    3    3  502    0  0.11715521174E+03  0.17951906805E+03  0.87836667820E+03  0.90414715268E+03  0.12699999809E+01 0. -1.
       -4    1    3    3    0  502 -0.11715521174E+03 -0.17951906805E+03  0.16103900412E+03  0.26811865504E+03  0.12699999809E+01 0.  1.
</event>
<event>
 5   0  0.3117389E-01  0.4898559E+03  0.7818609E-02  0.1016461E+00
       -2   -1    0    0    0  501  0.00000000000E+00  0.00000000000E+00  0.12070852861E+03  0.12070852864E+03  0.25500000920E-02 0.  1.
        2   -1    0    0  501    0  0.00000000000E+00  0.00000000000E+00 -0.49697973278E+03  0.49697973278E+03  0.25500000920E-02 0. -1.
    10030    2    1    2    0    0  0.00000000000E+00  0.00000000000E+00 -0.37627120416E+03  0.61768826142E+03  0.48985586576E+03 0.  0.
        4    1    3    3  502    0 -0.17147446653E+03 -0.15605296062E+03 -0.88591196966E+02  0.24820562498E+03  0.12699999809E+01 0.  1.
       -4    1    3    3    0  502  0.17147446653E+03  0.15605296062E+03 -0.28768000720E+03  0.36948263644E+03  0.12699999809E+01 0. -1.
</event>
<event>
 5   0  0.1984680E-01  0.5325108E+03  0.7818609E-02  0.1005625E+00
        1   -1    0    0  501    0  0.00000000000E+00  0.00000000000E+00  0.13198363921E+04  0.13198363922E+04  0.50400001928E-02 0. -1.
       -1   -1    0    0    0  501  0.00000000000E+00  0.00000000000E+00 -0.53712678124E+02  0.53712678361E+02  0.50400001928E-02 0.  1.
    10030    2    1    2    0    0  0.00000000000E+00  0.00000000000E+00  0.12661237140E+04  0.13735490705E+04  0.53251083548E+03 0.  0.
        5    1    3    3  502    0 -0.22993307853E+03 -0.15339040459E+02  0.97685928467E+03  0.10036835452E+04  0.46999998093E+01 0.  1.
       -5    1    3    3    0  502  0.22993307853E+03  0.15339040459E+02  0.28926442934E+03  0.36986552536E+03  0.46999998093E+01 0. -1.
</event>
<event>
 5   0  0.1984680E-01  0.4965904E+03  0.7818609E-02  0.1014673E+00
       -1   -1    0    0    0  501  0.00000000000E+00  0.00000000000E+00  0.13221225354E+03  0.13221225364E+03  0.50400001928E-02 0.  1.
        1   -1    0    0  501    0  0.00000000000E+00  0.00000000000E+00 -0.46629957174E+03  0.46629957177E+03  0.50400001928E-02 0. -1.
    10030    2    1    2    0    0  0.00000000000E+00  0.00000000000E+00 -0.33408731820E+03  0.59851182541E+03  0.49659044390E+03 0.  0.
        5    1    3    3  502    0 -0.81300694507E+02  0.19244025098E+03 -0.54091398878E+01  0.20903205954E+03  0.46999998093E+01 0.  1.
       -5    1    3    3    0  502  0.81300694507E+02 -0.19244025098E+03 -0.32867817831E+03  0.38947976587E+03  0.46999998093E+01 0. -1.
</event>
<event>
 5   0  0.1292375E-01  0.5011018E+03  0.7818609E-02  0.1013492E+00
        3   -1    0    0  501    0  0.00000000000E+00  0.00000000000E+00  0.30359431432E+03  0.30359433112E+03  0.10100000352E+00 0. -1.
       -3   -1    0    0    0  501  0.00000000000E+00  0.00000000000E+00 -0.20677506827E+03  0.20677509294E+03  0.10100000352E+00 0.  1.
    10030    2    1    2    0    0  0.00000000000E+00  0.00000000000E+00  0.96819246047E+02  0.51036942406E+03  0.50110176871E+03 0.  0.
        1    1    3    3  502    0 -0.16230159601E+03 -0.11613901892E+03 -0.10587016904E+03  0.22591718062E+03  0.50400001928E-02 0.  1.
       -1    1    3    3    0  502  0.16230159601E+03  0.11613901892E+03  0.20268941509E+03  0.28445224344E+03  0.50400001928E-02 0. -1.
</event>
<event>
 5   0  0.2000612E-01  0.5455418E+03  0.7818609E-02  0.1002531E+00
       -1   -1    0    0    0  501  0.00000000000E+00  0.00000000000E+00  0.50507018030E+02  0.50507018281E+02  0.50400001928E-02 0. -1.
        1   -1    0    0  501    0  0.00000000000E+00  0.00000000000E+00 -0.14731412402E+04  0.14731412402E+04  0.50400001928E-02 0.  1.
    10030    2    1    2    0    0  0.00000000000E+00  0.00000000000E+00 -0.14226342221E+04  0.15236482585E+04  0.54554182745E+03 0.  0.
        2    1    3    3  502    0 -0.85959140083E+02  0.17215695618E+03 -0.17136061580E+03  0.25766538762E+03  0.25500000920E-02 0. -1.
       -2    1    3    3    0  502  0.85959140083E+02 -0.17215695618E+03 -0.12512736063E+04  0.12659828708E+04  0.25500000920E-02 0.  1.
</event>
<event>
 5   0  0.3111146E-01  0.3397217E+03  0.7818609E-02  0.1066915E+00
       -2   -1    0    0    0  501  0.00000000000E+00  0.00000000000E+00  0.16395282018E+02  0.16395282216E+02  0.25500000920E-02 0. -1.
        2   -1    0    0  501    0  0.00000000000E+00  0.00000000000E+00 -0.17598178116E+04  0.17598178116E+04  0.25500000920E-02 0.  1.
    10030    2    1    2    0    0  0.00000000000E+00  0.00000000000E+00 -0.17434225296E+04  0.17762130939E+04  0.33972170669E+03 0.  0.
        1    1    3    3  502    0  0.12813434955E+03 -0.58742732845E+01 -0.28950221738E+03  0.31664562608E+03  0.50400001928E-02 0. -1.
       -1    1    3    3    0  502 -0.12813434955E+03  0.58742732845E+01 -0.14539203122E+04  0.14595674678E+04  0.50400001928E-02 0.  1.
</event>
<event>
 5   0  0.2000612E-01  0.4819346E+03  0.7818609E-02  0.1018605E+00
       -1   -1    0    0    0  501  0.00000000000E+00  0.00000000000E+00  0.89240838679E+03  0.89240838680E+03  0.50400001928E-02 0. -1.
        1   -1    0    0  501    0  0.00000000000E+00  0.00000000000E+00 -0.65065775589E+02  0.65065775784E+02  0.50400001928E-02 0.  1.
    10030    2    1    2    0    0  0.00000000000E+00  0.00000000000E+00  0.82734261120E+03  0.95747416259E+03  0.48193461767E+03 0.  0.
        2    1    3    3  502    0 -0.15306761941E+03 -0.13443328105E+03  0.66936004241E+03  0.69967483129E+03  0.25500000920E-02 0. -1.
       -2    1    3    3    0  502  0.15306761941E+03  0.13443328105E+03  0.15798256879E+03  0.25779933129E+03  0.25500000920E-02 0.  1.
</event>
<event>
 5   0  0.3111146E-01  0.5039403E+03  0.7818609E-02  0.1012756E+00
       -2   -1    0    0    0  501  0.00000000000E+00  0.00000000000E+00  0.60222676998E+02  0.60222677052E+02  0.25500000920E-02 0. -1.
        2   -1    0    0  501    0  0.00000000000E+00  0.00000000000E+00 -0.10542367808E+04  0.10542367808E+04  0.25500000920E-02 0.  1.
    10030    2    1    2    0    0  0.00000000000E+00  0.00000000000E+00 -0.99401410375E+03  0.11144594578E+04  0.50394031852E+03 0.  0.
        1    1    3    3  502    0 -0.22685198690E+03  0.10959951061E+03 -0.48841790890E+03  0.54956885869E+03  0.50400001928E-02 0.  1.
       -1    1    3    3    0  502  0.22685198690E+03 -0.10959951061E+03 -0.50559619485E+03  0.56489059911E+03  0.50400001928E-02 0. -1.
</event>
<event>
 5   0  0.3178149E-01  0.4770195E+03  0.7818609E-02  0.1019958E+00
        2   -1    0    0  501    0  0.00000000000E+00  0.00000000000E+00  0.67925635504E+03  0.67925635504E+03  0.25500000920E-02 0. -1.
       -2   -1    0    0    0  501  0.00000000000E+00  0.00000000000E+00 -0.83748783407E+02  0.83748783446E+02  0.25500000920E-02 0.  1.
    10030    2    1    2    0    0  0.00000000000E+00  0.00000000000E+00  0.59550757163E+03  0.76300513849E+03  0.47701946867E+03 0.  0.
        3    1    3    3  502    0  0.17203711648E+02 -0.22906061476E+03  0.19505784761E+03  0.30135080395E+03  0.10100000352E+00 0. -1.
       -3    1    3    3    0  502 -0.17203711648E+02  0.22906061476E+03  0.40044972402E+03  0.46165433454E+03  0.10100000352E+00 0.  1.
</event>
<event>
 5   0  0.3178149E-01  0.4802416E+03  0.7818609E-02  0.1019069E+00
        2   -1    0    0  501    0  0.00000000000E+00  0.00000000000E+00  0.69452319247E+03  0.69452319247E+03  0.25500000920E-02 0. -1.
       -2   -1    0    0    0  501  0.00000000000E+00  0.00000000000E+00 -0.83018100567E+02  0.83018100606E+02  0.25500000920E-02 0.  1.
    10030    2    1    2    0    0  0.00000000000E+00  0.00000000000E+00  0.61150509190E+03  0.77754129308E+03  0.48024159027E+03 0.  0.
        3    1    3    3  502    0  0.14269960448E+03  0.10799866705E+03  0.46545209220E+02  0.18491445565E+03  0.10100000352E+00 0.  1.
       -3    1    3    3    0  502 -0.14269960448E+03 -0.10799866705E+03  0.56495988268E+03  0.59262683743E+03  0.10100000352E+00 0. -1.
</event>
<event>
 5   0  0.1967161E-01  0.4880452E+03  0.7818609E-02  0.1016947E+00
       -1   -1    0    0    0  501  0.00000000000E+00  0.00000000000E+00  0.40474489795E+03  0.40474489798E+03  0.50400001928E-02 0.  1.
        1   -1    0    0  501    0  0.00000000000E+00  0.00000000000E+00 -0.14712236244E+03  0.14712236252E+03  0.50400001928E-02 0. -1.
    10030    2    1    2    0    0  0.00000000000E+00  0.00000000000E+00  0.25762253552E+03  0.55186726051E+03  0.48804518481E+03 0.  0.
        1    1    3    3  502    0 -0.22953546950E+03  0.82302867149E+02  0.11828040441E+03  0.27101761528E+03  0.50400001928E-02 0.  1.
       -1    1    3    3    0  502  0.22953546950E+03 -0.82302867149E+02  0.13934213111E+03  0.28084964523E+03  0.50400001928E-02 0. -1.
</event>
<event>
 5   0  0.1984297E-01  0.4975581E+03  0.7818609E-02  0.1014418E+00
        1   -1    0    0  501    0  0.00000000000E+00  0.00000000000E+00  0.53459403004E+02  0.53459403241E+02  0.50400001928E-02 0.  1.
       -1   -1    0    0    0  501  0.00000000000E+00  0.00000000000E+00 -0.11577201437E+04  0.11577201437E+04  0.50400001928E-02 0. -1.
    10030    2    1    2    0    0  0.00000000000E+00  0.00000000000E+00 -0.11042607406E+04  0.12111795469E+04  0.49755814887E+03 0.  0.
        3    1    3    3  502    0  0.17508876704E+03 -0.83921731000E+02 -0.17351230727E+03  0.26039482379E+03  0.10100000352E+00 0.  1.
       -3    1    3    3    0  502 -0.17508876704E+03  0.83921731000E+02 -0.93074843338E+03  0.95078472312E+03  0.10100000352E+00 0. -1.
</event>
<event>
 5   0  0.3178149E-01  0.5132758E+03  0.7818609E-02  0.1010371E+00
       -2   -1    0    0    0  501  0.00000000000E+00  0.00000000000E+00  0.99851769475E+02  0.99851769507E+02  0.25500000920E-02 0. -1.
        2   -1    0    0  501    0  0.00000000000E+00  0.00000000000E+00 -0.65960787021E+03  0.65960787021E+03  0.25500000920E-02 0.  1.
    10030    2    1    2    0    0  0.00000000000E+00  0.00000000000E+00 -0.55975610074E+03  0.75945963972E+03  0.51327580506E+03 0.  0.
        3    1    3    3  502    0 -0.15803400205E+03  0.19029756094E+03 -0.17870865822E+03  0.30516340250E+03  0.10100000352E+00 0. -1.
       -3    1    3    3    0  502  0.15803400205E+03 -0.19029756094E+03 -0.38104744251E+03  0.45429623722E+03  0.10100000352E+00 0.  1.
</event>
<event>
 5   0  0.1292375E-01  0.5114711E+03  0.7818609E-02  0.1010827E+00
       -3   -1    0    0    0  501  0.00000000000E+00  0.00000000000E+00  0.49487805546E+02  0.49487908612E+02  0.10100000352E+00 0.  1.
        3   -1    0    0  501    0  0.00000000000E+00  0.00000000000E+00 -0.13215498428E+04  0.13215498466E+04  0.10100000352E+00 0. -1.
    10030    2    1    2    0    0  0.00000000000E+00  0.00000000000E+00 -0.12720620372E+04  0.13710377552E+04  0.51147111331E+03 0.  0.
        5    1    3    3  502    0  0.15472391355E+03 -0.11118919440E+03 -0.17894696411E+03  0.26143188853E+03  0.46999998093E+01 0.  1.
       -5    1    3    3    0  502 -0.15472391355E+03  0.11118919440E+03 -0.10931150731E+04  0.11096058667E+04  0.46999998093E+01 0. -1.
</event>
<event>
 5   0  0.1984297E-01  0.5036186E+03  0.7818609E-02  0.1012839E+00
        1   -1    0    0  501    0  0.00000000000E+00  0.00000000000E+00  0.19172849058E+03  0.19172849065E+03  0.50400001928E-02 0.  1.
       -1   -1    0    0    0  501  0.00000000000E+00  0.00000000000E+00 -0.33071722394E+03  0.33071722398E+03  0.50400001928E-02 0. -1.
    10030    2    1    2    0    0  0.00000000000E+00  0.00000000000E+00 -0.13898873336E+03  0.52244571463E+03  0.50361856274E+03 0.  0.
        3    1    3    3  502    0  0.12151501540E+02 -0.13594476631E+03 -0.28901630302E+03  0.31962332845E+03  0.10100000352E+00 0. -1.
       -3    1    3    3    0  502 -0.12151501540E+02  0.13594476631E+03  0.15002756966E+03  0.20282238618E+03  0.10100000352E+00 0.  1.
</event>
<event>
 5   0  0.3329246E-01  0.5013668E+03  0.7818609E-02  0.1013423E+00
        2   -1    0    0  501    0  0.00000000000E+00  0.00000000000E+00  0.99744213537E+02  0.99744213570E+02  0.25500000920E-02 0.  1.
       -2   -1    0    0    0  501  0.00000000000E+00  0.00000000000E+00 -0.63003313643E+03  0.63003313643E+03  0.25500000920E-02 0. -1.
    10030    2    1    2    0    0  0.00000000000E+00  0.00000000000E+00 -0.53028892289E+03  0.72977735000E+03  0.50136677078E+03 0.  0.
        2    1    3    3  502    0 -0.36345632493E+02  0.19544305933E+03 -0.48743889011E+03  0.52641776760E+03  0.25500000920E-02 0. -1.
       -2    1    3    3    0  502  0.36345632493E+02 -0.19544305933E+03 -0.42850032778E+02  0.20335958241E+03  0.25500000920E-02 0.  1.
</event>
<event>
 5   0  0.1967161E-01  0.4984950E+03  0.7818609E-02  0.1014173E+00
       -1   -1    0    0    0  501  0.00000000000E+00  0.00000000000E+00  0.15614974056E+03  0.15614974064E+03  0.50400001928E-02 0. -1.
        1   -1    0    0  501    0  0.00000000000E+00  0.00000000000E+00 -0.39785084082E+03  0.39785084085E+03  0.50400001928E-02 0.  1.
    10030    2    1    2    0    0  0.00000000000E+00  0.00000000000E+00 -0.24170110027E+03  0.55400058149E+03  0.49849495727E+03 0.  0.
        1    1    3    3  502    0 -0.36984433899E+02  0.20216951910E+03  0.35860890660E+02  0.20862973496E+03  0.50400001928E-02 0. -1.
       -1    1    3    3    0  502  0.36984433899E+02 -0.20216951910E+03 -0.27756199093E+03  0.34537084653E+03  0.50400001928E-02 0.  1.
</event>
<event>
 5   0  0.1967161E-01  0.4550310E+03  0.7818609E-02  0.1026232E+00
        1   -1    0    0  501    0  0.00000000000E+00  0.00000000000E+00  0.22439269455E+04  0.22439269455E+04  0.50400001928E-02 0.  1.
       -1   -1    0    0    0  501  0.00000000000E+00  0.00000000000E+00 -0.23068180277E+02  0.23068180828E+02  0.50400001928E-02 0. -1.
    10030    2    1    2    0    0  0.00000000000E+00  0.00000000000E+00  0.22208587652E+04  0.22669951263E+04  0.45503104043E+03 0.  0.
        1    1    3    3  502    0 -0.16625238912E+03 -0.29426878818E+02  0.18702152426E+04  0.18778207720E+04  0.50400001928E-02 0.  1.
       -1    1    3    3    0  502  0.16625238912E+03  0.29426878818E+02  0.35064352258E+03  0.38917435429E+03  0.50400001928E-02 0. -1.
</event>
<event>
 5   0  0.2000612E-01  0.4949861E+03  0.7818609E-02  0.1015096E+00
       -1   -1    0    0    0  501  0.00000000000E+00  0.00000000000E+00  0.45905728969E+02  0.45905729246E+02  0.50400001928E-02 0. -1.
        1   -1    0    0  501    0  0.00000000000E+00  0.00000000000E+00 -0.13343175497E+04  0.13343175497E+04  0.50400001928E-02 0.  1.
    10030    2    1    2    0    0  0.00000000000E+00  0.00000000000E+00 -0.12884118207E+04  0.13802232789E+04  0.49498614119E+03 0.  0.
        2    1    3    3  502    0  0.62183510387E+02  0.34451870112E+01 -0.13121105879E+04  0.13135877790E+04  0.25500000920E-02 0.  1.
       -2    1    3    3    0  502 -0.62183510387E+02 -0.34451870112E+01  0.23698767189E+02  0.66635499926E+02  0.25500000920E-02 0. -1.
</event>
<event>
 5   0  0.3117389E-01  0.5036546E+03  0.7818609E-02  0.1012829E+00
        2   -1    0    0  501    0  0.00000000000E+00  0.00000000000E+00  0.46710408112E+03  0.46710408112E+03  0.25500000920E-02 0.  1.
       -2   -1    0    0    0  501  0.00000000000E+00  0.00000000000E+00 -0.13576627943E+03  0.13576627945E+03  0.25500000920E-02 0. -1.
    10030    2    1    2    0    0  0.00000000000E+00  0.00000000000E+00  0.33133780169E+03  0.60287036058E+03  0.50365457690E+03 0.  0.
        4    1    3    3  502    0 -0.51820943868E+02 -0.24602805464E+03  0.14873426331E+03  0.29212789643E+03  0.12699999809E+01 0. -1.
       -4    1    3    3    0  502  0.51820943868E+02  0.24602805464E+03  0.18260353838E+03  0.31074246414E+03  0.12699999809E+01 0.  1.
</event>
<event>
 5   0  0.1984297E-01  0.4501877E+03  0.7818609E-02  0.1027666E+00
        1   -1    0    0  501    0  0.00000000000E+00  0.00000000000E+00  0.36635407969E+03  0.36635407973E+03  0.50400001928E-02 0.  1.
       -1   -1    0    0    0  501  0.00000000000E+00  0.00000000000E+00 -0.13830127599E+03  0.13830127608E+03  0.50400001928E-02 0. -1.
    10030    2    1    2    0    0  0.00000000000E+00  0.00000000000E+00  0.22805280370E+03  0.50465535581E+03  0.45018767961E+03 0.  0.
        3    1    3    3  502    0 -0.18266530859E+02 -0.64164733801E+02 -0.12696389699E+03  0.14342461628E+03  0.10100000352E+00 0. -1.
       -3    1    3    3    0  502  0.18266530859E+02  0.64164733801E+02  0.35501670069E+03  0.36123073953E+03  0.10100000352E+00 0.  1.
</event>
<event>
 5   0  0.1984680E-01  0.4987519E+03  0.7818609E-02  0.1014105E+00
        1   -1    0    0  501    0  0.00000000000E+00  0.00000000000E+00  0.12898282860E+04  0.12898282860E+04  0.50400001928E-02 0. -1.
       -1   -1    0    0    0  501  0.00000000000E+00  0.00000000000E+00 -0.48214451754E+02  0.48214452017E+02  0.50400001928E-02 0.  1.
    10030    2    1    2    0    0  0.00000000000E+00  0.00000000000E+00  0.12416138343E+04  0.13380427380E+04  0.49875189764E+03 0.  0.
        5    1    3    3  502    0  0.14394742036E+02 -0.62792348806E+02 -0.25382754678E+02  0.69400734147E+02  0.46999998093E+01 0.  1.
       -5    1    3    3    0  502 -0.14394742036E+02  0.62792348806E+02  0.12669965889E+04  0.12686420039E+04  0.46999998093E+01 0. -1.
</event>
<event>
 5   0  0.2000612E-01  0.5105972E+03  0.7818609E-02  0.1011049E+00
       -1   -1    0    0    0  501  0.00000000000E+00  0.00000000000E+00  0.22236549861E+03  0.22236549867E+03  0.50400001928E-02 0.  1.
        1   -1    0    0  501    0  0.00000000000E+00  0.00000000000E+00 -0.29310924549E+03  0.29310924554E+03  0.50400001928E-02 0. -1.
    10030    2    1    2    0    0  0.00000000000E+00  0.00000000000E+00 -0.70743746881E+02  0.51547474421E+03  0.51059723285E+03 0.  0.
        2    1    3    3  502    0 -0.21750899549E+02 -0.12426809122E+03  0.18869813767E+03  0.22698600683E+03  0.25500000920E-02 0.  1.
       -2    1    3    3    0  502  0.21750899549E+02  0.12426809122E+03 -0.25944188455E+03  0.28848873738E+03  0.25500000920E-02 0. -1.
</event>
<event>
 5   0  0.3329246E-01  0.4993345E+03  0.7818609E-02  0.1013953E+00
       -2   -1    0    0    0  501  0.00000000000E+00  0.00000000000E+00  0.38824991407E+02  0.38824991491E+02  0.25500000920E-02 0. -1.
        2   -1    0    0  501    0  0.00000000000E+00  0.00000000000E+00 -0.16055053528E+04  0.16055053528E+04  0.25500000920E-02 0.  1.
    10030    2    1    2    0    0  0.00000000000E+00  0.00000000000E+00 -0.15666803614E+04  0.16443303443E+04  0.49933448348E+03 0.  0.
        2    1    3    3  502    0  0.35041513933E+02 -0.24705237101E+03 -0.81107806364E+03  0.84859319291E+03  0.25500000920E-02 0.  1.
       -2    1    3    3    0  502 -0.35041513933E+02  0.24705237101E+03 -0.75560229777E+03  0.79573715141E+03  0.25500000920E-02 0. -1.
</event>
<event>
 5   0  0.1292375E-01  0.4992780E+03  0.7818609E-02  0.1013968E+00
        3   -1    0    0  501    0  0.00000000000E+00  0.00000000000E+00  0.52642238876E+03  0.52642239845E+03  0.10100000352E+00 0. -1.
       -3   -1    0    0    0  501  0.00000000000E+00  0.00000000000E+00 -0.11838329622E+03  0.11838333931E+03  0.10100000352E+00 0.  1.
    10030    2    1    2    0    0  0.00000000000E+00  0.00000000000E+00  0.40803909254E+03  0.64480573776E+03  0.49927801715E+03 0.  0.
        4    1    3    3  502    0  0.22140795179E+03 -0.38132181070E+02  0.34456206419E+03  0.41133948671E+03  0.12699999809E+01 0. -1.
       -4    1    3    3    0  502 -0.22140795179E+03  0.38132181070E+02  0.63477028345E+02  0.23346625104E+03  0.12699999809E+01 0.  1.
</event>
<event>
 5   0  0.3117389E-01  0.5117128E+03  0.7818609E-02  0.1010766E+00
        2   -1    0    0  501    0  0.00000000000E+00  0.00000000000E+00  0.22186791811E+03  0.22186791813E+03  0.25500000920E-02 0.  1.
       -2   -1    0    0    0  501  0.00000000000E+00  0.00000000000E+00 -0.29505164021E+03  0.29505164023E+03  0.25500000920E-02 0. -1.
    10030    2    1    2    0    0  0.00000000000E+00  0.00000000000E+00 -0.73183722102E+02  0.51691955835E+03  0.51171278333E+03 0.  0.
        4    1    3    3  502    0 -0.20750612735E+03  0.10519825778E+03 -0.14414309316E+03  0.27368651872E+03  0.12699999809E+01 0. -1.
       -4    1    3    3    0  502  0.20750612735E+03 -0.10519825778E+03  0.70959371053E+02  0.24323303963E+03  0.12699999809E+01 0.  1.
</event>
<event>
 5   0  0.3117389E-01  0.4999341E+03  0.7818609E-02  0.1013796E+00
        2   -1    0    0  501    0  0.00000000000E+00  0.00000000000E+00  0.22111638594E+03  0.22111638596E+03  0.25500000920E-02 0. -1.
       -2   -1    0    0    0  501  0.00000000000E+00  0.00000000000E+00 -0.28258205342E+03  0.28258205343E+03  0.25500000920E-02 0.  1.
    10030    2    1    2    0    0  0.00000000000E+00  0.00000000000E+00 -0.61465667473E+02  0.50369843939E+03  0.49993408522E+03 0.  0.
        4    1    3    3  502    0 -0.93332153850E+02 -0.23175013530E+03 -0.22742587341E+02  0.25087418029E+03  0.12699999809E+01 0.  1.
       -4    1    3    3    0  502  0.93332153850E+02  0.23175013530E+03 -0.38723080131E+02  0.25282425910E+03  0.12699999809E+01 0. -1.
</event>
<event>
 5   0  0.2013450E-01  0.4827860E+03  0.7818609E-02  0.1018372E+00
       -1   -1    0    0    0  501  0.00000000000E+00  0.00000000000E+00  0.16571892097E+03  0.16571892104E+03  0.50400001928E-02 0. -1.
        1   -1    0    0  501    0  0.00000000000E+00  0.00000000000E+00 -0.35162290905E+03  0.35162290909E+03  0.50400001928E-02 0.  1.
    10030    2    1    2    0    0  0.00000000000E+00  0.00000000000E+00 -0.18590398809E+03  0.51734183013E+03  0.48278595300E+03 0.  0.
        4    1    3    3  502    0  0.62868164093E+02  0.21153438605E+03 -0.19777904036E+03  0.29633994710E+03  0.12699999809E+01 0.  1.
       -4    1    3    3    0  502 -0.62868164093E+02 -0.21153438605E+03  0.11875052273E+02  0.22100188304E+03  0.12699999809E+01 0. -1.
</event>
<event>
 5   0  0.3329246E-01  0.4612402E+03  0.7818609E-02  0.1024422E+00
        2   -1    0    0  501    0  0.00000000000E+00  0.00000000000E+00  0.84386283361E+03  0.84386283362E+03  0.25500000920E-02 0.  1.
       -2   -1    0    0    0  501  0.00000000000E+00  0.00000000000E+00 -0.63026382136E+02  0.63026382188E+02  0.25500000920E-02 0. -1.
    10030    2    1    2    0    0  0.00000000000E+00  0.00000000000E+00  0.78083645148E+03  0.90688921580E+03  0.46124016064E+03 0.  0.
        2    1    3    3  502    0 -0.15052278974E+03 -0.15407223288E+03  0.22839761338E+03  0.31394399656E+03  0.25500000920E-02 0. -1.
       -2    1    3    3    0  502  0.15052278974E+03  0.15407223288E+03  0.55243883810E+03  0.59294521924E+03  0.25500000920E-02 0.  1.
</event>
<event>
 5   0  0.1292375E-01  0.5116891E+03  0.7818609E-02  0.1010772E+00
       -3   -1    0    0    0  501  0.00000000000E+00  0.00000000000E+00  0.20588874421E+04  0.20588874445E+04  0.10100000352E+00 0. -1.
        3   -1    0    0  501    0  0.00000000000E+00  0.00000000000E+00 -0.31792055459E+02  0.31792215891E+02  0.10100000352E+00 0.  1.
    10030    2    1    2    0    0  0.00000000000E+00  0.00000000000E+00  0.20270953866E+04  0.20906796604E+04  0.51168910107E+03 0.  0.
        4    1    3    3  502    0 -0.43076569137E+02  0.24502227941E+03  0.12574457326E+04  0.12818201479E+04  0.12699999809E+01 0.  1.
       -4    1    3    3    0  502  0.43076569137E+02 -0.24502227941E+03  0.76964965405E+03  0.80885951258E+03  0.12699999809E+01 0. -1.
</event>
<event>
 5   0  0.3117389E-01  0.5946765E+03  0.7818609E-02  0.9916513E-01
       -2   -1    0    0    0  501  0.00000000000E+00  0.00000000000E+00  0.18009918540E+03  0.18009918542E+03  0.25500000920E-02 0. -1.
        2   -1    0    0  501    0  0.00000000000E+00  0.00000000000E+00 -0.49089634937E+03  0.49089634938E+03  0.25500000920E-02 0.  1.
    10030    2    1    2    0    0  0.00000000000E+00  0.00000000000E+00 -0.31079716397E+03  0.67099553479E+03  0.59467649237E+03 0.  0.
        4    1    3    3  502    0 -0.14485527025E+03  0.16534591412E+03  0.70511574781E+02  0.23085886536E+03  0.12699999809E+01 0. -1.
       -4    1    3    3    0  502  0.14485527025E+03 -0.16534591412E+03 -0.38130873875E+03  0.44013666944E+03  0.12699999809E+01 0.  1.
</event>
<event>
 5   0  0.3187123E-01  0.5013938E+03  0.7818609E-02  0.1013416E+00
        2   -1    0    0  501    0  0.00000000000E+00  0.00000000000E+00  0.35493494276E+03  0.35493494277E+03  0.25500000920E-02 0. -1.
       -2   -1    0    0    0  501  0.00000000000E+00  0.00000000000E+00 -0.17707167590E+03  0.17707167592E+03  0.25500000920E-02 0.  1.
    10030    2    1    2    0    0  0.00000000000E+00  0.00000000000E+00  0.17786326686E+03  0.53200661868E+03  0.50139375806E+03 0.  0.
        5    1    3    3  502    0 -0.13564549196E+03 -0.11611151184E+03  0.27558469919E+03  0.32840614961E+03  0.46999998093E+01 0. -1.
       -5    1    3    3    0  502  0.13564549196E+03  0.11611151184E+03 -0.97721432334E+02  0.20360046908E+03  0.46999998093E+01 0.  1.
</event>
<event>
 5   0  0.1292375E-01  0.5167396E+03  0.7818609E-02  0.1009500E+00
        4   -1    0    0  501    0  0.00000000000E+00  0.00000000000E+00  0.50939471352E+03  0.50939629667E+03  0.12699999809E+01 0. -1.
       -4   -1    0    0    0  501  0.00000000000E+00  0.00000000000E+00 -0.13104274544E+03  0.13104889939E+03  0.12699999809E+01 0.  1.
    10030    2    1    2    0    0  0.00000000000E+00  0.00000000000E+00  0.37835196808E+03  0.64044519606E+03  0.51673962244E+03 0.  0.
        2    1    3    3  502    0  0.91318631710E+01  0.95268923532E+02 -0.10826726106E+03  0.14450383572E+03  0.25500000920E-02 0.  1.
       -2    1    3    3    0  502 -0.91318631710E+01 -0.95268923532E+02  0.48661922914E+03  0.49594136033E+03  0.25500000920E-02 0. -1.
</event>
<event>
 5   0  0.3187123E-01  0.5087773E+03  0.7818609E-02  0.1011513E+00
        2   -1    0    0  501    0  0.00000000000E+00  0.00000000000E+00  0.63737228618E+03  0.63737228619E+03  0.25500000920E-02 0. -1.
       -2   -1    0    0    0  501  0.00000000000E+00  0.00000000000E+00 -0.10153184954E+03  0.10153184957E+03  0.25500000920E-02 0.  1.
    10030    2    1    2    0    0  0.00000000000E+00  0.00000000000E+00  0.53584043664E+03  0.73890413576E+03  0.50877730718E+03 0.  0.
        5    1    3    3  502    0 -0.23474408049E+02 -0.15878061238E+03 -0.18628134909E+02  0.16165218251E+03  0.46999998093E+01 0.  1.
       -5    1    3    3    0  502  0.23474408049E+02  0.15878061238E+03  0.55446857155E+03  0.57725195325E+03  0.46999998093E+01 0. -1.
</event>
<event>
 5   0  0.1984680E-01  0.4709892E+03  0.7818609E-02  0.1021641E+00
       -1   -1    0    0    0  501  0.00000000000E+00  0.00000000000E+00  0.53609919646E+02  0.53609919883E+02  0.50400001928E-02 0.  1.
        1   -1    0    0  501    0  0.00000000000E+00  0.00000000000E+00 -0.10344671192E+04  0.10344671192E+04  0.50400001928E-02 0. -1.
    10030    2    1    2    0    0  0.00000000000E+00  0.00000000000E+00 -0.98085719953E+03  0.10880770391E+04  0.47098916875E+03 0.  0.
        5    1    3    3  502    0 -0.16791728160E+03 -0.14822623612E+03 -0.65811089888E+03  0.69519729269E+03  0.46999998093E+01 0. -1.
       -5    1    3    3    0  502  0.16791728160E+03  0.14822623612E+03 -0.32274630065E+03  0.39287974638E+03  0.46999998093E+01 0.  1.
</event>
<event>
 5   0  0.2000612E-01  0.2684866E+03  0.7818609E-02  0.1102149E+00
        1   -1    0    0  501    0  0.00000000000E+00  0.00000000000E+00  0.97774366917E+02  0.97774367047E+02  0.50400001928E-02 0.  1.
       -1   -1    0    0    0  501  0.00000000000E+00  0.00000000000E+00 -0.18431478269E+03  0.18431478276E+03  0.50400001928E-02 0. -1.
    10030    2    1    2    0    0  0.00000000000E+00  0.00000000000E+00 -0.86540415774E+02  0.28208914981E+03  0.26848658230E+03 0.  0.
        2    1    3    3  502    0  0.33150687908E+02  0.11149926009E+03  0.27133742782E+02  0.11944577478E+03  0.25500000920E-02 0.  1.
       -2    1    3    3    0  502 -0.33150687908E+02 -0.11149926009E+03 -0.11367415856E+03  0.16264337502E+03  0.25500000920E-02 0. -1.
</event>
<event>
 5   0  0.3111146E-01  0.4880064E+03  0.7818609E-02  0.1016958E+00
        2   -1    0    0  501    0  0.00000000000E+00  0.00000000000E+00  0.15139608664E+04  0.15139608664E+04  0.25500000920E-02 0. -1.
       -2   -1    0    0    0  501  0.00000000000E+00  0.00000000000E+00 -0.39325686716E+02  0.39325686799E+02  0.25500000920E-02 0.  1.
    10030    2    1    2    0    0  0.00000000000E+00  0.00000000000E+00  0.14746351797E+04  0.15532865532E+04  0.48800635569E+03 0.  0.
        1    1    3    3  502    0  0.81655764721E+02  0.21758830875E+03  0.50072524647E+03  0.55203089451E+03  0.50400001928E-02 0.  1.
       -1    1    3    3    0  502 -0.81655764721E+02 -0.21758830875E+03  0.97390993323E+03  0.10012556587E+04  0.50400001928E-02 0. -1.
</event>
<event>
 5   0  0.2013450E-01  0.5145402E+03  0.7818609E-02  0.1010052E+00
       -1   -1    0    0    0  501  0.00000000000E+00  0.00000000000E+00  0.10754122306E+03  0.10754122318E+03  0.50400001928E-02 0.  1.
        1   -1    0    0  501    0  0.00000000000E+00  0.00000000000E+00 -0.61546535321E+03  0.61546535323E+03  0.50400001928E-02 0. -1.
    10030    2    1    2    0    0  0.00000000000E+00  0.00000000000E+00 -0.50792413014E+03  0.72300657641E+03  0.51454017098E+03 0.  0.
        4    1    3    3  502    0 -0.46643286136E+02  0.12327595322E+03 -0.56441369621E+03  0.57960071614E+03  0.12699999809E+01 0. -1.
       -4    1    3    3    0  502  0.46643286136E+02 -0.12327595322E+03  0.56489566067E+02  0.14340586027E+03  0.12699999809E+01 0.  1.
</event>
<event>
 5   0  0.3178149E-01  0.4752235E+03  0.7818609E-02  0.1020456E+00
        2   -1    0    0  501    0  0.00000000000E+00  0.00000000000E+00  0.72486365258E+03  0.72486365258E+03  0.25500000920E-02 0.  1.
       -2   -1    0    0    0  501  0.00000000000E+00  0.00000000000E+00 -0.77889592059E+02  0.77889592101E+02  0.25500000920E-02 0. -1.
    10030    2    1    2    0    0  0.00000000000E+00  0.00000000000E+00  0.64697406052E+03  0.80275324468E+03  0.47522345993E+03 0.  0.
        3    1    3    3  502    0 -0.41882773715E+02  0.67958365749E+02 -0.54560075762E+02  0.96691872862E+02  0.10100000352E+00 0. -1.
       -3    1    3    3    0  502  0.41882773715E+02 -0.67958365749E+02  0.70153413628E+03  0.70606137182E+03  0.10100000352E+00 0.  1.
</event>
<event>
 5   0  0.1984297E-01  0.5048414E+03  0.7818609E-02  0.1012523E+00
        1   -1    0    0  501    0  0.00000000000E+00  0.00000000000E+00  0.89483440207E+03  0.89483440208E+03  0.50400001928E-02 0. -1.
       -1   -1    0    0    0  501  0.00000000000E+00  0.00000000000E+00 -0.71204466491E+02  0.71204466670E+02  0.50400001928E-02 0.  1.
    10030    2    1    2    0    0  0.00000000000E+00  0.00000000000E+00  0.82362993558E+03  0.96603886875E+03  0.50484138614E+03 0.  0.
        3    1    3    3  502    0 -0.81160156130E+02 -0.12857169140E+03  0.79737755562E+03  0.81174418826E+03  0.10100000352E+00 0. -1.
       -3    1    3    3    0  502  0.81160156130E+02  0.12857169140E+03  0.26252379957E+02  0.15429468049E+03  0.10100000352E+00 0.  1.
</event>
<event>
 5   0  0.1984297E-01  0.2642677E+03  0.7818609E-02  0.1104606E+00
        1   -1    0    0  501    0  0.00000000000E+00  0.00000000000E+00  0.12822176405E+04  0.12822176405E+04  0.50400001928E-02 0.  1.
       -1   -1    0    0    0  501  0.00000000000E+00  0.00000000000E+00 -0.13616530286E+02  0.13616531219E+02  0.50400001928E-02 0. -1.
    10030    2    1    2    0    0  0.00000000000E+00  0.00000000000E+00  0.12686011102E+04  0.12958341718E+04  0.26426771234E+03 0.  0.
        3    1    3    3  502    0  0.67819112794E+01 -0.44858465116E+02  0.25772277928E+02  0.52177549998E+02  0.10100000352E+00 0. -1.
       -3    1    3    3    0  502 -0.67819112794E+01  0.44858465116E+02  0.12428288323E+04  0.12436566218E+04  0.10100000352E+00 0.  1.
</event>
<event>
 5   0  0.1984680E-01  0.5053097E+03  0.7818609E-02  0.1012402E+00
       -1   -1    0    0    0  501  0.00000000000E+00  0.00000000000E+00  0.52849937158E+02  0.52849937398E+02  0.50400001928E-02 0. -1.
        1   -1    0    0  501    0  0.00000000000E+00  0.00000000000E+00 -0.12078436608E+04  0.12078436608E+04  0.50400001928E-02 0.  1.
    10030    2    1    2    0    0  0.00000000000E+00  0.00000000000E+00 -0.11549937236E+04  0.12606935982E+04  0.50530965448E+03 0.  0.
        5    1    3    3  502    0  0.13179606927E+03 -0.13481500666E+03 -0.15803503917E+03  0.24605376140E+03  0.46999998093E+01 0. -1.
       -5    1    3    3    0  502 -0.13179606927E+03  0.13481500666E+03 -0.99695868448E+03  0.10146398368E+04  0.46999998093E+01 0.  1.
</event>
<event>
 5   0  0.3329246E-01  0.4864044E+03  0.7818609E-02  0.1017390E+00
        2   -1    0    0  501    0  0.00000000000E+00  0.00000000000E+00  0.80272249493E+03  0.80272249493E+03  0.25500000920E-02 0.  1.
       -2   -1    0    0    0  501  0.00000000000E+00  0.00000000000E+00 -0.73683391807E+02  0.73683391851E+02  0.25500000920E-02 0. -1.
    10030    2    1    2    0    0  0.00000000000E+00  0.00000000000E+00  0.72903910312E+03  0.87640588678E+03  0.48640442484E+03 0.  0.
        2    1    3    3  502    0  0.71534138066E+02  0.22705424015E+03  0.45418637381E+03  0.51279237810E+03  0.25500000920E-02 0. -1.
       -2    1    3    3    0  502 -0.71534138066E+02 -0.22705424015E+03  0.27485272931E+03  0.36361350868E+03  0.25500000920E-02 0.  1.
</event>
<event>
 5   0  0.3187123E-01  0.4989326E+03  0.7818609E-02  0.1014058E+00
        2   -1    0    0  501    0  0.00000000000E+00  0.00000000000E+00  0.96614244875E+03  0.96614244875E+03  0.25500000920E-02 0.  1.
       -2   -1    0    0    0  501  0.00000000000E+00  0.00000000000E+00 -0.64414345181E+02  0.64414345231E+02  0.25500000920E-02 0. -1.
    10030    2    1    2    0    0  0.00000000000E+00  0.00000000000E+00  0.90172810357E+03  0.10305567940E+04  0.49893259351E+03 0.  0.
        5    1    3    3  502    0  0.24354768902E+03  0.42859767099E+02  0.51807792367E+03  0.57408994196E+03  0.46999998093E+01 0.  1.
       -5    1    3    3    0  502 -0.24354768902E+03 -0.42859767099E+02  0.38365017989E+03  0.45646685202E+03  0.46999998093E+01 0. -1.
</event>
<event>
 5   0  0.2013450E-01  0.5004862E+03  0.7818609E-02  0.1013652E+00
        1   -1    0    0  501    0  0.00000000000E+00  0.00000000000E+00  0.88057335927E+03  0.88057335929E+03  0.50400001928E-02 0.  1.
       -1   -1    0    0    0  501  0.00000000000E+00  0.00000000000E+00 -0.71114588786E+02  0.71114588965E+02  0.50400001928E-02 0. -1.
    10030    2    1    2    0    0  0.00000000000E+00  0.00000000000E+00  0.80945877049E+03  0.95168794825E+03  0.50048621333E+03 0.  0.
        4    1    3    3  502    0 -0.13648977503E+03 -0.14450332769E+03  0.69379479093E+03  0.72170873296E+03  0.12699999809E+01 0.  1.
       -4    1    3    3    0  502  0.13648977503E+03  0.14450332769E+03  0.11566397956E+03  0.22997921530E+03  0.12699999809E+01 0. -1.
</event>
<event>
 5   0  0.3117389E-01  0.4962153E+03  0.7818609E-02  0.1014772E+00
       -2   -1    0    0    0  501  0.00000000000E+00  0.00000000000E+00  0.83402072238E+02  0.83402072277E+02  0.25500000920E-02 0.  1.
        2   -1    0    0  501    0  0.00000000000E+00  0.00000000000E+00 -0.73807994796E+03  0.73807994796E+03  0.25500000920E-02 0. -1.
    10030    2    1    2    0    0  0.00000000000E+00  0.00000000000E+00 -0.65467787572E+03  0.82148202024E+03  0.49621526440E+03 0.  0.
        4    1    3    3  502    0  0.16936150818E+03 -0.14118012836E+03 -0.51566296789E+03  0.56082533685E+03  0.12699999809E+01 0. -1.
       -4    1    3    3    0  502 -0.16936150818E+03  0.14118012836E+03 -0.13901490783E+03  0.26065668339E+03  0.12699999809E+01 0.  1.
</event>
<event>
 5   0  0.1984680E-01  0.5129624E+03  0.7818609E-02  0.1010450E+00
        1   -1    0    0  501    0  0.00000000000E+00  0.00000000000E+00  0.20013477217E+04  0.20013477217E+04  0.50400001928E-02 0. -1.
       -1   -1    0    0    0  501  0.00000000000E+00  0.00000000000E+00 -0.32869152066E+02  0.32869152452E+02  0.50400001928E-02 0.  1.
    10030    2    1    2    0    0  0.00000000000E+00  0.00000000000E+00  0.19684785696E+04  0.20342168741E+04  0.51296238849E+03 0.  0.
        5    1    3    3  502    0 -0.78032075695E+02  0.15584798091E+02  0.19509790003E+04  0.19526067296E+04  0.46999998093E+01 0. -1.
       -5    1    3    3    0  502  0.78032075695E+02 -0.15584798091E+02  0.17499569293E+02  0.81610144544E+02  0.46999998093E+01 0.  1.
</event>
<event>
 5   0  0.3329246E-01  0.5086694E+03  0.7818609E-02  0.1011541E+00
        2   -1    0    0  501    0  0.00000000000E+00  0.00000000000E+00  0.12656274948E+04  0.12656274948E+04  0.25500000920E-02 0.  1.
       -2   -1    0    0    0  501  0.00000000000E+00  0.00000000000E+00 -0.51109937264E+02  0.51109937328E+02  0.25500000920E-02 0. -1.
    10030    2    1    2    0    0  0.00000000000E+00  0.00000000000E+00  0.12145175575E+04  0.13167374321E+04  0.50866940895E+03 0.  0.
        2    1    3    3  502    0  0.22867680005E+03 -0.99459522785E+02  0.73671078998E+03  0.77777121548E+03  0.25500000920E-02 0. -1.
       -2    1    3    3    0  502 -0.22867680005E+03  0.99459522785E+02  0.47780676753E+03  0.53896621662E+03  0.25500000920E-02 0.  1.
</event>
<event>
 5   0  0.3178149E-01  0.4976176E+03  0.7818609E-02  0.1014403E+00
        2   -1    0    0  501    0  0.00000000000E+00  0.00000000000E+00  0.29173235510E+03  0.29173235511E+03  0.25500000920E-02 0.  1.
       -2   -1    0    0    0  501  0.00000000000E+00  0.00000000000E+00 -0.21220069840E+03  0.21220069842E+03  0.25500000920E-02 0. -1.
    10030    2    1    2    0    0  0.00000000000E+00  0.00000000000E+00  0.79531656693E+02  0.50393305352E+03  0.49761756201E+03 0.  0.
        3    1    3    3  502    0 -0.51175211810E+02  0.23180893642E+03 -0.35688275497E+02  0.24005821902E+03  0.10100000352E+00 0. -1.
       -3    1    3    3    0  502  0.51175211810E+02 -0.23180893642E+03  0.11521993219E+03  0.26387483450E+03  0.10100000352E+00 0.  1.
</event>
<event>
 5   0  0.2000612E-01  0.6190385E+03  0.7818609E-02  0.9866676E-01
       -1   -1    0    0    0  501  0.00000000000E+00  0.00000000000E+00  0.35692845481E+03  0.35692845485E+03  0.50400001928E-02 0.  1.
        1   -1    0    0  501    0  0.00000000000E+00  0.00000000000E+00 -0.26840716670E+03  0.26840716674E+03  0.50400001928E-02 0. -1.
    10030    2    1    2    0    0  0.00000000000E+00  0.00000000000E+00  0.88521288115E+02  0.62533562159E+03  0.61903846502E+03 0.  0.
        2    1    3    3  502    0 -0.11271549139E+03  0.15242154114E+02  0.33505182518E+03  0.35383164192E+03  0.25500000920E-02 0.  1.
       -2    1    3    3    0  502  0.11271549139E+03 -0.15242154114E+02 -0.24653053707E+03  0.27150397967E+03  0.25500000920E-02 0. -1.
</event>
<event>
 5   0  0.1984680E-01  0.4901733E+03  0.7818609E-02  0.1016376E+00
       -1   -1    0    0    0  501  0.00000000000E+00  0.00000000000E+00  0.79303259565E+02  0.79303259725E+02  0.50400001928E-02 0.  1.
        1   -1    0    0  501    0  0.00000000000E+00  0.00000000000E+00 -0.75743992694E+03  0.75743992696E+03  0.50400001928E-02 0. -1.
    10030    2    1    2    0    0  0.00000000000E+00  0.00000000000E+00 -0.67813666737E+03  0.83674318668E+03  0.49017325592E+03 0.  0.
        5    1    3    3  502    0  0.13452135792E+03  0.19657396363E+03 -0.43724953950E+03  0.49794233472E+03  0.46999998093E+01 0. -1.
       -5    1    3    3    0  502 -0.13452135792E+03 -0.19657396363E+03 -0.24088712787E+03  0.33880085196E+03  0.46999998093E+01 0.  1.
</event>
<event>
 5   0  0.3178149E-01  0.4971806E+03  0.7818609E-02  0.1014517E+00
       -2   -1    0    0    0  501  0.00000000000E+00  0.00000000000E+00  0.10035430630E+03  0.10035430633E+03  0.25500000920E-02 0. -1.
        2   -1    0    0  501    0  0.00000000000E+00  0.00000000000E+00 -0.61578962195E+03  0.61578962196E+03  0.25500000920E-02 0.  1.
    10030    2    1    2    0    0  0.00000000000E+00  0.00000000000E+00 -0.51543531565E+03  0.71614392829E+03  0.49718061246E+03 0.  0.
        3    1    3    3  502    0  0.90630637419E+02 -0.47307016432E+02  0.68671951445E+02  0.12315727083E+03  0.10100000352E+00 0. -1.
       -3    1    3    3    0  502 -0.90630637419E+02  0.47307016432E+02 -0.58410726710E+03  0.59298665746E+03  0.10100000352E+00 0.  1.
</event>
<event>
 5   0  0.3178149E-01  0.4845783E+03  0.7818609E-02  0.1017884E+00
        2   -1    0    0  501    0  0.00000000000E+00  0.00000000000E+00  0.11879399576E+03  0.11879399578E+03  0.25500000920E-02 0.  1.
       -2   -1    0    0    0  501  0.00000000000E+00  0.00000000000E+00 -0.49416664262E+03  0.49416664262E+03  0.25500000920E-02 0. -1.
    10030    2    1    2    0    0  0.00000000000E+00  0.00000000000E+00 -0.37537264686E+03  0.61296063841E+03  0.48457829112E+03 0.  0.
        3    1    3    3  502    0 -0.82222275648E+02  0.13009170902E+03 -0.42440069361E+03  0.45144248173E+03  0.10100000352E+00 0. -1.
       -3    1    3    3    0  502  0.82222275648E+02 -0.13009170902E+03  0.49028046749E+02  0.16151815668E+03  0.10100000352E+00 0.  1.
</event>
<event>
 5   0  0.3329246E-01  0.5043807E+03  0.7818609E-02  0.1012642E+00
        2   -1    0    0  501    0  0.00000000000E+00  0.00000000000E+00  0.30977183991E+03  0.30977183992E+03  0.25500000920E-02 0. -1.
       -2   -1    0    0    0  501  0.00000000000E+00  0.00000000000E+00 -0.20531227267E+03  0.20531227269E+03  0.25500000920E-02 0.  1.
    10030    2    1    2    0    0  0.00000000000E+00  0.00000000000E+00  0.10445956724E+03  0.51508411261E+03  0.50438065177E+03 0.  0.
        2    1    3    3  502    0 -0.39201928605E+02 -0.12768356838E+03  0.27068534374E+03  0.30184505986E+03  0.25500000920E-02 0. -1.
       -2    1    3    3    0  502  0.39201928605E+02  0.12768356838E+03 -0.16622577650E+03  0.21323905275E+03  0.25500000920E-02 0.  1.
</event>
<event>
 5   0  0.1967161E-01  0.5211378E+03  0.7818609E-02  0.1008404E+00
        1   -1    0    0  501    0  0.00000000000E+00  0.00000000000E+00  0.11817490369E+03  0.11817490380E+03  0.50400001928E-02 0. -1.
       -1   -1    0    0    0  501  0.00000000000E+00  0.00000000000E+00 -0.57453952498E+03  0.57453952500E+03  0.50400001928E-02 0.  1.
    10030    2    1    2    0    0  0.00000000000E+00  0.00000000000E+00 -0.45636462128E+03  0.69271442880E+03  0.52113780549E+03 0.  0.
        1    1    3    3  502    0  0.13188753855E+02 -0.25841691817E+03 -0.26899882420E+03  0.37324739018E+03  0.50400001928E-02 0. -1.
       -1    1    3    3    0  502 -0.13188753855E+02  0.25841691817E+03 -0.18736579708E+03  0.31946703862E+03  0.50400001928E-02 0.  1.
</event>
<event>
 5   0  0.3117389E-01  0.4954832E+03  0.7818609E-02  0.1014965E+00
       -2   -1    0    0    0  501  0.00000000000E+00  0.00000000000E+00  0.13590748409E+03  0.13590748411E+03  0.25500000920E-02 0. -1.
        2   -1    0    0  501    0  0.00000000000E+00  0.00000000000E+00 -0.45160056896E+03  0.45160056897E+03  0.25500000920E-02 0.  1.
    10030    2    1    2    0    0  0.00000000000E+00  0.00000000000E+00 -0.31569308487E+03  0.58750805308E+03  0.49548318700E+03 0.  0.
        4    1    3    3  502    0  0.86946421090E+02  0.22268946672E+03 -0.23490976042E+03  0.33516337385E+03  0.12699999809E+01 0.  1.
       -4    1    3    3    0  502 -0.86946421090E+02 -0.22268946672E+03 -0.80783324452E+02  0.25234467923E+03  0.12699999809E+01 0. -1.
</event>
<event>
 5   0  0.3178149E-01  0.4384334E+03  0.7818609E-02  0.1031229E+00
        2   -1    0    0  501    0  0.00000000000E+00  0.00000000000E+00  0.19332938606E+03  0.19332938608E+03  0.25500000920E-02 0. -1.
       -2   -1    0    0    0  501  0.00000000000E+00  0.00000000000E+00 -0.24857042926E+03  0.24857042927E+03  0.25500000920E-02 0.  1.
    10030    2    1    2    0    0  0.00000000000E+00  0.00000000000E+00 -0.55241043192E+02  0.44189981535E+03  0.43843343161E+03 0.  0.
        3    1    3    3  502    0  0.46929421650E+02  0.28383685269E+01  0.18818803626E+03  0.19397209630E+03  0.10100000352E+00 0. -1.
       -3    1    3    3    0  502 -0.46929421650E+02 -0.28383685269E+01 -0.24342907945E+03  0.24792771905E+03  0.10100000352E+00 0.  1.
</event>
<event>
 5   0  0.1292375E-01  0.4876305E+03  0.7818609E-02  0.1017059E+00
       -4   -1    0    0    0  501  0.00000000000E+00  0.00000000000E+00  0.58389964295E+03  0.58390102409E+03  0.12699999809E+01 0.  1.
        4   -1    0    0  501    0  0.00000000000E+00  0.00000000000E+00 -0.10180290909E+03  0.10181083046E+03  0.12699999809E+01 0. -1.
    10030    2    1    2    0    0  0.00000000000E+00  0.00000000000E+00  0.48209673387E+03  0.68571185455E+03  0.48763048168E+03 0.  0.
        1    1    3    3  502    0  0.10019068424E+03 -0.22033113603E+03  0.28233186255E+03  0.37188071118E+03  0.50400001928E-02 0.  1.
       -1    1    3    3    0  502 -0.10019068424E+03  0.22033113603E+03  0.19976487131E+03  0.31383114337E+03  0.50400001928E-02 0. -1.
</event>
<event>
 5   0  0.2013450E-01  0.4996233E+03  0.7818609E-02  0.1013877E+00
       -1   -1    0    0    0  501  0.00000000000E+00  0.00000000000E+00  0.10959476703E+03  0.10959476715E+03  0.50400001928E-02 0. -1.
        1   -1    0    0  501    0  0.00000000000E+00  0.00000000000E+00 -0.56942380302E+03  0.56942380304E+03  0.50400001928E-02 0.  1.
    10030    2    1    2    0    0  0.00000000000E+00  0.00000000000E+00 -0.45982903599E+03  0.67901857019E+03  0.49962333445E+03 0.  0.
        4    1    3    3  502    0 -0.13511856394E+03  0.18281293718E+03 -0.37067190403E+03  0.43482970190E+03  0.12699999809E+01 0.  1.
       -4    1    3    3    0  502  0.13511856394E+03 -0.18281293718E+03 -0.89157131956E+02  0.24418886829E+03  0.12699999809E+01 0. -1.
</event>
<event>
 5   0  0.3111146E-01  0.5009193E+03  0.7818609E-02  0.1013539E+00
       -2   -1    0    0    0  501  0.00000000000E+00  0.00000000000E+00  0.75436286381E+02  0.75436286424E+02  0.25500000920E-02 0.  1.
        2   -1    0    0  501    0  0.00000000000E+00  0.00000000000E+00 -0.83156303566E+03  0.83156303566E+03  0.25500000920E-02 0. -1.
    10030    2    1    2    0    0  0.00000000000E+00  0.00000000000E+00 -0.75612674927E+03  0.90699932208E+03  0.50091926424E+03 0.  0.
        1    1    3    3  502    0 -0.84309462538E+01 -0.13403705201E+03 -0.76085202781E+03  0.77261427660E+03  0.50400001928E-02 0. -1.
       -1    1    3    3    0  502  0.84309462538E+01  0.13403705201E+03  0.47252785328E+01  0.13438504548E+03  0.50400001928E-02 0.  1.
</event>
<event>
 5   0  0.1984680E-01  0.4511068E+03  0.7818609E-02  0.1027393E+00
        1   -1    0    0  501    0  0.00000000000E+00  0.00000000000E+00  0.22900837483E+04  0.22900837483E+04  0.50400001928E-02 0.  1.
       -1   -1    0    0    0  501  0.00000000000E+00  0.00000000000E+00 -0.22215052451E+02  0.22215053023E+02  0.50400001928E-02 0. -1.
    10030    2    1    2    0    0  0.00000000000E+00  0.00000000000E+00  0.22678686959E+04  0.23122988013E+04  0.45110677784E+03 0.  0.
        5    1    3    3  502    0  0.19114094017E+03  0.16441571821E+02  0.17414497228E+04  0.17519915557E+04  0.46999998093E+01 0.  1.
       -5    1    3    3    0  502 -0.19114094017E+03 -0.16441571821E+02  0.52641897307E+03  0.56030724562E+03  0.46999998093E+01 0. -1.
</event>
<event>
 5   0  0.2013450E-01  0.5084014E+03  0.7818609E-02  0.1011609E+00
       -1   -1    0    0    0  501  0.00000000000E+00  0.00000000000E+00  0.17324426027E+03  0.17324426035E+03  0.50400001928E-02 0. -1.
        1   -1    0    0  501    0  0.00000000000E+00  0.00000000000E+00 -0.37298773172E+03  0.37298773175E+03  0.50400001928E-02 0.  1.
    10030    2    1    2    0    0  0.00000000000E+00  0.00000000000E+00 -0.19974347144E+03  0.54623199210E+03  0.50840135209E+03 0.  0.
        4    1    3    3  502    0 -0.11236660500E+03 -0.69421152283E+02  0.13347791275E+03  0.18778582586E+03  0.12699999809E+01 0. -1.
       -4    1    3    3    0  502  0.11236660500E+03  0.69421152283E+02 -0.33322138420E+03  0.35844616624E+03  0.12699999809E+01 0.  1.
</event>
<event>
 5   0  0.3178149E-01  0.4703061E+03  0.7818609E-02  0.1021834E+00
        2   -1    0    0  501    0  0.00000000000E+00  0.00000000000E+00  0.77107052677E+03  0.77107052677E+03  0.25500000920E-02 0.  1.
       -2   -1    0    0    0  501  0.00000000000E+00  0.00000000000E+00 -0.71714511215E+02  0.71714511261E+02  0.25500000920E-02 0. -1.
    10030    2    1    2    0    0  0.00000000000E+00  0.00000000000E+00  0.69935601555E+03  0.84278503803E+03  0.47030605338E+03 0.  0.
        3    1    3    3  502    0  0.28351366724E+01 -0.19616016188E+03  0.58201654470E+03  0.61419061831E+03  0.10100000352E+00 0.  1.
       -3    1    3    3    0  502 -0.28351366724E+01  0.19616016188E+03  0.11733947085E+03  0.22859441973E+03  0.10100000352E+00 0. -1.
</event>
<event>
 5   0  0.2013450E-01  0.4255116E+03  0.7818609E-02  0.1035287E+00
       -1   -1    0    0    0  501  0.00000000000E+00  0.00000000000E+00  0.10005159992E+03  0.10005160005E+03  0.50400001928E-02 0.  1.
        1   -1    0    0  501    0  0.00000000000E+00  0.00000000000E+00 -0.45241675955E+03  0.45241675958E+03  0.50400001928E-02 0. -1.
    10030    2    1    2    0    0  0.00000000000E+00  0.00000000000E+00 -0.35236515963E+03  0.55246835962E+03  0.42551155409E+03 0.  0.
        4    1    3    3  502    0  0.93646254481E+02  0.75292991761E+02  0.51770702657E+02  0.13084522972E+03  0.12699999809E+01 0.  1.
       -4    1    3    3    0  502 -0.93646254481E+02 -0.75292991761E+02 -0.40413586228E+03  0.42162312991E+03  0.12699999809E+01 0. -1.
</event>
<event>
 5   0  0.1967161E-01  0.5018727E+03  0.7818609E-02  0.1013291E+00
       -1   -1    0    0    0  501  0.00000000000E+00  0.00000000000E+00  0.84269837346E+02  0.84269837497E+02  0.50400001928E-02 0.  1.
        1   -1    0    0  501    0  0.00000000000E+00  0.00000000000E+00 -0.74723117917E+03  0.74723117919E+03  0.50400001928E-02 0. -1.
    10030    2    1    2    0    0  0.00000000000E+00  0.00000000000E+00 -0.66296134182E+03  0.83150101668E+03  0.50187269301E+03 0.  0.
        1    1    3    3  502    0  0.12187554591E+03  0.94793156174E+02 -0.65921523714E+03  0.67705547782E+03  0.50400001928E-02 0. -1.
       -1    1    3    3    0  502 -0.12187554591E+03 -0.94793156174E+02 -0.37461046846E+01  0.15444553886E+03  0.50400001928E-02 0.  1.
</event>
<event>
 5   0  0.2000612E-01  0.4802665E+03  0.7818609E-02  0.1019062E+00
       -1   -1    0    0    0  501  0.00000000000E+00  0.00000000000E+00  0.75405552434E+02  0.75405552603E+02  0.50400001928E-02 0. -1.
        1   -1    0    0  501    0  0.00000000000E+00  0.00000000000E+00 -0.76471791473E+03  0.76471791474E+03  0.50400001928E-02 0.  1.
    10030    2    1    2    0    0  0.00000000000E+00  0.00000000000E+00 -0.68931236229E+03  0.84012346734E+03  0.48026649641E+03 0.  0.
        2    1    3    3  502    0  0.13469368235E+03 -0.72299971714E+02 -0.20710783103E+02  0.15426798280E+03  0.25500000920E-02 0. -1.
       -2    1    3    3    0  502 -0.13469368235E+03  0.72299971714E+02 -0.66860157919E+03  0.68585548454E+03  0.25500000920E-02 0.  1.
</event>
<event>
 5   0  0.3111146E-01  0.4995283E+03  0.7818609E-02  0.1013902E+00
       -2   -1    0    0    0  501  0.00000000000E+00  0.00000000000E+00  0.17065555729E+03  0.17065555731E+03  0.25500000920E-02 0. -1.
        2   -1    0    0  501    0  0.00000000000E+00  0.00000000000E+00 -0.36554410592E+03  0.36554410593E+03  0.25500000920E-02 0.  1.
    10030    2    1    2    0    0  0.00000000000E+00  0.00000000000E+00 -0.19488854863E+03  0.53619966324E+03  0.49952830998E+03 0.  0.
        1    1    3    3  502    0  0.95240288332E+02  0.13775070597E+02  0.14995719941E+03  0.17817863725E+03  0.50400001928E-02 0. -1.
       -1    1    3    3    0  502 -0.95240288332E+02 -0.13775070597E+02 -0.34484574804E+03  0.35802102600E+03  0.50400001928E-02 0.  1.
</event>
<event>
 5   0  0.1984680E-01  0.5110938E+03  0.7818609E-02  0.1010923E+00
        1   -1    0    0  501    0  0.00000000000E+00  0.00000000000E+00  0.27912422272E+03  0.27912422276E+03  0.50400001928E-02 0. -1.
       -1   -1    0    0    0  501  0.00000000000E+00  0.00000000000E+00 -0.23396110390E+03  0.23396110395E+03  0.50400001928E-02 0.  1.
    10030    2    1    2    0    0  0.00000000000E+00  0.00000000000E+00  0.45163118819E+02  0.51308532671E+03  0.51109377338E+03 0.  0.
        5    1    3    3  502    0  0.14816706619E+03  0.54617505375E+02  0.22422631535E+03  0.27429196469E+03  0.46999998093E+01 0. -1.
       -5    1    3    3    0  502 -0.14816706619E+03 -0.54617505375E+02 -0.17906319653E+03  0.23879336203E+03  0.46999998093E+01 0.  1.
</event>
<event>
 5   0  0.3178149E-01  0.5333200E+03  0.7818609E-02  0.1005430E+00
        2   -1    0    0  501    0  0.00000000000E+00  0.00000000000E+00  0.36704927853E+03  0.36704927854E+03  0.25500000920E-02 0.  1.
       -2   -1    0    0    0  501  0.00000000000E+00  0.00000000000E+00 -0.19372750911E+03  0.19372750913E+03  0.25500000920E-02 0. -1.
    10030    2    1    2    0    0  0.00000000000E+00  0.00000000000E+00  0.17332176941E+03  0.56077678766E+03  0.53331995071E+03 0.  0.
        3    1    3    3  502    0 -0.35751636741E+02 -0.25519018885E+03  0.14518736490E+02  0.25809110005E+03  0.10100000352E+00 0.  1.
       -3    1    3    3    0  502  0.35751636741E+02  0.25519018885E+03  0.15880303293E+03  0.30268568761E+03  0.10100000352E+00 0. -1.
</event>
<event>
 5   0  0.3329246E-01  0.4955785E+03  0.7818609E-02  0.1014939E+00
        2   -1    0    0  501    0  0.00000000000E+00  0.00000000000E+00  0.20507094280E+03  0.20507094282E+03  0.25500000920E-02 0.  1.
       -2   -1    0    0    0  501  0.00000000000E+00  0.00000000000E+00 -0.29940620497E+03  0.29940620498E+03  0.25500000920E-02 0. -1.
    10030    2    1    2    0    0  0.00000000000E+00  0.00000000000E+00 -0.94335262165E+02  0.50447714780E+03  0.49557850131E+03 0.  0.
        2    1    3    3  502    0  0.13737879823E+02  0.86800151295E+02 -0.28300966098E+03  0.29634011510E+03  0.25500000920E-02 0. -1.
       -2    1    3    3    0  502 -0.13737879823E+02 -0.86800151295E+02  0.18867439881E+03  0.20813703270E+03  0.25500000920E-02 0.  1.
</event>
<event>
 5   0  0.3111146E-01  0.5003018E+03  0.7818609E-02  0.1013700E+00
       -2   -1    0    0    0  501  0.00000000000E+00  0.00000000000E+00  0.96440427475E+02  0.96440427509E+02  0.25500000920E-02 0. -1.
        2   -1    0    0  501    0  0.00000000000E+00  0.00000000000E+00 -0.64885118077E+03  0.64885118078E+03  0.25500000920E-02 0.  1.
    10030    2    1    2    0    0  0.00000000000E+00  0.00000000000E+00 -0.55241075330E+03  0.74529160829E+03  0.50030184991E+03 0.  0.
        1    1    3    3  502    0  0.37686526257E+02  0.57643837802E+02  0.82039284000E+02  0.10711456690E+03  0.50400001928E-02 0. -1.
       -1    1    3    3    0  502 -0.37686526257E+02 -0.57643837802E+02 -0.63445003730E+03  0.63817704139E+03  0.50400001928E-02 0.  1.
</event>
<event>
 5   0  0.3178149E-01  0.4880512E+03  0.7818609E-02  0.1016946E+00
       -2   -1    0    0    0  501  0.00000000000E+00  0.00000000000E+00  0.99159278843E+02  0.99159278876E+02  0.25500000920E-02 0.  1.
        2   -1    0    0  501    0  0.00000000000E+00  0.00000000000E+00 -0.60053381566E+03  0.60053381567E+03  0.25500000920E-02 0. -1.
    10030    2    1    2    0    0  0.00000000000E+00  0.00000000000E+00 -0.50137453682E+03  0.69969309454E+03  0.48805122721E+03 0.  0.
        3    1    3    3  502    0 -0.16845815699E+02 -0.23647905043E+03 -0.16780354509E+03  0.29045509591E+03  0.10100000352E+00 0. -1.
       -3    1    3    3    0  502  0.16845815699E+02  0.23647905043E+03 -0.33357099173E+03  0.40923799863E+03  0.10100000352E+00 0.  1.
</event>
<event>
 5   0  0.1967161E-01  0.4999284E+03  0.7818609E-02  0.1013798E+00
        1   -1    0    0  501    0  0.00000000000E+00  0.00000000000E+00  0.37696897674E+03  0.37696897678E+03  0.50400001928E-02 0.  1.
       -1   -1    0    0    0  501  0.00000000000E+00  0.00000000000E+00 -0.16574863570E+03  0.16574863578E+03  0.50400001928E-02 0. -1.
    10030    2    1    2    0    0  0.00000000000E+00  0.00000000000E+00  0.21122034105E+03  0.54271761255E+03  0.49992836937E+03 0.  0.
        1    1    3    3  502    0  0.24583646626E+03 -0.42719404866E+02  0.12176972414E+03  0.27764794514E+03  0.50400001928E-02 0. -1.
       -1    1    3    3    0  502 -0.24583646626E+03  0.42719404866E+02  0.89450616904E+02  0.26506966742E+03  0.50400001928E-02 0.  1.
</event>
<event>
 5   0  0.1984680E-01  0.4824650E+03  0.7818609E-02  0.1018460E+00
        1   -1    0    0  501    0  0.00000000000E+00  0.00000000000E+00  0.16161360384E+03  0.16161360392E+03  0.50400001928E-02 0. -1.
       -1   -1    0    0    0  501  0.00000000000E+00  0.00000000000E+00 -0.36007557977E+03  0.36007557981E+03  0.50400001928E-02 0.  1.
    10030    2    1    2    0    0  0.00000000000E+00  0.00000000000E+00 -0.19846197594E+03  0.52168918372E+03  0.48246497129E+03 0.  0.
        5    1    3    3  502    0 -0.72472726812E+02  0.29201444508E+02  0.14749969386E+03  0.16698284397E+03  0.46999998093E+01 0. -1.
       -5    1    3    3    0  502  0.72472726812E+02 -0.29201444508E+02 -0.34596166980E+03  0.35470633975E+03  0.46999998093E+01 0.  1.
</event>
<event>
 5   0  0.1984680E-01  0.4937769E+03  0.7818609E-02  0.1015416E+00
       -1   -1    0    0    0  501  0.00000000000E+00  0.00000000000E+00  0.70357066549E+02  0.70357066729E+02  0.50400001928E-02 0. -1.
        1   -1    0    0  501    0  0.00000000000E+00  0.00000000000E+00 -0.86635079490E+03  0.86635079492E+03  0.50400001928E-02 0.  1.
    10030    2    1    2    0    0  0.00000000000E+00  0.00000000000E+00 -0.79599372835E+03  0.93670786165E+03  0.49377687521E+03 0.  0.
        5    1    3    3  502    0 -0.12079159924E+03 -0.62754415119E+02 -0.73609776533E+01  0.13640015049E+03  0.46999998093E+01 0. -1.
       -5    1    3    3    0  502  0.12079159924E+03  0.62754415119E+02 -0.78863275070E+03  0.80030771116E+03  0.46999998093E+01 0.  1.
</event>
<event>
 5   0  0.3117389E-01  0.4954512E+03  0.7818609E-02  0.1014973E+00
        2   -1    0    0  501    0  0.00000000000E+00  0.00000000000E+00  0.64272716994E+02  0.64272717045E+02  0.25500000920E-02 0. -1.
       -2   -1    0    0    0  501  0.00000000000E+00  0.00000000000E+00 -0.95480592872E+03  0.95480592872E+03  0.25500000920E-02 0.  1.
    10030    2    1    2    0    0  0.00000000000E+00  0.00000000000E+00 -0.89053321173E+03  0.10190786458E+04  0.49545119343E+03 0.  0.
        4    1    3    3  502    0  0.71589811767E+02 -0.14833519887E+03 -0.82585938724E+03  0.84212455894E+03  0.12699999809E+01 0.  1.
       -4    1    3    3    0  502 -0.71589811767E+02  0.14833519887E+03 -0.64673824486E+02  0.17695408683E+03  0.12699999809E+01 0. -1.
</event>
<event>
 5   0  0.3329246E-01  0.5102119E+03  0.7818609E-02  0.1011147E+00
        2   -1    0    0  501    0  0.00000000000E+00  0.00000000000E+00  0.12520769498E+04  0.12520769498E+04  0.25500000920E-02 0. -1.
       -2   -1    0    0    0  501  0.00000000000E+00  0.00000000000E+00 -0.51976878623E+02  0.51976878686E+02  0.25500000920E-02 0.  1.
    10030    2    1    2    0    0  0.00000000000E+00  0.00000000000E+00  0.12001000712E+04  0.13040538285E+04  0.51021192338E+03 0.  0.
        2    1    3    3  502    0  0.54633333189E+01 -0.21451184242E+03  0.24742876985E+03  0.32751515187E+03  0.25500000920E-02 0.  1.
       -2    1    3    3    0  502 -0.54633333189E+01  0.21451184242E+03  0.95267130134E+03  0.97653867663E+03  0.25500000920E-02 0. -1.
</event>
<event>
 5   0  0.1292375E-01  0.5088302E+03  0.7818609E-02  0.1011499E+00
        4   -1    0    0  501    0  0.00000000000E+00  0.00000000000E+00  0.13159143232E+03  0.13159756062E+03  0.12699999809E+01 0.  1.
       -4   -1    0    0    0  501  0.00000000000E+00  0.00000000000E+00 -0.49186036950E+03  0.49186200909E+03  0.12699999809E+01 0. -1.
    10030    2    1    2    0    0  0.00000000000E+00  0.00000000000E+00 -0.36026893718E+03  0.62345956971E+03  0.50883015630E+03 0.  0.
        5    1    3    3  502    0  0.13328197513E+03  0.20740191652E+03 -0.10336792312E+03  0.26736988873E+03  0.46999998093E+01 0.  1.
       -5    1    3    3    0  502 -0.13328197513E+03 -0.20740191652E+03 -0.25690101406E+03  0.35608968098E+03  0.46999998093E+01 0. -1.
</event>
<event>
 5   0  0.1292375E-01  0.5051353E+03  0.7818609E-02  0.1012447E+00
        3   -1    0    0  501    0  0.00000000000E+00  0.00000000000E+00  0.50275174937E+03  0.50275175952E+03  0.10100000352E+00 0. -1.
       -3   -1    0    0    0  501  0.00000000000E+00  0.00000000000E+00 -0.12688250514E+03  0.12688254534E+03  0.10100000352E+00 0.  1.
    10030    2    1    2    0    0  0.00000000000E+00  0.00000000000E+00  0.37586924423E+03  0.62963430486E+03  0.50513529782E+03 0.  0.
        5    1    3    3  502    0  0.21202545282E+03 -0.88010339089E+02  0.56802332120E+02  0.23653584794E+03  0.46999998093E+01 0.  1.
       -5    1    3    3    0  502 -0.21202545282E+03  0.88010339089E+02  0.31906691211E+03  0.39309845692E+03  0.46999998093E+01 0. -1.
</event>
<event>
 5   0  0.1292375E-01  0.2782668E+03  0.7818609E-02  0.1096639E+00
        4   -1    0    0  501    0  0.00000000000E+00  0.00000000000E+00  0.12744547881E+03  0.12745180646E+03  0.12699999809E+01 0.  1.
       -4   -1    0    0    0  501  0.00000000000E+00  0.00000000000E+00 -0.15188050456E+03  0.15188581423E+03  0.12699999809E+01 0. -1.
    10030    2    1    2    0    0  0.00000000000E+00  0.00000000000E+00 -0.24435025742E+02  0.27933762069E+03  0.27826684288E+03 0.  0.
        4    1    3    3  502    0 -0.10374758241E+03 -0.88703881212E+02  0.14803656928E+02  0.13730513667E+03  0.12699999809E+01 0.  1.
       -4    1    3    3    0  502  0.10374758241E+03  0.88703881212E+02 -0.39238682669E+02  0.14203248402E+03  0.12699999809E+01 0. -1.
</event>
<event>
 5   0  0.3111146E-01  0.5021723E+03  0.7818609E-02  0.1013213E+00
        2   -1    0    0  501    0  0.00000000000E+00  0.00000000000E+00  0.19719601850E+04  0.19719601850E+04  0.25500000920E-02 0.  1.
       -2   -1    0    0    0  501  0.00000000000E+00  0.00000000000E+00 -0.31970353897E+02  0.31970353998E+02  0.25500000920E-02 0. -1.
    10030    2    1    2    0    0  0.00000000000E+00  0.00000000000E+00  0.19399898311E+04  0.20039305390E+04  0.50217234129E+03 0.  0.
        1    1    3    3  502    0 -0.95194883562E+02 -0.15496641225E+03  0.16608006451E+04  0.16707290138E+04  0.50400001928E-02 0.  1.
       -1    1    3    3    0  502  0.95194883562E+02  0.15496641225E+03  0.27918918598E+03  0.33320152517E+03  0.50400001928E-02 0. -1.
</event>
<event>
 5   0  0.2013450E-01  0.4490946E+03  0.7818609E-02  0.1027992E+00
       -1   -1    0    0    0  501  0.00000000000E+00  0.00000000000E+00  0.91285648497E+02  0.91285648636E+02  0.50400001928E-02 0. -1.
        1   -1    0    0  501    0  0.00000000000E+00  0.00000000000E+00 -0.55234856958E+03  0.55234856960E+03  0.50400001928E-02 0.  1.
    10030    2    1    2    0    0  0.00000000000E+00  0.00000000000E+00 -0.46106292108E+03  0.64363421824E+03  0.44909463333E+03 0.  0.
        4    1    3    3  502    0 -0.55652729766E+02 -0.21508264355E+03 -0.27723899643E+03  0.35527572944E+03  0.12699999809E+01 0. -1.
       -4    1    3    3    0  502  0.55652729766E+02  0.21508264355E+03 -0.18382392465E+03  0.28835848880E+03  0.12699999809E+01 0.  1.
</event>
<event>
 5   0  0.1984680E-01  0.4870100E+03  0.7818609E-02  0.1017226E+00
       -1   -1    0    0    0  501  0.00000000000E+00  0.00000000000E+00  0.39141846249E+03  0.39141846253E+03  0.50400001928E-02 0.  1.
        1   -1    0    0  501    0  0.00000000000E+00  0.00000000000E+00 -0.15148667429E+03  0.15148667438E+03  0.50400001928E-02 0. -1.
    10030    2    1    2    0    0  0.00000000000E+00  0.00000000000E+00  0.23993178820E+03  0.54290513690E+03  0.48700998418E+03 0.  0.
        5    1    3    3  502    0 -0.92046892566E+02  0.16053339517E+03  0.29632900330E+03  0.34939457579E+03  0.46999998093E+01 0.  1.
       -5    1    3    3    0  502  0.92046892566E+02 -0.16053339517E+03 -0.56397215098E+02  0.19351056112E+03  0.46999998093E+01 0. -1.
</event>
<event>
 5   0  0.1967161E-01  0.4919814E+03  0.7818609E-02  0.1015893E+00
       -1   -1    0    0    0  501  0.00000000000E+00  0.00000000000E+00  0.16554807815E+03  0.16554807822E+03  0.50400001928E-02 0. -1.
        1   -1    0    0  501    0  0.00000000000E+00  0.00000000000E+00 -0.36552182534E+03  0.36552182538E+03  0.50400001928E-02 0.  1.
    10030    2    1    2    0    0  0.00000000000E+00  0.00000000000E+00 -0.19997374719E+03  0.53106990360E+03  0.49198144573E+03 0.  0.
        1    1    3    3  502    0 -0.16256433458E+03  0.59086726355E+02 -0.28879219188E+03  0.33662937220E+03  0.50400001928E-02 0.  1.
       -1    1    3    3    0  502  0.16256433458E+03 -0.59086726355E+02  0.88818444687E+02  0.19444053140E+03  0.50400001928E-02 0. -1.
</event>
<event>
 5   0  0.1984297E-01  0.5084445E+03  0.7818609E-02  0.1011598E+00
        1   -1    0    0  501    0  0.00000000000E+00  0.00000000000E+00  0.16441806346E+04  0.16441806347E+04  0.50400001928E-02 0. -1.
       -1   -1    0    0    0  501  0.00000000000E+00  0.00000000000E+00 -0.39307696135E+02  0.39307696458E+02  0.50400001928E-02 0.  1.
    10030    2    1    2    0    0  0.00000000000E+00  0.00000000000E+00  0.16048729385E+04  0.16834883311E+04  0.50844450260E+03 0.  0.
        3    1    3    3  502    0 -0.12026867279E+03  0.77660191840E+02  0.10685232149E+03  0.17864234621E+03  0.10100000352E+00 0.  1.
       -3    1    3    3    0  502  0.12026867279E+03 -0.77660191840E+02  0.14980206170E+04  0.15048459849E+04  0.10100000352E+00 0. -1.
</event>
<event>
 5   0  0.1292375E-01  0.5077604E+03  0.7818609E-02  0.1011773E+00
       -3   -1    0    0    0  501  0.00000000000E+00  0.00000000000E+00  0.19967135666E+03  0.19967138220E+03  0.10100000352E+00 0.  1.
        3   -1    0    0  501    0  0.00000000000E+00  0.00000000000E+00 -0.32280620595E+03  0.32280622175E+03  0.10100000352E+00 0. -1.
    10030    2    1    2    0    0  0.00000000000E+00  0.00000000000E+00 -0.12313484929E+03  0.52247760396E+03  0.50776043123E+03 0.  0.
        5    1    3    3  502    0 -0.15372804435E+03  0.20032583651E+03 -0.88208416982E+02  0.26751741479E+03  0.46999998093E+01 0.  1.
       -5    1    3    3    0  502  0.15372804435E+03 -0.20032583651E+03 -0.34926432311E+02  0.25496018917E+03  0.46999998093E+01 0. -1.
</event>
<event>
 5   0  0.3178149E-01  0.5168233E+03  0.7818609E-02  0.1009479E+00
       -2   -1    0    0    0  501  0.00000000000E+00  0.00000000000E+00  0.20058475369E+03  0.20058475371E+03  0.25500000920E-02 0.  1.
        2   -1    0    0  501    0  0.00000000000E+00  0.00000000000E+00 -0.33290959893E+03  0.33290959894E+03  0.25500000920E-02 0. -1.
    10030    2    1    2    0    0  0.00000000000E+00  0.00000000000E+00 -0.13232484524E+03  0.53349435265E+03  0.51682333504E+03 0.  0.
        3    1    3    3  502    0  0.15774852370E+03 -0.13488961803E+03  0.92740660959E+02  0.22733377703E+03  0.10100000352E+00 0.  1.
       -3    1    3    3    0  502 -0.15774852370E+03  0.13488961803E+03 -0.22506550620E+03  0.30616057562E+03  0.10100000352E+00 0. -1.
</event>
<event>
 5   0  0.3111146E-01  0.5001777E+03  0.7818609E-02  0.1013733E+00
       -2   -1    0    0    0  501  0.00000000000E+00  0.00000000000E+00  0.74942139400E+02  0.74942139443E+02  0.25500000920E-02 0.  1.
        2   -1    0    0  501    0  0.00000000000E+00  0.00000000000E+00 -0.83456962994E+03  0.83456962994E+03  0.25500000920E-02 0. -1.
    10030    2    1    2    0    0  0.00000000000E+00  0.00000000000E+00 -0.75962749054E+03  0.90951176938E+03  0.50017770269E+03 0.  0.
        1    1    3    3  502    0  0.11602124773E+02 -0.18761873963E+03 -0.79869490456E+02  0.20424136772E+03  0.50400001928E-02 0.  1.
       -1    1    3    3    0  502 -0.11602124773E+02  0.18761873963E+03 -0.67975800008E+03  0.70527040166E+03  0.50400001928E-02 0. -1.
</event>
<event>
 5   0  0.1984680E-01  0.6274532E+03  0.7818609E-02  0.9850031E-01
       -1   -1    0    0    0  501  0.00000000000E+00  0.00000000000E+00  0.12591486232E+03  0.12591486242E+03  0.50400001928E-02 0.  1.
        1   -1    0    0  501    0  0.00000000000E+00  0.00000000000E+00 -0.78167402220E+03  0.78167402222E+03  0.50400001928E-02 0. -1.
    10030    2    1    2    0    0  0.00000000000E+00  0.00000000000E+00 -0.65575915988E+03  0.90758888464E+03  0.62745319169E+03 0.  0.
        5    1    3    3  502    0 -0.18466183359E+03 -0.31410940174E+02 -0.69184771229E+03  0.71677192114E+03  0.46999998093E+01 0. -1.
       -5    1    3    3    0  502  0.18466183359E+03  0.31410940174E+02  0.36088552406E+02  0.19081696350E+03  0.46999998093E+01 0.  1.
</event>
<event>
 5   0  0.3117389E-01  0.4906781E+03  0.7818609E-02  0.1016241E+00
        2   -1    0    0  501    0  0.00000000000E+00  0.00000000000E+00  0.19454961014E+04  0.19454961014E+04  0.25500000920E-02 0. -1.
       -2   -1    0    0    0  501  0.00000000000E+00  0.00000000000E+00 -0.30938763217E+02  0.30938763322E+02  0.25500000920E-02 0.  1.
    10030    2    1    2    0    0  0.00000000000E+00  0.00000000000E+00  0.19145573382E+04  0.19764348647E+04  0.49067807502E+03 0.  0.
        4    1    3    3  502    0  0.20391294096E+03 -0.42391888079E+02  0.14795503264E+04  0.14941379926E+04  0.12699999809E+01 0. -1.
       -4    1    3    3    0  502 -0.20391294096E+03  0.42391888079E+02  0.43500701177E+03  0.48229687211E+03  0.12699999809E+01 0.  1.
</event>
<event>
 5   0  0.2000612E-01  0.4949885E+03  0.7818609E-02  0.1015095E+00
       -1   -1    0    0    0  501  0.00000000000E+00  0.00000000000E+00  0.13019797849E+03  0.13019797859E+03  0.50400001928E-02 0.  1.
        1   -1    0    0  501    0  0.00000000000E+00  0.00000000000E+00 -0.47046356310E+03  0.47046356312E+03  0.50400001928E-02 0. -1.
    10030    2    1    2    0    0  0.00000000000E+00  0.00000000000E+00 -0.34026558461E+03  0.60066154171E+03  0.49498850454E+03 0.  0.
        2    1    3    3  502    0 -0.14040116213E+03 -0.11862051606E+03  0.30991610813E+02  0.18639686989E+03  0.25500000920E-02 0.  1.
       -2    1    3    3    0  502  0.14040116213E+03  0.11862051606E+03 -0.37125719542E+03  0.41426467182E+03  0.25500000920E-02 0. -1.
</event>
<event>
 5   0  0.3187123E-01  0.5092975E+03  0.7818609E-02  0.1011380E+00
        2   -1    0    0  501    0  0.00000000000E+00  0.00000000000E+00  0.25251177960E+03  0.25251177961E+03  0.25500000920E-02 0.  1.
       -2   -1    0    0    0  501  0.00000000000E+00  0.00000000000E+00 -0.25680382254E+03  0.25680382255E+03  0.25500000920E-02 0. -1.
    10030    2    1    2    0    0  0.00000000000E+00  0.00000000000E+00 -0.42920429414E+01  0.50931560216E+03  0.50929751715E+03 0.  0.
        5    1    3    3  502    0 -0.13317298745E+03 -0.18792768270E+03  0.10635687154E+03  0.25374343860E+03  0.46999998093E+01 0.  1.
       -5    1    3    3    0  502  0.13317298745E+03  0.18792768270E+03 -0.11064891448E+03  0.25557216356E+03  0.46999998093E+01 0. -1.
</event>
<event>
 5   0  0.3187123E-01  0.5170094E+03  0.7818609E-02  0.1009432E+00
       -2   -1    0    0    0  501  0.00000000000E+00  0.00000000000E+00  0.97841941573E+02  0.97841941606E+02  0.25500000920E-02 0.  1.
        2   -1    0    0  501    0  0.00000000000E+00  0.00000000000E+00 -0.68298616046E+03  0.68298616047E+03  0.25500000920E-02 0. -1.
    10030    2    1    2    0    0  0.00000000000E+00  0.00000000000E+00 -0.58514421889E+03  0.78082810207E+03  0.51700944681E+03 0.  0.
        5    1    3    3  502    0  0.77094277533E+02  0.24457890573E+03 -0.34128258007E+03  0.42691715615E+03  0.46999998093E+01 0.  1.
       -5    1    3    3    0  502 -0.77094277533E+02 -0.24457890573E+03 -0.24386163882E+03  0.35391094592E+03  0.46999998093E+01 0. -1.
</event>
<event>
 5   0  0.3178149E-01  0.5125672E+03  0.7818609E-02  0.1010550E+00
       -2   -1    0    0    0  501  0.00000000000E+00  0.00000000000E+00  0.45859643970E+03  0.45859643970E+03  0.25500000920E-02 0. -1.
        2   -1    0    0  501    0  0.00000000000E+00  0.00000000000E+00 -0.14322242468E+03  0.14322242470E+03  0.25500000920E-02 0.  1.
    10030    2    1    2    0    0  0.00000000000E+00  0.00000000000E+00  0.31537401502E+03  0.60181886441E+03  0.51256724067E+03 0.  0.
        3    1    3    3  502    0 -0.24352966018E+03 -0.74515060181E+02  0.12402222898E+03  0.28326791746E+03  0.10100000352E+00 0.  1.
       -3    1    3    3    0  502  0.24352966018E+03  0.74515060181E+02  0.19135178603E+03  0.31855094695E+03  0.10100000352E+00 0. -1.
</event>
<event>
 5   0  0.3187123E-01  0.5016767E+03  0.7818609E-02  0.1013342E+00
        2   -1    0    0  501    0  0.00000000000E+00  0.00000000000E+00  0.15626727581E+04  0.15626727581E+04  0.25500000920E-02 0. -1.
       -2   -1    0    0    0  501  0.00000000000E+00  0.00000000000E+00 -0.40264265960E+02  0.40264266041E+02  0.25500000920E-02 0.  1.
    10030    2    1    2    0    0  0.00000000000E+00  0.00000000000E+00  0.15224084922E+04  0.16029370242E+04  0.50167667519E+03 0.  0.
        5    1    3    3  502    0  0.13869028091E+03 -0.19210197849E+03  0.49850815535E+03  0.55196977735E+03  0.46999998093E+01 0.  1.
       -5    1    3    3    0  502 -0.13869028091E+03  0.19210197849E+03  0.10239003368E+04  0.10509672468E+04  0.46999998093E+01 0. -1.
</event>
<event>
 5   0  0.3329246E-01  0.5764203E+03  0.7818609E-02  0.9955571E-01
       -2   -1    0    0    0  501  0.00000000000E+00  0.00000000000E+00  0.66905819662E+02  0.66905819710E+02  0.25500000920E-02 0. -1.
        2   -1    0    0  501    0  0.00000000000E+00  0.00000000000E+00 -0.12415224734E+04  0.12415224734E+04  0.25500000920E-02 0.  1.
    10030    2    1    2    0    0  0.00000000000E+00  0.00000000000E+00 -0.11746166538E+04  0.13084282931E+04  0.57642025900E+03 0.  0.
        2    1    3    3  502    0  0.15807025706E+03  0.23921240041E+03 -0.52088453277E+03  0.59458344676E+03  0.25500000920E-02 0. -1.
       -2    1    3    3    0  502 -0.15807025706E+03 -0.23921240041E+03 -0.65373212099E+03  0.71384484637E+03  0.25500000920E-02 0.  1.
</event>
<event>
 5   0  0.3187123E-01  0.5158637E+03  0.7818609E-02  0.1009719E+00
        2   -1    0    0  501    0  0.00000000000E+00  0.00000000000E+00  0.46471913014E+03  0.46471913015E+03  0.25500000920E-02 0. -1.
       -2   -1    0    0    0  501  0.00000000000E+00  0.00000000000E+00 -0.14315922736E+03  0.14315922738E+03  0.25500000920E-02 0.  1.
    10030    2    1    2    0    0  0.00000000000E+00  0.00000000000E+00  0.32155990278E+03  0.60787835753E+03  0.51586367043E+03 0.  0.
        5    1    3    3  502    0 -0.23108504431E+03 -0.10125265891E+03  0.97824286354E+02  0.27063643443E+03  0.46999998093E+01 0.  1.
       -5    1    3    3    0  502  0.23108504431E+03  0.10125265891E+03  0.22373561643E+03  0.33724192310E+03  0.46999998093E+01 0. -1.
</event>
<event>
 5   0  0.3329246E-01  0.5083250E+03  0.7818609E-02  0.1011629E+00
        2   -1    0    0  501    0  0.00000000000E+00  0.00000000000E+00  0.53357578306E+03  0.53357578307E+03  0.25500000920E-02 0.  1.
       -2   -1    0    0    0  501  0.00000000000E+00  0.00000000000E+00 -0.12106730829E+03  0.12106730832E+03  0.25500000920E-02 0. -1.
    10030    2    1    2    0    0  0.00000000000E+00  0.00000000000E+00  0.41250847477E+03  0.65464309139E+03  0.50832502923E+03 0.  0.
        2    1    3    3  502    0  0.13034404007E+03  0.15420775848E+03  0.40505399101E+03  0.45259069499E+03  0.25500000920E-02 0. -1.
       -2    1    3    3    0  502 -0.13034404007E+03 -0.15420775848E+03  0.74544837652E+01  0.20205239640E+03  0.25500000920E-02 0.  1.
</event>
<event>
 5   0  0.3117389E-01  0.5055431E+03  0.7818609E-02  0.1012342E+00
        2   -1    0    0  501    0  0.00000000000E+00  0.00000000000E+00  0.74186540837E+03  0.74186540838E+03  0.25500000920E-02 0. -1.
       -2   -1    0    0    0  501  0.00000000000E+00  0.00000000000E+00 -0.86125399384E+02  0.86125399422E+02  0.25500000920E-02 0.  1.
    10030    2    1    2    0    0  0.00000000000E+00  0.00000000000E+00  0.65574000899E+03  0.82799080780E+03  0.50554309254E+03 0.  0.
        4    1    3    3  502    0 -0.32617903946E+01 -0.15736352684E+03  0.39369788872E+01  0.15745168008E+03  0.12699999809E+01 0.  1.
       -4    1    3    3    0  502  0.32617903946E+01  0.15736352684E+03  0.65180303010E+03  0.67053912772E+03  0.12699999809E+01 0. -1.
</event>
<event>
 5   0  0.3111146E-01  0.4969104E+03  0.7818609E-02  0.1014589E+00
       -2   -1    0    0    0  501  0.00000000000E+00  0.00000000000E+00  0.26963097448E+02  0.26963097569E+02  0.25500000920E-02 0. -1.
        2   -1    0    0  501    0  0.00000000000E+00  0.00000000000E+00 -0.22894249733E+04  0.22894249733E+04  0.25500000920E-02 0.  1.
    10030    2    1    2    0    0  0.00000000000E+00  0.00000000000E+00 -0.22624618758E+04  0.23163880708E+04  0.49691040961E+03 0.  0.
        1    1    3    3  502    0 -0.21199573514E+03 -0.12909635220E+03 -0.11827047767E+04  0.12084695481E+04  0.50400001928E-02 0. -1.
       -1    1    3    3    0  502  0.21199573514E+03  0.12909635220E+03 -0.10797570991E+04  0.11079185227E+04  0.50400001928E-02 0.  1.
</event>
<event>
 5   0  0.1967161E-01  0.5226352E+03  0.7818609E-02  0.1008034E+00
        1   -1    0    0  501    0  0.00000000000E+00  0.00000000000E+00  0.89944192249E+03  0.89944192250E+03  0.50400001928E-02 0.  1.
       -1   -1    0    0    0  501  0.00000000000E+00  0.00000000000E+00 -0.75921409571E+02  0.75921409739E+02  0.50400001928E-02 0. -1.
    10030    2    1    2    0    0  0.00000000000E+00  0.00000000000E+00  0.82352051291E+03  0.97536333224E+03  0.52263524057E+03 0.  0.
        1    1    3    3  502    0  0.14793397170E+02 -0.16480668950E+03  0.78921556416E+03  0.80637540652E+03  0.50400001928E-02 0.  1.
       -1    1    3    3    0  502 -0.14793397170E+02  0.16480668950E+03  0.34304948754E+02  0.16898792572E+03  0.50400001928E-02 0. -1.
</event>
<event>
 5   0  0.1984680E-01  0.4962919E+03  0.7818609E-02  0.1014751E+00
       -1   -1    0    0    0  501  0.00000000000E+00  0.00000000000E+00  0.51373811679E+02  0.51373811926E+02  0.50400001928E-02 0. -1.
        1   -1    0    0  501    0  0.00000000000E+00  0.00000000000E+00 -0.11985955701E+04  0.11985955701E+04  0.50400001928E-02 0.  1.
    10030    2    1    2    0    0  0.00000000000E+00  0.00000000000E+00 -0.11472217585E+04  0.12499693821E+04  0.49629194336E+03 0.  0.
        5    1    3    3  502    0  0.21913957122E+02  0.22760016686E+03 -0.81613521309E+03  0.84757349741E+03  0.46999998093E+01 0.  1.
       -5    1    3    3    0  502 -0.21913957122E+02 -0.22760016686E+03 -0.33108654536E+03  0.40239588466E+03  0.46999998093E+01 0. -1.
</event>
<event>
 5   0  0.2000612E-01  0.5190939E+03  0.7818609E-02  0.1008912E+00
       -1   -1    0    0    0  501  0.00000000000E+00  0.00000000000E+00  0.10103021149E+03  0.10103021162E+03  0.50400001928E-02 0.  1.
        1   -1    0    0  501    0  0.00000000000E+00  0.00000000000E+00 -0.66677694206E+03  0.66677694208E+03  0.50400001928E-02 0. -1.
    10030    2    1    2    0    0  0.00000000000E+00  0.00000000000E+00 -0.56574673057E+03  0.76780715369E+03  0.51909388565E+03 0.  0.
        2    1    3    3  502    0 -0.12421315421E+03  0.17491672062E+03 -0.49894706521E+03  0.54311411390E+03  0.25500000920E-02 0. -1.
       -2    1    3    3    0  502  0.12421315421E+03 -0.17491672062E+03 -0.66799665360E+02  0.22469303979E+03  0.25500000920E-02 0.  1.
</event>
<event>
 5   0  0.1984680E-01  0.4969990E+03  0.7818609E-02  0.1014565E+00
       -1   -1    0    0    0  501  0.00000000000E+00  0.00000000000E+00  0.10846367549E+03  0.10846367561E+03  0.50400001928E-02 0.  1.
        1   -1    0    0  501    0  0.00000000000E+00  0.00000000000E+00 -0.56933347575E+03  0.56933347577E+03  0.50400001928E-02 0. -1.
    10030    2    1    2    0    0  0.00000000000E+00  0.00000000000E+00 -0.46086980026E+03  0.67779715138E+03  0.49699899962E+03 0.  0.
        5    1    3    3  502    0  0.12081190363E+02 -0.21723979847E+03 -0.39403632769E+03  0.45013975911E+03  0.46999998093E+01 0. -1.
       -5    1    3    3    0  502 -0.12081190363E+02  0.21723979847E+03 -0.66833472572E+02  0.22765739226E+03  0.46999998093E+01 0.  1.
</event>
<event>
 5   0  0.3111146E-01  0.5037304E+03  0.7818609E-02  0.1012810E+00
       -2   -1    0    0    0  501  0.00000000000E+00  0.00000000000E+00  0.37781937009E+02  0.37781937095E+02  0.25500000920E-02 0.  1.
        2   -1    0    0  501    0  0.00000000000E+00  0.00000000000E+00 -0.16790055724E+04  0.16790055724E+04  0.25500000920E-02 0. -1.
    10030    2    1    2    0    0  0.00000000000E+00  0.00000000000E+00 -0.16412236354E+04  0.17167875095E+04  0.50373041540E+03 0.  0.
        1    1    3    3  502    0 -0.13007602777E+03  0.15548368204E+03 -0.31119769435E+03  0.37140133734E+03  0.50400001928E-02 0.  1.
       -1    1    3    3    0  502  0.13007602777E+03 -0.15548368204E+03 -0.13300259410E+04  0.13453861722E+04  0.50400001928E-02 0. -1.
</event>
<event>
 5   0  0.3117389E-01  0.4933239E+03  0.7818609E-02  0.1015536E+00
        2   -1    0    0  501    0  0.00000000000E+00  0.00000000000E+00  0.94852134975E+03  0.94852134975E+03  0.25500000920E-02 0. -1.
       -2   -1    0    0    0  501  0.00000000000E+00  0.00000000000E+00 -0.64144177248E+02  0.64144177298E+02  0.25500000920E-02 0.  1.
    10030    2    1    2    0    0  0.00000000000E+00  0.00000000000E+00  0.88437717250E+03  0.10126655271E+04  0.49332391634E+03 0.  0.
        4    1    3    3  502    0  0.13089760553E+03 -0.10249738642E+03  0.68158191241E+02  0.17968597410E+03  0.12699999809E+01 0.  1.
       -4    1    3    3    0  502 -0.13089760553E+03  0.10249738642E+03  0.81621898126E+03  0.83297955295E+03  0.12699999809E+01 0. -1.
</event>
<event>
 5   0  0.2013450E-01  0.5004219E+03  0.7818609E-02  0.1013669E+00
        1   -1    0    0  501    0  0.00000000000E+00  0.00000000000E+00  0.21000746542E+04  0.21000746542E+04  0.50400001928E-02 0.  1.
       -1   -1    0    0    0  501  0.00000000000E+00  0.00000000000E+00 -0.29811093355E+02  0.29811093781E+02  0.50400001928E-02 0. -1.
    10030    2    1    2    0    0  0.00000000000E+00  0.00000000000E+00  0.20702635608E+04  0.21298857480E+04  0.50042191011E+03 0.  0.
        4    1    3    3  502    0 -0.84591815648E+02 -0.13937532951E+03  0.22732437761E+03  0.27974853584E+03  0.12699999809E+01 0. -1.
       -4    1    3    3    0  502  0.84591815648E+02  0.13937532951E+03  0.18429391832E+04  0.18501372121E+04  0.12699999809E+01 0.  1.
</event>
<event>
 5   0  0.2000612E-01  0.5086485E+03  0.7818609E-02  0.1011546E+00
       -1   -1    0    0    0  501  0.00000000000E+00  0.00000000000E+00  0.44431593189E+02  0.44431593475E+02  0.50400001928E-02 0. -1.
        1   -1    0    0  501    0  0.00000000000E+00  0.00000000000E+00 -0.14557394836E+04  0.14557394836E+04  0.50400001928E-02 0.  1.
    10030    2    1    2    0    0  0.00000000000E+00  0.00000000000E+00 -0.14113078904E+04  0.15001710771E+04  0.50864850239E+03 0.  0.
        2    1    3    3  502    0 -0.80701256874E+02 -0.24103626761E+03 -0.68103994167E+03  0.72692955457E+03  0.25500000920E-02 0. -1.
       -2    1    3    3    0  502  0.80701256874E+02  0.24103626761E+03 -0.73026794876E+03  0.77324152253E+03  0.25500000920E-02 0.  1.
</event>
<event>
 5   0  0.2000612E-01  0.4987022E+03  0.7818609E-02  0.1014118E+00
       -1   -1    0    0    0  501  0.00000000000E+00  0.00000000000E+00  0.16281157868E+03  0.16281157876E+03  0.50400001928E-02 0.  1.
        1   -1    0    0  501    0  0.00000000000E+00  0.00000000000E+00 -0.38188919658E+03  0.38188919661E+03  0.50400001928E-02 0. -1.
    10030    2    1    2    0    0  0.00000000000E+00  0.00000000000E+00 -0.21907761790E+03  0.54470077537E+03  0.49870224786E+03 0.  0.
        2    1    3    3  502    0  0.35888402598E+02  0.81741227859E+02  0.14475855555E+03  0.17007247039E+03  0.25500000920E-02 0.  1.
       -2    1    3    3    0  502 -0.35888402598E+02 -0.81741227859E+02 -0.36383617345E+03  0.37462830498E+03  0.25500000920E-02 0. -1.
</event>
<event>
 5   0  0.3329246E-01  0.5018555E+03  0.7818609E-02  0.1013296E+00
        2   -1    0    0  501    0  0.00000000000E+00  0.00000000000E+00  0.26292262533E+03  0.26292262534E+03  0.25500000920E-02 0.  1.
       -2   -1    0    0    0  501  0.00000000000E+00  0.00000000000E+00 -0.23948009343E+03  0.23948009344E+03  0.25500000920E-02 0. -1.
    10030    2    1    2    0    0  0.00000000000E+00  0.00000000000E+00  0.23442531903E+02  0.50240271878E+03  0.50185549667E+03 0.  0.
        2    1    3    3  502    0  0.85590254573E+02  0.15580383201E+03 -0.16557127577E+03  0.24292874081E+03  0.25500000920E-02 0. -1.
       -2    1    3    3    0  502 -0.85590254573E+02 -0.15580383201E+03  0.18901380767E+03  0.25947397797E+03  0.25500000920E-02 0.  1.
</event>
<event>
 5   0  0.2013450E-01  0.4975970E+03  0.7818609E-02  0.1014408E+00
        1   -1    0    0  501    0  0.00000000000E+00  0.00000000000E+00  0.17868090711E+03  0.17868090718E+03  0.50400001928E-02 0. -1.
       -1   -1    0    0    0  501  0.00000000000E+00  0.00000000000E+00 -0.34643149331E+03  0.34643149335E+03  0.50400001928E-02 0.  1.
    10030    2    1    2    0    0  0.00000000000E+00  0.00000000000E+00 -0.16775058620E+03  0.52511240053E+03  0.49759699961E+03 0.  0.
        4    1    3    3  502    0 -0.14338094421E+02 -0.17528432708E+03 -0.26958621312E+03  0.32188276666E+03  0.12699999809E+01 0.  1.
       -4    1    3    3    0  502  0.14338094421E+02  0.17528432708E+03  0.10183562691E+03  0.20322963387E+03  0.12699999809E+01 0. -1.
</event>
<event>
 5   0  0.2000612E-01  0.4976580E+03  0.7818609E-02  0.1014392E+00
        1   -1    0    0  501    0  0.00000000000E+00  0.00000000000E+00  0.10085185499E+04  0.10085185499E+04  0.50400001928E-02 0. -1.
       -1   -1    0    0    0  501  0.00000000000E+00  0.00000000000E+00 -0.61392882425E+02  0.61392882632E+02  0.50400001928E-02 0.  1.
    10030    2    1    2    0    0  0.00000000000E+00  0.00000000000E+00  0.94712566746E+03  0.10699114325E+04  0.49765795834E+03 0.  0.
        2    1    3    3  502    0  0.72251341917E+02 -0.21631302467E+03  0.68752073315E+03  0.72435926140E+03  0.25500000920E-02 0. -1.
       -2    1    3    3    0  502 -0.72251341917E+02  0.21631302467E+03  0.25960493431E+03  0.34555217114E+03  0.25500000920E-02 0.  1.
</event>
<event>
 5   0  0.1984297E-01  0.5022602E+03  0.7818609E-02  0.1013191E+00
        1   -1    0    0  501    0  0.00000000000E+00  0.00000000000E+00  0.88395962801E+03  0.88395962803E+03  0.50400001928E-02 0. -1.
       -1   -1    0    0    0  501  0.00000000000E+00  0.00000000000E+00 -0.71345254303E+02  0.71345254481E+02  0.50400001928E-02 0.  1.
    10030    2    1    2    0    0  0.00000000000E+00  0.00000000000E+00  0.81261437371E+03  0.95530488251E+03  0.50226018973E+03 0.  0.
        3    1    3    3  502    0 -0.23700741463E+03  0.77143593436E+02  0.34790997602E+03  0.42797781509E+03  0.10100000352E+00 0.  1.
       -3    1    3    3    0  502  0.23700741463E+03 -0.77143593436E+02  0.46470439769E+03  0.52732706742E+03  0.10100000352E+00 0. -1.
</event>
<event>
 5   0  0.2013450E-01  0.4896467E+03  0.7818609E-02  0.1016517E+00
        1   -1    0    0  501    0  0.00000000000E+00  0.00000000000E+00  0.81907298807E+03  0.81907298808E+03  0.50400001928E-02 0.  1.
       -1   -1    0    0    0  501  0.00000000000E+00  0.00000000000E+00 -0.73178421955E+02  0.73178422129E+02  0.50400001928E-02 0. -1.
    10030    2    1    2    0    0  0.00000000000E+00  0.00000000000E+00  0.74589456611E+03  0.89225141021E+03  0.48964668412E+03 0.  0.
        4    1    3    3  502    0 -0.14659240798E+03 -0.18919488150E+03  0.27909211175E+03  0.36766568647E+03  0.12699999809E+01 0. -1.
       -4    1    3    3    0  502  0.14659240798E+03  0.18919488150E+03  0.46680245436E+03  0.52458572374E+03  0.12699999809E+01 0.  1.
</event>
<event>
 5   0  0.3117389E-01  0.5004208E+03  0.7818609E-02  0.1013669E+00
        2   -1    0    0  501    0  0.00000000000E+00  0.00000000000E+00  0.93251197903E+02  0.93251197938E+02  0.25500000920E-02 0.  1.
       -2   -1    0    0    0  501  0.00000000000E+00  0.00000000000E+00 -0.67136133701E+03  0.67136133702E+03  0.25500000920E-02 0. -1.
    10030    2    1    2    0    0  0.00000000000E+00  0.00000000000E+00 -0.57811013911E+03  0.76461253496E+03  0.50042081858E+03 0.  0.
        4    1    3    3  502    0  0.15782520595E+03 -0.16586412500E+03 -0.44324776447E+03  0.49888866213E+03  0.12699999809E+01 0. -1.
       -4    1    3    3    0  502 -0.15782520595E+03  0.16586412500E+03 -0.13486237464E+03  0.26572387282E+03  0.12699999809E+01 0.  1.
</event>
<event>
 5   0  0.3329246E-01  0.5055489E+03  0.7818609E-02  0.1012341E+00
        2   -1    0    0  501    0  0.00000000000E+00  0.00000000000E+00  0.26033566058E+03  0.26033566059E+03  0.25500000920E-02 0.  1.
       -2   -1    0    0    0  501  0.00000000000E+00  0.00000000000E+00 -0.24543282523E+03  0.24543282524E+03  0.25500000920E-02 0. -1.
    10030    2    1    2    0    0  0.00000000000E+00  0.00000000000E+00  0.14902835352E+02  0.50576848583E+03  0.50554887672E+03 0.  0.
        2    1    3    3  502    0 -0.13915275510E+03  0.19987759939E+03  0.75159267760E+02  0.25487930384E+03  0.25500000920E-02 0.  1.
       -2    1    3    3    0  502  0.13915275510E+03 -0.19987759939E+03 -0.60256432408E+02  0.25088918199E+03  0.25500000920E-02 0. -1.
</event>
<event>
 5   0  0.3187123E-01  0.4910187E+03  0.7818609E-02  0.1016150E+00
        2   -1    0    0  501    0  0.00000000000E+00  0.00000000000E+00  0.98564875098E+03  0.98564875099E+03  0.25500000920E-02 0. -1.
       -2   -1    0    0    0  501  0.00000000000E+00  0.00000000000E+00 -0.61152463604E+02  0.61152463657E+02  0.25500000920E-02 0.  1.
    10030    2    1    2    0    0  0.00000000000E+00  0.00000000000E+00  0.92449628738E+03  0.10468012146E+04  0.49101873447E+03 0.  0.
        5    1    3    3  502    0  0.23332923723E+03  0.74893633138E+02  0.49248578753E+03  0.55010538095E+03  0.46999998093E+01 0. -1.
       -5    1    3    3    0  502 -0.23332923723E+03 -0.74893633138E+02  0.43201049985E+03  0.49669583370E+03  0.46999998093E+01 0.  1.
</event>
<event>
 5   0  0.3178149E-01  0.4573006E+03  0.7818609E-02  0.1025567E+00
       -2   -1    0    0    0  501  0.00000000000E+00  0.00000000000E+00  0.69575254598E+02  0.69575254645E+02  0.25500000920E-02 0.  1.
        2   -1    0    0  501    0  0.00000000000E+00  0.00000000000E+00 -0.75143035822E+03  0.75143035823E+03  0.25500000920E-02 0. -1.
    10030    2    1    2    0    0  0.00000000000E+00  0.00000000000E+00 -0.68185510362E+03  0.82100561287E+03  0.45730059483E+03 0.  0.
        3    1    3    3  502    0 -0.12943698497E+03  0.16438685051E+03 -0.17536754351E+03  0.27300321466E+03  0.10100000352E+00 0.  1.
       -3    1    3    3    0  502  0.12943698497E+03 -0.16438685051E+03 -0.50648756011E+03  0.54800239821E+03  0.10100000352E+00 0. -1.
</event>
<event>
 5   0  0.3111146E-01  0.4858002E+03  0.7818609E-02  0.1017553E+00
        2   -1    0    0  501    0  0.00000000000E+00  0.00000000000E+00  0.33699864151E+03  0.33699864152E+03  0.25500000920E-02 0.  1.
       -2   -1    0    0    0  501  0.00000000000E+00  0.00000000000E+00 -0.17507625369E+03  0.17507625371E+03  0.25500000920E-02 0. -1.
    10030    2    1    2    0    0  0.00000000000E+00  0.00000000000E+00  0.16192238781E+03  0.51207489523E+03  0.48580020445E+03 0.  0.
        1    1    3    3  502    0 -0.18934078584E+03 -0.11077294907E+03  0.19090932418E+03  0.29080397094E+03  0.50400001928E-02 0.  1.
       -1    1    3    3    0  502  0.18934078584E+03  0.11077294907E+03 -0.28986936361E+02  0.22127092429E+03  0.50400001928E-02 0. -1.
</event>
<event>
 5   0  0.1984297E-01  0.4893476E+03  0.7818609E-02  0.1016597E+00
       -1   -1    0    0    0  501  0.00000000000E+00  0.00000000000E+00  0.32683139962E+03  0.32683139966E+03  0.50400001928E-02 0. -1.
        1   -1    0    0  501    0  0.00000000000E+00  0.00000000000E+00 -0.18316867797E+03  0.18316867804E+03  0.50400001928E-02 0.  1.
    10030    2    1    2    0    0  0.00000000000E+00  0.00000000000E+00  0.14366272165E+03  0.51000007771E+03  0.48934762865E+03 0.  0.
        3    1    3    3  502    0 -0.37033936040E+02  0.17415071677E+03  0.24673940990E+03  0.30427016148E+03  0.10100000352E+00 0. -1.
       -3    1    3    3    0  502  0.37033936040E+02 -0.17415071677E+03 -0.10307668825E+03  0.20572991623E+03  0.10100000352E+00 0.  1.
</event>
<event>
 5   0  0.1967161E-01  0.4886598E+03  0.7818609E-02  0.1016782E+00
       -1   -1    0    0    0  501  0.00000000000E+00  0.00000000000E+00  0.62534815590E+02  0.62534815793E+02  0.50400001928E-02 0.  1.
        1   -1    0    0  501    0  0.00000000000E+00  0.00000000000E+00 -0.95462172049E+03  0.95462172051E+03  0.50400001928E-02 0. -1.
    10030    2    1    2    0    0  0.00000000000E+00  0.00000000000E+00 -0.89208690490E+03  0.10171565363E+04  0.48865977268E+03 0.  0.
        1    1    3    3  502    0 -0.81105604899E+02 -0.13122663250E+03 -0.51659141792E+02  0.16268747703E+03  0.50400001928E-02 0.  1.
       -1    1    3    3    0  502  0.81105604899E+02  0.13122663250E+03 -0.84042776311E+03  0.85446905927E+03  0.50400001928E-02 0. -1.
</event>
<event>
 5   0  0.3187123E-01  0.4985635E+03  0.7818609E-02  0.1014155E+00
       -2   -1    0    0    0  501  0.00000000000E+00  0.00000000000E+00  0.69945019990E+02  0.69945020037E+02  0.25500000920E-02 0.  1.
        2   -1    0    0  501    0  0.00000000000E+00  0.00000000000E+00 -0.88843191956E+03  0.88843191956E+03  0.25500000920E-02 0. -1.
    10030    2    1    2    0    0  0.00000000000E+00  0.00000000000E+00 -0.81848689957E+03  0.95837693960E+03  0.49856349003E+03 0.  0.
        5    1    3    3  502    0 -0.23300167238E+03 -0.81959503050E+01 -0.23988285624E+03  0.33454869249E+03  0.46999998093E+01 0. -1.
       -5    1    3    3    0  502  0.23300167238E+03  0.81959503050E+01 -0.57860404333E+03  0.62382824711E+03  0.46999998093E+01 0.  1.
</event>
<event>
 5   0  0.2000612E-01  0.3576510E+03  0.7818609E-02  0.1059518E+00
        1   -1    0    0  501    0  0.00000000000E+00  0.00000000000E+00  0.86742011925E+03  0.86742011927E+03  0.50400001928E-02 0.  1.
       -1   -1    0    0    0  501  0.00000000000E+00  0.00000000000E+00 -0.36866278689E+02  0.36866279033E+02  0.50400001928E-02 0. -1.
    10030    2    1    2    0    0  0.00000000000E+00  0.00000000000E+00  0.83055384056E+03  0.90428639830E+03  0.35765095844E+03 0.  0.
        2    1    3    3  502    0  0.13020278160E+03 -0.10496171829E+03  0.57536359161E+03  0.59917692645E+03  0.25500000920E-02 0.  1.
       -2    1    3    3    0  502 -0.13020278160E+03  0.10496171829E+03  0.25519024896E+03  0.30510947185E+03  0.25500000920E-02 0. -1.
</event>
<event>
 5   0  0.3111146E-01  0.4840312E+03  0.7818609E-02  0.1018033E+00
        2   -1    0    0  501    0  0.00000000000E+00  0.00000000000E+00  0.27345228838E+03  0.27345228839E+03  0.25500000920E-02 0. -1.
       -2   -1    0    0    0  501  0.00000000000E+00  0.00000000000E+00 -0.21419294660E+03  0.21419294662E+03  0.25500000920E-02 0.  1.
    10030    2    1    2    0    0  0.00000000000E+00  0.00000000000E+00  0.59259341776E+02  0.48764523501E+03  0.48403120316E+03 0.  0.
        1    1    3    3  502    0  0.14251259417E+02 -0.21134058427E+03 -0.88306799869E+02  0.22949081002E+03  0.50400001928E-02 0.  1.
       -1    1    3    3    0  502 -0.14251259417E+02  0.21134058427E+03  0.14756614165E+03  0.25815442499E+03  0.50400001928E-02 0. -1.
</event>
<event>
 5   0  0.1292375E-01  0.4288150E+03  0.7818609E-02  0.1034235E+00
        3   -1    0    0  501    0  0.00000000000E+00  0.00000000000E+00  0.25033584969E+02  0.25033788714E+02  0.10100000352E+00 0.  1.
       -3   -1    0    0    0  501  0.00000000000E+00  0.00000000000E+00 -0.18363483006E+04  0.18363483034E+04  0.10100000352E+00 0. -1.
    10030    2    1    2    0    0  0.00000000000E+00  0.00000000000E+00 -0.18113147156E+04  0.18613820921E+04  0.42881498772E+03 0.  0.
        3    1    3    3  502    0  0.53541615304E+02  0.16753064747E+03 -0.14379507765E+04  0.14486668590E+04  0.10100000352E+00 0. -1.
       -3    1    3    3    0  502 -0.53541615304E+02 -0.16753064747E+03 -0.37336393908E+03  0.41271523308E+03  0.10100000352E+00 0.  1.
</event>
<event>
 5   0  0.3178149E-01  0.4969179E+03  0.7818609E-02  0.1014587E+00
       -2   -1    0    0    0  501  0.00000000000E+00  0.00000000000E+00  0.52536327321E+02  0.52536327383E+02  0.25500000920E-02 0.  1.
        2   -1    0    0  501    0  0.00000000000E+00  0.00000000000E+00 -0.11750318546E+04  0.11750318546E+04  0.25500000920E-02 0. -1.
    10030    2    1    2    0    0  0.00000000000E+00  0.00000000000E+00 -0.11224955273E+04  0.12275681820E+04  0.49691793353E+03 0.  0.
        3    1    3    3  502    0  0.22831341368E+03 -0.41090349423E+02 -0.34144899026E+03  0.41279880672E+03  0.10100000352E+00 0.  1.
       -3    1    3    3    0  502 -0.22831341368E+03  0.41090349423E+02 -0.78104653704E+03  0.81476937529E+03  0.10100000352E+00 0. -1.
</event>
<event>
 5   0  0.1292375E-01  0.4656178E+03  0.7818609E-02  0.1023164E+00
        3   -1    0    0  501    0  0.00000000000E+00  0.00000000000E+00  0.16367319709E+03  0.16367322825E+03  0.10100000352E+00 0. -1.
       -3   -1    0    0    0  501  0.00000000000E+00  0.00000000000E+00 -0.33114747468E+03  0.33114749008E+03  0.10100000352E+00 0.  1.
    10030    2    1    2    0    0  0.00000000000E+00  0.00000000000E+00 -0.16747427759E+03  0.49482071834E+03  0.46561777204E+03 0.  0.
        4    1    3    3  502    0 -0.16003908113E+03  0.16624085927E+03 -0.11648946277E+03  0.25849552920E+03  0.12699999809E+01 0.  1.
       -4    1    3    3    0  502  0.16003908113E+03 -0.16624085927E+03 -0.50984814818E+02  0.23632518914E+03  0.12699999809E+01 0. -1.
</event>
<event>
 5   0  0.1967161E-01  0.4664587E+03  0.7818609E-02  0.1022925E+00
       -1   -1    0    0    0  501  0.00000000000E+00  0.00000000000E+00  0.34524500684E+03  0.34524500688E+03  0.50400001928E-02 0.  1.
        1   -1    0    0  501    0  0.00000000000E+00  0.00000000000E+00 -0.15755745991E+03  0.15755745999E+03  0.50400001928E-02 0. -1.
    10030    2    1    2    0    0  0.00000000000E+00  0.00000000000E+00  0.18768754693E+03  0.50280246687E+03  0.46645868565E+03 0.  0.
        1    1    3    3  502    0 -0.15331604067E+03  0.83971409274E+02 -0.72584653185E+02  0.18927635300E+03  0.50400001928E-02 0. -1.
       -1    1    3    3    0  502  0.15331604067E+03 -0.83971409274E+02  0.26027220012E+03  0.31352611387E+03  0.50400001928E-02 0.  1.
</event>
<event>
 5   0  0.3178149E-01  0.5101098E+03  0.7818609E-02  0.1011173E+00
       -2   -1    0    0    0  501  0.00000000000E+00  0.00000000000E+00  0.12127832144E+03  0.12127832147E+03  0.25500000920E-02 0. -1.
        2   -1    0    0  501    0  0.00000000000E+00  0.00000000000E+00 -0.53639431683E+03  0.53639431683E+03  0.25500000920E-02 0.  1.
    10030    2    1    2    0    0  0.00000000000E+00  0.00000000000E+00 -0.41511599538E+03  0.65767263830E+03  0.51010980146E+03 0.  0.
        3    1    3    3  502    0  0.57015983971E+02 -0.24475067631E+03 -0.26374555722E+03  0.36430131092E+03  0.10100000352E+00 0.  1.
       -3    1    3    3    0  502 -0.57015983971E+02  0.24475067631E+03 -0.15137043816E+03  0.29337132739E+03  0.10100000352E+00 0. -1.
</event>
<event>
 5   0  0.3111146E-01  0.5015349E+03  0.7818609E-02  0.1013379E+00
       -2   -1    0    0    0  501  0.00000000000E+00  0.00000000000E+00  0.16028256944E+03  0.16028256946E+03  0.25500000920E-02 0. -1.
        2   -1    0    0  501    0  0.00000000000E+00  0.00000000000E+00 -0.39233413202E+03  0.39233413203E+03  0.25500000920E-02 0.  1.
    10030    2    1    2    0    0  0.00000000000E+00  0.00000000000E+00 -0.23205156258E+03  0.55261670150E+03  0.50153493505E+03 0.  0.
        1    1    3    3  502    0 -0.14415324313E+03 -0.87353756501E+02 -0.32060683939E+03  0.36221482820E+03  0.50400001928E-02 0.  1.
       -1    1    3    3    0  502  0.14415324313E+03  0.87353756501E+02  0.88555276809E+02  0.19040187330E+03  0.50400001928E-02 0. -1.
</event>
<event>
 5   0  0.2000612E-01  0.4978064E+03  0.7818609E-02  0.1014353E+00
        1   -1    0    0  501    0  0.00000000000E+00  0.00000000000E+00  0.54570257394E+02  0.54570257627E+02  0.50400001928E-02 0. -1.
       -1   -1    0    0    0  501  0.00000000000E+00  0.00000000000E+00 -0.11352851824E+04  0.11352851825E+04  0.50400001928E-02 0.  1.
    10030    2    1    2    0    0  0.00000000000E+00  0.00000000000E+00 -0.10807149250E+04  0.11898554401E+04  0.49780640722E+03 0.  0.
        2    1    3    3  502    0  0.90716470639E+02 -0.63153683635E+02 -0.10734032470E+04  0.10790794208E+04  0.25500000920E-02 0.  1.
       -2    1    3    3    0  502 -0.90716470639E+02  0.63153683635E+02 -0.73116780745E+01  0.11077601927E+03  0.25500000920E-02 0. -1.
</event>
<event>
 5   0  0.3117389E-01  0.5000071E+03  0.7818609E-02  0.1013777E+00
       -2   -1    0    0    0  501  0.00000000000E+00  0.00000000000E+00  0.76933270449E+02  0.76933270491E+02  0.25500000920E-02 0. -1.
        2   -1    0    0  501    0  0.00000000000E+00  0.00000000000E+00 -0.81241530694E+03  0.81241530694E+03  0.25500000920E-02 0.  1.
    10030    2    1    2    0    0  0.00000000000E+00  0.00000000000E+00 -0.73548203649E+03  0.88934857743E+03  0.50000706614E+03 0.  0.
        4    1    3    3  502    0  0.23908707204E+03 -0.18076383333E+02 -0.24183453111E+03  0.34055093156E+03  0.12699999809E+01 0. -1.
       -4    1    3    3    0  502 -0.23908707204E+03  0.18076383333E+02 -0.49364750538E+03  0.54879764587E+03  0.12699999809E+01 0.  1.
</event>
<event>
 5   0  0.3329246E-01  0.5179680E+03  0.7818609E-02  0.1009193E+00
        2   -1    0    0  501    0  0.00000000000E+00  0.00000000000E+00  0.97997493559E+03  0.97997493559E+03  0.25500000920E-02 0.  1.
       -2   -1    0    0    0  501  0.00000000000E+00  0.00000000000E+00 -0.68443300548E+02  0.68443300595E+02  0.25500000920E-02 0. -1.
    10030    2    1    2    0    0  0.00000000000E+00  0.00000000000E+00  0.91153163504E+03  0.10484182362E+04  0.51796802632E+03 0.  0.
        2    1    3    3  502    0 -0.62527913346E+02  0.94250485222E+00  0.96446362209E+03  0.96648885488E+03  0.25500000920E-02 0.  1.
       -2    1    3    3    0  502  0.62527913346E+02 -0.94250485222E+00 -0.52931987047E+02  0.81929381311E+02  0.25500000920E-02 0. -1.
</event>
<event>
 5   0  0.1984297E-01  0.4988536E+03  0.7818609E-02  0.1014079E+00
        1   -1    0    0  501    0  0.00000000000E+00  0.00000000000E+00  0.19028874445E+03  0.19028874452E+03  0.50400001928E-02 0. -1.
       -1   -1    0    0    0  501  0.00000000000E+00  0.00000000000E+00 -0.32694377644E+03  0.32694377648E+03  0.50400001928E-02 0.  1.
    10030    2    1    2    0    0  0.00000000000E+00  0.00000000000E+00 -0.13665503199E+03  0.51723252100E+03  0.49885356870E+03 0.  0.
        3    1    3    3  502    0  0.10628809619E+02 -0.10737433471E+03 -0.30149372939E+03  0.32021976580E+03  0.10100000352E+00 0.  1.
       -3    1    3    3    0  502 -0.10628809619E+02  0.10737433471E+03  0.16483869740E+03  0.19701275520E+03  0.10100000352E+00 0. -1.
</event>
<event>
 5   0  0.2013450E-01  0.4848705E+03  0.7818609E-02  0.1017805E+00
       -1   -1    0    0    0  501  0.00000000000E+00  0.00000000000E+00  0.12256320914E+03  0.12256320924E+03  0.50400001928E-02 0.  1.
        1   -1    0    0  501    0  0.00000000000E+00  0.00000000000E+00 -0.47954733491E+03  0.47954733494E+03  0.50400001928E-02 0. -1.
    10030    2    1    2    0    0  0.00000000000E+00  0.00000000000E+00 -0.35698412577E+03  0.60211054418E+03  0.48487054082E+03 0.  0.
        4    1    3    3  502    0  0.21911464536E+03 -0.20601557060E+02 -0.52233686305E+02  0.22619819373E+03  0.12699999809E+01 0.  1.
       -4    1    3    3    0  502 -0.21911464536E+03  0.20601557060E+02 -0.30475043947E+03  0.37591235045E+03  0.12699999809E+01 0. -1.
</event>
<event>
 5   0  0.1984680E-01  0.5006258E+03  0.7818609E-02  0.1013616E+00
        1   -1    0    0  501    0  0.00000000000E+00  0.00000000000E+00  0.58432778398E+02  0.58432778615E+02  0.50400001928E-02 0. -1.
       -1   -1    0    0    0  501  0.00000000000E+00  0.00000000000E+00 -0.10722841782E+04  0.10722841783E+04  0.50400001928E-02 0.  1.
    10030    2    1    2    0    0  0.00000000000E+00  0.00000000000E+00 -0.10138513999E+04  0.11307169569E+04  0.50062578398E+03 0.  0.
        5    1    3    3  502    0 -0.15153795786E+02  0.11311933752E+03 -0.38652302150E+01  0.11429195969E+03  0.46999998093E+01 0. -1.
       -5    1    3    3    0  502  0.15153795786E+02 -0.11311933752E+03 -0.10099861696E+04  0.10164249972E+04  0.46999998093E+01 0.  1.
</event>
<event>
 5   0  0.2013450E-01  0.4955787E+03  0.7818609E-02  0.1014939E+00
        1   -1    0    0  501    0  0.00000000000E+00  0.00000000000E+00  0.10727600172E+03  0.10727600183E+03  0.50400001928E-02 0. -1.
       -1   -1    0    0    0  501  0.00000000000E+00  0.00000000000E+00 -0.57235125817E+03  0.57235125820E+03  0.50400001928E-02 0.  1.
    10030    2    1    2    0    0  0.00000000000E+00  0.00000000000E+00 -0.46507525646E+03  0.67962726003E+03  0.49557867025E+03 0.  0.
        4    1    3    3  502    0  0.76223964463E+02  0.23560439375E+03 -0.24468179436E+03  0.34812399587E+03  0.12699999809E+01 0. -1.
       -4    1    3    3    0  502 -0.76223964463E+02 -0.23560439375E+03 -0.22039346210E+03  0.33150326416E+03  0.12699999809E+01 0.  1.
</event>
<event>
 5   0  0.1967161E-01  0.5021216E+03  0.7818609E-02  0.1013227E+00
        1   -1    0    0  501    0  0.00000000000E+00  0.00000000000E+00  0.38776957077E+03  0.38776957081E+03  0.50400001928E-02 0.  1.
       -1   -1    0    0    0  501  0.00000000000E+00  0.00000000000E+00 -0.16254894848E+03  0.16254894856E+03  0.50400001928E-02 0. -1.
    10030    2    1    2    0    0  0.00000000000E+00  0.00000000000E+00  0.22522062230E+03  0.55031851936E+03  0.50212164268E+03 0.  0.
        1    1    3    3  502    0 -0.81711384885E+02  0.13069814691E+03  0.32980590426E+03  0.36404764871E+03  0.50400001928E-02 0.  1.
       -1    1    3    3    0  502  0.81711384885E+02 -0.13069814691E+03 -0.10458528196E+03  0.18627087065E+03  0.50400001928E-02 0. -1.
</event>
<event>
 5   0  0.3187123E-01  0.4894628E+03  0.7818609E-02  0.1016566E+00
       -2   -1    0    0    0  501  0.00000000000E+00  0.00000000000E+00  0.50172146718E+02  0.50172146783E+02  0.25500000920E-02 0. -1.
        2   -1    0    0  501    0  0.00000000000E+00  0.00000000000E+00 -0.11937592383E+04  0.11937592383E+04  0.25500000920E-02 0.  1.
    10030    2    1    2    0    0  0.00000000000E+00  0.00000000000E+00 -0.11435870916E+04  0.12439313851E+04  0.48946282266E+03 0.  0.
        5    1    3    3  502    0  0.16937266221E+03 -0.63177941573E+01 -0.12328943938E+03  0.20964109590E+03  0.46999998093E+01 0. -1.
       -5    1    3    3    0  502 -0.16937266221E+03  0.63177941573E+01 -0.10202976522E+04  0.10342902892E+04  0.46999998093E+01 0.  1.
</event>
<event>
 5   0  0.2013450E-01  0.5297016E+03  0.7818609E-02  0.1006305E+00
       -1   -1    0    0    0  501  0.00000000000E+00  0.00000000000E+00  0.11122009444E+03  0.11122009455E+03  0.50400001928E-02 0.  1.
        1   -1    0    0  501    0  0.00000000000E+00  0.00000000000E+00 -0.63069486857E+03  0.63069486859E+03  0.50400001928E-02 0. -1.
    10030    2    1    2    0    0  0.00000000000E+00  0.00000000000E+00 -0.51947477414E+03  0.74191496314E+03  0.52970158728E+03 0.  0.
        4    1    3    3  502    0 -0.59623353074E+02  0.10230567506E+03 -0.59155011552E+03  0.60328645555E+03  0.12699999809E+01 0. -1.
       -4    1    3    3    0  502  0.59623353074E+02 -0.10230567506E+03  0.72075341382E+02  0.13862850759E+03  0.12699999809E+01 0.  1.
</event>
<event>
 5   0  0.1292375E-01  0.4222652E+03  0.7818609E-02  0.1036332E+00
       -4   -1    0    0    0  501  0.00000000000E+00  0.00000000000E+00  0.32658838415E+03  0.32659085345E+03  0.12699999809E+01 0. -1.
        4   -1    0    0  501    0  0.00000000000E+00  0.00000000000E+00 -0.13648686984E+03  0.13649277834E+03  0.12699999809E+01 0.  1.
    10030    2    1    2    0    0  0.00000000000E+00  0.00000000000E+00  0.19010151431E+03  0.46308363179E+03  0.42226515875E+03 0.  0.
        2    1    3    3  502    0 -0.51260198258E+02  0.19638889522E+03  0.31285905933E+02  0.20536556188E+03  0.25500000920E-02 0. -1.
       -2    1    3    3    0  502  0.51260198258E+02 -0.19638889522E+03  0.15881560838E+03  0.25771806991E+03  0.25500000920E-02 0.  1.
</event>
<event>
 5   0  0.3178149E-01  0.5132026E+03  0.7818609E-02  0.1010389E+00
        2   -1    0    0  501    0  0.00000000000E+00  0.00000000000E+00  0.72727048521E+03  0.72727048521E+03  0.25500000920E-02 0. -1.
       -2   -1    0    0    0  501  0.00000000000E+00  0.00000000000E+00 -0.90536107818E+02  0.90536107854E+02  0.25500000920E-02 0.  1.
    10030    2    1    2    0    0  0.00000000000E+00  0.00000000000E+00  0.63673437739E+03  0.81780659306E+03  0.51320264644E+03 0.  0.
        3    1    3    3  502    0 -0.50052616956E+02 -0.91308534212E+02  0.69209020024E+03  0.69987953846E+03  0.10100000352E+00 0. -1.
       -3    1    3    3    0  502  0.50052616956E+02  0.91308534212E+02 -0.55355822850E+02  0.11792705461E+03  0.10100000352E+00 0.  1.
</event>
<event>
 5   0  0.3178149E-01  0.4797991E+03  0.7818609E-02  0.1019190E+00
        2   -1    0    0  501    0  0.00000000000E+00  0.00000000000E+00  0.96706225653E+03  0.96706225653E+03  0.25500000920E-02 0.  1.
       -2   -1    0    0    0  501  0.00000000000E+00  0.00000000000E+00 -0.59511995161E+02  0.59511995216E+02  0.25500000920E-02 0. -1.
    10030    2    1    2    0    0  0.00000000000E+00  0.00000000000E+00  0.90755026137E+03  0.10265742517E+04  0.47979914281E+03 0.  0.
        3    1    3    3  502    0 -0.14675280529E+03 -0.66030418367E+02  0.73099787050E+02  0.17674838352E+03  0.10100000352E+00 0. -1.
       -3    1    3    3    0  502  0.14675280529E+03  0.66030418367E+02  0.83445047432E+03  0.84982586822E+03  0.10100000352E+00 0.  1.
</event>
<event>
 5   0  0.1984680E-01  0.4878329E+03  0.7818609E-02  0.1017004E+00
       -1   -1    0    0    0  501  0.00000000000E+00  0.00000000000E+00  0.33767345455E+03  0.33767345458E+03  0.50400001928E-02 0.  1.
        1   -1    0    0  501    0  0.00000000000E+00  0.00000000000E+00 -0.17619160789E+03  0.17619160796E+03  0.50400001928E-02 0. -1.
    10030    2    1    2    0    0  0.00000000000E+00  0.00000000000E+00  0.16148184666E+03  0.51386506254E+03  0.48783287681E+03 0.  0.
        5    1    3    3  502    0  0.20663604763E+03 -0.62349906345E+02  0.20032045185E+03  0.29451034011E+03  0.46999998093E+01 0.  1.
       -5    1    3    3    0  502 -0.20663604763E+03  0.62349906345E+02 -0.38838605195E+02  0.21935472243E+03  0.46999998093E+01 0. -1.
</event>
<event>
 5   0  0.3187123E-01  0.5025042E+03  0.7818609E-02  0.1013127E+00
       -2   -1    0    0    0  501  0.00000000000E+00  0.00000000000E+00  0.30275102305E+03  0.30275102306E+03  0.25500000920E-02 0. -1.
        2   -1    0    0  501    0  0.00000000000E+00  0.00000000000E+00 -0.20851330407E+03  0.20851330409E+03  0.25500000920E-02 0.  1.
    10030    2    1    2    0    0  0.00000000000E+00  0.00000000000E+00  0.94237718982E+02  0.51126432715E+03  0.50250419355E+03 0.  0.
        5    1    3    3  502    0  0.17908150229E+02  0.19178685363E+03  0.21118328217E+03  0.28587299232E+03  0.46999998093E+01 0. -1.
       -5    1    3    3    0  502 -0.17908150229E+02 -0.19178685363E+03 -0.11694556318E+03  0.22539133483E+03  0.46999998093E+01 0.  1.
</event>
<event>
 5   0  0.3178149E-01  0.4895080E+03  0.7818609E-02  0.1016554E+00
        2   -1    0    0  501    0  0.00000000000E+00  0.00000000000E+00  0.10299303307E+03  0.10299303310E+03  0.25500000920E-02 0. -1.
       -2   -1    0    0    0  501  0.00000000000E+00  0.00000000000E+00 -0.58163662664E+03  0.58163662665E+03  0.25500000920E-02 0.  1.
    10030    2    1    2    0    0  0.00000000000E+00  0.00000000000E+00 -0.47864359357E+03  0.68462965975E+03  0.48950799927E+03 0.  0.
        3    1    3    3  502    0 -0.60207896503E+02  0.52388748500E+02  0.84282716586E+02  0.11607393457E+03  0.10100000352E+00 0. -1.
       -3    1    3    3    0  502  0.60207896503E+02 -0.52388748500E+02 -0.56292631016E+03  0.56855572518E+03  0.10100000352E+00 0.  1.
</event>
<event>
 5   0  0.1967161E-01  0.4981796E+03  0.7818609E-02  0.1014255E+00
        1   -1    0    0  501    0  0.00000000000E+00  0.00000000000E+00  0.76927923169E+02  0.76927923334E+02  0.50400001928E-02 0. -1.
       -1   -1    0    0    0  501  0.00000000000E+00  0.00000000000E+00 -0.80654351063E+03  0.80654351065E+03  0.50400001928E-02 0.  1.
    10030    2    1    2    0    0  0.00000000000E+00  0.00000000000E+00 -0.72961558746E+03  0.88347143398E+03  0.49817955517E+03 0.  0.
        1    1    3    3  502    0  0.97545590938E+02  0.19343392513E+03 -0.58282700403E+03  0.62178705547E+03  0.50400001928E-02 0.  1.
       -1    1    3    3    0  502 -0.97545590938E+02 -0.19343392513E+03 -0.14678858343E+03  0.26168437851E+03  0.50400001928E-02 0. -1.
</event>
<event>
 5   0  0.1984297E-01  0.4419830E+03  0.7818609E-02  0.1030140E+00
        1   -1    0    0  501    0  0.00000000000E+00  0.00000000000E+00  0.23910000727E+03  0.23910000732E+03  0.50400001928E-02 0.  1.
       -1   -1    0    0    0  501  0.00000000000E+00  0.00000000000E+00 -0.20425447517E+03  0.20425447523E+03  0.50400001928E-02 0. -1.
    10030    2    1    2    0    0  0.00000000000E+00  0.00000000000E+00  0.34845532099E+02  0.44335448255E+03  0.44198301562E+03 0.  0.
        3    1    3    3  502    0 -0.17932953967E+03  0.10988258210E+03 -0.50640345206E+02  0.21632780776E+03  0.10100000352E+00 0.  1.
       -3    1    3    3    0  502  0.17932953967E+03 -0.10988258210E+03  0.85485877305E+02  0.22702667479E+03  0.10100000352E+00 0. -1.
</event>
<event>
 5   0  0.2000612E-01  0.4959805E+03  0.7818609E-02  0.1014833E+00
        1   -1    0    0  501    0  0.00000000000E+00  0.00000000000E+00  0.35809451100E+03  0.35809451103E+03  0.50400001928E-02 0. -1.
       -1   -1    0    0    0  501  0.00000000000E+00  0.00000000000E+00 -0.17174005765E+03  0.17174005772E+03  0.50400001928E-02 0.  1.
    10030    2    1    2    0    0  0.00000000000E+00  0.00000000000E+00  0.18635445335E+03  0.52983456875E+03  0.49598053184E+03 0.  0.
        2    1    3    3  502    0 -0.18831335699E+03  0.15800349676E+03  0.58198601018E+02  0.25261453358E+03  0.25500000920E-02 0.  1.
       -2    1    3    3    0  502  0.18831335699E+03 -0.15800349676E+03  0.12815585233E+03  0.27722003517E+03  0.25500000920E-02 0. -1.
</event>
<event>
 5   0  0.1292375E-01  0.5051093E+03  0.7818609E-02  0.1012454E+00
        3   -1    0    0  501    0  0.00000000000E+00  0.00000000000E+00  0.12304708525E+03  0.12304712670E+03  0.10100000352E+00 0.  1.
       -3   -1    0    0    0  501  0.00000000000E+00  0.00000000000E+00 -0.51836928858E+03  0.51836929842E+03  0.10100000352E+00 0. -1.
    10030    2    1    2    0    0  0.00000000000E+00  0.00000000000E+00 -0.39532220334E+03  0.64141642513E+03  0.50510928122E+03 0.  0.
        4    1    3    3  502    0  0.94721044306E+02 -0.22074542464E+03 -0.29669051015E+03  0.38174270189E+03  0.12699999809E+01 0. -1.
       -4    1    3    3    0  502 -0.94721044306E+02  0.22074542464E+03 -0.98631693184E+02  0.25967372323E+03  0.12699999809E+01 0.  1.
</event>
<event>
 5   0  0.3111146E-01  0.5018247E+03  0.7818609E-02  0.1013304E+00
       -2   -1    0    0    0  501  0.00000000000E+00  0.00000000000E+00  0.26706659333E+03  0.26706659334E+03  0.25500000920E-02 0. -1.
        2   -1    0    0  501    0  0.00000000000E+00  0.00000000000E+00 -0.23573519997E+03  0.23573519999E+03  0.25500000920E-02 0.  1.
    10030    2    1    2    0    0  0.00000000000E+00  0.00000000000E+00  0.31331393358E+02  0.50280179333E+03  0.50182465779E+03 0.  0.
        1    1    3    3  502    0  0.69166182782E+02 -0.69623303474E+01  0.25722549986E+03  0.26645335931E+03  0.50400001928E-02 0. -1.
       -1    1    3    3    0  502 -0.69166182782E+02  0.69623303474E+01 -0.22589410650E+03  0.23634843402E+03  0.50400001928E-02 0.  1.
</event>
<event>
 5   0  0.3187123E-01  0.4926292E+03  0.7818609E-02  0.1015721E+00
        2   -1    0    0  501    0  0.00000000000E+00  0.00000000000E+00  0.21383182412E+03  0.21383182414E+03  0.25500000920E-02 0. -1.
       -2   -1    0    0    0  501  0.00000000000E+00  0.00000000000E+00 -0.28373180329E+03  0.28373180330E+03  0.25500000920E-02 0.  1.
    10030    2    1    2    0    0  0.00000000000E+00  0.00000000000E+00 -0.69899979171E+02  0.49756362744E+03  0.49262922798E+03 0.  0.
        5    1    3    3  502    0  0.20186992725E+03  0.43967160619E+02 -0.17032317137E+03  0.26779964795E+03  0.46999998093E+01 0.  1.
       -5    1    3    3    0  502 -0.20186992725E+03 -0.43967160619E+02  0.10042319219E+03  0.22976397949E+03  0.46999998093E+01 0. -1.
</event>
<event>
 5   0  0.3329246E-01  0.4688712E+03  0.7818609E-02  0.1022239E+00
       -2   -1    0    0    0  501  0.00000000000E+00  0.00000000000E+00  0.84466244866E+02  0.84466244905E+02  0.25500000920E-02 0. -1.
        2   -1    0    0  501    0  0.00000000000E+00  0.00000000000E+00 -0.65067477169E+03  0.65067477170E+03  0.25500000920E-02 0.  1.
    10030    2    1    2    0    0  0.00000000000E+00  0.00000000000E+00 -0.56620852683E+03  0.73514101660E+03  0.46887121733E+03 0.  0.
        2    1    3    3  502    0 -0.22102740451E+03 -0.17773990065E+02 -0.40241921000E+03  0.45946735341E+03  0.25500000920E-02 0.  1.
       -2    1    3    3    0  502  0.22102740451E+03  0.17773990065E+02 -0.16378931683E+03  0.27567366319E+03  0.25500000920E-02 0. -1.
</event>
<event>
 5   0  0.3178149E-01  0.4865877E+03  0.7818609E-02  0.1017340E+00
       -2   -1    0    0    0  501  0.00000000000E+00  0.00000000000E+00  0.97524101157E+02  0.97524101191E+02  0.25500000920E-02 0.  1.
        2   -1    0    0  501    0  0.00000000000E+00  0.00000000000E+00 -0.60694641104E+03  0.60694641105E+03  0.25500000920E-02 0. -1.
    10030    2    1    2    0    0  0.00000000000E+00  0.00000000000E+00 -0.50942230988E+03  0.70447051224E+03  0.48658772365E+03 0.  0.
        3    1    3    3  502    0 -0.35345663021E+02 -0.23209660358E+03 -0.34711680423E+03  0.41905636288E+03  0.10100000352E+00 0. -1.
       -3    1    3    3    0  502  0.35345663021E+02  0.23209660358E+03 -0.16230550565E+03  0.28541414936E+03  0.10100000352E+00 0.  1.
</event>
<event>
 5   0  0.2000612E-01  0.5017808E+03  0.7818609E-02  0.1013315E+00
       -1   -1    0    0    0  501  0.00000000000E+00  0.00000000000E+00  0.76735286061E+03  0.76735286063E+03  0.50400001928E-02 0. -1.
        1   -1    0    0  501    0  0.00000000000E+00  0.00000000000E+00 -0.82030048821E+02  0.82030048975E+02  0.50400001928E-02 0.  1.
    10030    2    1    2    0    0  0.00000000000E+00  0.00000000000E+00  0.68532281179E+03  0.84938290961E+03  0.50178079952E+03 0.  0.
        2    1    3    3  502    0 -0.41060259585E+02 -0.16040494713E+03  0.23589239766E+02  0.16724874953E+03  0.25500000920E-02 0.  1.
       -2    1    3    3    0  502  0.41060259585E+02  0.16040494713E+03  0.66173357203E+03  0.68213416007E+03  0.25500000920E-02 0. -1.
</event>
<event>
 5   0  0.1967161E-01  0.5689917E+03  0.7818609E-02  0.9971912E-01
       -1   -1    0    0    0  501  0.00000000000E+00  0.00000000000E+00  0.92922639397E+02  0.92922639534E+02  0.50400001928E-02 0. -1.
        1   -1    0    0  501    0  0.00000000000E+00  0.00000000000E+00 -0.87102441282E+03  0.87102441283E+03  0.50400001928E-02 0.  1.
    10030    2    1    2    0    0  0.00000000000E+00  0.00000000000E+00 -0.77810177342E+03  0.96394705236E+03  0.56899169587E+03 0.  0.
        1    1    3    3  502    0 -0.26123236782E+03  0.77157689221E+02 -0.24994388697E+03  0.36968582020E+03  0.50400001928E-02 0.  1.
       -1    1    3    3    0  502  0.26123236782E+03 -0.77157689221E+02 -0.52815788645E+03  0.59426123216E+03  0.50400001928E-02 0. -1.
</event>
<event>
 5   0  0.3178149E-01  0.5091505E+03  0.7818609E-02  0.1011418E+00
        2   -1    0    0  501    0  0.00000000000E+00  0.00000000000E+00  0.21519593577E+04  0.21519593577E+04  0.25500000920E-02 0. -1.
       -2   -1    0    0    0  501  0.00000000000E+00  0.00000000000E+00 -0.30116073490E+02  0.30116073598E+02  0.25500000920E-02 0.  1.
    10030    2    1    2    0    0  0.00000000000E+00  0.00000000000E+00  0.21218432842E+04  0.21820754313E+04  0.50915053288E+03 0.  0.
        3    1    3    3  502    0  0.13308130381E+03 -0.10167679061E+03  0.18826151366E+04  0.18900498845E+04  0.10100000352E+00 0. -1.
       -3    1    3    3    0  502 -0.13308130381E+03  0.10167679061E+03  0.23922814764E+03  0.29202554682E+03  0.10100000352E+00 0.  1.
</event>
<event>
 5   0  0.3187123E-01  0.5046065E+03  0.7818609E-02  0.1012583E+00
       -2   -1    0    0    0  501  0.00000000000E+00  0.00000000000E+00  0.33927752467E+02  0.33927752563E+02  0.25500000920E-02 0.  1.
        2   -1    0    0  501    0  0.00000000000E+00  0.00000000000E+00 -0.18762497962E+04  0.18762497962E+04  0.25500000920E-02 0. -1.
    10030    2    1    2    0    0  0.00000000000E+00  0.00000000000E+00 -0.18423220437E+04  0.19101775487E+04  0.50460653481E+03 0.  0.
        5    1    3    3  502    0 -0.23620150254E+03  0.66469873640E+02 -0.69960682098E+03  0.74140487445E+03  0.46999998093E+01 0.  1.
       -5    1    3    3    0  502  0.23620150254E+03 -0.66469873640E+02 -0.11427152227E+04  0.11687726743E+04  0.46999998093E+01 0. -1.
</event>
<event>
 5   0  0.1984297E-01  0.3950388E+03  0.7818609E-02  0.1045511E+00
        1   -1    0    0  501    0  0.00000000000E+00  0.00000000000E+00  0.32776191867E+03  0.32776191871E+03  0.50400001928E-02 0. -1.
       -1   -1    0    0    0  501  0.00000000000E+00  0.00000000000E+00 -0.11903122989E+03  0.11903123000E+03  0.50400001928E-02 0.  1.
    10030    2    1    2    0    0  0.00000000000E+00  0.00000000000E+00  0.20873068878E+03  0.44679314871E+03  0.39503875417E+03 0.  0.
        3    1    3    3  502    0  0.71769345284E+02 -0.94802513517E+02 -0.74017485178E+02  0.14006053621E+03  0.10100000352E+00 0.  1.
       -3    1    3    3    0  502 -0.71769345284E+02  0.94802513517E+02  0.28274817395E+03  0.30673261249E+03  0.10100000352E+00 0. -1.
</event>
<event>
 5   0  0.2000612E-01  0.4937657E+03  0.7818609E-02  0.1015419E+00
        1   -1    0    0  501    0  0.00000000000E+00  0.00000000000E+00  0.68688805859E+03  0.68688805860E+03  0.50400001928E-02 0. -1.
       -1   -1    0    0    0  501  0.00000000000E+00  0.00000000000E+00 -0.88735197093E+02  0.88735197236E+02  0.50400001928E-02 0.  1.
    10030    2    1    2    0    0  0.00000000000E+00  0.00000000000E+00  0.59815286149E+03  0.77562325584E+03  0.49376572308E+03 0.  0.
        2    1    3    3  502    0  0.90450988075E+02  0.12084867112E+03 -0.78007479471E+01  0.15115103119E+03  0.25500000920E-02 0.  1.
       -2    1    3    3    0  502 -0.90450988075E+02 -0.12084867112E+03  0.60595360944E+03  0.62447222465E+03  0.25500000920E-02 0. -1.
</event>
<event>
 5   0  0.2000612E-01  0.5019418E+03  0.7818609E-02  0.1013273E+00
        1   -1    0    0  501    0  0.00000000000E+00  0.00000000000E+00  0.54706280728E+03  0.54706280730E+03  0.50400001928E-02 0.  1.
       -1   -1    0    0    0  501  0.00000000000E+00  0.00000000000E+00 -0.11513559885E+03  0.11513559896E+03  0.50400001928E-02 0. -1.
    10030    2    1    2    0    0  0.00000000000E+00  0.00000000000E+00  0.43192720843E+03  0.66219840626E+03  0.50194184512E+03 0.  0.
        2    1    3    3  502    0  0.24385641141E+03 -0.49836870970E+02  0.25844216932E+03  0.35880637952E+03  0.25500000920E-02 0. -1.
       -2    1    3    3    0  502 -0.24385641141E+03  0.49836870970E+02  0.17348503910E+03  0.30339202674E+03  0.25500000920E-02 0.  1.
</event>
<event>
 5   0  0.3117389E-01  0.5017301E+03  0.7818609E-02  0.1013328E+00
       -2   -1    0    0    0  501  0.00000000000E+00  0.00000000000E+00  0.53120729324E+02  0.53120729385E+02  0.25500000920E-02 0. -1.
        2   -1    0    0  501    0  0.00000000000E+00  0.00000000000E+00 -0.11847217667E+04  0.11847217667E+04  0.25500000920E-02 0.  1.
    10030    2    1    2    0    0  0.00000000000E+00  0.00000000000E+00 -0.11316010374E+04  0.12378424961E+04  0.50173014393E+03 0.  0.
        4    1    3    3  502    0 -0.10961505923E+02 -0.15756059838E+03 -0.84952341052E+02  0.17934327399E+03  0.12699999809E+01 0. -1.
       -4    1    3    3    0  502  0.10961505923E+02  0.15756059838E+03 -0.10466486963E+04  0.10584992221E+04  0.12699999809E+01 0.  1.
</event>
<event>
 5   0  0.1292375E-01  0.4951125E+03  0.7818609E-02  0.1015063E+00
        3   -1    0    0  501    0  0.00000000000E+00  0.00000000000E+00  0.47560885042E+02  0.47560992283E+02  0.10100000352E+00 0. -1.
       -3   -1    0    0    0  501  0.00000000000E+00  0.00000000000E+00 -0.12885385552E+04  0.12885385591E+04  0.10100000352E+00 0.  1.
    10030    2    1    2    0    0  0.00000000000E+00  0.00000000000E+00 -0.12409776701E+04  0.13360995514E+04  0.49511254632E+03 0.  0.
        3    1    3    3  502    0  0.19049756865E+03 -0.11006714923E+03 -0.92675059262E+03  0.95250762313E+03  0.10100000352E+00 0.  1.
       -3    1    3    3    0  502 -0.19049756865E+03  0.11006714923E+03 -0.31422707749E+03  0.38359192827E+03  0.10100000352E+00 0. -1.
</event>
<event>
 5   0  0.1984680E-01  0.4961209E+03  0.7818609E-02  0.1014796E+00
        1   -1    0    0  501    0  0.00000000000E+00  0.00000000000E+00  0.15670331885E+04  0.15670331885E+04  0.50400001928E-02 0.  1.
       -1   -1    0    0    0  501  0.00000000000E+00  0.00000000000E+00 -0.39267825484E+02  0.39267825807E+02  0.50400001928E-02 0. -1.
    10030    2    1    2    0    0  0.00000000000E+00  0.00000000000E+00  0.15277653630E+04  0.16063010143E+04  0.49612089671E+03 0.  0.
        5    1    3    3  502    0 -0.26800571340E+02 -0.12683194739E+03  0.79295835721E+02  0.15203464428E+03  0.46999998093E+01 0. -1.
       -5    1    3    3    0  502  0.26800571340E+02  0.12683194739E+03  0.14484695273E+04  0.14542663700E+04  0.46999998093E+01 0.  1.
</event>
<event>
 5   0  0.3187123E-01  0.4979421E+03  0.7818609E-02  0.1014317E+00
        2   -1    0    0  501    0  0.00000000000E+00  0.00000000000E+00  0.76880444841E+03  0.76880444841E+03  0.25500000920E-02 0.  1.
       -2   -1    0    0    0  501  0.00000000000E+00  0.00000000000E+00 -0.80627258205E+02  0.80627258245E+02  0.25500000920E-02 0. -1.
    10030    2    1    2    0    0  0.00000000000E+00  0.00000000000E+00  0.68817719021E+03  0.84943170666E+03  0.49794214439E+03 0.  0.
        5    1    3    3  502    0 -0.18681568556E+03  0.11996105900E+03  0.53613320797E+03  0.58030307835E+03  0.46999998093E+01 0.  1.
       -5    1    3    3    0  502  0.18681568556E+03 -0.11996105900E+03  0.15204398223E+03  0.26912862831E+03  0.46999998093E+01 0. -1.
</event>
<event>
 5   0  0.1292375E-01  0.5007749E+03  0.7818609E-02  0.1013577E+00
       -4   -1    0    0    0  501  0.00000000000E+00  0.00000000000E+00  0.84849155587E+03  0.84849250632E+03  0.12699999809E+01 0.  1.
        4   -1    0    0  501    0  0.00000000000E+00  0.00000000000E+00 -0.73882169721E+02  0.73893084268E+02  0.12699999809E+01 0. -1.
    10030    2    1    2    0    0  0.00000000000E+00  0.00000000000E+00  0.77460938615E+03  0.92238559059E+03  0.50077487618E+03 0.  0.
        5    1    3    3  502    0 -0.28196817642E+02 -0.16444716501E+03  0.73107685648E+03  0.74988891890E+03  0.46999998093E+01 0.  1.
       -5    1    3    3    0  502  0.28196817642E+02  0.16444716501E+03  0.43532529668E+02  0.17249667169E+03  0.46999998093E+01 0. -1.
</event>
<event>
 5   0  0.1292375E-01  0.5736458E+03  0.7818609E-02  0.9961643E-01
       -3   -1    0    0    0  501  0.00000000000E+00  0.00000000000E+00  0.42068232537E+03  0.42068233750E+03  0.10100000352E+00 0. -1.
        3   -1    0    0  501    0  0.00000000000E+00  0.00000000000E+00 -0.19555697060E+03  0.19555699668E+03  0.10100000352E+00 0.  1.
    10030    2    1    2    0    0  0.00000000000E+00  0.00000000000E+00  0.22512535477E+03  0.61623933418E+03  0.57364578934E+03 0.  0.
        5    1    3    3  502    0  0.18020091653E+03  0.22197101262E+03  0.88498932813E+02  0.29932866863E+03  0.46999998093E+01 0. -1.
       -5    1    3    3    0  502 -0.18020091653E+03 -0.22197101262E+03  0.13662642196E+03  0.31691066554E+03  0.46999998093E+01 0.  1.
</event>
<event>
 5   0  0.1292375E-01  0.4710422E+03  0.7818609E-02  0.1021626E+00
       -3   -1    0    0    0  501  0.00000000000E+00  0.00000000000E+00  0.64671791595E+02  0.64671870462E+02  0.10100000352E+00 0.  1.
        3   -1    0    0  501    0  0.00000000000E+00  0.00000000000E+00 -0.85771796662E+03  0.85771797257E+03  0.10100000352E+00 0. -1.
    10030    2    1    2    0    0  0.00000000000E+00  0.00000000000E+00 -0.79304617502E+03  0.92238984303E+03  0.47104223463E+03 0.  0.
        1    1    3    3  502    0  0.10987693459E+03 -0.19693297433E+03 -0.26350077419E+03  0.34682588594E+03  0.50400001928E-02 0.  1.
       -1    1    3    3    0  502 -0.10987693459E+03  0.19693297433E+03 -0.52954540083E+03  0.57556395709E+03  0.50400001928E-02 0. -1.
</event>
<event>
 5   0  0.3111146E-01  0.4998655E+03  0.7818609E-02  0.1013814E+00
       -2   -1    0    0    0  501  0.00000000000E+00  0.00000000000E+00  0.67598711167E+02  0.67598711215E+02  0.25500000920E-02 0.  1.
        2   -1    0    0  501    0  0.00000000000E+00  0.00000000000E+00 -0.92407657036E+03  0.92407657036E+03  0.25500000920E-02 0. -1.
    10030    2    1    2    0    0  0.00000000000E+00  0.00000000000E+00 -0.85647785919E+03  0.99167528157E+03  0.49986552272E+03 0.  0.
        1    1    3    3  502    0 -0.19128676726E+03  0.27014330135E+02 -0.74283306392E+03  0.76754241723E+03  0.50400001928E-02 0. -1.
       -1    1    3    3    0  502  0.19128676726E+03 -0.27014330135E+02 -0.11364479527E+03  0.22413286435E+03  0.50400001928E-02 0.  1.
</event>
<event>
 5   0  0.1984297E-01  0.5285777E+03  0.7818609E-02  0.1006578E+00
        1   -1    0    0  501    0  0.00000000000E+00  0.00000000000E+00  0.48272550642E+03  0.48272550645E+03  0.50400001928E-02 0.  1.
       -1   -1    0    0    0  501  0.00000000000E+00  0.00000000000E+00 -0.14469629213E+03  0.14469629221E+03  0.50400001928E-02 0. -1.
    10030    2    1    2    0    0  0.00000000000E+00  0.00000000000E+00  0.33802921429E+03  0.62742179866E+03  0.52857767993E+03 0.  0.
        3    1    3    3  502    0  0.41538250367E+02  0.19431544018E+03 -0.37825628715E+02  0.20227383648E+03  0.10100000352E+00 0. -1.
       -3    1    3    3    0  502 -0.41538250367E+02 -0.19431544018E+03  0.37585484301E+03  0.42514796218E+03  0.10100000352E+00 0.  1.
</event>
<event>
 5   0  0.1292375E-01  0.4964201E+03  0.7818609E-02  0.1014718E+00
        4   -1    0    0  501    0  0.00000000000E+00  0.00000000000E+00  0.22915890635E+03  0.22916242550E+03  0.12699999809E+01 0. -1.
       -4   -1    0    0    0  501  0.00000000000E+00  0.00000000000E+00 -0.26883791614E+03  0.26884091588E+03  0.12699999809E+01 0.  1.
    10030    2    1    2    0    0  0.00000000000E+00  0.00000000000E+00 -0.39679009787E+02  0.49800334138E+03  0.49642008844E+03 0.  0.
        4    1    3    3  502    0  0.17131178541E+03 -0.12986700018E+03 -0.14430554076E+03  0.25891865045E+03  0.12699999809E+01 0.  1.
       -4    1    3    3    0  502 -0.17131178541E+03  0.12986700018E+03  0.10462653097E+03  0.23908469093E+03  0.12699999809E+01 0. -1.
</event>
<event>
 5   0  0.3329246E-01  0.5511472E+03  0.7818609E-02  0.1001229E+00
       -2   -1    0    0    0  501  0.00000000000E+00  0.00000000000E+00  0.64480940402E+03  0.64480940402E+03  0.25500000920E-02 0.  1.
        2   -1    0    0  501    0  0.00000000000E+00  0.00000000000E+00 -0.11777250703E+03  0.11777250705E+03  0.25500000920E-02 0. -1.
    10030    2    1    2    0    0  0.00000000000E+00  0.00000000000E+00  0.52703689699E+03  0.76258191108E+03  0.55114724014E+03 0.  0.
        2    1    3    3  502    0  0.75419483558E+02 -0.26505170474E+03  0.26274141166E+03  0.38075392853E+03  0.25500000920E-02 0.  1.
       -2    1    3    3    0  502 -0.75419483558E+02  0.26505170474E+03  0.26429548533E+03  0.38182798255E+03  0.25500000920E-02 0. -1.
</event>
<event>
 5   0  0.3329246E-01  0.5003406E+03  0.7818609E-02  0.1013690E+00
        2   -1    0    0  501    0  0.00000000000E+00  0.00000000000E+00  0.18768731318E+03  0.18768731320E+03  0.25500000920E-02 0.  1.
       -2   -1    0    0    0  501  0.00000000000E+00  0.00000000000E+00 -0.33345449718E+03  0.33345449719E+03  0.25500000920E-02 0. -1.
    10030    2    1    2    0    0  0.00000000000E+00  0.00000000000E+00 -0.14576718400E+03  0.52114181039E+03  0.50034059860E+03 0.  0.
        2    1    3    3  502    0  0.13313177663E+03  0.17593047165E+02  0.14696404100E+03  0.19907791090E+03  0.25500000920E-02 0.  1.
       -2    1    3    3    0  502 -0.13313177663E+03 -0.17593047165E+02 -0.29273122500E+03  0.32206389949E+03  0.25500000920E-02 0. -1.
</event>
<event>
 5   0  0.3117389E-01  0.5059544E+03  0.7818609E-02  0.1012236E+00
       -2   -1    0    0    0  501  0.00000000000E+00  0.00000000000E+00  0.51734022687E+02  0.51734022750E+02  0.25500000920E-02 0. -1.
        2   -1    0    0  501    0  0.00000000000E+00  0.00000000000E+00 -0.12370480101E+04  0.12370480101E+04  0.25500000920E-02 0.  1.
    10030    2    1    2    0    0  0.00000000000E+00  0.00000000000E+00 -0.11853139874E+04  0.12887820329E+04  0.50595442428E+03 0.  0.
        4    1    3    3  502    0 -0.96340033465E+02 -0.16829106651E+03 -0.17883941887E+03  0.26379620118E+03  0.12699999809E+01 0. -1.
       -4    1    3    3    0  502  0.96340033465E+02  0.16829106651E+03 -0.10064745686E+04  0.10249858317E+04  0.12699999809E+01 0.  1.
</event>
<event>
 5   0  0.3329246E-01  0.4738312E+03  0.7818609E-02  0.1020844E+00
       -2   -1    0    0    0  501  0.00000000000E+00  0.00000000000E+00  0.27137662120E+02  0.27137662240E+02  0.25500000920E-02 0. -1.
        2   -1    0    0  501    0  0.00000000000E+00  0.00000000000E+00 -0.20683061780E+04  0.20683061780E+04  0.25500000920E-02 0.  1.
    10030    2    1    2    0    0  0.00000000000E+00  0.00000000000E+00 -0.20411685159E+04  0.20954438402E+04  0.47383116971E+03 0.  0.
        2    1    3    3  502    0 -0.12164219674E+02 -0.22410961696E+03 -0.13560971666E+04  0.13745445115E+04  0.25500000920E-02 0.  1.
       -2    1    3    3    0  502  0.12164219674E+02  0.22410961696E+03 -0.68507134922E+03  0.72089932875E+03  0.25500000920E-02 0. -1.
</event>
<event>
 5   0  0.3329246E-01  0.5027520E+03  0.7818609E-02  0.1013063E+00
       -2   -1    0    0    0  501  0.00000000000E+00  0.00000000000E+00  0.82242366666E+02  0.82242366705E+02  0.25500000920E-02 0.  1.
        2   -1    0    0  501    0  0.00000000000E+00  0.00000000000E+00 -0.76833743578E+03  0.76833743579E+03  0.25500000920E-02 0. -1.
    10030    2    1    2    0    0  0.00000000000E+00  0.00000000000E+00 -0.68609506912E+03  0.85057980249E+03  0.50275198313E+03 0.  0.
        2    1    3    3  502    0  0.24130670841E+03  0.50424725101E+02 -0.42624635002E+03  0.49239976780E+03  0.25500000920E-02 0.  1.
       -2    1    3    3    0  502 -0.24130670841E+03 -0.50424725101E+02 -0.25984871910E+03  0.35818003469E+03  0.25500000920E-02 0. -1.
</event>
<event>
 5   0  0.3178149E-01  0.5058956E+03  0.7818609E-02  0.1012251E+00
       -2   -1    0    0    0  501  0.00000000000E+00  0.00000000000E+00  0.47665926114E+02  0.47665926182E+02  0.25500000920E-02 0. -1.
        2   -1    0    0  501    0  0.00000000000E+00  0.00000000000E+00 -0.13423131277E+04  0.13423131277E+04  0.25500000920E-02 0.  1.
    10030    2    1    2    0    0  0.00000000000E+00  0.00000000000E+00 -0.12946472016E+04  0.13899790539E+04  0.50589563516E+03 0.  0.
        3    1    3    3  502    0 -0.13614350187E+03  0.14877284652E+03 -0.10668481234E+04  0.10857409182E+04  0.10100000352E+00 0.  1.
       -3    1    3    3    0  502  0.13614350187E+03 -0.14877284652E+03 -0.22779907827E+03  0.30423813571E+03  0.10100000352E+00 0. -1.
</event>
<event>
 5   0  0.2000612E-01  0.4467377E+03  0.7818609E-02  0.1028699E+00
        1   -1    0    0  501    0  0.00000000000E+00  0.00000000000E+00  0.33070330551E+03  0.33070330555E+03  0.50400001928E-02 0.  1.
       -1   -1    0    0    0  501  0.00000000000E+00  0.00000000000E+00 -0.15087131171E+03  0.15087131180E+03  0.50400001928E-02 0. -1.
    10030    2    1    2    0    0  0.00000000000E+00  0.00000000000E+00  0.17983199379E+03  0.48157461734E+03  0.44673769270E+03 0.  0.
        2    1    3    3  502    0 -0.57363803532E+02  0.72957887529E+02  0.30893499812E+03  0.32257447571E+03  0.25500000920E-02 0.  1.
       -2    1    3    3    0  502  0.57363803532E+02 -0.72957887529E+02 -0.12910300433E+03  0.15900014164E+03  0.25500000920E-02 0. -1.
</event>
<event>
 5   0  0.1967161E-01  0.4973457E+03  0.7818609E-02  0.1014474E+00
       -1   -1    0    0    0  501  0.00000000000E+00  0.00000000000E+00  0.75005539437E+02  0.75005539606E+02  0.50400001928E-02 0.  1.
        1   -1    0    0  501    0  0.00000000000E+00  0.00000000000E+00 -0.82444822375E+03  0.82444822376E+03  0.50400001928E-02 0. -1.
    10030    2    1    2    0    0  0.00000000000E+00  0.00000000000E+00 -0.74944268431E+03  0.89945376337E+03  0.49734569001E+03 0.  0.
        1    1    3    3  502    0  0.19299647523E+02  0.58371792129E+02  0.61044485840E+02  0.86638165884E+02  0.50400001928E-02 0.  1.
       -1    1    3    3    0  502 -0.19299647523E+02 -0.58371792129E+02 -0.81048717015E+03  0.81281559749E+03  0.50400001928E-02 0. -1.
</event>
<event>
 5   0  0.1984297E-01  0.5119656E+03  0.7818609E-02  0.1010702E+00
        1   -1    0    0  501    0  0.00000000000E+00  0.00000000000E+00  0.14772368833E+04  0.14772368833E+04  0.50400001928E-02 0.  1.
       -1   -1    0    0    0  501  0.00000000000E+00  0.00000000000E+00 -0.44357938243E+02  0.44357938530E+02  0.50400001928E-02 0. -1.
    10030    2    1    2    0    0  0.00000000000E+00  0.00000000000E+00  0.14328789450E+04  0.15215948218E+04  0.51196555612E+03 0.  0.
        3    1    3    3  502    0  0.10569141366E+03  0.15017960353E+03  0.18642285796E+03  0.26168316799E+03  0.10100000352E+00 0. -1.
       -3    1    3    3    0  502 -0.10569141366E+03 -0.15017960353E+03  0.12464560871E+04  0.12599116538E+04  0.10100000352E+00 0.  1.
</event>
<event>
 5   0  0.1292375E-01  0.3963302E+03  0.7818609E-02  0.1045058E+00
        3   -1    0    0  501    0  0.00000000000E+00  0.00000000000E+00  0.32541305341E+03  0.32541306908E+03  0.10100000352E+00 0.  1.
       -3   -1    0    0    0  501  0.00000000000E+00  0.00000000000E+00 -0.12067555738E+03  0.12067559965E+03  0.10100000352E+00 0. -1.
    10030    2    1    2    0    0  0.00000000000E+00  0.00000000000E+00  0.20473749603E+03  0.44608866873E+03  0.39633023868E+03 0.  0.
        4    1    3    3  502    0  0.54675638520E+02 -0.18725276434E+03  0.63139271077E+02  0.20503951729E+03  0.12699999809E+01 0.  1.
       -4    1    3    3    0  502 -0.54675638520E+02  0.18725276434E+03  0.14159822495E+03  0.24104915144E+03  0.12699999809E+01 0. -1.
</event>
<event>
 5   0  0.2000612E-01  0.5309012E+03  0.7818609E-02  0.1006014E+00
        1   -1    0    0  501    0  0.00000000000E+00  0.00000000000E+00  0.81381998498E+03  0.81381998500E+03  0.50400001928E-02 0.  1.
       -1   -1    0    0    0  501  0.00000000000E+00  0.00000000000E+00 -0.86584269507E+02  0.86584269653E+02  0.50400001928E-02 0. -1.
    10030    2    1    2    0    0  0.00000000000E+00  0.00000000000E+00  0.72723571548E+03  0.90040425465E+03  0.53090115458E+03 0.  0.
        2    1    3    3  502    0 -0.26266157060E+03 -0.37956270358E+02  0.35398948291E+03  0.44242551141E+03  0.25500000920E-02 0.  1.
       -2    1    3    3    0  502  0.26266157060E+03  0.37956270358E+02  0.37324623257E+03  0.45797874324E+03  0.25500000920E-02 0. -1.
</event>
<event>
 5   0  0.1967161E-01  0.4867881E+03  0.7818609E-02  0.1017286E+00
        1   -1    0    0  501    0  0.00000000000E+00  0.00000000000E+00  0.65761450382E+03  0.65761450384E+03  0.50400001928E-02 0.  1.
       -1   -1    0    0    0  501  0.00000000000E+00  0.00000000000E+00 -0.90084193902E+02  0.90084194043E+02  0.50400001928E-02 0. -1.
    10030    2    1    2    0    0  0.00000000000E+00  0.00000000000E+00  0.56753030992E+03  0.74769869789E+03  0.48678813681E+03 0.  0.
        1    1    3    3  502    0 -0.51044680844E+01  0.46051137189E+02 -0.83247914894E+02  0.95273176657E+02  0.50400001928E-02 0. -1.
       -1    1    3    3    0  502  0.51044680844E+01 -0.46051137189E+02  0.65077822482E+03  0.65242552123E+03  0.50400001928E-02 0.  1.
</event>
<event>
 5   0  0.3117389E-01  0.4644734E+03  0.7818609E-02  0.1023492E+00
       -2   -1    0    0    0  501  0.00000000000E+00  0.00000000000E+00  0.79792390410E+02  0.79792390450E+02  0.25500000920E-02 0. -1.
        2   -1    0    0  501    0  0.00000000000E+00  0.00000000000E+00 -0.67592769387E+03  0.67592769387E+03  0.25500000920E-02 0.  1.
    10030    2    1    2    0    0  0.00000000000E+00  0.00000000000E+00 -0.59613530346E+03  0.75572008432E+03  0.46447340701E+03 0.  0.
        4    1    3    3  502    0  0.79785098705E+02  0.52549043078E+02  0.46333319360E+02  0.10618593733E+03  0.12699999809E+01 0. -1.
       -4    1    3    3    0  502 -0.79785098705E+02 -0.52549043078E+02 -0.64246862282E+03  0.64953414699E+03  0.12699999809E+01 0.  1.
</event>
<event>
 5   0  0.3117389E-01  0.4997078E+03  0.7818609E-02  0.1013855E+00
       -2   -1    0    0    0  501  0.00000000000E+00  0.00000000000E+00  0.11743135508E+03  0.11743135511E+03  0.25500000920E-02 0.  1.
        2   -1    0    0  501    0  0.00000000000E+00  0.00000000000E+00 -0.53160390958E+03  0.53160390959E+03  0.25500000920E-02 0. -1.
    10030    2    1    2    0    0  0.00000000000E+00  0.00000000000E+00 -0.41417255450E+03  0.64903526470E+03  0.49970778453E+03 0.  0.
        4    1    3    3  502    0  0.15350895415E+03 -0.16723161676E+03 -0.71522173422E+02  0.23800934191E+03  0.12699999809E+01 0.  1.
       -4    1    3    3    0  502 -0.15350895415E+03  0.16723161676E+03 -0.34265038108E+03  0.41102592278E+03  0.12699999809E+01 0. -1.
</event>
<event>
 5   0  0.3329246E-01  0.5168741E+03  0.7818609E-02  0.1009466E+00
       -2   -1    0    0    0  501  0.00000000000E+00  0.00000000000E+00  0.15025964598E+03  0.15025964600E+03  0.25500000920E-02 0. -1.
        2   -1    0    0  501    0  0.00000000000E+00  0.00000000000E+00 -0.44449532439E+03  0.44449532439E+03  0.25500000920E-02 0.  1.
    10030    2    1    2    0    0  0.00000000000E+00  0.00000000000E+00 -0.29423567841E+03  0.59475497039E+03  0.51687410494E+03 0.  0.
        2    1    3    3  502    0 -0.26917103907E+02 -0.21471493122E+03  0.15460508383E+02  0.21694713526E+03  0.25500000920E-02 0. -1.
       -2    1    3    3    0  502  0.26917103907E+02  0.21471493122E+03 -0.30969618679E+03  0.37780783514E+03  0.25500000920E-02 0.  1.
</event>
<event>
 5   0  0.1984680E-01  0.5085502E+03  0.7818609E-02  0.1011571E+00
        1   -1    0    0  501    0  0.00000000000E+00  0.00000000000E+00  0.48853668082E+03  0.48853668084E+03  0.50400001928E-02 0.  1.
       -1   -1    0    0    0  501  0.00000000000E+00  0.00000000000E+00 -0.13234592476E+03  0.13234592486E+03  0.50400001928E-02 0. -1.
    10030    2    1    2    0    0  0.00000000000E+00  0.00000000000E+00  0.35619075605E+03  0.62088260570E+03  0.50855024861E+03 0.  0.
        5    1    3    3  502    0  0.69415748058E+01 -0.72890669622E+02  0.47533198483E+03  0.48096135081E+03  0.46999998093E+01 0.  1.
       -5    1    3    3    0  502 -0.69415748058E+01  0.72890669622E+02 -0.11914122877E+03  0.13992125489E+03  0.46999998093E+01 0. -1.
</event>
<event>
 5   0  0.2013450E-01  0.2940074E+03  0.7818609E-02  0.1088275E+00
        1   -1    0    0  501    0  0.00000000000E+00  0.00000000000E+00  0.17072501773E+03  0.17072501780E+03  0.50400001928E-02 0.  1.
       -1   -1    0    0    0  501  0.00000000000E+00  0.00000000000E+00 -0.12657833277E+03  0.12657833287E+03  0.50400001928E-02 0. -1.
    10030    2    1    2    0    0  0.00000000000E+00  0.00000000000E+00  0.44146684953E+02  0.29730335067E+03  0.29400740217E+03 0.  0.
        4    1    3    3  502    0 -0.11635667377E+03 -0.89220995532E+02  0.11505653615E+02  0.14708247529E+03  0.12699999809E+01 0.  1.
       -4    1    3    3    0  502  0.11635667377E+03  0.89220995532E+02  0.32641031338E+02  0.15022087538E+03  0.12699999809E+01 0. -1.
</event>
<event>
 5   0  0.1984297E-01  0.4961079E+03  0.7818609E-02  0.1014800E+00
       -1   -1    0    0    0  501  0.00000000000E+00  0.00000000000E+00  0.60709881670E+02  0.60709881879E+02  0.50400001928E-02 0. -1.
        1   -1    0    0  501    0  0.00000000000E+00  0.00000000000E+00 -0.10135211630E+04  0.10135211630E+04  0.50400001928E-02 0.  1.
    10030    2    1    2    0    0  0.00000000000E+00  0.00000000000E+00 -0.95281128129E+03  0.10742310449E+04  0.49610785115E+03 0.  0.
        3    1    3    3  502    0  0.59874357395E+02 -0.32359688290E+02 -0.99290832949E+03  0.99523818711E+03  0.10100000352E+00 0.  1.
       -3    1    3    3    0  502 -0.59874357395E+02  0.32359688290E+02  0.40097048200E+02  0.78992857746E+02  0.10100000352E+00 0. -1.
</event>
<event>
 5   0  0.1292375E-01  0.4976438E+03  0.7818609E-02  0.1014396E+00
       -3   -1    0    0    0  501  0.00000000000E+00  0.00000000000E+00  0.26798762009E+03  0.26798763913E+03  0.10100000352E+00 0. -1.
        3   -1    0    0  501    0  0.00000000000E+00  0.00000000000E+00 -0.23102682496E+03  0.23102684704E+03  0.10100000352E+00 0.  1.
    10030    2    1    2    0    0  0.00000000000E+00  0.00000000000E+00  0.36960795130E+02  0.49901448617E+03  0.49764380537E+03 0.  0.
        4    1    3    3  502    0 -0.67222080163E+02 -0.21103581661E+03 -0.95215329976E+02  0.24108607574E+03  0.12699999809E+01 0.  1.
       -4    1    3    3    0  502  0.67222080163E+02  0.21103581661E+03  0.13217612511E+03  0.25792841042E+03  0.12699999809E+01 0. -1.
</event>
<event>
 5   0  0.2013450E-01  0.4941108E+03  0.7818609E-02  0.1015328E+00
       -1   -1    0    0    0  501  0.00000000000E+00  0.00000000000E+00  0.20799492460E+03  0.20799492466E+03  0.50400001928E-02 0. -1.
        1   -1    0    0  501    0  0.00000000000E+00  0.00000000000E+00 -0.29345120314E+03  0.29345120319E+03  0.50400001928E-02 0.  1.
    10030    2    1    2    0    0  0.00000000000E+00  0.00000000000E+00 -0.85456278547E+02  0.50144612784E+03  0.49411076044E+03 0.  0.
        4    1    3    3  502    0 -0.23502736206E+03 -0.31663599805E+02  0.27540692437E+02  0.23874787352E+03  0.12699999809E+01 0. -1.
       -4    1    3    3    0  502  0.23502736206E+03  0.31663599805E+02 -0.11299697098E+03  0.26269825432E+03  0.12699999809E+01 0.  1.
</event>
<event>
 5   0  0.2000612E-01  0.5094442E+03  0.7818609E-02  0.1011343E+00
        1   -1    0    0  501    0  0.00000000000E+00  0.00000000000E+00  0.15120534714E+03  0.15120534722E+03  0.50400001928E-02 0. -1.
       -1   -1    0    0    0  501  0.00000000000E+00  0.00000000000E+00 -0.42910746485E+03  0.42910746488E+03  0.50400001928E-02 0.  1.
    10030    2    1    2    0    0  0.00000000000E+00  0.00000000000E+00 -0.27790211771E+03  0.58031281210E+03  0.50944418032E+03 0.  0.
        2    1    3    3  502    0 -0.10488651682E+03 -0.21413301252E+02 -0.40223978300E+03  0.41624098058E+03  0.25500000920E-02 0.  1.
       -2    1    3    3    0  502  0.10488651682E+03  0.21413301252E+02  0.12433766530E+03  0.16407183152E+03  0.25500000920E-02 0. -1.
</event>
<event>
 5   0  0.3111146E-01  0.5008307E+03  0.7818609E-02  0.1013562E+00
       -2   -1    0    0    0  501  0.00000000000E+00  0.00000000000E+00  0.23755435067E+03  0.23755435069E+03  0.25500000920E-02 0. -1.
        2   -1    0    0  501    0  0.00000000000E+00  0.00000000000E+00 -0.26397261212E+03  0.26397261213E+03  0.25500000920E-02 0.  1.
    10030    2    1    2    0    0  0.00000000000E+00  0.00000000000E+00 -0.26418261441E+02  0.50152696282E+03  0.50083067987E+03 0.  0.
        1    1    3    3  502    0 -0.10388875535E+03  0.13718800077E+02 -0.24096050913E+03  0.26276043452E+03  0.50400001928E-02 0.  1.
       -1    1    3    3    0  502  0.10388875535E+03 -0.13718800077E+02  0.21454224769E+03  0.23876652829E+03  0.50400001928E-02 0. -1.
</event>
<event>
 5   0  0.3329246E-01  0.4963971E+03  0.7818609E-02  0.1014724E+00
       -2   -1    0    0    0  501  0.00000000000E+00  0.00000000000E+00  0.41939997542E+02  0.41939997619E+02  0.25500000920E-02 0.  1.
        2   -1    0    0  501    0  0.00000000000E+00  0.00000000000E+00 -0.14688252063E+04  0.14688252063E+04  0.25500000920E-02 0. -1.
    10030    2    1    2    0    0  0.00000000000E+00  0.00000000000E+00 -0.14268852088E+04  0.15107652040E+04  0.49639712168E+03 0.  0.
        2    1    3    3  502    0 -0.16689842958E+01 -0.18415205107E+03 -0.20702167386E+03  0.27707893619E+03  0.25500000920E-02 0.  1.
       -2    1    3    3    0  502  0.16689842958E+01  0.18415205107E+03 -0.12198635349E+04  0.12336862678E+04  0.25500000920E-02 0. -1.
</event>
<event>
 5   0  0.3178149E-01  0.4510235E+03  0.7818609E-02  0.1027417E+00
       -2   -1    0    0    0  501  0.00000000000E+00  0.00000000000E+00  0.62739424750E+03  0.62739424751E+03  0.25500000920E-02 0.  1.
        2   -1    0    0  501    0  0.00000000000E+00  0.00000000000E+00 -0.81058358299E+02  0.81058358339E+02  0.25500000920E-02 0. -1.
    10030    2    1    2    0    0  0.00000000000E+00  0.00000000000E+00  0.54633588920E+03  0.70845260585E+03  0.45102349262E+03 0.  0.
        3    1    3    3  502    0  0.20334146603E+03 -0.29415462045E+02  0.12714142236E+03  0.24161534036E+03  0.10100000352E+00 0. -1.
       -3    1    3    3    0  502 -0.20334146603E+03  0.29415462045E+02  0.41919446684E+03  0.46683726549E+03  0.10100000352E+00 0.  1.
</event>
<event>
 5   0  0.3187123E-01  0.5068110E+03  0.7818609E-02  0.1012016E+00
       -2   -1    0    0    0  501  0.00000000000E+00  0.00000000000E+00  0.79470764040E+03  0.79470764041E+03  0.25500000920E-02 0.  1.
        2   -1    0    0  501    0  0.00000000000E+00  0.00000000000E+00 -0.80802485253E+02  0.80802485293E+02  0.25500000920E-02 0. -1.
    10030    2    1    2    0    0  0.00000000000E+00  0.00000000000E+00  0.71390515515E+03  0.87551012570E+03  0.50681101967E+03 0.  0.
        5    1    3    3  502    0  0.46916861341E+02  0.84829949153E+02  0.76132859673E+03  0.76748982687E+03  0.46999998093E+01 0.  1.
       -5    1    3    3    0  502 -0.46916861341E+02 -0.84829949153E+02 -0.47423441575E+02  0.10802029884E+03  0.46999998093E+01 0. -1.
</event>
<event>
 5   0  0.1292375E-01  0.4964363E+03  0.7818609E-02  0.1014713E+00
        3   -1    0    0  501    0  0.00000000000E+00  0.00000000000E+00  0.13006882161E+03  0.13006886083E+03  0.10100000352E+00 0. -1.
       -3   -1    0    0    0  501  0.00000000000E+00  0.00000000000E+00 -0.47368941750E+03  0.47368942826E+03  0.10100000352E+00 0.  1.
    10030    2    1    2    0    0  0.00000000000E+00  0.00000000000E+00 -0.34362059588E+03  0.60375828909E+03  0.49643625747E+03 0.  0.
        1    1    3    3  502    0 -0.49247706378E+02  0.17035693222E+03  0.39419065680E+02  0.18166090306E+03  0.50400001928E-02 0. -1.
       -1    1    3    3    0  502  0.49247706378E+02 -0.17035693222E+03 -0.38303966156E+03  0.42209738603E+03  0.50400001928E-02 0.  1.
</event>
<event>
 5   0  0.1984297E-01  0.4954678E+03  0.7818609E-02  0.1014969E+00
        1   -1    0    0  501    0  0.00000000000E+00  0.00000000000E+00  0.52777089869E+03  0.52777089872E+03  0.50400001928E-02 0. -1.
       -1   -1    0    0    0  501  0.00000000000E+00  0.00000000000E+00 -0.11628547684E+03  0.11628547694E+03  0.50400001928E-02 0.  1.
    10030    2    1    2    0    0  0.00000000000E+00  0.00000000000E+00  0.41148542186E+03  0.64405637566E+03  0.49546782199E+03 0.  0.
        3    1    3    3  502    0 -0.13415897966E+03 -0.47529712495E+02 -0.57832932794E+02  0.15363060798E+03  0.10100000352E+00 0.  1.
       -3    1    3    3    0  502  0.13415897966E+03  0.47529712495E+02  0.46931835465E+03  0.49042576768E+03  0.10100000352E+00 0. -1.
</event>
<event>
 5   0  0.1292375E-01  0.4649953E+03  0.7818609E-02  0.1023342E+00
        3   -1    0    0  501    0  0.00000000000E+00  0.00000000000E+00  0.88076283028E+02  0.88076340938E+02  0.10100000352E+00 0. -1.
       -3   -1    0    0    0  501  0.00000000000E+00  0.00000000000E+00 -0.61373092134E+03  0.61373092965E+03  0.10100000352E+00 0.  1.
    10030    2    1    2    0    0  0.00000000000E+00  0.00000000000E+00 -0.52565463831E+03  0.70180727059E+03  0.46499531855E+03 0.  0.
        5    1    3    3  502    0 -0.45340999909E+02  0.49406887597E+02  0.73088715604E+02  0.99302050138E+02  0.46999998093E+01 0. -1.
       -5    1    3    3    0  502  0.45340999909E+02 -0.49406887597E+02 -0.59874335392E+03  0.60250522045E+03  0.46999998093E+01 0.  1.
</event>
<event>
 5   0  0.2000612E-01  0.4933751E+03  0.7818609E-02  0.1015523E+00
        1   -1    0    0  501    0  0.00000000000E+00  0.00000000000E+00  0.47547378229E+03  0.47547378232E+03  0.50400001928E-02 0. -1.
       -1   -1    0    0    0  501  0.00000000000E+00  0.00000000000E+00 -0.12798761287E+03  0.12798761297E+03  0.50400001928E-02 0.  1.
    10030    2    1    2    0    0  0.00000000000E+00  0.00000000000E+00  0.34748616943E+03  0.60346139529E+03  0.49337512874E+03 0.  0.
        2    1    3    3  502    0 -0.10728332058E+03 -0.22212259359E+03  0.17688463344E+03  0.30353966958E+03  0.25500000920E-02 0. -1.
       -2    1    3    3    0  502  0.10728332058E+03  0.22212259359E+03  0.17060153599E+03  0.29992172570E+03  0.25500000920E-02 0.  1.
</event>
<event>
 5   0  0.1984297E-01  0.4778167E+03  0.7818609E-02  0.1019737E+00
       -1   -1    0    0    0  501  0.00000000000E+00  0.00000000000E+00  0.13536983393E+03  0.13536983402E+03  0.50400001928E-02 0. -1.
        1   -1    0    0  501    0  0.00000000000E+00  0.00000000000E+00 -0.42163907254E+03  0.42163907257E+03  0.50400001928E-02 0.  1.
    10030    2    1    2    0    0  0.00000000000E+00  0.00000000000E+00 -0.28626923861E+03  0.55700890659E+03  0.47781674839E+03 0.  0.
        3    1    3    3  502    0 -0.37805469638E+02  0.16028445358E+03 -0.34490098977E+03  0.38220029113E+03  0.10100000352E+00 0.  1.
       -3    1    3    3    0  502  0.37805469638E+02 -0.16028445358E+03  0.58631751159E+02  0.17480861546E+03  0.10100000352E+00 0. -1.
</event>
<event>
 5   0  0.3329246E-01  0.5001831E+03  0.7818609E-02  0.1013731E+00
       -2   -1    0    0    0  501  0.00000000000E+00  0.00000000000E+00  0.17339464126E+03  0.17339464128E+03  0.25500000920E-02 0.  1.
        2   -1    0    0  501    0  0.00000000000E+00  0.00000000000E+00 -0.36071354331E+03  0.36071354331E+03  0.25500000920E-02 0. -1.
    10030    2    1    2    0    0  0.00000000000E+00  0.00000000000E+00 -0.18731890205E+03  0.53410818459E+03  0.50018314824E+03 0.  0.
        2    1    3    3  502    0  0.21512523194E+03 -0.31663383956E+02  0.38269308614E+02  0.22078490730E+03  0.25500000920E-02 0.  1.
       -2    1    3    3    0  502 -0.21512523194E+03  0.31663383956E+02 -0.22558821066E+03  0.31332327730E+03  0.25500000920E-02 0. -1.
</event>
<event>
 5   0  0.3111146E-01  0.4819594E+03  0.7818609E-02  0.1018598E+00
       -2   -1    0    0    0  501  0.00000000000E+00  0.00000000000E+00  0.29728362763E+03  0.29728362764E+03  0.25500000920E-02 0.  1.
        2   -1    0    0  501    0  0.00000000000E+00  0.00000000000E+00 -0.19533943984E+03  0.19533943985E+03  0.25500000920E-02 0. -1.
    10030    2    1    2    0    0  0.00000000000E+00  0.00000000000E+00  0.10194418779E+03  0.49262306749E+03  0.48195940618E+03 0.  0.
        1    1    3    3  502    0  0.17549775129E+03 -0.13613548850E+03 -0.44578260928E+02  0.22653819393E+03  0.50400001928E-02 0. -1.
       -1    1    3    3    0  502 -0.17549775129E+03  0.13613548850E+03  0.14652244872E+03  0.26608487357E+03  0.50400001928E-02 0.  1.
</event>
<event>
 5   0  0.3111146E-01  0.5031013E+03  0.7818609E-02  0.1012973E+00
        2   -1    0    0  501    0  0.00000000000E+00  0.00000000000E+00  0.82109213263E+03  0.82109213264E+03  0.25500000920E-02 0.  1.
       -2   -1    0    0    0  501  0.00000000000E+00  0.00000000000E+00 -0.77065325702E+02  0.77065325744E+02  0.25500000920E-02 0. -1.
    10030    2    1    2    0    0  0.00000000000E+00  0.00000000000E+00  0.74402680693E+03  0.89815745838E+03  0.50310131247E+03 0.  0.
        1    1    3    3  502    0  0.14434158707E+03 -0.13972887205E+03  0.10174477865E+03  0.22519025612E+03  0.50400001928E-02 0. -1.
       -1    1    3    3    0  502 -0.14434158707E+03  0.13972887205E+03  0.64228202828E+03  0.67296720226E+03  0.50400001928E-02 0.  1.
</event>
<event>
 5   0  0.3178149E-01  0.4867600E+03  0.7818609E-02  0.1017294E+00
        2   -1    0    0  501    0  0.00000000000E+00  0.00000000000E+00  0.93280325835E+03  0.93280325835E+03  0.25500000920E-02 0. -1.
       -2   -1    0    0    0  501  0.00000000000E+00  0.00000000000E+00 -0.63500873201E+02  0.63500873253E+02  0.25500000920E-02 0.  1.
    10030    2    1    2    0    0  0.00000000000E+00  0.00000000000E+00  0.86930238514E+03  0.99630413160E+03  0.48675998791E+03 0.  0.
        3    1    3    3  502    0 -0.20307105793E+03  0.82416715032E+02  0.65129824781E+03  0.68718249925E+03  0.10100000352E+00 0. -1.
       -3    1    3    3    0  502  0.20307105793E+03 -0.82416715032E+02  0.21800413734E+03  0.30912163235E+03  0.10100000352E+00 0.  1.
</event>
<event>
 5   0  0.2000612E-01  0.4960609E+03  0.7818609E-02  0.1014812E+00
       -1   -1    0    0    0  501  0.00000000000E+00  0.00000000000E+00  0.18929045955E+03  0.18929045961E+03  0.50400001928E-02 0.  1.
        1   -1    0    0  501    0  0.00000000000E+00  0.00000000000E+00 -0.32499848136E+03  0.32499848140E+03  0.50400001928E-02 0. -1.
    10030    2    1    2    0    0  0.00000000000E+00  0.00000000000E+00 -0.13570802181E+03  0.51428894101E+03  0.49606093140E+03 0.  0.
        2    1    3    3  502    0  0.21758222730E+00  0.54409460190E+02 -0.31873501705E+03  0.32334570942E+03  0.25500000920E-02 0. -1.
       -2    1    3    3    0  502 -0.21758222730E+00 -0.54409460190E+02  0.18302699523E+03  0.19094323159E+03  0.25500000920E-02 0.  1.
</event>
<event>
 5   0  0.3178149E-01  0.4988124E+03  0.7818609E-02  0.1014089E+00
       -2   -1    0    0    0  501  0.00000000000E+00  0.00000000000E+00  0.41390032156E+03  0.41390032157E+03  0.25500000920E-02 0.  1.
        2   -1    0    0  501    0  0.00000000000E+00  0.00000000000E+00 -0.15028606726E+03  0.15028606728E+03  0.25500000920E-02 0. -1.
    10030    2    1    2    0    0  0.00000000000E+00  0.00000000000E+00  0.26361425430E+03  0.56418638885E+03  0.49881239589E+03 0.  0.
        3    1    3    3  502    0 -0.70215967327E+02  0.12333648587E+03  0.36377431667E+03  0.39047910889E+03  0.10100000352E+00 0.  1.
       -3    1    3    3    0  502  0.70215967327E+02 -0.12333648587E+03 -0.10016006237E+03  0.17370727996E+03  0.10100000352E+00 0. -1.
</event>
<event>
 5   0  0.2000612E-01  0.4904545E+03  0.7818609E-02  0.1016301E+00
        1   -1    0    0  501    0  0.00000000000E+00  0.00000000000E+00  0.11526563923E+04  0.11526563923E+04  0.50400001928E-02 0.  1.
       -1   -1    0    0    0  501  0.00000000000E+00  0.00000000000E+00 -0.52172008211E+02  0.52172008454E+02  0.50400001928E-02 0. -1.
    10030    2    1    2    0    0  0.00000000000E+00  0.00000000000E+00  0.11004843841E+04  0.12048284008E+04  0.49045447869E+03 0.  0.
        2    1    3    3  502    0 -0.18561169420E+03 -0.13841211352E+03  0.74870363085E+03  0.78368791049E+03  0.25500000920E-02 0.  1.
       -2    1    3    3    0  502  0.18561169420E+03  0.13841211352E+03  0.35178075325E+03  0.42114049028E+03  0.25500000920E-02 0. -1.
</event>
<event>
 5   0  0.3187123E-01  0.4884107E+03  0.7818609E-02  0.1016849E+00
        2   -1    0    0  501    0  0.00000000000E+00  0.00000000000E+00  0.70058080261E+03  0.70058080262E+03  0.25500000920E-02 0.  1.
       -2   -1    0    0    0  501  0.00000000000E+00  0.00000000000E+00 -0.85124019967E+02  0.85124020005E+02  0.25500000920E-02 0. -1.
    10030    2    1    2    0    0  0.00000000000E+00  0.00000000000E+00  0.61545678265E+03  0.78570482262E+03  0.48841070524E+03 0.  0.
        5    1    3    3  502    0 -0.13107501092E+03 -0.20480519773E+03  0.27217885458E+03  0.36500581692E+03  0.46999998093E+01 0. -1.
       -5    1    3    3    0  502  0.13107501092E+03  0.20480519773E+03  0.34327792807E+03  0.42069900571E+03  0.46999998093E+01 0.  1.
</event>
<event>
 5   0  0.3178149E-01  0.4904580E+03  0.7818609E-02  0.1016300E+00
       -2   -1    0    0    0  501  0.00000000000E+00  0.00000000000E+00  0.66087826962E+02  0.66087827011E+02  0.25500000920E-02 0. -1.
        2   -1    0    0  501    0  0.00000000000E+00  0.00000000000E+00 -0.90995970231E+03  0.90995970231E+03  0.25500000920E-02 0.  1.
    10030    2    1    2    0    0  0.00000000000E+00  0.00000000000E+00 -0.84387187534E+03  0.97604752932E+03  0.49045798749E+03 0.  0.
        3    1    3    3  502    0  0.13903238026E+02 -0.29212280726E+02  0.61822245412E+02  0.69775766578E+02  0.10100000352E+00 0. -1.
       -3    1    3    3    0  502 -0.13903238026E+02  0.29212280726E+02 -0.90569412075E+03  0.90627176274E+03  0.10100000352E+00 0.  1.
</event>
<event>
 5   0  0.2000612E-01  0.5570275E+03  0.7818609E-02  0.9998803E-01
       -1   -1    0    0    0  501  0.00000000000E+00  0.00000000000E+00  0.66756554748E+03  0.66756554750E+03  0.50400001928E-02 0.  1.
        1   -1    0    0  501    0  0.00000000000E+00  0.00000000000E+00 -0.11619819780E+03  0.11619819791E+03  0.50400001928E-02 0. -1.
    10030    2    1    2    0    0  0.00000000000E+00  0.00000000000E+00  0.55136734968E+03  0.78376374540E+03  0.55702751667E+03 0.  0.
        2    1    3    3  502    0  0.24683767902E+02  0.27531364570E+03  0.22769901466E+03  0.35812530376E+03  0.25500000920E-02 0. -1.
       -2    1    3    3    0  502 -0.24683767902E+02 -0.27531364570E+03  0.32366833502E+03  0.42563844165E+03  0.25500000920E-02 0.  1.
</event>
<event>
 5   0  0.2000612E-01  0.4999433E+03  0.7818609E-02  0.1013794E+00
        1   -1    0    0  501    0  0.00000000000E+00  0.00000000000E+00  0.28389201749E+03  0.28389201753E+03  0.50400001928E-02 0. -1.
       -1   -1    0    0    0  501  0.00000000000E+00  0.00000000000E+00 -0.22010416702E+03  0.22010416707E+03  0.50400001928E-02 0.  1.
    10030    2    1    2    0    0  0.00000000000E+00  0.00000000000E+00  0.63787850474E+02  0.50399618461E+03  0.49994326101E+03 0.  0.
        2    1    3    3  502    0  0.22744123127E+03 -0.73925451903E+02  0.10522515212E+03  0.26127919696E+03  0.25500000920E-02 0. -1.
       -2    1    3    3    0  502 -0.22744123127E+03  0.73925451903E+02 -0.41437301643E+02  0.24271698765E+03  0.25500000920E-02 0.  1.
</event>
<event>
 5   0  0.1292375E-01  0.4911278E+03  0.7818609E-02  0.1016121E+00
       -3   -1    0    0    0  501  0.00000000000E+00  0.00000000000E+00  0.86555868084E+03  0.86555868673E+03  0.10100000352E+00 0.  1.
        3   -1    0    0  501    0  0.00000000000E+00  0.00000000000E+00 -0.69667835133E+02  0.69667908345E+02  0.10100000352E+00 0. -1.
    10030    2    1    2    0    0  0.00000000000E+00  0.00000000000E+00  0.79589084570E+03  0.93522659507E+03  0.49112783047E+03 0.  0.
        1    1    3    3  502    0 -0.10464711476E+02  0.39782165103E+02  0.85895116255E+03  0.85993559672E+03  0.50400001928E-02 0.  1.
       -1    1    3    3    0  502  0.10464711476E+02 -0.39782165103E+02 -0.63060316845E+02  0.75290998350E+02  0.50400001928E-02 0. -1.
</event>
<event>
 5   0  0.1984680E-01  0.5062847E+03  0.7818609E-02  0.1012151E+00
       -1   -1    0    0    0  501  0.00000000000E+00  0.00000000000E+00  0.30563255241E+03  0.30563255245E+03  0.50400001928E-02 0.  1.
        1   -1    0    0  501    0  0.00000000000E+00  0.00000000000E+00 -0.20966699635E+03  0.20966699641E+03  0.50400001928E-02 0. -1.
    10030    2    1    2    0    0  0.00000000000E+00  0.00000000000E+00  0.95965556059E+02  0.51529954886E+03  0.50628473916E+03 0.  0.
        5    1    3    3  502    0  0.18369923896E+03  0.13964992454E+03  0.15381235190E+03  0.27735868729E+03  0.46999998093E+01 0.  1.
       -5    1    3    3    0  502 -0.18369923896E+03 -0.13964992454E+03 -0.57846795844E+02  0.23794086157E+03  0.46999998093E+01 0. -1.
</event>
<event>
 5   0  0.3329246E-01  0.5200166E+03  0.7818609E-02  0.1008682E+00
        2   -1    0    0  501    0  0.00000000000E+00  0.00000000000E+00  0.78673559271E+03  0.78673559271E+03  0.25500000920E-02 0. -1.
       -2   -1    0    0    0  501  0.00000000000E+00  0.00000000000E+00 -0.85930147564E+02  0.85930147602E+02  0.25500000920E-02 0.  1.
    10030    2    1    2    0    0  0.00000000000E+00  0.00000000000E+00  0.70080544514E+03  0.87266574031E+03  0.52001655971E+03 0.  0.
        2    1    3    3  502    0  0.20129346235E+03 -0.78899065988E+02  0.10802660173E+03  0.24168960939E+03  0.25500000920E-02 0.  1.
       -2    1    3    3    0  502 -0.20129346235E+03  0.78899065988E+02  0.59277884341E+03  0.63097613093E+03  0.25500000920E-02 0. -1.
</event>
<event>
 5   0  0.3329246E-01  0.5022015E+03  0.7818609E-02  0.1013206E+00
       -2   -1    0    0    0  501  0.00000000000E+00  0.00000000000E+00  0.14172682389E+03  0.14172682391E+03  0.25500000920E-02 0. -1.
        2   -1    0    0  501    0  0.00000000000E+00  0.00000000000E+00 -0.44488105352E+03  0.44488105353E+03  0.25500000920E-02 0.  1.
    10030    2    1    2    0    0  0.00000000000E+00  0.00000000000E+00 -0.30315422963E+03  0.58660787744E+03  0.50220146847E+03 0.  0.
        2    1    3    3  502    0  0.16699185473E+03 -0.12883884892E+03  0.75804674953E+01  0.21105258120E+03  0.25500000920E-02 0. -1.
       -2    1    3    3    0  502 -0.16699185473E+03  0.12883884892E+03 -0.31073469712E+03  0.37555529625E+03  0.25500000920E-02 0.  1.
</event>
<event>
 5   0  0.1984297E-01  0.3864180E+03  0.7818609E-02  0.1048587E+00
        1   -1    0    0  501    0  0.00000000000E+00  0.00000000000E+00  0.84162717727E+02  0.84162717878E+02  0.50400001928E-02 0. -1.
       -1   -1    0    0    0  501  0.00000000000E+00  0.00000000000E+00 -0.44354212253E+03  0.44354212256E+03  0.50400001928E-02 0.  1.
    10030    2    1    2    0    0  0.00000000000E+00  0.00000000000E+00 -0.35937940480E+03  0.52770484043E+03  0.38641796286E+03 0.  0.
        3    1    3    3  502    0  0.14898498177E+03 -0.94524933300E+02 -0.72175211744E+02  0.19063252398E+03  0.10100000352E+00 0. -1.
       -3    1    3    3    0  502 -0.14898498177E+03  0.94524933300E+02 -0.28720419306E+03  0.33707231645E+03  0.10100000352E+00 0.  1.
</event>
<event>
 5   0  0.3117389E-01  0.4711300E+03  0.7818609E-02  0.1021602E+00
       -2   -1    0    0    0  501  0.00000000000E+00  0.00000000000E+00  0.12953068057E+03  0.12953068059E+03  0.25500000920E-02 0.  1.
        2   -1    0    0  501    0  0.00000000000E+00  0.00000000000E+00 -0.42839943903E+03  0.42839943904E+03  0.25500000920E-02 0. -1.
    10030    2    1    2    0    0  0.00000000000E+00  0.00000000000E+00 -0.29886875846E+03  0.55793011963E+03  0.47113000712E+03 0.  0.
        4    1    3    3  502    0 -0.18557142195E+02  0.17566942347E+03 -0.33398239658E+03  0.37782266739E+03  0.12699999809E+01 0. -1.
       -4    1    3    3    0  502  0.18557142195E+02 -0.17566942347E+03  0.35113638116E+02  0.18010745224E+03  0.12699999809E+01 0.  1.
</event>
<event>
 5   0  0.1967161E-01  0.5044088E+03  0.7818609E-02  0.1012635E+00
       -1   -1    0    0    0  501  0.00000000000E+00  0.00000000000E+00  0.97855773166E+03  0.97855773168E+03  0.50400001928E-02 0.  1.
        1   -1    0    0  501    0  0.00000000000E+00  0.00000000000E+00 -0.65000832303E+02  0.65000832498E+02  0.50400001928E-02 0. -1.
    10030    2    1    2    0    0  0.00000000000E+00  0.00000000000E+00  0.91355689936E+03  0.10435585642E+04  0.50440883071E+03 0.  0.
        1    1    3    3  502    0  0.23218572916E+03  0.80723557360E+02  0.34010123628E+03  0.41963717243E+03  0.50400001928E-02 0.  1.
       -1    1    3    3    0  502 -0.23218572916E+03 -0.80723557360E+02  0.57345566308E+03  0.62392139175E+03  0.50400001928E-02 0. -1.
</event>
<event>
 5   0  0.3329246E-01  0.4937801E+03  0.7818609E-02  0.1015415E+00
        2   -1    0    0  501    0  0.00000000000E+00  0.00000000000E+00  0.11944924024E+04  0.11944924024E+04  0.25500000920E-02 0.  1.
       -2   -1    0    0    0  501  0.00000000000E+00  0.00000000000E+00 -0.51029787122E+02  0.51029787186E+02  0.25500000920E-02 0. -1.
    10030    2    1    2    0    0  0.00000000000E+00  0.00000000000E+00  0.11434626153E+04  0.12455221896E+04  0.49378008487E+03 0.  0.
        2    1    3    3  502    0 -0.22074047404E+03  0.10709024490E+03  0.50219219297E+03  0.55892009815E+03  0.25500000920E-02 0. -1.
       -2    1    3    3    0  502  0.22074047404E+03 -0.10709024490E+03  0.64127042230E+03  0.68660209143E+03  0.25500000920E-02 0.  1.
</event>
<event>
 5   0  0.1984297E-01  0.4956768E+03  0.7818609E-02  0.1014914E+00
       -1   -1    0    0    0  501  0.00000000000E+00  0.00000000000E+00  0.10618342517E+03  0.10618342529E+03  0.50400001928E-02 0.  1.
        1   -1    0    0  501    0  0.00000000000E+00  0.00000000000E+00 -0.57846958644E+03  0.57846958646E+03  0.50400001928E-02 0. -1.
    10030    2    1    2    0    0  0.00000000000E+00  0.00000000000E+00 -0.47228616127E+03  0.68465301175E+03  0.49567683865E+03 0.  0.
        3    1    3    3  502    0 -0.13327375426E+03  0.15612196350E+03 -0.44313979628E+02  0.20999928584E+03  0.10100000352E+00 0.  1.
       -3    1    3    3    0  502  0.13327375426E+03 -0.15612196350E+03 -0.42797218164E+03  0.47465372591E+03  0.10100000352E+00 0. -1.
</event>
<event>
 5   0  0.1292375E-01  0.4976078E+03  0.7818609E-02  0.1014405E+00
       -3   -1    0    0    0  501  0.00000000000E+00  0.00000000000E+00  0.22869256868E+03  0.22869259098E+03  0.10100000352E+00 0.  1.
        3   -1    0    0  501    0  0.00000000000E+00  0.00000000000E+00 -0.27068379265E+03  0.27068381149E+03  0.10100000352E+00 0. -1.
    10030    2    1    2    0    0  0.00000000000E+00  0.00000000000E+00 -0.41991223974E+02  0.49937640247E+03  0.49760780586E+03 0.  0.
        1    1    3    3  502    0 -0.92229806135E+02 -0.15076544555E+03 -0.19673748151E+03  0.26446586427E+03  0.50400001928E-02 0. -1.
       -1    1    3    3    0  502  0.92229806135E+02  0.15076544555E+03  0.15474625753E+03  0.23491053820E+03  0.50400001928E-02 0.  1.
</event>
<event>
 5   0  0.3111146E-01  0.5048381E+03  0.7818609E-02  0.1012524E+00
        2   -1    0    0  501    0  0.00000000000E+00  0.00000000000E+00  0.12649555244E+04  0.12649555244E+04  0.25500000920E-02 0.  1.
       -2   -1    0    0    0  501  0.00000000000E+00  0.00000000000E+00 -0.50369660471E+02  0.50369660536E+02  0.25500000920E-02 0. -1.
    10030    2    1    2    0    0  0.00000000000E+00  0.00000000000E+00  0.12145858639E+04  0.13153251849E+04  0.50483811393E+03 0.  0.
        1    1    3    3  502    0 -0.46988028071E+02 -0.24315208234E+03  0.48006394429E+03  0.54017793417E+03  0.50400001928E-02 0.  1.
       -1    1    3    3    0  502  0.46988028071E+02  0.24315208234E+03  0.73452191963E+03  0.77514725076E+03  0.50400001928E-02 0. -1.
</event>
<event>
 5   0  0.3187123E-01  0.4927532E+03  0.7818609E-02  0.1015688E+00
       -2   -1    0    0    0  501  0.00000000000E+00  0.00000000000E+00  0.18527711990E+03  0.18527711992E+03  0.25500000920E-02 0.  1.
        2   -1    0    0  501    0  0.00000000000E+00  0.00000000000E+00 -0.32762504262E+03  0.32762504263E+03  0.25500000920E-02 0. -1.
    10030    2    1    2    0    0  0.00000000000E+00  0.00000000000E+00 -0.14234792272E+03  0.51290216255E+03  0.49275318086E+03 0.  0.
        5    1    3    3  502    0 -0.26106195316E+01  0.10631900742E+03 -0.30245036472E+03  0.32063820700E+03  0.46999998093E+01 0. -1.
       -5    1    3    3    0  502  0.26106195316E+01 -0.10631900742E+03  0.16010244200E+03  0.19226395555E+03  0.46999998093E+01 0.  1.
</event>
<event>
 5   0  0.1967161E-01  0.4988284E+03  0.7818609E-02  0.1014085E+00
        1   -1    0    0  501    0  0.00000000000E+00  0.00000000000E+00  0.50648739227E+03  0.50648739229E+03  0.50400001928E-02 0.  1.
       -1   -1    0    0    0  501  0.00000000000E+00  0.00000000000E+00 -0.12282129712E+03  0.12282129722E+03  0.50400001928E-02 0. -1.
    10030    2    1    2    0    0  0.00000000000E+00  0.00000000000E+00  0.38366609515E+03  0.62930868952E+03  0.49882838145E+03 0.  0.
        1    1    3    3  502    0 -0.24829913315E+01  0.10797146789E+03  0.47545833688E+03  0.48757013163E+03  0.50400001928E-02 0.  1.
       -1    1    3    3    0  502  0.24829913315E+01 -0.10797146789E+03 -0.91792241735E+02  0.14173855789E+03  0.50400001928E-02 0. -1.
</event>
<event>
 5   0  0.2000612E-01  0.5330613E+03  0.7818609E-02  0.1005492E+00
        1   -1    0    0  501    0  0.00000000000E+00  0.00000000000E+00  0.19716148592E+04  0.19716148592E+04  0.50400001928E-02 0. -1.
       -1   -1    0    0    0  501  0.00000000000E+00  0.00000000000E+00 -0.36030662269E+02  0.36030662622E+02  0.50400001928E-02 0.  1.
    10030    2    1    2    0    0  0.00000000000E+00  0.00000000000E+00  0.19355841969E+04  0.20076455218E+04  0.53306130783E+03 0.  0.
        2    1    3    3  502    0  0.12442954872E+03 -0.18317583204E+03  0.40913437894E+03  0.46521719451E+03  0.25500000920E-02 0.  1.
       -2    1    3    3    0  502 -0.12442954872E+03  0.18317583204E+03  0.15264498180E+04  0.15424283273E+04  0.25500000920E-02 0. -1.
</event>
<event>
 5   0  0.2013450E-01  0.4990978E+03  0.7818609E-02  0.1014015E+00
        1   -1    0    0  501    0  0.00000000000E+00  0.00000000000E+00  0.14240029371E+03  0.14240029380E+03  0.50400001928E-02 0.  1.
       -1   -1    0    0    0  501  0.00000000000E+00  0.00000000000E+00 -0.43732105391E+03  0.43732105394E+03  0.50400001928E-02 0. -1.
    10030    2    1    2    0    0  0.00000000000E+00  0.00000000000E+00 -0.29492076019E+03  0.57972134774E+03  0.49909777221E+03 0.  0.
        4    1    3    3  502    0  0.19652086072E+03  0.14308505708E+03 -0.21295356302E+03  0.32317892128E+03  0.12699999809E+01 0. -1.
       -4    1    3    3    0  502 -0.19652086072E+03 -0.14308505708E+03 -0.81967197172E+02  0.25654242645E+03  0.12699999809E+01 0.  1.
</event>
<event>
 5   0  0.3329246E-01  0.5388916E+03  0.7818609E-02  0.1004098E+00
        2   -1    0    0  501    0  0.00000000000E+00  0.00000000000E+00  0.16617488391E+04  0.16617488391E+04  0.25500000920E-02 0.  1.
       -2   -1    0    0    0  501  0.00000000000E+00  0.00000000000E+00 -0.43689542763E+02  0.43689542837E+02  0.25500000920E-02 0. -1.
    10030    2    1    2    0    0  0.00000000000E+00  0.00000000000E+00  0.16180592963E+04  0.17054383820E+04  0.53889162930E+03 0.  0.
        2    1    3    3  502    0  0.18976013119E+03  0.36641856365E+02  0.21485904389E+03  0.28899124862E+03  0.25500000920E-02 0. -1.
       -2    1    3    3    0  502 -0.18976013119E+03 -0.36641856365E+02  0.14032002525E+04  0.14164471333E+04  0.25500000920E-02 0.  1.
</event>
<event>
 5   0  0.3329246E-01  0.4936649E+03  0.7818609E-02  0.1015446E+00
       -2   -1    0    0    0  501  0.00000000000E+00  0.00000000000E+00  0.11682226203E+03  0.11682226205E+03  0.25500000920E-02 0.  1.
        2   -1    0    0  501    0  0.00000000000E+00  0.00000000000E+00 -0.52152948957E+03  0.52152948958E+03  0.25500000920E-02 0. -1.
    10030    2    1    2    0    0  0.00000000000E+00  0.00000000000E+00 -0.40470722754E+03  0.63835175163E+03  0.49366488510E+03 0.  0.
        2    1    3    3  502    0 -0.18330808371E+03  0.84902062601E+01 -0.41582001976E+03  0.45451097456E+03  0.25500000920E-02 0. -1.
       -2    1    3    3    0  502  0.18330808371E+03 -0.84902062601E+01  0.11112792213E+02  0.18384077707E+03  0.25500000920E-02 0.  1.
</event>
<event>
 5   0  0.3117389E-01  0.4159822E+03  0.7818609E-02  0.1038382E+00
       -2   -1    0    0    0  501  0.00000000000E+00  0.00000000000E+00  0.57798381550E+02  0.57798381606E+02  0.25500000920E-02 0.  1.
        2   -1    0    0  501    0  0.00000000000E+00  0.00000000000E+00 -0.74846914831E+03  0.74846914832E+03  0.25500000920E-02 0. -1.
    10030    2    1    2    0    0  0.00000000000E+00  0.00000000000E+00 -0.69067076676E+03  0.80626752992E+03  0.41598223730E+03 0.  0.
        4    1    3    3  502    0 -0.15235651828E+03 -0.77090315124E+01 -0.61935113273E+03  0.63786313293E+03  0.12699999809E+01 0. -1.
       -4    1    3    3    0  502  0.15235651828E+03  0.77090315124E+01 -0.71319634028E+02  0.16840439699E+03  0.12699999809E+01 0.  1.
</event>
<event>
 5   0  0.1292375E-01  0.5009832E+03  0.7818609E-02  0.1013523E+00
       -3   -1    0    0    0  501  0.00000000000E+00  0.00000000000E+00  0.16115272675E+03  0.16115275840E+03  0.10100000352E+00 0.  1.
        3   -1    0    0  501    0  0.00000000000E+00  0.00000000000E+00 -0.38935758902E+03  0.38935760212E+03  0.10100000352E+00 0. -1.
    10030    2    1    2    0    0  0.00000000000E+00  0.00000000000E+00 -0.22820486228E+03  0.55051036052E+03  0.50098323113E+03 0.  0.
        3    1    3    3  502    0 -0.21317154245E+03  0.11162190650E+03 -0.37619237503E+02  0.24355035157E+03  0.10100000352E+00 0.  1.
       -3    1    3    3    0  502  0.21317154245E+03 -0.11162190650E+03 -0.19058562477E+03  0.30696000894E+03  0.10100000352E+00 0. -1.
</event>
<event>
 5   0  0.3187123E-01  0.5051177E+03  0.7818609E-02  0.1012452E+00
        2   -1    0    0  501    0  0.00000000000E+00  0.00000000000E+00  0.56604590146E+03  0.56604590147E+03  0.25500000920E-02 0. -1.
       -2   -1    0    0    0  501  0.00000000000E+00  0.00000000000E+00 -0.11268691665E+03  0.11268691668E+03  0.25500000920E-02 0.  1.
    10030    2    1    2    0    0  0.00000000000E+00  0.00000000000E+00  0.45335898481E+03  0.67873281815E+03  0.50511767869E+03 0.  0.
        5    1    3    3  502    0 -0.65871332516E+02  0.91354160756E+02 -0.77009176359E+02  0.13651783172E+03  0.46999998093E+01 0.  1.
       -5    1    3    3    0  502  0.65871332516E+02 -0.91354160756E+02  0.53036816117E+03  0.54221498643E+03  0.46999998093E+01 0. -1.
</event>
<event>
 5   0  0.3329246E-01  0.5048047E+03  0.7818609E-02  0.1012532E+00
        2   -1    0    0  501    0  0.00000000000E+00  0.00000000000E+00  0.70118940284E+03  0.70118940284E+03  0.25500000920E-02 0. -1.
       -2   -1    0    0    0  501  0.00000000000E+00  0.00000000000E+00 -0.90855531001E+02  0.90855531037E+02  0.25500000920E-02 0.  1.
    10030    2    1    2    0    0  0.00000000000E+00  0.00000000000E+00  0.61033387184E+03  0.79204493388E+03  0.50480465744E+03 0.  0.
        2    1    3    3  502    0  0.10276095369E+03  0.56611806670E+02 -0.45472219828E+02  0.12582699647E+03  0.25500000920E-02 0.  1.
       -2    1    3    3    0  502 -0.10276095369E+03 -0.56611806670E+02  0.65580609167E+03  0.66621793741E+03  0.25500000920E-02 0. -1.
</event>
<event>
 5   0  0.3111146E-01  0.5000559E+03  0.7818609E-02  0.1013764E+00
        2   -1    0    0  501    0  0.00000000000E+00  0.00000000000E+00  0.68552728498E+03  0.68552728499E+03  0.25500000920E-02 0.  1.
       -2   -1    0    0    0  501  0.00000000000E+00  0.00000000000E+00 -0.91191081435E+02  0.91191081471E+02  0.25500000920E-02 0. -1.
    10030    2    1    2    0    0  0.00000000000E+00  0.00000000000E+00  0.59433620355E+03  0.77671836646E+03  0.50005589482E+03 0.  0.
        1    1    3    3  502    0 -0.11196159022E+03 -0.21823327360E+03  0.37251040975E+03  0.44601027431E+03  0.50400001928E-02 0. -1.
       -1    1    3    3    0  502  0.11196159022E+03  0.21823327360E+03  0.22182579380E+03  0.33070809215E+03  0.50400001928E-02 0.  1.
</event>
<event>
 5   0  0.3117389E-01  0.4810496E+03  0.7818609E-02  0.1018847E+00
        2   -1    0    0  501    0  0.00000000000E+00  0.00000000000E+00  0.13523552007E+03  0.13523552009E+03  0.25500000920E-02 0.  1.
       -2   -1    0    0    0  501  0.00000000000E+00  0.00000000000E+00 -0.42778830644E+03  0.42778830645E+03  0.25500000920E-02 0. -1.
    10030    2    1    2    0    0  0.00000000000E+00  0.00000000000E+00 -0.29255278637E+03  0.56302382654E+03  0.48104957794E+03 0.  0.
        4    1    3    3  502    0  0.73118886102E+02 -0.21350514533E+03 -0.24363669394E+03  0.33210129497E+03  0.12699999809E+01 0. -1.
       -4    1    3    3    0  502 -0.73118886102E+02  0.21350514533E+03 -0.48916092433E+02  0.23092253157E+03  0.12699999809E+01 0.  1.
</event>
<event>
 5   0  0.3117389E-01  0.4847153E+03  0.7818609E-02  0.1017847E+00
        2   -1    0    0  501    0  0.00000000000E+00  0.00000000000E+00  0.53805508092E+03  0.53805508093E+03  0.25500000920E-02 0. -1.
       -2   -1    0    0    0  501  0.00000000000E+00  0.00000000000E+00 -0.10916581149E+03  0.10916581152E+03  0.25500000920E-02 0.  1.
    10030    2    1    2    0    0  0.00000000000E+00  0.00000000000E+00  0.42888926943E+03  0.64722089244E+03  0.48471525474E+03 0.  0.
        4    1    3    3  502    0  0.72940201673E+02 -0.20922134812E+03  0.34555711215E+03  0.41049381991E+03  0.12699999809E+01 0. -1.
       -4    1    3    3    0  502 -0.72940201673E+02  0.20922134812E+03  0.83332157286E+02  0.23672707253E+03  0.12699999809E+01 0.  1.
</event>
<event>
 5   0  0.3187123E-01  0.4816225E+03  0.7818609E-02  0.1018690E+00
        2   -1    0    0  501    0  0.00000000000E+00  0.00000000000E+00  0.47401950645E+03  0.47401950646E+03  0.25500000920E-02 0. -1.
       -2   -1    0    0    0  501  0.00000000000E+00  0.00000000000E+00 -0.12233684056E+03  0.12233684058E+03  0.25500000920E-02 0.  1.
    10030    2    1    2    0    0  0.00000000000E+00  0.00000000000E+00  0.35168266589E+03  0.59635634704E+03  0.48162246123E+03 0.  0.
        5    1    3    3  502    0 -0.22785577350E+03  0.77775360936E+02  0.17480646752E+03  0.29756789372E+03  0.46999998093E+01 0.  1.
       -5    1    3    3    0  502  0.22785577350E+03 -0.77775360936E+02  0.17687619837E+03  0.29878845332E+03  0.46999998093E+01 0. -1.
</event>
<event>
 5   0  0.2000612E-01  0.5018473E+03  0.7818609E-02  0.1013298E+00
       -1   -1    0    0    0  501  0.00000000000E+00  0.00000000000E+00  0.21282624913E+03  0.21282624918E+03  0.50400001928E-02 0. -1.
        1   -1    0    0  501    0  0.00000000000E+00  0.00000000000E+00 -0.29584074948E+03  0.29584074953E+03  0.50400001928E-02 0.  1.
    10030    2    1    2    0    0  0.00000000000E+00  0.00000000000E+00 -0.83014500359E+02  0.50866699871E+03  0.50184729581E+03 0.  0.
        2    1    3    3  502    0 -0.18173176976E+03 -0.78563133665E+02  0.11474361505E+03  0.22883334397E+03  0.25500000920E-02 0. -1.
       -2    1    3    3    0  502  0.18173176976E+03  0.78563133665E+02 -0.19775811541E+03  0.27983365474E+03  0.25500000920E-02 0.  1.
</event>
<event>
 5   0  0.3187123E-01  0.5409646E+03  0.7818609E-02  0.1003607E+00
       -2   -1    0    0    0  501  0.00000000000E+00  0.00000000000E+00  0.67300258535E+02  0.67300258583E+02  0.25500000920E-02 0. -1.
        2   -1    0    0  501    0  0.00000000000E+00  0.00000000000E+00 -0.10870788546E+04  0.10870788547E+04  0.25500000920E-02 0.  1.
    10030    2    1    2    0    0  0.00000000000E+00  0.00000000000E+00 -0.10197785961E+04  0.11543791132E+04  0.54096464947E+03 0.  0.
        5    1    3    3  502    0  0.16773381402E+03  0.37374021169E+02 -0.95550287754E+03  0.97084462651E+03  0.46999998093E+01 0.  1.
       -5    1    3    3    0  502 -0.16773381402E+03 -0.37374021169E+02 -0.64275718571E+02  0.18353448673E+03  0.46999998093E+01 0. -1.
</event>
<event>
 5   0  0.3178149E-01  0.5064879E+03  0.7818609E-02  0.1012099E+00
        2   -1    0    0  501    0  0.00000000000E+00  0.00000000000E+00  0.14422234240E+04  0.14422234240E+04  0.25500000920E-02 0.  1.
       -2   -1    0    0    0  501  0.00000000000E+00  0.00000000000E+00 -0.44467794811E+02  0.44467794884E+02  0.25500000920E-02 0. -1.
    10030    2    1    2    0    0  0.00000000000E+00  0.00000000000E+00  0.13977556292E+04  0.14866912189E+04  0.50648788869E+03 0.  0.
        3    1    3    3  502    0 -0.92586678002E+02 -0.19823399252E+03  0.32454456574E+03  0.39140540886E+03  0.10100000352E+00 0. -1.
       -3    1    3    3    0  502  0.92586678002E+02  0.19823399252E+03  0.10732110635E+04  0.10952858100E+04  0.10100000352E+00 0.  1.
</event>
<event>
 5   0  0.1292375E-01  0.5011151E+03  0.7818609E-02  0.1013488E+00
       -4   -1    0    0    0  501  0.00000000000E+00  0.00000000000E+00  0.20934619201E+03  0.20935004421E+03  0.12699999809E+01 0.  1.
        4   -1    0    0  501    0  0.00000000000E+00  0.00000000000E+00 -0.29987372390E+03  0.29987641319E+03  0.12699999809E+01 0. -1.
    10030    2    1    2    0    0  0.00000000000E+00  0.00000000000E+00 -0.90527531887E+02  0.50922645739E+03  0.50111510742E+03 0.  0.
        2    1    3    3  502    0  0.97243907084E+02  0.19157246229E+03  0.85752214969E+02  0.23132191455E+03  0.25500000920E-02 0.  1.
       -2    1    3    3    0  502 -0.97243907084E+02 -0.19157246229E+03 -0.17627974686E+03  0.27790454284E+03  0.25500000920E-02 0. -1.
</event>
<event>
 5   0  0.2013450E-01  0.4714504E+03  0.7818609E-02  0.1021512E+00
       -1   -1    0    0    0  501  0.00000000000E+00  0.00000000000E+00  0.20100806851E+03  0.20100806858E+03  0.50400001928E-02 0.  1.
        1   -1    0    0  501    0  0.00000000000E+00  0.00000000000E+00 -0.27643855171E+03  0.27643855176E+03  0.50400001928E-02 0. -1.
    10030    2    1    2    0    0  0.00000000000E+00  0.00000000000E+00 -0.75430483197E+02  0.47744662033E+03  0.47145044010E+03 0.  0.
        4    1    3    3  502    0 -0.17802345625E+03  0.73676001495E+01 -0.19400936346E+03  0.26341579019E+03  0.12699999809E+01 0. -1.
       -4    1    3    3    0  502  0.17802345625E+03 -0.73676001495E+01  0.11857888027E+03  0.21403083015E+03  0.12699999809E+01 0.  1.
</event>
<event>
 5   0  0.1984680E-01  0.5005945E+03  0.7818609E-02  0.1013624E+00
        1   -1    0    0  501    0  0.00000000000E+00  0.00000000000E+00  0.13675218516E+03  0.13675218526E+03  0.50400001928E-02 0. -1.
       -1   -1    0    0    0  501  0.00000000000E+00  0.00000000000E+00 -0.45811861568E+03  0.45811861571E+03  0.50400001928E-02 0.  1.
    10030    2    1    2    0    0  0.00000000000E+00  0.00000000000E+00 -0.32136643052E+03  0.59487080096E+03  0.50059453371E+03 0.  0.
        5    1    3    3  502    0 -0.18842256366E+03  0.15953049903E+03 -0.11206925757E+03  0.27117273298E+03  0.46999998093E+01 0. -1.
       -5    1    3    3    0  502  0.18842256366E+03 -0.15953049903E+03 -0.20929717294E+03  0.32369806799E+03  0.46999998093E+01 0.  1.
</event>
<event>
 5   0  0.1984680E-01  0.5014937E+03  0.7818609E-02  0.1013390E+00
       -1   -1    0    0    0  501  0.00000000000E+00  0.00000000000E+00  0.28363989409E+03  0.28363989413E+03  0.50400001928E-02 0.  1.
        1   -1    0    0  501    0  0.00000000000E+00  0.00000000000E+00 -0.22166831953E+03  0.22166831958E+03  0.50400001928E-02 0. -1.
    10030    2    1    2    0    0  0.00000000000E+00  0.00000000000E+00  0.61971574564E+02  0.50530821372E+03  0.50149368370E+03 0.  0.
        5    1    3    3  502    0  0.10384894301E+03 -0.21582154248E+03 -0.43661098239E+02  0.24349932784E+03  0.46999998093E+01 0. -1.
       -5    1    3    3    0  502 -0.10384894301E+03  0.21582154248E+03  0.10563267280E+03  0.26180888588E+03  0.46999998093E+01 0.  1.
</event>
<event>
 5   0  0.1292375E-01  0.5004516E+03  0.7818609E-02  0.1013661E+00
        3   -1    0    0  501    0  0.00000000000E+00  0.00000000000E+00  0.43424918222E+02  0.43425035677E+02  0.10100000352E+00 0. -1.
       -3   -1    0    0    0  501  0.00000000000E+00  0.00000000000E+00 -0.14418645354E+04  0.14418645389E+04  0.10100000352E+00 0.  1.
    10030    2    1    2    0    0  0.00000000000E+00  0.00000000000E+00 -0.13984396172E+04  0.14852895746E+04  0.50045155366E+03 0.  0.
        5    1    3    3  502    0 -0.68063832661E+02  0.34789968342E+02 -0.14062267707E+04  0.14083106361E+04  0.46999998093E+01 0.  1.
       -5    1    3    3    0  502  0.68063832661E+02 -0.34789968342E+02  0.77871535087E+01  0.76978938495E+02  0.46999998093E+01 0. -1.
</event>
<event>
 5   0  0.1292375E-01  0.5007278E+03  0.7818609E-02  0.1013589E+00
        3   -1    0    0  501    0  0.00000000000E+00  0.00000000000E+00  0.83572769642E+03  0.83572770253E+03  0.10100000352E+00 0.  1.
       -3   -1    0    0    0  501  0.00000000000E+00  0.00000000000E+00 -0.75002951433E+02  0.75003019437E+02  0.10100000352E+00 0. -1.
    10030    2    1    2    0    0  0.00000000000E+00  0.00000000000E+00  0.76072474499E+03  0.91073072196E+03  0.50072778062E+03 0.  0.
        4    1    3    3  502    0  0.16666646189E+02 -0.23681291045E+03  0.52498191526E+03  0.57616469512E+03  0.12699999809E+01 0.  1.
       -4    1    3    3    0  502 -0.16666646189E+02  0.23681291045E+03  0.23574282973E+03  0.33456602685E+03  0.12699999809E+01 0. -1.
</event>
<event>
 5   0  0.3111146E-01  0.5501031E+03  0.7818609E-02  0.1001470E+00
        2   -1    0    0  501    0  0.00000000000E+00  0.00000000000E+00  0.18323241145E+04  0.18323241145E+04  0.25500000920E-02 0.  1.
       -2   -1    0    0    0  501  0.00000000000E+00  0.00000000000E+00 -0.41288200574E+02  0.41288200653E+02  0.25500000920E-02 0. -1.
    10030    2    1    2    0    0  0.00000000000E+00  0.00000000000E+00  0.17910359139E+04  0.18736123152E+04  0.55010313809E+03 0.  0.
        1    1    3    3  502    0 -0.11312253580E+02  0.89492802394E+02  0.17805120402E+04  0.17827955728E+04  0.50400001928E-02 0.  1.
       -1    1    3    3    0  502  0.11312253580E+02 -0.89492802394E+02  0.10523873708E+02  0.90816742425E+02  0.50400001928E-02 0. -1.
</event>
<event>
 5   0  0.3111146E-01  0.4976901E+03  0.7818609E-02  0.1014384E+00
        2   -1    0    0  501    0  0.00000000000E+00  0.00000000000E+00  0.17725982015E+03  0.17725982017E+03  0.25500000920E-02 0.  1.
       -2   -1    0    0    0  501  0.00000000000E+00  0.00000000000E+00 -0.34933955663E+03  0.34933955664E+03  0.25500000920E-02 0. -1.
    10030    2    1    2    0    0  0.00000000000E+00  0.00000000000E+00 -0.17207973648E+03  0.52659937681E+03  0.49769013246E+03 0.  0.
        1    1    3    3  502    0  0.94217835322E+02  0.20980175430E+03  0.14506724651E+02  0.23044353253E+03  0.50400001928E-02 0.  1.
       -1    1    3    3    0  502 -0.94217835322E+02 -0.20980175430E+03 -0.18658646113E+03  0.29615584428E+03  0.50400001928E-02 0. -1.
</event>
<event>
 5   0  0.2013450E-01  0.4902719E+03  0.7818609E-02  0.1016350E+00
        1   -1    0    0  501    0  0.00000000000E+00  0.00000000000E+00  0.65609249171E+03  0.65609249173E+03  0.50400001928E-02 0.  1.
       -1   -1    0    0    0  501  0.00000000000E+00  0.00000000000E+00 -0.91590173928E+02  0.91590174067E+02  0.50400001928E-02 0. -1.
    10030    2    1    2    0    0  0.00000000000E+00  0.00000000000E+00  0.56450231779E+03  0.74768266580E+03  0.49027186535E+03 0.  0.
        4    1    3    3  502    0 -0.23139878843E+03  0.48066486774E+02  0.38148672818E+03  0.44876444057E+03  0.12699999809E+01 0.  1.
       -4    1    3    3    0  502  0.23139878843E+03 -0.48066486774E+02  0.18301558960E+03  0.29891822523E+03  0.12699999809E+01 0. -1.
</event>
<event>
 5   0  0.3329246E-01  0.4832146E+03  0.7818609E-02  0.1018255E+00
       -2   -1    0    0    0  501  0.00000000000E+00  0.00000000000E+00  0.11706276783E+03  0.11706276785E+03  0.25500000920E-02 0.  1.
        2   -1    0    0  501    0  0.00000000000E+00  0.00000000000E+00 -0.49865634997E+03  0.49865634997E+03  0.25500000920E-02 0. -1.
    10030    2    1    2    0    0  0.00000000000E+00  0.00000000000E+00 -0.38159358214E+03  0.61571911783E+03  0.48321462119E+03 0.  0.
        2    1    3    3  502    0 -0.13599309645E+03 -0.18054803644E+03 -0.29953424110E+03  0.37524988653E+03  0.25500000920E-02 0. -1.
       -2    1    3    3    0  502  0.13599309645E+03  0.18054803644E+03 -0.82059341043E+02  0.24046923130E+03  0.25500000920E-02 0.  1.
</event>
<event>
 5   0  0.1984680E-01  0.5020076E+03  0.7818609E-02  0.1013256E+00
       -1   -1    0    0    0  501  0.00000000000E+00  0.00000000000E+00  0.22680827877E+03  0.22680827882E+03  0.50400001928E-02 0. -1.
        1   -1    0    0  501    0  0.00000000000E+00  0.00000000000E+00 -0.27778049851E+03  0.27778049856E+03  0.50400001928E-02 0.  1.
    10030    2    1    2    0    0  0.00000000000E+00  0.00000000000E+00 -0.50972219743E+02  0.50458877738E+03  0.50200763647E+03 0.  0.
        5    1    3    3  502    0  0.15595317437E+03  0.12687439140E+03 -0.17646602239E+03  0.26754597894E+03  0.46999998093E+01 0.  1.
       -5    1    3    3    0  502 -0.15595317437E+03 -0.12687439140E+03  0.12549380265E+03  0.23704279844E+03  0.46999998093E+01 0. -1.
</event>
<event>
 5   0  0.3187123E-01  0.4753321E+03  0.7818609E-02  0.1020426E+00
        2   -1    0    0  501    0  0.00000000000E+00  0.00000000000E+00  0.45369491929E+03  0.45369491929E+03  0.25500000920E-02 0. -1.
       -2   -1    0    0    0  501  0.00000000000E+00  0.00000000000E+00 -0.12450031863E+03  0.12450031866E+03  0.25500000920E-02 0.  1.
    10030    2    1    2    0    0  0.00000000000E+00  0.00000000000E+00  0.32919460066E+03  0.57819523795E+03  0.47533214502E+03 0.  0.
        5    1    3    3  502    0  0.21113380132E+03 -0.69631888823E+02  0.62557219730E+02  0.23100125052E+03  0.46999998093E+01 0. -1.
       -5    1    3    3    0  502 -0.21113380132E+03  0.69631888823E+02  0.26663738093E+03  0.34719398743E+03  0.46999998093E+01 0.  1.
</event>
<event>
 5   0  0.3187123E-01  0.5474922E+03  0.7818609E-02  0.1002076E+00
       -2   -1    0    0    0  501  0.00000000000E+00  0.00000000000E+00  0.46613941785E+02  0.46613941855E+02  0.25500000920E-02 0.  1.
        2   -1    0    0  501    0  0.00000000000E+00  0.00000000000E+00 -0.16076078173E+04  0.16076078173E+04  0.25500000920E-02 0. -1.
    10030    2    1    2    0    0  0.00000000000E+00  0.00000000000E+00 -0.15609938755E+04  0.16542217591E+04  0.54749223654E+03 0.  0.
        5    1    3    3  502    0 -0.10582054064E+03  0.16527135132E+02 -0.15415414594E+04  0.15452647974E+04  0.46999998093E+01 0. -1.
       -5    1    3    3    0  502  0.10582054064E+03 -0.16527135132E+02 -0.19452416068E+02  0.10895696172E+03  0.46999998093E+01 0.  1.
</event>
<event>
 5   0  0.1967161E-01  0.5028703E+03  0.7818609E-02  0.1013032E+00
        1   -1    0    0  501    0  0.00000000000E+00  0.00000000000E+00  0.78970336997E+03  0.78970336998E+03  0.50400001928E-02 0.  1.
       -1   -1    0    0    0  501  0.00000000000E+00  0.00000000000E+00 -0.80054927765E+02  0.80054927924E+02  0.50400001928E-02 0. -1.
    10030    2    1    2    0    0  0.00000000000E+00  0.00000000000E+00  0.70964844220E+03  0.86975829790E+03  0.50287034637E+03 0.  0.
        1    1    3    3  502    0 -0.45661487891E+02  0.20233675896E+02 -0.71389368459E+02  0.87125283765E+02  0.50400001928E-02 0. -1.
       -1    1    3    3    0  502  0.45661487891E+02 -0.20233675896E+02  0.78103781066E+03  0.78263301414E+03  0.50400001928E-02 0.  1.
</event>
<event>
 5   0  0.2000612E-01  0.4906538E+03  0.7818609E-02  0.1016248E+00
       -1   -1    0    0    0  501  0.00000000000E+00  0.00000000000E+00  0.32455701003E+03  0.32455701007E+03  0.50400001928E-02 0.  1.
        1   -1    0    0  501    0  0.00000000000E+00  0.00000000000E+00 -0.18543827863E+03  0.18543827870E+03  0.50400001928E-02 0. -1.
    10030    2    1    2    0    0  0.00000000000E+00  0.00000000000E+00  0.13911873140E+03  0.50999528877E+03  0.49065382210E+03 0.  0.
        2    1    3    3  502    0  0.15004031466E+03 -0.19283801121E+03  0.92490263809E+02  0.26125283443E+03  0.25500000920E-02 0.  1.
       -2    1    3    3    0  502 -0.15004031466E+03  0.19283801121E+03  0.46628467596E+02  0.24874245434E+03  0.25500000920E-02 0. -1.
</event>
<event>
 5   0  0.3178149E-01  0.4970386E+03  0.7818609E-02  0.1014555E+00
       -2   -1    0    0    0  501  0.00000000000E+00  0.00000000000E+00  0.44281727852E+02  0.44281727925E+02  0.25500000920E-02 0. -1.
        2   -1    0    0  501    0  0.00000000000E+00  0.00000000000E+00 -0.13947476553E+04  0.13947476553E+04  0.25500000920E-02 0.  1.
    10030    2    1    2    0    0  0.00000000000E+00  0.00000000000E+00 -0.13504659274E+04  0.14390293832E+04  0.49703857454E+03 0.  0.
        3    1    3    3  502    0  0.20233748213E+03  0.13677066091E+03 -0.54208003424E+03  0.59455651043E+03  0.10100000352E+00 0. -1.
       -3    1    3    3    0  502 -0.20233748213E+03 -0.13677066091E+03 -0.80838589315E+03  0.84447287275E+03  0.10100000352E+00 0.  1.
</event>
<event>
 5   0  0.3111146E-01  0.4612715E+03  0.7818609E-02  0.1024413E+00
       -2   -1    0    0    0  501  0.00000000000E+00  0.00000000000E+00  0.15507715333E+03  0.15507715335E+03  0.25500000920E-02 0.  1.
        2   -1    0    0  501    0  0.00000000000E+00  0.00000000000E+00 -0.34300890025E+03  0.34300890026E+03  0.25500000920E-02 0. -1.
    10030    2    1    2    0    0  0.00000000000E+00  0.00000000000E+00 -0.18793174692E+03  0.49808605362E+03  0.46127147680E+03 0.  0.
        1    1    3    3  502    0  0.58777903772E+01 -0.21969195794E+03 -0.18427403682E+02  0.22054177390E+03  0.50400001928E-02 0.  1.
       -1    1    3    3    0  502 -0.58777903772E+01  0.21969195794E+03 -0.16950434324E+03  0.27754427972E+03  0.50400001928E-02 0. -1.
</event>
<event>
 5   0  0.3187123E-01  0.5067450E+03  0.7818609E-02  0.1012033E+00
       -2   -1    0    0    0  501  0.00000000000E+00  0.00000000000E+00  0.11318282447E+03  0.11318282450E+03  0.25500000920E-02 0.  1.
        2   -1    0    0  501    0  0.00000000000E+00  0.00000000000E+00 -0.56720280105E+03  0.56720280106E+03  0.25500000920E-02 0. -1.
    10030    2    1    2    0    0  0.00000000000E+00  0.00000000000E+00 -0.45401997658E+03  0.68038562556E+03  0.50674496577E+03 0.  0.
        5    1    3    3  502    0 -0.10808083493E+03 -0.50804658039E+02 -0.52697616249E+03  0.54035964504E+03  0.46999998093E+01 0. -1.
       -5    1    3    3    0  502  0.10808083493E+03  0.50804658039E+02  0.72956185911E+02  0.14002598052E+03  0.46999998093E+01 0.  1.
</event>
<event>
 5   0  0.1292375E-01  0.5045821E+03  0.7818609E-02  0.1012590E+00
        4   -1    0    0  501    0  0.00000000000E+00  0.00000000000E+00  0.10721027079E+03  0.10721779266E+03  0.12699999809E+01 0.  1.
       -4   -1    0    0    0  501  0.00000000000E+00  0.00000000000E+00 -0.59367132464E+03  0.59367268305E+03  0.12699999809E+01 0. -1.
    10030    2    1    2    0    0  0.00000000000E+00  0.00000000000E+00 -0.48646105386E+03  0.70089047571E+03  0.50458210633E+03 0.  0.
        2    1    3    3  502    0 -0.18457780138E+03 -0.93206165964E+02 -0.42444499428E+02  0.21108739819E+03  0.25500000920E-02 0.  1.
       -2    1    3    3    0  502  0.18457780138E+03  0.93206165964E+02 -0.44401655443E+03  0.48980307752E+03  0.25500000920E-02 0. -1.
</event>
<event>
 5   0  0.3178149E-01  0.5168790E+03  0.7818609E-02  0.1009465E+00
       -2   -1    0    0    0  501  0.00000000000E+00  0.00000000000E+00  0.44789965160E+03  0.44789965161E+03  0.25500000920E-02 0. -1.
        2   -1    0    0  501    0  0.00000000000E+00  0.00000000000E+00 -0.14912040005E+03  0.14912040007E+03  0.25500000920E-02 0.  1.
    10030    2    1    2    0    0  0.00000000000E+00  0.00000000000E+00  0.29877925155E+03  0.59702005168E+03  0.51687900030E+03 0.  0.
        3    1    3    3  502    0 -0.12105112657E+03  0.10061621556E+03 -0.87364128480E+02  0.18002638480E+03  0.10100000352E+00 0.  1.
       -3    1    3    3    0  502  0.12105112657E+03 -0.10061621556E+03  0.38614338003E+03  0.41699366688E+03  0.10100000352E+00 0. -1.
</event>
<event>
 5   0  0.3117389E-01  0.5005406E+03  0.7818609E-02  0.1013638E+00
       -2   -1    0    0    0  501  0.00000000000E+00  0.00000000000E+00  0.56789988891E+02  0.56789988948E+02  0.25500000920E-02 0.  1.
        2   -1    0    0  501    0  0.00000000000E+00  0.00000000000E+00 -0.11029270952E+04  0.11029270952E+04  0.25500000920E-02 0. -1.
    10030    2    1    2    0    0  0.00000000000E+00  0.00000000000E+00 -0.10461371063E+04  0.11597170841E+04  0.50054057784E+03 0.  0.
        4    1    3    3  502    0 -0.59688979258E+02 -0.17897485716E+03 -0.90405253712E+03  0.92352984603E+03  0.12699999809E+01 0. -1.
       -4    1    3    3    0  502  0.59688979258E+02  0.17897485716E+03 -0.14208456914E+03  0.23618723807E+03  0.12699999809E+01 0.  1.
</event>
<event>
 5   0  0.1984680E-01  0.5052938E+03  0.7818609E-02  0.1012406E+00
        1   -1    0    0  501    0  0.00000000000E+00  0.00000000000E+00  0.16081210445E+03  0.16081210453E+03  0.50400001928E-02 0.  1.
       -1   -1    0    0    0  501  0.00000000000E+00  0.00000000000E+00 -0.39692570894E+03  0.39692570897E+03  0.50400001928E-02 0. -1.
    10030    2    1    2    0    0  0.00000000000E+00  0.00000000000E+00 -0.23611360449E+03  0.55773781349E+03  0.50529380995E+03 0.  0.
        5    1    3    3  502    0 -0.22910814586E+03 -0.10634815430E+03 -0.11495514055E+03  0.27755584440E+03  0.46999998093E+01 0.  1.
       -5    1    3    3    0  502  0.22910814586E+03  0.10634815430E+03 -0.12115846394E+03  0.28018196909E+03  0.46999998093E+01 0. -1.
</event>
<event>
 5   0  0.3178149E-01  0.4583597E+03  0.7818609E-02  0.1025258E+00
        2   -1    0    0  501    0  0.00000000000E+00  0.00000000000E+00  0.13649350080E+04  0.13649350080E+04  0.25500000920E-02 0.  1.
       -2   -1    0    0    0  501  0.00000000000E+00  0.00000000000E+00 -0.38480523351E+02  0.38480523436E+02  0.25500000920E-02 0. -1.
    10030    2    1    2    0    0  0.00000000000E+00  0.00000000000E+00  0.13264544846E+04  0.14034155314E+04  0.45835974303E+03 0.  0.
        3    1    3    3  502    0  0.12936983896E+03 -0.18762008905E+03  0.73731763564E+03  0.77173516123E+03  0.10100000352E+00 0.  1.
       -3    1    3    3    0  502 -0.12936983896E+03  0.18762008905E+03  0.58913684899E+03  0.63168037019E+03  0.10100000352E+00 0. -1.
</event>
<event>
 5   0  0.3117389E-01  0.5028493E+03  0.7818609E-02  0.1013038E+00
       -2   -1    0    0    0  501  0.00000000000E+00  0.00000000000E+00  0.12811496974E+03  0.12811496977E+03  0.25500000920E-02 0.  1.
        2   -1    0    0  501    0  0.00000000000E+00  0.00000000000E+00 -0.49341887323E+03  0.49341887324E+03  0.25500000920E-02 0. -1.
    10030    2    1    2    0    0  0.00000000000E+00  0.00000000000E+00 -0.36530390349E+03  0.62153384301E+03  0.50284925783E+03 0.  0.
        4    1    3    3  502    0  0.16795076170E+03 -0.12275919111E+03 -0.81340307896E+01  0.20819474708E+03  0.12699999809E+01 0. -1.
       -4    1    3    3    0  502 -0.16795076170E+03  0.12275919111E+03 -0.35716987270E+03  0.41333909593E+03  0.12699999809E+01 0.  1.
</event>
<event>
 5   0  0.3111146E-01  0.4925933E+03  0.7818609E-02  0.1015730E+00
       -2   -1    0    0    0  501  0.00000000000E+00  0.00000000000E+00  0.18461131862E+03  0.18461131864E+03  0.25500000920E-02 0. -1.
        2   -1    0    0  501    0  0.00000000000E+00  0.00000000000E+00 -0.32859331329E+03  0.32859331330E+03  0.25500000920E-02 0.  1.
    10030    2    1    2    0    0  0.00000000000E+00  0.00000000000E+00 -0.14398199467E+03  0.51320463193E+03  0.49259332055E+03 0.  0.
        1    1    3    3  502    0  0.12946646872E+03 -0.43309837745E+02 -0.28556802942E+03  0.31652236575E+03  0.50400001928E-02 0.  1.
       -1    1    3    3    0  502 -0.12946646872E+03  0.43309837745E+02  0.14158603475E+03  0.19668226618E+03  0.50400001928E-02 0. -1.
</event>
<event>
 5   0  0.2013450E-01  0.5046746E+03  0.7818609E-02  0.1012566E+00
        1   -1    0    0  501    0  0.00000000000E+00  0.00000000000E+00  0.39002078109E+03  0.39002078112E+03  0.50400001928E-02 0. -1.
       -1   -1    0    0    0  501  0.00000000000E+00  0.00000000000E+00 -0.16325824433E+03  0.16325824441E+03  0.50400001928E-02 0.  1.
    10030    2    1    2    0    0  0.00000000000E+00  0.00000000000E+00  0.22676253676E+03  0.55327902553E+03  0.50467458031E+03 0.  0.
        4    1    3    3  502    0 -0.96745228039E+02 -0.22511648493E+03  0.47279919606E+02  0.24954774019E+03  0.12699999809E+01 0.  1.
       -4    1    3    3    0  502  0.96745228039E+02  0.22511648493E+03  0.17948261715E+03  0.30373128534E+03  0.12699999809E+01 0. -1.
</event>
<event>
 5   0  0.3178149E-01  0.5115274E+03  0.7818609E-02  0.1010813E+00
       -2   -1    0    0    0  501  0.00000000000E+00  0.00000000000E+00  0.32892368308E+03  0.32892368309E+03  0.25500000920E-02 0. -1.
        2   -1    0    0  501    0  0.00000000000E+00  0.00000000000E+00 -0.19887615183E+03  0.19887615185E+03  0.25500000920E-02 0.  1.
    10030    2    1    2    0    0  0.00000000000E+00  0.00000000000E+00  0.13004753125E+03  0.52779983494E+03  0.51152742388E+03 0.  0.
        3    1    3    3  502    0 -0.97374286007E+02 -0.23647731954E+03  0.61480591729E+02  0.26302689519E+03  0.10100000352E+00 0.  1.
       -3    1    3    3    0  502  0.97374286007E+02  0.23647731954E+03  0.68566939523E+02  0.26477293976E+03  0.10100000352E+00 0. -1.
</event>
<event>
 5   0  0.3187123E-01  0.4923874E+03  0.7818609E-02  0.1015785E+00
       -2   -1    0    0    0  501  0.00000000000E+00  0.00000000000E+00  0.74022865040E+02  0.74022865084E+02  0.25500000920E-02 0.  1.
        2   -1    0    0  501    0  0.00000000000E+00  0.00000000000E+00 -0.81881927683E+03  0.81881927683E+03  0.25500000920E-02 0. -1.
    10030    2    1    2    0    0  0.00000000000E+00  0.00000000000E+00 -0.74479641179E+03  0.89284214192E+03  0.49238744437E+03 0.  0.
        5    1    3    3  502    0  0.19504329251E+03  0.14047517380E+03 -0.27620656061E+03  0.36617934749E+03  0.46999998093E+01 0. -1.
       -5    1    3    3    0  502 -0.19504329251E+03 -0.14047517380E+03 -0.46858985118E+03  0.52666279443E+03  0.46999998093E+01 0.  1.
</event>
<event>
 5   0  0.1967161E-01  0.4955936E+03  0.7818609E-02  0.1014935E+00
       -1   -1    0    0    0  501  0.00000000000E+00  0.00000000000E+00  0.25675246267E+03  0.25675246272E+03  0.50400001928E-02 0.  1.
        1   -1    0    0  501    0  0.00000000000E+00  0.00000000000E+00 -0.23915349777E+03  0.23915349782E+03  0.50400001928E-02 0. -1.
    10030    2    1    2    0    0  0.00000000000E+00  0.00000000000E+00  0.17598964901E+02  0.49590596054E+03  0.49559358161E+03 0.  0.
        1    1    3    3  502    0  0.10318028778E+03 -0.20700236314E+03  0.97777403343E+02  0.25111067433E+03  0.50400001928E-02 0. -1.
       -1    1    3    3    0  502 -0.10318028778E+03  0.20700236314E+03 -0.80178438442E+02  0.24479528621E+03  0.50400001928E-02 0.  1.
</event>
<event>
 5   0  0.1292375E-01  0.4906824E+03  0.7818609E-02  0.1016240E+00
        3   -1    0    0  501    0  0.00000000000E+00  0.00000000000E+00  0.56321441380E+03  0.56321442285E+03  0.10100000352E+00 0.  1.
       -3   -1    0    0    0  501  0.00000000000E+00  0.00000000000E+00 -0.10687275031E+03  0.10687279803E+03  0.10100000352E+00 0. -1.
    10030    2    1    2    0    0  0.00000000000E+00  0.00000000000E+00  0.45634166349E+03  0.67008722089E+03  0.49068235118E+03 0.  0.
        2    1    3    3  502    0  0.17694684652E+03  0.78629217189E+02  0.22420974558E+02  0.19492419141E+03  0.25500000920E-02 0. -1.
       -2    1    3    3    0  502 -0.17694684652E+03 -0.78629217189E+02  0.43392068893E+03  0.47516302947E+03  0.25500000920E-02 0.  1.
</event>
<event>
 5   0  0.2000612E-01  0.5050572E+03  0.7818609E-02  0.1012467E+00
        1   -1    0    0  501    0  0.00000000000E+00  0.00000000000E+00  0.14100865624E+04  0.14100865625E+04  0.50400001928E-02 0. -1.
       -1   -1    0    0    0  501  0.00000000000E+00  0.00000000000E+00 -0.45224664854E+02  0.45224665135E+02  0.50400001928E-02 0.  1.
    10030    2    1    2    0    0  0.00000000000E+00  0.00000000000E+00  0.13648618976E+04  0.14553112276E+04  0.50505719444E+03 0.  0.
        2    1    3    3  502    0  0.12069286772E+03  0.21307543288E+03  0.50473965629E+03  0.56100804723E+03  0.25500000920E-02 0. -1.
       -2    1    3    3    0  502 -0.12069286772E+03 -0.21307543288E+03  0.86012224130E+03  0.89430318036E+03  0.25500000920E-02 0.  1.
</event>
<event>
 5   0  0.3117389E-01  0.5128564E+03  0.7818609E-02  0.1010477E+00
        2   -1    0    0  501    0  0.00000000000E+00  0.00000000000E+00  0.13961189573E+03  0.13961189575E+03  0.25500000920E-02 0. -1.
       -2   -1    0    0    0  501  0.00000000000E+00  0.00000000000E+00 -0.47098728389E+03  0.47098728389E+03  0.25500000920E-02 0.  1.
    10030    2    1    2    0    0  0.00000000000E+00  0.00000000000E+00 -0.33137538816E+03  0.61059917965E+03  0.51285642270E+03 0.  0.
        4    1    3    3  502    0  0.19752235141E+02 -0.85689128684E+02 -0.45247053423E+03  0.46093814641E+03  0.12699999809E+01 0.  1.
       -4    1    3    3    0  502 -0.19752235141E+02  0.85689128684E+02  0.12109514607E+03  0.14966103324E+03  0.12699999809E+01 0. -1.
</event>
<event>
 5   0  0.1984297E-01  0.4182077E+03  0.7818609E-02  0.1037651E+00
       -1   -1    0    0    0  501  0.00000000000E+00  0.00000000000E+00  0.65986780351E+02  0.65986780544E+02  0.50400001928E-02 0. -1.
        1   -1    0    0  501    0  0.00000000000E+00  0.00000000000E+00 -0.66262396254E+03  0.66262396256E+03  0.50400001928E-02 0.  1.
    10030    2    1    2    0    0  0.00000000000E+00  0.00000000000E+00 -0.59663718219E+03  0.72861074310E+03  0.41820770891E+03 0.  0.
        3    1    3    3  502    0 -0.16591579748E+03 -0.35506937544E+02 -0.85399244531E+02  0.18995219303E+03  0.10100000352E+00 0. -1.
       -3    1    3    3    0  502  0.16591579748E+03  0.35506937544E+02 -0.51123793766E+03  0.53865855008E+03  0.10100000352E+00 0.  1.
</event>
<event>
 5   0  0.3187123E-01  0.4883978E+03  0.7818609E-02  0.1016852E+00
       -2   -1    0    0    0  501  0.00000000000E+00  0.00000000000E+00  0.83752951738E+02  0.83752951777E+02  0.25500000920E-02 0. -1.
        2   -1    0    0  501    0  0.00000000000E+00  0.00000000000E+00 -0.71201185567E+03  0.71201185568E+03  0.25500000920E-02 0.  1.
    10030    2    1    2    0    0  0.00000000000E+00  0.00000000000E+00 -0.62825890393E+03  0.79576480745E+03  0.48839776659E+03 0.  0.
        5    1    3    3  502    0 -0.14763879008E+03  0.19368775391E+03 -0.34229608717E+03  0.42012005384E+03  0.46999998093E+01 0. -1.
       -5    1    3    3    0  502  0.14763879008E+03 -0.19368775391E+03 -0.28596281676E+03  0.37564475361E+03  0.46999998093E+01 0.  1.
</event>
<event>
 5   0  0.3329246E-01  0.5047844E+03  0.7818609E-02  0.1012538E+00
       -2   -1    0    0    0  501  0.00000000000E+00  0.00000000000E+00  0.81228131474E+02  0.81228131514E+02  0.25500000920E-02 0. -1.
        2   -1    0    0  501    0  0.00000000000E+00  0.00000000000E+00 -0.78423363037E+03  0.78423363038E+03  0.25500000920E-02 0.  1.
    10030    2    1    2    0    0  0.00000000000E+00  0.00000000000E+00 -0.70300549890E+03  0.86546176189E+03  0.50478443896E+03 0.  0.
        2    1    3    3  502    0  0.15375198462E+03  0.10476341422E+03 -0.59094379848E+02  0.19521063360E+03  0.25500000920E-02 0. -1.
       -2    1    3    3    0  502 -0.15375198462E+03 -0.10476341422E+03 -0.64391111905E+03  0.67025112829E+03  0.25500000920E-02 0.  1.
</event>
<event>
 5   0  0.3187123E-01  0.5371130E+03  0.7818609E-02  0.1004522E+00
        2   -1    0    0  501    0  0.00000000000E+00  0.00000000000E+00  0.71851579246E+03  0.71851579246E+03  0.25500000920E-02 0.  1.
       -2   -1    0    0    0  501  0.00000000000E+00  0.00000000000E+00 -0.10037718060E+03  0.10037718063E+03  0.25500000920E-02 0. -1.
    10030    2    1    2    0    0  0.00000000000E+00  0.00000000000E+00  0.61813861186E+03  0.81889297310E+03  0.53711298431E+03 0.  0.
        5    1    3    3  502    0 -0.10077550324E+03  0.24138636968E+03  0.21661375525E+03  0.33965672448E+03  0.46999998093E+01 0. -1.
       -5    1    3    3    0  502  0.10077550324E+03 -0.24138636968E+03  0.40152485661E+03  0.47923624862E+03  0.46999998093E+01 0.  1.
</event>
<event>
 5   0  0.1984297E-01  0.5508983E+03  0.7818609E-02  0.1001286E+00
        1   -1    0    0  501    0  0.00000000000E+00  0.00000000000E+00  0.33352884649E+03  0.33352884653E+03  0.50400001928E-02 0.  1.
       -1   -1    0    0    0  501  0.00000000000E+00  0.00000000000E+00 -0.22748329633E+03  0.22748329639E+03  0.50400001928E-02 0. -1.
    10030    2    1    2    0    0  0.00000000000E+00  0.00000000000E+00  0.10604555016E+03  0.56101214292E+03  0.55089832619E+03 0.  0.
        3    1    3    3  502    0 -0.24428057961E+03  0.12625174875E+03  0.36610900175E+02  0.27740381008E+03  0.10100000352E+00 0. -1.
       -3    1    3    3    0  502  0.24428057961E+03 -0.12625174875E+03  0.69434649985E+02  0.28360833284E+03  0.10100000352E+00 0.  1.
</event>
<event>
 5   0  0.2000612E-01  0.4755994E+03  0.7818609E-02  0.1020352E+00
       -1   -1    0    0    0  501  0.00000000000E+00  0.00000000000E+00  0.18352213719E+03  0.18352213726E+03  0.50400001928E-02 0. -1.
        1   -1    0    0  501    0  0.00000000000E+00  0.00000000000E+00 -0.30813006092E+03  0.30813006096E+03  0.50400001928E-02 0.  1.
    10030    2    1    2    0    0  0.00000000000E+00  0.00000000000E+00 -0.12460792372E+03  0.49165219822E+03  0.47559935803E+03 0.  0.
        2    1    3    3  502    0  0.48784642039E+02  0.13790887453E+03  0.13150716227E+03  0.19670519238E+03  0.25500000920E-02 0. -1.
       -2    1    3    3    0  502 -0.48784642039E+02 -0.13790887453E+03 -0.25611508599E+03  0.29494700584E+03  0.25500000920E-02 0.  1.
</event>
<event>
 5   0  0.3178149E-01  0.5442381E+03  0.7818609E-02  0.1002836E+00
       -2   -1    0    0    0  501  0.00000000000E+00  0.00000000000E+00  0.22987076739E+03  0.22987076740E+03  0.25500000920E-02 0.  1.
        2   -1    0    0  501    0  0.00000000000E+00  0.00000000000E+00 -0.32213226177E+03  0.32213226178E+03  0.25500000920E-02 0. -1.
    10030    2    1    2    0    0  0.00000000000E+00  0.00000000000E+00 -0.92261494384E+02  0.55200302919E+03  0.54423814722E+03 0.  0.
        3    1    3    3  502    0  0.11812501750E+03  0.34043200859E+02  0.20010096879E+03  0.23484647580E+03  0.10100000352E+00 0.  1.
       -3    1    3    3    0  502 -0.11812501750E+03 -0.34043200859E+02 -0.29236246317E+03  0.31715655339E+03  0.10100000352E+00 0. -1.
</event>
<event>
 5   0  0.2000612E-01  0.4950404E+03  0.7818609E-02  0.1015082E+00
        1   -1    0    0  501    0  0.00000000000E+00  0.00000000000E+00  0.34031867364E+03  0.34031867368E+03  0.50400001928E-02 0. -1.
       -1   -1    0    0    0  501  0.00000000000E+00  0.00000000000E+00 -0.18002608090E+03  0.18002608097E+03  0.50400001928E-02 0.  1.
    10030    2    1    2    0    0  0.00000000000E+00  0.00000000000E+00  0.16029259275E+03  0.52034475465E+03  0.49504035028E+03 0.  0.
        2    1    3    3  502    0  0.15336137145E+02  0.20922474162E+03 -0.57930672710E+02  0.21763766323E+03  0.25500000920E-02 0.  1.
       -2    1    3    3    0  502 -0.15336137145E+02 -0.20922474162E+03  0.21822326545E+03  0.30270709143E+03  0.25500000920E-02 0. -1.
</event>
<event>
 5   0  0.3117389E-01  0.5033908E+03  0.7818609E-02  0.1012898E+00
       -2   -1    0    0    0  501  0.00000000000E+00  0.00000000000E+00  0.14102703044E+03  0.14102703046E+03  0.25500000920E-02 0. -1.
        2   -1    0    0  501    0  0.00000000000E+00  0.00000000000E+00 -0.44920876984E+03  0.44920876985E+03  0.25500000920E-02 0.  1.
    10030    2    1    2    0    0  0.00000000000E+00  0.00000000000E+00 -0.30818173940E+03  0.59023580031E+03  0.50339081782E+03 0.  0.
        4    1    3    3  502    0 -0.11432357902E+02 -0.10749074065E+03  0.11241961864E+03  0.15596391149E+03  0.12699999809E+01 0. -1.
       -4    1    3    3    0  502  0.11432357902E+02  0.10749074065E+03 -0.42060135804E+03  0.43427188882E+03  0.12699999809E+01 0.  1.
</event>
<event>
 5   0  0.1292375E-01  0.4598570E+03  0.7818609E-02  0.1024823E+00
       -3   -1    0    0    0  501  0.00000000000E+00  0.00000000000E+00  0.37722374684E+03  0.37722376036E+03  0.10100000352E+00 0.  1.
        3   -1    0    0  501    0  0.00000000000E+00  0.00000000000E+00 -0.14014783386E+03  0.14014787026E+03  0.10100000352E+00 0. -1.
    10030    2    1    2    0    0  0.00000000000E+00  0.00000000000E+00  0.23707591297E+03  0.51737163062E+03  0.45985695130E+03 0.  0.
        5    1    3    3  502    0  0.12345266979E+03  0.13864856571E+03 -0.33995372000E+02  0.18879025867E+03  0.46999998093E+01 0. -1.
       -5    1    3    3    0  502 -0.12345266979E+03 -0.13864856571E+03  0.27107128497E+03  0.32858137195E+03  0.46999998093E+01 0.  1.
</event>
<event>
 5   0  0.2013450E-01  0.5029335E+03  0.7818609E-02  0.1013016E+00
        1   -1    0    0  501    0  0.00000000000E+00  0.00000000000E+00  0.57380871838E+03  0.57380871840E+03  0.50400001928E-02 0.  1.
       -1   -1    0    0    0  501  0.00000000000E+00  0.00000000000E+00 -0.11020314587E+03  0.11020314598E+03  0.50400001928E-02 0. -1.
    10030    2    1    2    0    0  0.00000000000E+00  0.00000000000E+00  0.46360557252E+03  0.68401186439E+03  0.50293349834E+03 0.  0.
        4    1    3    3  502    0  0.12917921943E+03 -0.21560222710E+03  0.24253955703E+03  0.34928303807E+03  0.12699999809E+01 0.  1.
       -4    1    3    3    0  502 -0.12917921943E+03  0.21560222710E+03  0.22106601549E+03  0.33472882631E+03  0.12699999809E+01 0. -1.
</event>
<event>
 5   0  0.1967161E-01  0.5055356E+03  0.7818609E-02  0.1012344E+00
       -1   -1    0    0    0  501  0.00000000000E+00  0.00000000000E+00  0.13022395985E+03  0.13022395994E+03  0.50400001928E-02 0. -1.
        1   -1    0    0  501    0  0.00000000000E+00  0.00000000000E+00 -0.49062826200E+03  0.49062826202E+03  0.50400001928E-02 0.  1.
    10030    2    1    2    0    0  0.00000000000E+00  0.00000000000E+00 -0.36040430215E+03  0.62085222197E+03  0.50553557789E+03 0.  0.
        1    1    3    3  502    0  0.17002093309E+03 -0.16321164158E+03 -0.68003910686E+02  0.24529510702E+03  0.50400001928E-02 0. -1.
       -1    1    3    3    0  502 -0.17002093309E+03  0.16321164158E+03 -0.29240039146E+03  0.37555711495E+03  0.50400001928E-02 0.  1.
</event>
<event>
 5   0  0.1984680E-01  0.4391721E+03  0.7818609E-02  0.1031001E+00
        1   -1    0    0  501    0  0.00000000000E+00  0.00000000000E+00  0.17819848014E+04  0.17819848015E+04  0.50400001928E-02 0. -1.
       -1   -1    0    0    0  501  0.00000000000E+00  0.00000000000E+00 -0.27058612032E+02  0.27058612502E+02  0.50400001928E-02 0.  1.
    10030    2    1    2    0    0  0.00000000000E+00  0.00000000000E+00  0.17549261894E+04  0.18090434140E+04  0.43917211123E+03 0.  0.
        5    1    3    3  502    0 -0.63399160303E+02  0.14449846121E+03  0.24873724217E+03  0.29460408086E+03  0.46999998093E+01 0.  1.
       -5    1    3    3    0  502  0.63399160303E+02 -0.14449846121E+03  0.15061889472E+04  0.15144393331E+04  0.46999998093E+01 0. -1.
</event>
<event>
 5   0  0.1967161E-01  0.4944315E+03  0.7818609E-02  0.1015243E+00
        1   -1    0    0  501    0  0.00000000000E+00  0.00000000000E+00  0.12111044939E+04  0.12111044939E+04  0.50400001928E-02 0.  1.
       -1   -1    0    0    0  501  0.00000000000E+00  0.00000000000E+00 -0.50462712466E+02  0.50462712717E+02  0.50400001928E-02 0. -1.
    10030    2    1    2    0    0  0.00000000000E+00  0.00000000000E+00  0.11606417814E+04  0.12615672066E+04  0.49443146342E+03 0.  0.
        1    1    3    3  502    0  0.10248725813E+03  0.19812441322E+03  0.85225804280E+03  0.88096577274E+03  0.50400001928E-02 0.  1.
       -1    1    3    3    0  502 -0.10248725813E+03 -0.19812441322E+03  0.30838373861E+03  0.38060143386E+03  0.50400001928E-02 0. -1.
</event>
<event>
 5   0  0.3329246E-01  0.5219309E+03  0.7818609E-02  0.1008208E+00
       -2   -1    0    0    0  501  0.00000000000E+00  0.00000000000E+00  0.28354836948E+03  0.28354836949E+03  0.25500000920E-02 0. -1.
        2   -1    0    0  501    0  0.00000000000E+00  0.00000000000E+00 -0.24018113009E+03  0.24018113010E+03  0.25500000920E-02 0.  1.
    10030    2    1    2    0    0  0.00000000000E+00  0.00000000000E+00  0.43367239391E+02  0.52372949960E+03  0.52193090663E+03 0.  0.
        2    1    3    3  502    0  0.37966926410E+02 -0.23318953977E+01  0.28075162707E+03  0.28331678621E+03  0.25500000920E-02 0. -1.
       -2    1    3    3    0  502 -0.37966926410E+02  0.23318953977E+01 -0.23738438768E+03  0.24041271339E+03  0.25500000920E-02 0.  1.
</event>
<event>
 5   0  0.2013450E-01  0.4903092E+03  0.7818609E-02  0.1016340E+00
        1   -1    0    0  501    0  0.00000000000E+00  0.00000000000E+00  0.48569429376E+03  0.48569429378E+03  0.50400001928E-02 0. -1.
       -1   -1    0    0    0  501  0.00000000000E+00  0.00000000000E+00 -0.12374199299E+03  0.12374199309E+03  0.50400001928E-02 0.  1.
    10030    2    1    2    0    0  0.00000000000E+00  0.00000000000E+00  0.36195230077E+03  0.60943628688E+03  0.49030920829E+03 0.  0.
        4    1    3    3  502    0  0.22422722799E+03  0.34615071454E+02  0.29639861025E+03  0.37326907453E+03  0.12699999809E+01 0. -1.
       -4    1    3    3    0  502 -0.22422722799E+03 -0.34615071454E+02  0.65553690516E+02  0.23616721234E+03  0.12699999809E+01 0.  1.
</event>
<event>
 5   0  0.3178149E-01  0.5015032E+03  0.7818609E-02  0.1013387E+00
        2   -1    0    0  501    0  0.00000000000E+00  0.00000000000E+00  0.55028259033E+03  0.55028259034E+03  0.25500000920E-02 0. -1.
       -2   -1    0    0    0  501  0.00000000000E+00  0.00000000000E+00 -0.11426194933E+03  0.11426194936E+03  0.25500000920E-02 0.  1.
    10030    2    1    2    0    0  0.00000000000E+00  0.00000000000E+00  0.43602064100E+03  0.66454453970E+03  0.50150318629E+03 0.  0.
        3    1    3    3  502    0  0.19921684323E+03  0.10989201312E+03  0.35769896175E+03  0.42392471338E+03  0.10100000352E+00 0. -1.
       -3    1    3    3    0  502 -0.19921684323E+03 -0.10989201312E+03  0.78321679254E+02  0.24061982632E+03  0.10100000352E+00 0.  1.
</event>
<event>
 5   0  0.1292375E-01  0.4941232E+03  0.7818609E-02  0.1015324E+00
       -3   -1    0    0    0  501  0.00000000000E+00  0.00000000000E+00  0.57525058551E+03  0.57525059437E+03  0.10100000352E+00 0.  1.
        3   -1    0    0  501    0  0.00000000000E+00  0.00000000000E+00 -0.10610925260E+03  0.10610930067E+03  0.10100000352E+00 0. -1.
    10030    2    1    2    0    0  0.00000000000E+00  0.00000000000E+00  0.46914133290E+03  0.68135989505E+03  0.49412317932E+03 0.  0.
        2    1    3    3  502    0 -0.16583664686E+03 -0.17088512276E+03  0.14377157716E+03  0.27816143699E+03  0.25500000920E-02 0. -1.
       -2    1    3    3    0  502  0.16583664686E+03  0.17088512276E+03  0.32536975574E+03  0.40319845806E+03  0.25500000920E-02 0.  1.
</event>
<event>
 5   0  0.3117389E-01  0.4971033E+03  0.7818609E-02  0.1014538E+00
       -2   -1    0    0    0  501  0.00000000000E+00  0.00000000000E+00  0.24170148236E+03  0.24170148237E+03  0.25500000920E-02 0. -1.
        2   -1    0    0  501    0  0.00000000000E+00  0.00000000000E+00 -0.25559596462E+03  0.25559596463E+03  0.25500000920E-02 0.  1.
    10030    2    1    2    0    0  0.00000000000E+00  0.00000000000E+00 -0.13894482262E+02  0.49729744701E+03  0.49710330331E+03 0.  0.
        4    1    3    3  502    0  0.22259670878E+03  0.10882375388E+03 -0.26561184947E+02  0.24919673676E+03  0.12699999809E+01 0.  1.
       -4    1    3    3    0  502 -0.22259670878E+03 -0.10882375388E+03  0.12666702685E+02  0.24810071025E+03  0.12699999809E+01 0. -1.
</event>
<event>
 5   0  0.1967161E-01  0.5094158E+03  0.7818609E-02  0.1011350E+00
        1   -1    0    0  501    0  0.00000000000E+00  0.00000000000E+00  0.87417658076E+03  0.87417658078E+03  0.50400001928E-02 0.  1.
       -1   -1    0    0    0  501  0.00000000000E+00  0.00000000000E+00 -0.74213955190E+02  0.74213955361E+02  0.50400001928E-02 0. -1.
    10030    2    1    2    0    0  0.00000000000E+00  0.00000000000E+00  0.79996262557E+03  0.94839053614E+03  0.50941575037E+03 0.  0.
        1    1    3    3  502    0  0.19467299278E+03  0.15872047525E+03  0.47866717256E+03  0.54056639323E+03  0.50400001928E-02 0. -1.
       -1    1    3    3    0  502 -0.19467299278E+03 -0.15872047525E+03  0.32129545302E+03  0.40782414291E+03  0.50400001928E-02 0.  1.
</event>
<event>
 5   0  0.3187123E-01  0.5341422E+03  0.7818609E-02  0.1005232E+00
       -2   -1    0    0    0  501  0.00000000000E+00  0.00000000000E+00  0.10574081426E+03  0.10574081429E+03  0.25500000920E-02 0.  1.
        2   -1    0    0  501    0  0.00000000000E+00  0.00000000000E+00 -0.67454542486E+03  0.67454542487E+03  0.25500000920E-02 0. -1.
    10030    2    1    2    0    0  0.00000000000E+00  0.00000000000E+00 -0.56880461061E+03  0.78028623915E+03  0.53414223758E+03 0.  0.
        5    1    3    3  502    0 -0.17109565795E+03  0.18279103025E+03 -0.14878485342E+03  0.29128217850E+03  0.46999998093E+01 0.  1.
       -5    1    3    3    0  502  0.17109565795E+03 -0.18279103025E+03 -0.42001975719E+03  0.48900406065E+03  0.46999998093E+01 0. -1.
</event>
<event>
 5   0  0.1292375E-01  0.5187598E+03  0.7818609E-02  0.1008995E+00
       -3   -1    0    0    0  501  0.00000000000E+00  0.00000000000E+00  0.16538914154E+03  0.16538917238E+03  0.10100000352E+00 0.  1.
        3   -1    0    0  501    0  0.00000000000E+00  0.00000000000E+00 -0.40678565797E+03  0.40678567051E+03  0.10100000352E+00 0. -1.
    10030    2    1    2    0    0  0.00000000000E+00  0.00000000000E+00 -0.24139651643E+03  0.57217484289E+03  0.51875984106E+03 0.  0.
        2    1    3    3  502    0 -0.33838798278E+02 -0.19780413081E+03  0.60559162823E+02  0.20961619843E+03  0.25500000920E-02 0.  1.
       -2    1    3    3    0  502  0.33838798278E+02  0.19780413081E+03 -0.30195567925E+03  0.36255864446E+03  0.25500000920E-02 0. -1.
</event>
<event>
 5   0  0.3111146E-01  0.4998375E+03  0.7818609E-02  0.1013821E+00
       -2   -1    0    0    0  501  0.00000000000E+00  0.00000000000E+00  0.38979614761E+02  0.38979614844E+02  0.25500000920E-02 0. -1.
        2   -1    0    0  501    0  0.00000000000E+00  0.00000000000E+00 -0.16023599751E+04  0.16023599751E+04  0.25500000920E-02 0.  1.
    10030    2    1    2    0    0  0.00000000000E+00  0.00000000000E+00 -0.15633803603E+04  0.16413395899E+04  0.49983747201E+03 0.  0.
        1    1    3    3  502    0 -0.12022014475E+03  0.69487138815E+02 -0.99349851900E+02  0.17073880274E+03  0.50400001928E-02 0. -1.
       -1    1    3    3    0  502  0.12022014475E+03 -0.69487138815E+02 -0.14640305084E+04  0.14706007872E+04  0.50400001928E-02 0.  1.
</event>
<event>
 5   0  0.3178149E-01  0.4900879E+03  0.7818609E-02  0.1016399E+00
       -2   -1    0    0    0  501  0.00000000000E+00  0.00000000000E+00  0.39094356580E+03  0.39094356581E+03  0.25500000920E-02 0. -1.
        2   -1    0    0  501    0  0.00000000000E+00  0.00000000000E+00 -0.15359386460E+03  0.15359386462E+03  0.25500000920E-02 0.  1.
    10030    2    1    2    0    0  0.00000000000E+00  0.00000000000E+00  0.23734970120E+03  0.54453743043E+03  0.49008788240E+03 0.  0.
        3    1    3    3  502    0 -0.23504153427E+03 -0.65755243367E+02  0.94376299439E+02  0.26167760882E+03  0.10100000352E+00 0. -1.
       -3    1    3    3    0  502  0.23504153427E+03  0.65755243367E+02  0.14297340176E+03  0.28285982160E+03  0.10100000352E+00 0.  1.
</event>
<event>
 5   0  0.2013450E-01  0.5070228E+03  0.7818609E-02  0.1011962E+00
        1   -1    0    0  501    0  0.00000000000E+00  0.00000000000E+00  0.14020728977E+03  0.14020728986E+03  0.50400001928E-02 0.  1.
       -1   -1    0    0    0  501  0.00000000000E+00  0.00000000000E+00 -0.45837875113E+03  0.45837875116E+03  0.50400001928E-02 0. -1.
    10030    2    1    2    0    0  0.00000000000E+00  0.00000000000E+00 -0.31817146137E+03  0.59858604102E+03  0.50702284926E+03 0.  0.
        4    1    3    3  502    0 -0.12075384409E+03 -0.21405490780E+03 -0.85685361147E+02  0.26027790616E+03  0.12699999809E+01 0.  1.
       -4    1    3    3    0  502  0.12075384409E+03  0.21405490780E+03 -0.23248610022E+03  0.33830813486E+03  0.12699999809E+01 0. -1.
</event>
<event>
 5   0  0.1292375E-01  0.4765353E+03  0.7818609E-02  0.1020092E+00
       -4   -1    0    0    0  501  0.00000000000E+00  0.00000000000E+00  0.26337406284E+03  0.26337712482E+03  0.12699999809E+01 0.  1.
        4   -1    0    0  501    0  0.00000000000E+00  0.00000000000E+00 -0.21554835904E+03  0.21555210039E+03  0.12699999809E+01 0. -1.
    10030    2    1    2    0    0  0.00000000000E+00  0.00000000000E+00  0.47825703805E+02  0.47892922522E+03  0.47653531330E+03 0.  0.
        1    1    3    3  502    0  0.16178892830E+03 -0.66892308711E+02 -0.13851972244E+03  0.22324415292E+03  0.50400001928E-02 0. -1.
       -1    1    3    3    0  502 -0.16178892830E+03  0.66892308711E+02  0.18634542624E+03  0.25568507229E+03  0.50400001928E-02 0.  1.
</event>
<event>
 5   0  0.3111146E-01  0.4620957E+03  0.7818609E-02  0.1024175E+00
       -2   -1    0    0    0  501  0.00000000000E+00  0.00000000000E+00  0.29363948849E+02  0.29363948960E+02  0.25500000920E-02 0.  1.
        2   -1    0    0  501    0  0.00000000000E+00  0.00000000000E+00 -0.18179816416E+04  0.18179816416E+04  0.25500000920E-02 0. -1.
    10030    2    1    2    0    0  0.00000000000E+00  0.00000000000E+00 -0.17886176928E+04  0.18473455906E+04  0.46209574782E+03 0.  0.
        1    1    3    3  502    0 -0.15205838424E+03 -0.42769867893E+02 -0.15684032047E+04  0.15763374088E+04  0.50400001928E-02 0. -1.
       -1    1    3    3    0  502  0.15205838424E+03  0.42769867893E+02 -0.22021448810E+03  0.27100818182E+03  0.50400001928E-02 0.  1.
</event>
<event>
 5   0  0.3178149E-01  0.4996035E+03  0.7818609E-02  0.1013882E+00
       -2   -1    0    0    0  501  0.00000000000E+00  0.00000000000E+00  0.56395535622E+02  0.56395535679E+02  0.25500000920E-02 0. -1.
        2   -1    0    0  501    0  0.00000000000E+00  0.00000000000E+00 -0.11064867506E+04  0.11064867506E+04  0.25500000920E-02 0.  1.
    10030    2    1    2    0    0  0.00000000000E+00  0.00000000000E+00 -0.10500912150E+04  0.11628822863E+04  0.49960349476E+03 0.  0.
        3    1    3    3  502    0  0.11238400818E+03  0.15902606182E+02 -0.10429995628E+04  0.10491573554E+04  0.10100000352E+00 0.  1.
       -3    1    3    3    0  502 -0.11238400818E+03 -0.15902606182E+02 -0.70916522038E+01  0.11372493091E+03  0.10100000352E+00 0. -1.
</event>
<event>
 5   0  0.1984680E-01  0.5039498E+03  0.7818609E-02  0.1012753E+00
       -1   -1    0    0    0  501  0.00000000000E+00  0.00000000000E+00  0.91511888295E+03  0.91511888296E+03  0.50400001928E-02 0.  1.
        1   -1    0    0  501    0  0.00000000000E+00  0.00000000000E+00 -0.69380447510E+02  0.69380447693E+02  0.50400001928E-02 0. -1.
    10030    2    1    2    0    0  0.00000000000E+00  0.00000000000E+00  0.84573843544E+03  0.98449933065E+03  0.50394982973E+03 0.  0.
        5    1    3    3  502    0  0.40842644561E+02 -0.20660943022E+03  0.69295416811E+03  0.72426731762E+03  0.46999998093E+01 0.  1.
       -5    1    3    3    0  502 -0.40842644561E+02  0.20660943022E+03  0.15278426733E+03  0.26023201304E+03  0.46999998093E+01 0. -1.
</event>
<event>
 5   0  0.3178149E-01  0.4966790E+03  0.7818609E-02  0.1014649E+00
       -2   -1    0    0    0  501  0.00000000000E+00  0.00000000000E+00  0.21788738935E+03  0.21788738937E+03  0.25500000920E-02 0.  1.
        2   -1    0    0  501    0  0.00000000000E+00  0.00000000000E+00 -0.28304764398E+03  0.28304764399E+03  0.25500000920E-02 0. -1.
    10030    2    1    2    0    0  0.00000000000E+00  0.00000000000E+00 -0.65160254625E+02  0.50093503335E+03  0.49667901995E+03 0.  0.
        3    1    3    3  502    0  0.40801705964E+02 -0.50972777903E+02  0.20907580861E+03  0.21903357561E+03  0.10100000352E+00 0.  1.
       -3    1    3    3    0  502 -0.40801705964E+02  0.50972777903E+02 -0.27423606324E+03  0.28190145774E+03  0.10100000352E+00 0. -1.
</event>
<event>
 5   0  0.2000612E-01  0.4992638E+03  0.7818609E-02  0.1013971E+00
       -1   -1    0    0    0  501  0.00000000000E+00  0.00000000000E+00  0.30506787472E+03  0.30506787477E+03  0.50400001928E-02 0.  1.
        1   -1    0    0  501    0  0.00000000000E+00  0.00000000000E+00 -0.20426956845E+03  0.20426956851E+03  0.50400001928E-02 0. -1.
    10030    2    1    2    0    0  0.00000000000E+00  0.00000000000E+00  0.10079830628E+03  0.50933744327E+03  0.49926379057E+03 0.  0.
        2    1    3    3  502    0  0.31827093769E+02 -0.19321254706E+03 -0.10755387224E+03  0.22340968573E+03  0.25500000920E-02 0. -1.
       -2    1    3    3    0  502 -0.31827093769E+02  0.19321254706E+03  0.20835217851E+03  0.28592775755E+03  0.25500000920E-02 0.  1.
</event>
<event>
 5   0  0.2013450E-01  0.4999175E+03  0.7818609E-02  0.1013800E+00
        1   -1    0    0  501    0  0.00000000000E+00  0.00000000000E+00  0.10824617691E+04  0.10824617691E+04  0.50400001928E-02 0.  1.
       -1   -1    0    0    0  501  0.00000000000E+00  0.00000000000E+00 -0.57719708210E+02  0.57719708430E+02  0.50400001928E-02 0. -1.
    10030    2    1    2    0    0  0.00000000000E+00  0.00000000000E+00  0.10247420609E+04  0.11401814775E+04  0.49991750357E+03 0.  0.
        4    1    3    3  502    0 -0.78098809371E+02  0.36033788213E+02 -0.22898148058E+02  0.89015706494E+02  0.12699999809E+01 0. -1.
       -4    1    3    3    0  502  0.78098809371E+02 -0.36033788213E+02  0.10476402089E+04  0.10511657710E+04  0.12699999809E+01 0.  1.
</event>
<event>
 5   0  0.3178149E-01  0.5022648E+03  0.7818609E-02  0.1013189E+00
       -2   -1    0    0    0  501  0.00000000000E+00  0.00000000000E+00  0.38212013092E+02  0.38212013178E+02  0.25500000920E-02 0. -1.
        2   -1    0    0  501    0  0.00000000000E+00  0.00000000000E+00 -0.16504620188E+04  0.16504620188E+04  0.25500000920E-02 0.  1.
    10030    2    1    2    0    0  0.00000000000E+00  0.00000000000E+00 -0.16122500057E+04  0.16886740320E+04  0.50226477616E+03 0.  0.
        3    1    3    3  502    0 -0.13933509028E+03  0.20747727337E+03 -0.88891644783E+03  0.92338158298E+03  0.10100000352E+00 0.  1.
       -3    1    3    3    0  502  0.13933509028E+03 -0.20747727337E+03 -0.72333355785E+03  0.76529244898E+03  0.10100000352E+00 0. -1.
</event>
<event>
 5   0  0.1984297E-01  0.4938341E+03  0.7818609E-02  0.1015401E+00
       -1   -1    0    0    0  501  0.00000000000E+00  0.00000000000E+00  0.26055192379E+03  0.26055192384E+03  0.50400001928E-02 0.  1.
        1   -1    0    0  501    0  0.00000000000E+00  0.00000000000E+00 -0.23399569211E+03  0.23399569217E+03  0.50400001928E-02 0. -1.
    10030    2    1    2    0    0  0.00000000000E+00  0.00000000000E+00  0.26556231676E+02  0.49454761601E+03  0.49383409264E+03 0.  0.
        3    1    3    3  502    0 -0.67899623355E+02  0.23663317545E+03  0.32342401247E+02  0.24829752253E+03  0.10100000352E+00 0.  1.
       -3    1    3    3    0  502  0.67899623355E+02 -0.23663317545E+03 -0.57861695710E+01  0.24625009347E+03  0.10100000352E+00 0. -1.
</event>
<event>
 5   0  0.1967161E-01  0.5003572E+03  0.7818609E-02  0.1013686E+00
       -1   -1    0    0    0  501  0.00000000000E+00  0.00000000000E+00  0.15978630358E+03  0.15978630366E+03  0.50400001928E-02 0.  1.
        1   -1    0    0  501    0  0.00000000000E+00  0.00000000000E+00 -0.39170647992E+03  0.39170647995E+03  0.50400001928E-02 0. -1.
    10030    2    1    2    0    0  0.00000000000E+00  0.00000000000E+00 -0.23192017633E+03  0.55149278361E+03  0.50035719459E+03 0.  0.
        1    1    3    3  502    0  0.23157774902E+01 -0.23088265055E+02 -0.39051785048E+03  0.39120662364E+03  0.50400001928E-02 0. -1.
       -1    1    3    3    0  502 -0.23157774902E+01  0.23088265055E+02  0.15859767415E+03  0.16028615997E+03  0.50400001928E-02 0.  1.
</event>
<event>
 5   0  0.2000612E-01  0.4883422E+03  0.7818609E-02  0.1016867E+00
       -1   -1    0    0    0  501  0.00000000000E+00  0.00000000000E+00  0.48753235226E+02  0.48753235486E+02  0.50400001928E-02 0.  1.
        1   -1    0    0  501    0  0.00000000000E+00  0.00000000000E+00 -0.12228835494E+04  0.12228835494E+04  0.50400001928E-02 0. -1.
    10030    2    1    2    0    0  0.00000000000E+00  0.00000000000E+00 -0.11741303141E+04  0.12716367849E+04  0.48834221406E+03 0.  0.
        2    1    3    3  502    0 -0.14802541260E+03 -0.95485625000E+02 -0.10273661917E+04  0.10423580571E+04  0.25500000920E-02 0. -1.
       -2    1    3    3    0  502  0.14802541260E+03  0.95485625000E+02 -0.14676412241E+03  0.22927872773E+03  0.25500000920E-02 0.  1.
</event>
<event>
 5   0  0.3329246E-01  0.5097700E+03  0.7818609E-02  0.1011260E+00
        2   -1    0    0  501    0  0.00000000000E+00  0.00000000000E+00  0.76832875972E+03  0.76832875973E+03  0.25500000920E-02 0. -1.
       -2   -1    0    0    0  501  0.00000000000E+00  0.00000000000E+00 -0.84555423429E+02  0.84555423467E+02  0.25500000920E-02 0.  1.
    10030    2    1    2    0    0  0.00000000000E+00  0.00000000000E+00  0.68377333629E+03  0.85288418319E+03  0.50977000159E+03 0.  0.
        2    1    3    3  502    0  0.97443199934E+01  0.23640846994E+03  0.50045378210E+03  0.55356833766E+03  0.25500000920E-02 0. -1.
       -2    1    3    3    0  502 -0.97443199934E+01 -0.23640846994E+03  0.18331955419E+03  0.29931584553E+03  0.25500000920E-02 0.  1.
</event>
<event>
 5   0  0.3329246E-01  0.4887392E+03  0.7818609E-02  0.1016761E+00
       -2   -1    0    0    0  501  0.00000000000E+00  0.00000000000E+00  0.66580098090E+02  0.66580098139E+02  0.25500000920E-02 0. -1.
        2   -1    0    0  501    0  0.00000000000E+00  0.00000000000E+00 -0.89691209973E+03  0.89691209973E+03  0.25500000920E-02 0.  1.
    10030    2    1    2    0    0  0.00000000000E+00  0.00000000000E+00 -0.83033200164E+03  0.96349219787E+03  0.48873917626E+03 0.  0.
        2    1    3    3  502    0 -0.55021136299E+02 -0.78454940636E+00  0.54207688629E+02  0.77242569030E+02  0.25500000920E-02 0. -1.
       -2    1    3    3    0  502  0.55021136299E+02  0.78454940636E+00 -0.88453969026E+03  0.88624962884E+03  0.25500000920E-02 0.  1.
</event>
<event>
 5   0  0.3329246E-01  0.5003841E+03  0.7818609E-02  0.1013679E+00
        2   -1    0    0  501    0  0.00000000000E+00  0.00000000000E+00  0.11355805026E+04  0.11355805026E+04  0.25500000920E-02 0.  1.
       -2   -1    0    0    0  501  0.00000000000E+00  0.00000000000E+00 -0.55122516628E+02  0.55122516687E+02  0.25500000920E-02 0. -1.
    10030    2    1    2    0    0  0.00000000000E+00  0.00000000000E+00  0.10804579860E+04  0.11907030193E+04  0.50038407319E+03 0.  0.
        2    1    3    3  502    0 -0.18016051380E+03  0.18798955423E+02  0.95090340090E+03  0.96800231885E+03  0.25500000920E-02 0.  1.
       -2    1    3    3    0  502  0.18016051380E+03 -0.18798955423E+02  0.12955458509E+03  0.22270070046E+03  0.25500000920E-02 0. -1.
</event>
<event>
 5   0  0.1292375E-01  0.3055581E+03  0.7818609E-02  0.1082495E+00
        4   -1    0    0  501    0  0.00000000000E+00  0.00000000000E+00  0.22649039146E+03  0.22649395207E+03  0.12699999809E+01 0. -1.
       -4   -1    0    0    0  501  0.00000000000E+00  0.00000000000E+00 -0.10304881370E+03  0.10305663930E+03  0.12699999809E+01 0.  1.
    10030    2    1    2    0    0  0.00000000000E+00  0.00000000000E+00  0.12344157776E+03  0.32955059138E+03  0.30555812730E+03 0.  0.
        1    1    3    3  502    0  0.95011424814E+02 -0.11680849904E+03  0.89638547980E+02  0.17523260428E+03  0.50400001928E-02 0. -1.
       -1    1    3    3    0  502 -0.95011424814E+02  0.11680849904E+03  0.33803029784E+02  0.15431798710E+03  0.50400001928E-02 0.  1.
</event>
<event>
 5   0  0.2013450E-01  0.5004298E+03  0.7818609E-02  0.1013667E+00
       -1   -1    0    0    0  501  0.00000000000E+00  0.00000000000E+00  0.49457831475E+03  0.49457831477E+03  0.50400001928E-02 0.  1.
        1   -1    0    0  501    0  0.00000000000E+00  0.00000000000E+00 -0.12658764320E+03  0.12658764330E+03  0.50400001928E-02 0. -1.
    10030    2    1    2    0    0  0.00000000000E+00  0.00000000000E+00  0.36799067154E+03  0.62116595808E+03  0.50042982838E+03 0.  0.
        4    1    3    3  502    0  0.24792010980E+03 -0.30963651750E+02  0.20077592420E+03  0.32052412267E+03  0.12699999809E+01 0.  1.
       -4    1    3    3    0  502 -0.24792010980E+03  0.30963651750E+02  0.16721474734E+03  0.30064183541E+03  0.12699999809E+01 0. -1.
</event>
<event>
 5   0  0.1984297E-01  0.4778604E+03  0.7818609E-02  0.1019725E+00
        1   -1    0    0  501    0  0.00000000000E+00  0.00000000000E+00  0.36838917302E+03  0.36838917305E+03  0.50400001928E-02 0. -1.
       -1   -1    0    0    0  501  0.00000000000E+00  0.00000000000E+00 -0.15496560038E+03  0.15496560046E+03  0.50400001928E-02 0.  1.
    10030    2    1    2    0    0  0.00000000000E+00  0.00000000000E+00  0.21342357264E+03  0.52335477351E+03  0.47786043736E+03 0.  0.
        3    1    3    3  502    0  0.21499724597E+02 -0.22420338838E+03  0.19381752309E+02  0.22606428298E+03  0.10100000352E+00 0.  1.
       -3    1    3    3    0  502 -0.21499724597E+02  0.22420338838E+03  0.19404182033E+03  0.29729049053E+03  0.10100000352E+00 0. -1.
</event>
<event>
 5   0  0.3187123E-01  0.4857142E+03  0.7818609E-02  0.1017576E+00
        2   -1    0    0  501    0  0.00000000000E+00  0.00000000000E+00  0.45315421414E+03  0.45315421415E+03  0.25500000920E-02 0.  1.
       -2   -1    0    0    0  501  0.00000000000E+00  0.00000000000E+00 -0.13015342907E+03  0.13015342909E+03  0.25500000920E-02 0. -1.
    10030    2    1    2    0    0  0.00000000000E+00  0.00000000000E+00  0.32300078508E+03  0.58330764324E+03  0.48571421588E+03 0.  0.
        5    1    3    3  502    0 -0.74200134341E+02 -0.16794713544E+02  0.43841713425E+03  0.44499370326E+03  0.46999998093E+01 0.  1.
       -5    1    3    3    0  502  0.74200134341E+02  0.16794713544E+02 -0.11541634917E+03  0.13831393998E+03  0.46999998093E+01 0. -1.
</event>
<event>
 5   0  0.2000612E-01  0.4984603E+03  0.7818609E-02  0.1014182E+00
       -1   -1    0    0    0  501  0.00000000000E+00  0.00000000000E+00  0.82412506577E+02  0.82412506731E+02  0.50400001928E-02 0. -1.
        1   -1    0    0  501    0  0.00000000000E+00  0.00000000000E+00 -0.75371640655E+03  0.75371640657E+03  0.50400001928E-02 0.  1.
    10030    2    1    2    0    0  0.00000000000E+00  0.00000000000E+00 -0.67130389998E+03  0.83612891330E+03  0.49846026274E+03 0.  0.
        2    1    3    3  502    0  0.47144775518E+02 -0.10203059337E+03  0.37486302771E+02  0.11848246598E+03  0.25500000920E-02 0. -1.
       -2    1    3    3    0  502 -0.47144775518E+02  0.10203059337E+03 -0.70879020275E+03  0.71764644733E+03  0.25500000920E-02 0.  1.
</event>
<event>
 5   0  0.3187123E-01  0.5007710E+03  0.7818609E-02  0.1013578E+00
        2   -1    0    0  501    0  0.00000000000E+00  0.00000000000E+00  0.71093315948E+03  0.71093315949E+03  0.25500000920E-02 0. -1.
       -2   -1    0    0    0  501  0.00000000000E+00  0.00000000000E+00 -0.88183962927E+02  0.88183962964E+02  0.25500000920E-02 0.  1.
    10030    2    1    2    0    0  0.00000000000E+00  0.00000000000E+00  0.62274919655E+03  0.79911712245E+03  0.50077101911E+03 0.  0.
        5    1    3    3  502    0 -0.20367311943E+03  0.80103424760E+02  0.50532191314E+03  0.55070102972E+03  0.46999998093E+01 0. -1.
       -5    1    3    3    0  502  0.20367311943E+03 -0.80103424760E+02  0.11742728341E+03  0.24841609273E+03  0.46999998093E+01 0.  1.
</event>
<event>
 5   0  0.2013450E-01  0.5040418E+03  0.7818609E-02  0.1012729E+00
        1   -1    0    0  501    0  0.00000000000E+00  0.00000000000E+00  0.69472306333E+02  0.69472306516E+02  0.50400001928E-02 0.  1.
       -1   -1    0    0    0  501  0.00000000000E+00  0.00000000000E+00 -0.91424249417E+03  0.91424249418E+03  0.50400001928E-02 0. -1.
    10030    2    1    2    0    0  0.00000000000E+00  0.00000000000E+00 -0.84477018783E+03  0.98371480070E+03  0.50404180269E+03 0.  0.
        4    1    3    3  502    0 -0.19370109584E+02 -0.82266803392E+02  0.40983140079E+02  0.93937525816E+02  0.12699999809E+01 0.  1.
       -4    1    3    3    0  502  0.19370109584E+02  0.82266803392E+02 -0.88575332791E+03  0.88977727488E+03  0.12699999809E+01 0. -1.
</event>
<event>
 5   0  0.1984680E-01  0.5069854E+03  0.7818609E-02  0.1011972E+00
       -1   -1    0    0    0  501  0.00000000000E+00  0.00000000000E+00  0.19876237952E+03  0.19876237959E+03  0.50400001928E-02 0.  1.
        1   -1    0    0  501    0  0.00000000000E+00  0.00000000000E+00 -0.32329326189E+03  0.32329326193E+03  0.50400001928E-02 0. -1.
    10030    2    1    2    0    0  0.00000000000E+00  0.00000000000E+00 -0.12453088237E+03  0.52205564152E+03  0.50698535697E+03 0.  0.
        5    1    3    3  502    0 -0.23164864516E+03  0.73100839981E+01 -0.16789094432E+03  0.28622367358E+03  0.46999998093E+01 0. -1.
       -5    1    3    3    0  502  0.23164864516E+03 -0.73100839981E+01  0.43360061957E+02  0.23583196794E+03  0.46999998093E+01 0.  1.
</event>
<event>
 5   0  0.1984297E-01  0.4891126E+03  0.7818609E-02  0.1016660E+00
        1   -1    0    0  501    0  0.00000000000E+00  0.00000000000E+00  0.69338352844E+03  0.69338352846E+03  0.50400001928E-02 0. -1.
       -1   -1    0    0    0  501  0.00000000000E+00  0.00000000000E+00 -0.86254981916E+02  0.86254982063E+02  0.50400001928E-02 0.  1.
    10030    2    1    2    0    0  0.00000000000E+00  0.00000000000E+00  0.60712854652E+03  0.77963851052E+03  0.48911259960E+03 0.  0.
        3    1    3    3  502    0 -0.10900180439E+03 -0.19280715035E+03  0.13828260885E+03  0.26110932710E+03  0.10100000352E+00 0.  1.
       -3    1    3    3    0  502  0.10900180439E+03  0.19280715035E+03  0.46884593767E+03  0.51852918342E+03  0.10100000352E+00 0. -1.
</event>
<event>
 5   0  0.1967161E-01  0.5064016E+03  0.7818609E-02  0.1012121E+00
        1   -1    0    0  501    0  0.00000000000E+00  0.00000000000E+00  0.35126732755E+03  0.35126732759E+03  0.50400001928E-02 0. -1.
       -1   -1    0    0    0  501  0.00000000000E+00  0.00000000000E+00 -0.18251238735E+03  0.18251238742E+03  0.50400001928E-02 0.  1.
    10030    2    1    2    0    0  0.00000000000E+00  0.00000000000E+00  0.16875494020E+03  0.53377971501E+03  0.50640157416E+03 0.  0.
        1    1    3    3  502    0  0.13166647518E+02  0.12953266078E+03 -0.14452333581E+03  0.19452266047E+03  0.50400001928E-02 0.  1.
       -1    1    3    3    0  502 -0.13166647518E+02 -0.12953266078E+03  0.31327827601E+03  0.33925705455E+03  0.50400001928E-02 0. -1.
</event>
<event>
 5   0  0.3117389E-01  0.5069056E+03  0.7818609E-02  0.1011992E+00
       -2   -1    0    0    0  501  0.00000000000E+00  0.00000000000E+00  0.47121742437E+03  0.47121742437E+03  0.25500000920E-02 0.  1.
        2   -1    0    0  501    0  0.00000000000E+00  0.00000000000E+00 -0.13632417705E+03  0.13632417708E+03  0.25500000920E-02 0. -1.
    10030    2    1    2    0    0  0.00000000000E+00  0.00000000000E+00  0.33489324731E+03  0.60754160145E+03  0.50690562277E+03 0.  0.
        4    1    3    3  502    0  0.25114886276E+03  0.28686987429E+02  0.14541125955E+03  0.29162431623E+03  0.12699999809E+01 0.  1.
       -4    1    3    3    0  502 -0.25114886276E+03 -0.28686987429E+02  0.18948198776E+03  0.31591728522E+03  0.12699999809E+01 0. -1.
</event>
<event>
 5   0  0.3329246E-01  0.4989565E+03  0.7818609E-02  0.1014052E+00
       -2   -1    0    0    0  501  0.00000000000E+00  0.00000000000E+00  0.93685136904E+02  0.93685136939E+02  0.25500000920E-02 0. -1.
        2   -1    0    0  501    0  0.00000000000E+00  0.00000000000E+00 -0.66434657541E+03  0.66434657541E+03  0.25500000920E-02 0.  1.
    10030    2    1    2    0    0  0.00000000000E+00  0.00000000000E+00 -0.57066143850E+03  0.75803171235E+03  0.49895651067E+03 0.  0.
        2    1    3    3  502    0 -0.73486534701E+02 -0.14378379321E+02 -0.64687136627E+03  0.65119088836E+03  0.25500000920E-02 0.  1.
       -2    1    3    3    0  502  0.73486534701E+02  0.14378379321E+02  0.76209927768E+02  0.10684082399E+03  0.25500000920E-02 0. -1.
</event>
<event>
 5   0  0.1984297E-01  0.4800386E+03  0.7818609E-02  0.1019125E+00
        1   -1    0    0  501    0  0.00000000000E+00  0.00000000000E+00  0.57348477646E+03  0.57348477649E+03  0.50400001928E-02 0. -1.
       -1   -1    0    0    0  501  0.00000000000E+00  0.00000000000E+00 -0.10045472283E+03  0.10045472295E+03  0.50400001928E-02 0.  1.
    10030    2    1    2    0    0  0.00000000000E+00  0.00000000000E+00  0.47303005364E+03  0.67393949944E+03  0.48003855810E+03 0.  0.
        3    1    3    3  502    0  0.35357868116E+02  0.16374397101E+03 -0.48094188144E+01  0.16758701498E+03  0.10100000352E+00 0.  1.
       -3    1    3    3    0  502 -0.35357868116E+02 -0.16374397101E+03  0.47783947245E+03  0.50635248446E+03  0.10100000352E+00 0. -1.
</event>
<event>
 5   0  0.3178149E-01  0.5092444E+03  0.7818609E-02  0.1011394E+00
       -2   -1    0    0    0  501  0.00000000000E+00  0.00000000000E+00  0.58404648801E+02  0.58404648857E+02  0.25500000920E-02 0. -1.
        2   -1    0    0  501    0  0.00000000000E+00  0.00000000000E+00 -0.11100565811E+04  0.11100565811E+04  0.25500000920E-02 0.  1.
    10030    2    1    2    0    0  0.00000000000E+00  0.00000000000E+00 -0.10516519323E+04  0.11684612300E+04  0.50924440028E+03 0.  0.
        3    1    3    3  502    0  0.17054985874E+02 -0.12706088371E+03 -0.21051036854E+02  0.12991727008E+03  0.10100000352E+00 0. -1.
       -3    1    3    3    0  502 -0.17054985874E+02  0.12706088371E+03 -0.10306008954E+04  0.10385439599E+04  0.10100000352E+00 0.  1.
</event>
<event>
 5   0  0.1967161E-01  0.5054462E+03  0.7818609E-02  0.1012367E+00
       -1   -1    0    0    0  501  0.00000000000E+00  0.00000000000E+00  0.11787507303E+03  0.11787507314E+03  0.50400001928E-02 0.  1.
        1   -1    0    0  501    0  0.00000000000E+00  0.00000000000E+00 -0.54183602104E+03  0.54183602106E+03  0.50400001928E-02 0. -1.
    10030    2    1    2    0    0  0.00000000000E+00  0.00000000000E+00 -0.42396094801E+03  0.65971109420E+03  0.50544618148E+03 0.  0.
        1    1    3    3  502    0 -0.20087810105E+03  0.70234204050E+02 -0.34050260145E+02  0.21550933887E+03  0.50400001928E-02 0.  1.
       -1    1    3    3    0  502  0.20087810105E+03 -0.70234204050E+02 -0.38991068787E+03  0.44420175533E+03  0.50400001928E-02 0. -1.
</event>
<event>
 5   0  0.2013450E-01  0.5013893E+03  0.7818609E-02  0.1013417E+00
       -1   -1    0    0    0  501  0.00000000000E+00  0.00000000000E+00  0.26289467804E+03  0.26289467809E+03  0.50400001928E-02 0.  1.
        1   -1    0    0  501    0  0.00000000000E+00  0.00000000000E+00 -0.23906082267E+03  0.23906082273E+03  0.50400001928E-02 0. -1.
    10030    2    1    2    0    0  0.00000000000E+00  0.00000000000E+00  0.23833855367E+02  0.50195550082E+03  0.50138934187E+03 0.  0.
        4    1    3    3  502    0 -0.16236553863E+03 -0.13769733429E+03 -0.12060732257E+03  0.24468523283E+03  0.12699999809E+01 0. -1.
       -4    1    3    3    0  502  0.16236553863E+03  0.13769733429E+03  0.14444117794E+03  0.25727026799E+03  0.12699999809E+01 0.  1.
</event>
<event>
 5   0  0.1984680E-01  0.4841699E+03  0.7818609E-02  0.1017995E+00
        1   -1    0    0  501    0  0.00000000000E+00  0.00000000000E+00  0.14085895387E+04  0.14085895387E+04  0.50400001928E-02 0.  1.
       -1   -1    0    0    0  501  0.00000000000E+00  0.00000000000E+00 -0.41605539147E+02  0.41605539453E+02  0.50400001928E-02 0. -1.
    10030    2    1    2    0    0  0.00000000000E+00  0.00000000000E+00  0.13669839996E+04  0.14501950782E+04  0.48416991820E+03 0.  0.
        5    1    3    3  502    0  0.32298097274E+02 -0.91772300788E+02  0.13473079783E+04  0.13508242671E+04  0.46999998093E+01 0.  1.
       -5    1    3    3    0  502 -0.32298097274E+02  0.91772300788E+02  0.19676021284E+02  0.99370811063E+02  0.46999998093E+01 0. -1.
</event>
<event>
 5   0  0.3178149E-01  0.5023044E+03  0.7818609E-02  0.1013179E+00
       -2   -1    0    0    0  501  0.00000000000E+00  0.00000000000E+00  0.67212296874E+02  0.67212296922E+02  0.25500000920E-02 0.  1.
        2   -1    0    0  501    0  0.00000000000E+00  0.00000000000E+00 -0.93848034403E+03  0.93848034403E+03  0.25500000920E-02 0. -1.
    10030    2    1    2    0    0  0.00000000000E+00  0.00000000000E+00 -0.87126804716E+03  0.10056926410E+04  0.50230436796E+03 0.  0.
        3    1    3    3  502    0 -0.17645067608E+03  0.15860892252E+03 -0.27070460088E+03  0.35996197373E+03  0.10100000352E+00 0.  1.
       -3    1    3    3    0  502  0.17645067608E+03 -0.15860892252E+03 -0.60056344628E+03  0.64573066723E+03  0.10100000352E+00 0. -1.
</event>
<event>
 5   0  0.2013450E-01  0.4935029E+03  0.7818609E-02  0.1015489E+00
        1   -1    0    0  501    0  0.00000000000E+00  0.00000000000E+00  0.20113486801E+04  0.20113486801E+04  0.50400001928E-02 0. -1.
       -1   -1    0    0    0  501  0.00000000000E+00  0.00000000000E+00 -0.30271363396E+02  0.30271363815E+02  0.50400001928E-02 0.  1.
    10030    2    1    2    0    0  0.00000000000E+00  0.00000000000E+00  0.19810773167E+04  0.20416200439E+04  0.49350285610E+03 0.  0.
        4    1    3    3  502    0 -0.14389012527E+03 -0.44685596044E+02  0.17989325531E+04  0.18052315957E+04  0.12699999809E+01 0. -1.
       -4    1    3    3    0  502  0.14389012527E+03  0.44685596044E+02  0.18214476365E+03  0.23638844826E+03  0.12699999809E+01 0.  1.
</event>
<event>
 5   0  0.3111146E-01  0.4884427E+03  0.7818609E-02  0.1016840E+00
        2   -1    0    0  501    0  0.00000000000E+00  0.00000000000E+00  0.23638014895E+04  0.23638014895E+04  0.25500000920E-02 0.  1.
       -2   -1    0    0    0  501  0.00000000000E+00  0.00000000000E+00 -0.25232264678E+02  0.25232264807E+02  0.25500000920E-02 0. -1.
    10030    2    1    2    0    0  0.00000000000E+00  0.00000000000E+00  0.23385692248E+04  0.23890337543E+04  0.48844268849E+03 0.  0.
        1    1    3    3  502    0  0.42458635566E+02  0.16962256090E+03  0.20032107264E+04  0.20108276314E+04  0.50400001928E-02 0.  1.
       -1    1    3    3    0  502 -0.42458635566E+02 -0.16962256090E+03  0.33535849841E+03  0.37820612287E+03  0.50400001928E-02 0. -1.
</event>
<event>
 5   0  0.2013450E-01  0.5043654E+03  0.7818609E-02  0.1012646E+00
       -1   -1    0    0    0  501  0.00000000000E+00  0.00000000000E+00  0.18710252622E+03  0.18710252629E+03  0.50400001928E-02 0. -1.
        1   -1    0    0  501    0  0.00000000000E+00  0.00000000000E+00 -0.33989982731E+03  0.33989982734E+03  0.50400001928E-02 0.  1.
    10030    2    1    2    0    0  0.00000000000E+00  0.00000000000E+00 -0.15279730109E+03  0.52700235363E+03  0.50436540872E+03 0.  0.
        4    1    3    3  502    0 -0.13014261076E+03 -0.76919047605E+02  0.13450416683E+03  0.20235271882E+03  0.12699999809E+01 0. -1.
       -4    1    3    3    0  502  0.13014261076E+03  0.76919047605E+02 -0.28730146791E+03  0.32464963481E+03  0.12699999809E+01 0.  1.
</event>
<event>
 5   0  0.1984680E-01  0.4954778E+03  0.7818609E-02  0.1014966E+00
        1   -1    0    0  501    0  0.00000000000E+00  0.00000000000E+00  0.19698726024E+03  0.19698726030E+03  0.50400001928E-02 0. -1.
       -1   -1    0    0    0  501  0.00000000000E+00  0.00000000000E+00 -0.31156611998E+03  0.31156612002E+03  0.50400001928E-02 0.  1.
    10030    2    1    2    0    0  0.00000000000E+00  0.00000000000E+00 -0.11457885974E+03  0.50855338032E+03  0.49547777502E+03 0.  0.
        5    1    3    3  502    0 -0.11800369331E+03  0.20769609783E+03  0.99365671268E+01  0.23913043732E+03  0.46999998093E+01 0. -1.
       -5    1    3    3    0  502  0.11800369331E+03 -0.20769609783E+03 -0.12451542687E+03  0.26942294300E+03  0.46999998093E+01 0.  1.
</event>
<event>
 5   0  0.1292375E-01  0.5183430E+03  0.7818609E-02  0.1009099E+00
       -3   -1    0    0    0  501  0.00000000000E+00  0.00000000000E+00  0.65012819884E+03  0.65012820669E+03  0.10100000352E+00 0. -1.
        3   -1    0    0  501    0  0.00000000000E+00  0.00000000000E+00 -0.10331783528E+03  0.10331788465E+03  0.10100000352E+00 0.  1.
    10030    2    1    2    0    0  0.00000000000E+00  0.00000000000E+00  0.54681036356E+03  0.75344609134E+03  0.51834297416E+03 0.  0.
        1    1    3    3  502    0 -0.22924700694E+03 -0.68300982549E+00  0.97678627275E+02  0.24919023044E+03  0.50400001928E-02 0.  1.
       -1    1    3    3    0  502  0.22924700694E+03  0.68300982549E+00  0.44913173628E+03  0.50425586090E+03  0.50400001928E-02 0. -1.
</event>
<event>
 5   0  0.1292375E-01  0.4858238E+03  0.7818609E-02  0.1017547E+00
        3   -1    0    0  501    0  0.00000000000E+00  0.00000000000E+00  0.12531014953E+03  0.12531019023E+03  0.10100000352E+00 0.  1.
       -3   -1    0    0    0  501  0.00000000000E+00  0.00000000000E+00 -0.47088103552E+03  0.47088104635E+03  0.10100000352E+00 0. -1.
    10030    2    1    2    0    0  0.00000000000E+00  0.00000000000E+00 -0.34557088599E+03  0.59619123658E+03  0.48582378835E+03 0.  0.
        3    1    3    3  502    0  0.24087727655E+03  0.11088463923E+02 -0.13676910102E+03  0.27721943219E+03  0.10100000352E+00 0.  1.
       -3    1    3    3    0  502 -0.24087727655E+03 -0.11088463923E+02 -0.20880178497E+03  0.31897180439E+03  0.10100000352E+00 0. -1.
</event>
<event>
 5   0  0.1292375E-01  0.5005912E+03  0.7818609E-02  0.1013625E+00
       -4   -1    0    0    0  501  0.00000000000E+00  0.00000000000E+00  0.53458223549E+03  0.53458374405E+03  0.12699999809E+01 0.  1.
        4   -1    0    0  501    0  0.00000000000E+00  0.00000000000E+00 -0.11718525060E+03  0.11719213224E+03  0.12699999809E+01 0. -1.
    10030    2    1    2    0    0  0.00000000000E+00  0.00000000000E+00  0.41739698489E+03  0.65177587629E+03  0.50059120040E+03 0.  0.
        5    1    3    3  502    0 -0.39446973221E+02  0.22708332598E+03  0.33562229611E+03  0.40716988627E+03  0.46999998093E+01 0.  1.
       -5    1    3    3    0  502  0.39446973221E+02 -0.22708332598E+03  0.81774688777E+02  0.24460599003E+03  0.46999998093E+01 0. -1.
</event>
<event>
 5   0  0.1292375E-01  0.5293036E+03  0.7818609E-02  0.1006401E+00
       -3   -1    0    0    0  501  0.00000000000E+00  0.00000000000E+00  0.91083698882E+03  0.91083699442E+03  0.10100000352E+00 0.  1.
        3   -1    0    0  501    0  0.00000000000E+00  0.00000000000E+00 -0.76896897775E+02  0.76896964104E+02  0.10100000352E+00 0. -1.
    10030    2    1    2    0    0  0.00000000000E+00  0.00000000000E+00  0.83394009104E+03  0.98773395852E+03  0.52930359659E+03 0.  0.
        3    1    3    3  502    0  0.31573017074E+02 -0.68554248344E+02 -0.56387438818E+02  0.94213023679E+02  0.10100000352E+00 0. -1.
       -3    1    3    3    0  502 -0.31573017074E+02  0.68554248344E+02  0.89032752986E+03  0.89352093484E+03  0.10100000352E+00 0.  1.
</event>
<event>
 5   0  0.2000612E-01  0.4555809E+03  0.7818609E-02  0.1026071E+00
        1   -1    0    0  501    0  0.00000000000E+00  0.00000000000E+00  0.31126411999E+03  0.31126412004E+03  0.50400001928E-02 0. -1.
       -1   -1    0    0    0  501  0.00000000000E+00  0.00000000000E+00 -0.16670246334E+03  0.16670246341E+03  0.50400001928E-02 0.  1.
    10030    2    1    2    0    0  0.00000000000E+00  0.00000000000E+00  0.14456165666E+03  0.47796658345E+03  0.45558092840E+03 0.  0.
        2    1    3    3  502    0  0.15756238826E+02 -0.51738322223E+02  0.30443030305E+03  0.30919722262E+03  0.25500000920E-02 0. -1.
       -2    1    3    3    0  502 -0.15756238826E+02  0.51738322223E+02 -0.15986864640E+03  0.16876936083E+03  0.25500000920E-02 0.  1.
</event>
<event>
 5   0  0.1292375E-01  0.5089788E+03  0.7818609E-02  0.1011462E+00
        3   -1    0    0  501    0  0.00000000000E+00  0.00000000000E+00  0.60590666937E+03  0.60590667779E+03  0.10100000352E+00 0.  1.
       -3   -1    0    0    0  501  0.00000000000E+00  0.00000000000E+00 -0.10688913003E+03  0.10688917774E+03  0.10100000352E+00 0. -1.
    10030    2    1    2    0    0  0.00000000000E+00  0.00000000000E+00  0.49901753934E+03  0.71279585553E+03  0.50897880809E+03 0.  0.
        1    1    3    3  502    0  0.42599650920E+02  0.16991474593E+03 -0.90204049519E+01  0.17540558393E+03  0.50400001928E-02 0. -1.
       -1    1    3    3    0  502 -0.42599650920E+02 -0.16991474593E+03  0.50803794429E+03  0.53739027160E+03  0.50400001928E-02 0.  1.
</event>
<event>
 5   0  0.1984680E-01  0.5021445E+03  0.7818609E-02  0.1013221E+00
        1   -1    0    0  501    0  0.00000000000E+00  0.00000000000E+00  0.98300493977E+03  0.98300493978E+03  0.50400001928E-02 0. -1.
       -1   -1    0    0    0  501  0.00000000000E+00  0.00000000000E+00 -0.64127126338E+02  0.64127126536E+02  0.50400001928E-02 0.  1.
    10030    2    1    2    0    0  0.00000000000E+00  0.00000000000E+00  0.91887781343E+03  0.10471320663E+04  0.50214452929E+03 0.  0.
        5    1    3    3  502    0  0.15410207306E+02 -0.19048251426E+03  0.12001099690E+03  0.22571174560E+03  0.46999998093E+01 0.  1.
       -5    1    3    3    0  502 -0.15410207306E+02  0.19048251426E+03  0.79886681653E+03  0.82142032071E+03  0.46999998093E+01 0. -1.
</event>
<event>
 5   0  0.1292375E-01  0.5263824E+03  0.7818609E-02  0.1007113E+00
        3   -1    0    0  501    0  0.00000000000E+00  0.00000000000E+00  0.29950339468E+03  0.29950341171E+03  0.10100000352E+00 0. -1.
       -3   -1    0    0    0  501  0.00000000000E+00  0.00000000000E+00 -0.23128154300E+03  0.23128156505E+03  0.10100000352E+00 0.  1.
    10030    2    1    2    0    0  0.00000000000E+00  0.00000000000E+00  0.68221851680E+02  0.53078497676E+03  0.52638243750E+03 0.  0.
        5    1    3    3  502    0 -0.20609067700E+03 -0.11307095267E+03  0.15337576627E+03  0.28072161149E+03  0.46999998093E+01 0. -1.
       -5    1    3    3    0  502  0.20609067700E+03  0.11307095267E+03 -0.85153914590E+02  0.25006336527E+03  0.46999998093E+01 0.  1.
</event>
<event>
 5   0  0.3329246E-01  0.4926029E+03  0.7818609E-02  0.1015728E+00
        2   -1    0    0  501    0  0.00000000000E+00  0.00000000000E+00  0.16953394486E+04  0.16953394486E+04  0.25500000920E-02 0.  1.
       -2   -1    0    0    0  501  0.00000000000E+00  0.00000000000E+00 -0.35783046315E+02  0.35783046406E+02  0.25500000920E-02 0. -1.
    10030    2    1    2    0    0  0.00000000000E+00  0.00000000000E+00  0.16595564023E+04  0.17311224950E+04  0.49260292361E+03 0.  0.
        2    1    3    3  502    0 -0.10256640333E+03 -0.22233564004E+03  0.73604582528E+03  0.77570384867E+03  0.25500000920E-02 0.  1.
       -2    1    3    3    0  502  0.10256640333E+03  0.22233564004E+03  0.92351057699E+03  0.95541864632E+03  0.25500000920E-02 0. -1.
</event>
<event>
 5   0  0.2013450E-01  0.5071476E+03  0.7818609E-02  0.1011930E+00
        1   -1    0    0  501    0  0.00000000000E+00  0.00000000000E+00  0.16282437341E+03  0.16282437349E+03  0.50400001928E-02 0.  1.
       -1   -1    0    0    0  501  0.00000000000E+00  0.00000000000E+00 -0.39490201285E+03  0.39490201288E+03  0.50400001928E-02 0. -1.
    10030    2    1    2    0    0  0.00000000000E+00  0.00000000000E+00 -0.23207763944E+03  0.55772638638E+03  0.50714760310E+03 0.  0.
        4    1    3    3  502    0  0.69832380871E+02 -0.12090097434E+03  0.11674211292E+03  0.18199983748E+03  0.12699999809E+01 0.  1.
       -4    1    3    3    0  502 -0.69832380871E+02  0.12090097434E+03 -0.34881975235E+03  0.37572654890E+03  0.12699999809E+01 0. -1.
</event>
<event>
 5   0  0.1967161E-01  0.4927462E+03  0.7818609E-02  0.1015690E+00
       -1   -1    0    0    0  501  0.00000000000E+00  0.00000000000E+00  0.76596270581E+02  0.76596270747E+02  0.50400001928E-02 0.  1.
        1   -1    0    0  501    0  0.00000000000E+00  0.00000000000E+00 -0.79246282488E+03  0.79246282490E+03  0.50400001928E-02 0. -1.
    10030    2    1    2    0    0  0.00000000000E+00  0.00000000000E+00 -0.71586655430E+03  0.86905909564E+03  0.49274617011E+03 0.  0.
        1    1    3    3  502    0 -0.14363265026E+02  0.19644367503E+03 -0.96909186495E+02  0.21951722323E+03  0.50400001928E-02 0. -1.
       -1    1    3    3    0  502  0.14363265026E+02 -0.19644367503E+03 -0.61895736780E+03  0.64954187242E+03  0.50400001928E-02 0.  1.
</event>
<event>
 5   0  0.1967161E-01  0.4965633E+03  0.7818609E-02  0.1014680E+00
       -1   -1    0    0    0  501  0.00000000000E+00  0.00000000000E+00  0.41859611541E+02  0.41859611845E+02  0.50400001928E-02 0. -1.
        1   -1    0    0  501    0  0.00000000000E+00  0.00000000000E+00 -0.14726316197E+04  0.14726316197E+04  0.50400001928E-02 0.  1.
    10030    2    1    2    0    0  0.00000000000E+00  0.00000000000E+00 -0.14307720082E+04  0.15144912316E+04  0.49656334050E+03 0.  0.
        1    1    3    3  502    0 -0.59432287438E+02 -0.10407335593E+03 -0.52204588280E+02  0.13072405772E+03  0.50400001928E-02 0. -1.
       -1    1    3    3    0  502  0.59432287438E+02  0.10407335593E+03 -0.13785674199E+04  0.13837671739E+04  0.50400001928E-02 0.  1.
</event>
<event>
 5   0  0.1292375E-01  0.5009070E+03  0.7818609E-02  0.1013542E+00
       -3   -1    0    0    0  501  0.00000000000E+00  0.00000000000E+00  0.14153976209E+03  0.14153979813E+03  0.10100000352E+00 0. -1.
        3   -1    0    0  501    0  0.00000000000E+00  0.00000000000E+00 -0.44317545981E+03  0.44317547132E+03  0.10100000352E+00 0.  1.
    10030    2    1    2    0    0  0.00000000000E+00  0.00000000000E+00 -0.30163569771E+03  0.58471526944E+03  0.50090702948E+03 0.  0.
        4    1    3    3  502    0 -0.14164510282E+03  0.16170921901E+03 -0.81861676165E+00  0.21497788188E+03  0.12699999809E+01 0. -1.
       -4    1    3    3    0  502  0.14164510282E+03 -0.16170921901E+03 -0.30081708095E+03  0.36973738756E+03  0.12699999809E+01 0.  1.
</event>
<event>
 5   0  0.3117389E-01  0.5827103E+03  0.7818609E-02  0.9941941E-01
       -2   -1    0    0    0  501  0.00000000000E+00  0.00000000000E+00  0.76309590000E+02  0.76309590043E+02  0.25500000920E-02 0. -1.
        2   -1    0    0  501    0  0.00000000000E+00  0.00000000000E+00 -0.11124134503E+04  0.11124134503E+04  0.25500000920E-02 0.  1.
    10030    2    1    2    0    0  0.00000000000E+00  0.00000000000E+00 -0.10361038603E+04  0.11887230404E+04  0.58271026877E+03 0.  0.
        4    1    3    3  502    0  0.13739987251E+03  0.19471468712E+03 -0.17612585216E+03  0.29633505201E+03  0.12699999809E+01 0. -1.
       -4    1    3    3    0  502 -0.13739987251E+03 -0.19471468712E+03 -0.85997800819E+03  0.89238798838E+03  0.12699999809E+01 0.  1.
</event>
<event>
 5   0  0.1967161E-01  0.5030591E+03  0.7818609E-02  0.1012984E+00
        1   -1    0    0  501    0  0.00000000000E+00  0.00000000000E+00  0.46320818712E+03  0.46320818715E+03  0.50400001928E-02 0. -1.
       -1   -1    0    0    0  501  0.00000000000E+00  0.00000000000E+00 -0.13658460985E+03  0.13658460994E+03  0.50400001928E-02 0.  1.
    10030    2    1    2    0    0  0.00000000000E+00  0.00000000000E+00  0.32662357727E+03  0.59979279709E+03  0.50305908024E+03 0.  0.
        1    1    3    3  502    0 -0.78256789523E+02 -0.14623435166E+02 -0.12116678615E+03  0.14498055060E+03  0.50400001928E-02 0.  1.
       -1    1    3    3    0  502  0.78256789523E+02  0.14623435166E+02  0.44779036342E+03  0.45481224649E+03  0.50400001928E-02 0. -1.
</event>
<event>
 5   0  0.3117389E-01  0.4757574E+03  0.7818609E-02  0.1020308E+00
        2   -1    0    0  501    0  0.00000000000E+00  0.00000000000E+00  0.31742794114E+03  0.31742794115E+03  0.25500000920E-02 0. -1.
       -2   -1    0    0    0  501  0.00000000000E+00  0.00000000000E+00 -0.17826496277E+03  0.17826496279E+03  0.25500000920E-02 0.  1.
    10030    2    1    2    0    0  0.00000000000E+00  0.00000000000E+00  0.13916297837E+03  0.49569290395E+03  0.47575741768E+03 0.  0.
        4    1    3    3  502    0  0.15271736286E+03  0.17376405780E+03  0.11869802725E+02  0.23164422251E+03  0.12699999809E+01 0.  1.
       -4    1    3    3    0  502 -0.15271736286E+03 -0.17376405780E+03  0.12729317564E+03  0.26404868144E+03  0.12699999809E+01 0. -1.
</event>
<event>
 5   0  0.3178149E-01  0.4951769E+03  0.7818609E-02  0.1015046E+00
        2   -1    0    0  501    0  0.00000000000E+00  0.00000000000E+00  0.60142331326E+03  0.60142331327E+03  0.25500000920E-02 0.  1.
       -2   -1    0    0    0  501  0.00000000000E+00  0.00000000000E+00 -0.10192495076E+03  0.10192495079E+03  0.25500000920E-02 0. -1.
    10030    2    1    2    0    0  0.00000000000E+00  0.00000000000E+00  0.49949836250E+03  0.70334826406E+03  0.49517690417E+03 0.  0.
        3    1    3    3  502    0  0.24140111502E+03 -0.50039335242E+02  0.21730939398E+03  0.32863629793E+03  0.10100000352E+00 0.  1.
       -3    1    3    3    0  502 -0.24140111502E+03  0.50039335242E+02  0.28218896852E+03  0.37471196613E+03  0.10100000352E+00 0. -1.
</event>
<event>
 5   0  0.3111146E-01  0.4738915E+03  0.7818609E-02  0.1020828E+00
       -2   -1    0    0    0  501  0.00000000000E+00  0.00000000000E+00  0.27521539756E+02  0.27521539874E+02  0.25500000920E-02 0.  1.
        2   -1    0    0  501    0  0.00000000000E+00  0.00000000000E+00 -0.20399760269E+04  0.20399760269E+04  0.25500000920E-02 0. -1.
    10030    2    1    2    0    0  0.00000000000E+00  0.00000000000E+00 -0.20124544871E+04  0.20674975667E+04  0.47389147048E+03 0.  0.
        1    1    3    3  502    0  0.23465978108E+01  0.12483099167E+03 -0.12763308889E+03  0.17854547994E+03  0.50400001928E-02 0.  1.
       -1    1    3    3    0  502 -0.23465978108E+01 -0.12483099167E+03 -0.18848213982E+04  0.18889520868E+04  0.50400001928E-02 0. -1.
</event>
<event>
 5   0  0.3117389E-01  0.5464593E+03  0.7818609E-02  0.1002317E+00
        2   -1    0    0  501    0  0.00000000000E+00  0.00000000000E+00  0.17714065168E+04  0.17714065168E+04  0.25500000920E-02 0. -1.
       -2   -1    0    0    0  501  0.00000000000E+00  0.00000000000E+00 -0.42144154980E+02  0.42144155057E+02  0.25500000920E-02 0.  1.
    10030    2    1    2    0    0  0.00000000000E+00  0.00000000000E+00  0.17292623618E+04  0.18135506718E+04  0.54645926050E+03 0.  0.
        4    1    3    3  502    0  0.47209494934E+02  0.44439751129E+02  0.17454973015E+04  0.17467014829E+04  0.12699999809E+01 0. -1.
       -4    1    3    3    0  502 -0.47209494934E+02 -0.44439751129E+02 -0.16234939721E+02  0.66849188926E+02  0.12699999809E+01 0.  1.
</event>
<event>
 5   0  0.1967161E-01  0.5077631E+03  0.7818609E-02  0.1011772E+00
        1   -1    0    0  501    0  0.00000000000E+00  0.00000000000E+00  0.65448925429E+03  0.65448925431E+03  0.50400001928E-02 0.  1.
       -1   -1    0    0    0  501  0.00000000000E+00  0.00000000000E+00 -0.98482641242E+02  0.98482641371E+02  0.50400001928E-02 0. -1.
    10030    2    1    2    0    0  0.00000000000E+00  0.00000000000E+00  0.55600661305E+03  0.75297189568E+03  0.50776305688E+03 0.  0.
        1    1    3    3  502    0 -0.62565052299E+02 -0.13018508802E+03  0.58762221685E+03  0.60511355354E+03  0.50400001928E-02 0.  1.
       -1    1    3    3    0  502  0.62565052299E+02  0.13018508802E+03 -0.31615603803E+02  0.14785834214E+03  0.50400001928E-02 0. -1.
</event>
<event>
 5   0  0.3178149E-01  0.4978524E+03  0.7818609E-02  0.1014341E+00
        2   -1    0    0  501    0  0.00000000000E+00  0.00000000000E+00  0.11263014032E+04  0.11263014032E+04  0.25500000920E-02 0. -1.
       -2   -1    0    0    0  501  0.00000000000E+00  0.00000000000E+00 -0.55015701573E+02  0.55015701632E+02  0.25500000920E-02 0.  1.
    10030    2    1    2    0    0  0.00000000000E+00  0.00000000000E+00  0.10712857016E+04  0.11813171048E+04  0.49785243562E+03 0.  0.
        3    1    3    3  502    0 -0.23519196948E+03 -0.78632681822E+02  0.58685910468E+03  0.63710437144E+03  0.10100000352E+00 0. -1.
       -3    1    3    3    0  502  0.23519196948E+03  0.78632681822E+02  0.48442659690E+03  0.54421273335E+03  0.10100000352E+00 0.  1.
</event>
<event>
 5   0  0.1967161E-01  0.4996235E+03  0.7818609E-02  0.1013877E+00
        1   -1    0    0  501    0  0.00000000000E+00  0.00000000000E+00  0.10189082124E+04  0.10189082125E+04  0.50400001928E-02 0.  1.
       -1   -1    0    0    0  501  0.00000000000E+00  0.00000000000E+00 -0.61247813246E+02  0.61247813454E+02  0.50400001928E-02 0. -1.
    10030    2    1    2    0    0  0.00000000000E+00  0.00000000000E+00  0.95766039920E+03  0.10801560259E+04  0.49962345833E+03 0.  0.
        1    1    3    3  502    0 -0.59041428588E+02  0.15038368301E+03  0.66898283208E+02  0.17486143865E+03  0.50400001928E-02 0. -1.
       -1    1    3    3    0  502  0.59041428588E+02 -0.15038368301E+03  0.89076211599E+03  0.90529458726E+03  0.50400001928E-02 0.  1.
</event>
<event>
 5   0  0.3117389E-01  0.5305511E+03  0.7818609E-02  0.1006099E+00
        2   -1    0    0  501    0  0.00000000000E+00  0.00000000000E+00  0.55126834340E+03  0.55126834340E+03  0.25500000920E-02 0.  1.
       -2   -1    0    0    0  501  0.00000000000E+00  0.00000000000E+00 -0.12765312437E+03  0.12765312440E+03  0.25500000920E-02 0. -1.
    10030    2    1    2    0    0  0.00000000000E+00  0.00000000000E+00  0.42361521902E+03  0.67892146780E+03  0.53055113388E+03 0.  0.
        4    1    3    3  502    0  0.25050836548E+03  0.37847994755E+02  0.31242612989E+03  0.40224198117E+03  0.12699999809E+01 0.  1.
       -4    1    3    3    0  502 -0.25050836548E+03 -0.37847994755E+02  0.11118908913E+03  0.27667948663E+03  0.12699999809E+01 0. -1.
</event>
<event>
 5   0  0.3329246E-01  0.4566545E+03  0.7818609E-02  0.1025756E+00
       -2   -1    0    0    0  501  0.00000000000E+00  0.00000000000E+00  0.79191436623E+02  0.79191436664E+02  0.25500000920E-02 0.  1.
        2   -1    0    0  501    0  0.00000000000E+00  0.00000000000E+00 -0.65832037119E+03  0.65832037119E+03  0.25500000920E-02 0. -1.
    10030    2    1    2    0    0  0.00000000000E+00  0.00000000000E+00 -0.57912893456E+03  0.73751180786E+03  0.45665451260E+03 0.  0.
        2    1    3    3  502    0  0.53663245368E+02  0.63459649481E+02 -0.63302555887E+03  0.63845769570E+03  0.25500000920E-02 0. -1.
       -2    1    3    3    0  502 -0.53663245368E+02 -0.63459649481E+02  0.53896624307E+02  0.99054112150E+02  0.25500000920E-02 0.  1.
</event>
<event>
 5   0  0.3111146E-01  0.4691508E+03  0.7818609E-02  0.1022160E+00
       -2   -1    0    0    0  501  0.00000000000E+00  0.00000000000E+00  0.15844930039E+03  0.15844930041E+03  0.25500000920E-02 0. -1.
        2   -1    0    0  501    0  0.00000000000E+00  0.00000000000E+00 -0.34727583023E+03  0.34727583024E+03  0.25500000920E-02 0.  1.
    10030    2    1    2    0    0  0.00000000000E+00  0.00000000000E+00 -0.18882652983E+03  0.50572513065E+03  0.46915077470E+03 0.  0.
        1    1    3    3  502    0 -0.23654805364E+02  0.21623602473E+03  0.22661777217E+00  0.21752613542E+03  0.50400001928E-02 0. -1.
       -1    1    3    3    0  502  0.23654805364E+02 -0.21623602473E+03 -0.18905314761E+03  0.28819899523E+03  0.50400001928E-02 0.  1.
</event>
<event>
 5   0  0.3178149E-01  0.3887506E+03  0.7818609E-02  0.1047746E+00
        2   -1    0    0  501    0  0.00000000000E+00  0.00000000000E+00  0.20189089746E+04  0.20189089746E+04  0.25500000920E-02 0. -1.
       -2   -1    0    0    0  501  0.00000000000E+00  0.00000000000E+00 -0.18713945888E+02  0.18713946062E+02  0.25500000920E-02 0.  1.
    10030    2    1    2    0    0  0.00000000000E+00  0.00000000000E+00  0.20001950288E+04  0.20376229207E+04  0.38875058062E+03 0.  0.
        3    1    3    3  502    0  0.23412871472E+02  0.88347856328E+02  0.18992531883E+04  0.19014510748E+04  0.10100000352E+00 0. -1.
       -3    1    3    3    0  502 -0.23412871472E+02 -0.88347856328E+02  0.10094184042E+03  0.13617184590E+03  0.10100000352E+00 0.  1.
</event>
<event>
 5   0  0.1292375E-01  0.4873248E+03  0.7818609E-02  0.1017141E+00
       -3   -1    0    0    0  501  0.00000000000E+00  0.00000000000E+00  0.72492900308E+03  0.72492901011E+03  0.10100000352E+00 0.  1.
        3   -1    0    0  501    0  0.00000000000E+00  0.00000000000E+00 -0.81899532628E+02  0.81899594906E+02  0.10100000352E+00 0. -1.
    10030    2    1    2    0    0  0.00000000000E+00  0.00000000000E+00  0.64302947045E+03  0.80682860502E+03  0.48732483829E+03 0.  0.
        4    1    3    3  502    0 -0.75108828480E+02 -0.18703475765E+03  0.94830160691E+02  0.22275032876E+03  0.12699999809E+01 0. -1.
       -4    1    3    3    0  502  0.75108828480E+02  0.18703475765E+03  0.54819930976E+03  0.58407827626E+03  0.12699999809E+01 0.  1.
</event>
<event>
 5   0  0.3329246E-01  0.4892885E+03  0.7818609E-02  0.1016613E+00
        2   -1    0    0  501    0  0.00000000000E+00  0.00000000000E+00  0.12722926340E+04  0.12722926340E+04  0.25500000920E-02 0. -1.
       -2   -1    0    0    0  501  0.00000000000E+00  0.00000000000E+00 -0.47041700220E+02  0.47041700289E+02  0.25500000920E-02 0.  1.
    10030    2    1    2    0    0  0.00000000000E+00  0.00000000000E+00  0.12252509338E+04  0.13193343343E+04  0.48928849865E+03 0.  0.
        2    1    3    3  502    0 -0.16578929147E+03  0.33538424139E+02  0.13603579029E+03  0.21706370334E+03  0.25500000920E-02 0.  1.
       -2    1    3    3    0  502  0.16578929147E+03 -0.33538424139E+02  0.10892151435E+04  0.11022706309E+04  0.25500000920E-02 0. -1.
</event>
<event>
 5   0  0.2000612E-01  0.5024860E+03  0.7818609E-02  0.1013132E+00
       -1   -1    0    0    0  501  0.00000000000E+00  0.00000000000E+00  0.12458908988E+03  0.12458908998E+03  0.50400001928E-02 0. -1.
        1   -1    0    0  501    0  0.00000000000E+00  0.00000000000E+00 -0.50664985502E+03  0.50664985504E+03  0.50400001928E-02 0.  1.
    10030    2    1    2    0    0  0.00000000000E+00  0.00000000000E+00 -0.38206076514E+03  0.63123894502E+03  0.50248599727E+03 0.  0.
        2    1    3    3  502    0  0.96708616416E+02  0.23149163133E+03 -0.20798311421E+03  0.32588020448E+03  0.25500000920E-02 0. -1.
       -2    1    3    3    0  502 -0.96708616416E+02 -0.23149163133E+03 -0.17407765093E+03  0.30535874054E+03  0.25500000920E-02 0.  1.
</event>
<event>
 5   0  0.2000612E-01  0.4932290E+03  0.7818609E-02  0.1015561E+00
        1   -1    0    0  501    0  0.00000000000E+00  0.00000000000E+00  0.12865173698E+03  0.12865173708E+03  0.50400001928E-02 0.  1.
       -1   -1    0    0    0  501  0.00000000000E+00  0.00000000000E+00 -0.47273922880E+03  0.47273922883E+03  0.50400001928E-02 0. -1.
    10030    2    1    2    0    0  0.00000000000E+00  0.00000000000E+00 -0.34408749182E+03  0.60139096591E+03  0.49322904603E+03 0.  0.
        2    1    3    3  502    0 -0.20475922313E+03  0.88645193341E+02 -0.30012420543E+03  0.37397706942E+03  0.25500000920E-02 0. -1.
       -2    1    3    3    0  502  0.20475922313E+03 -0.88645193341E+02 -0.43963286389E+02  0.22741389649E+03  0.25500000920E-02 0.  1.
</event>
<event>
 5   0  0.2013450E-01  0.4936100E+03  0.7818609E-02  0.1015460E+00
        1   -1    0    0  501    0  0.00000000000E+00  0.00000000000E+00  0.49521337460E+03  0.49521337462E+03  0.50400001928E-02 0. -1.
       -1   -1    0    0    0  501  0.00000000000E+00  0.00000000000E+00 -0.12300297389E+03  0.12300297399E+03  0.50400001928E-02 0.  1.
    10030    2    1    2    0    0  0.00000000000E+00  0.00000000000E+00  0.37221040071E+03  0.61821634861E+03  0.49361003970E+03 0.  0.
        4    1    3    3  502    0 -0.17153310130E+03 -0.16020583250E+03  0.90544932515E+02  0.25157406725E+03  0.12699999809E+01 0. -1.
       -4    1    3    3    0  502  0.17153310130E+03  0.16020583250E+03  0.28166546820E+03  0.36664228136E+03  0.12699999809E+01 0.  1.
</event>
<event>
 5   0  0.1984680E-01  0.5006396E+03  0.7818609E-02  0.1013612E+00
       -1   -1    0    0    0  501  0.00000000000E+00  0.00000000000E+00  0.11480474931E+03  0.11480474943E+03  0.50400001928E-02 0.  1.
        1   -1    0    0  501    0  0.00000000000E+00  0.00000000000E+00 -0.54579623681E+03  0.54579623684E+03  0.50400001928E-02 0. -1.
    10030    2    1    2    0    0  0.00000000000E+00  0.00000000000E+00 -0.43099148750E+03  0.66060098626E+03  0.50063959168E+03 0.  0.
        5    1    3    3  502    0  0.10667445096E+03  0.18800220324E+03 -0.49039980877E+02  0.22170087197E+03  0.46999998093E+01 0.  1.
       -5    1    3    3    0  502 -0.10667445096E+03 -0.18800220324E+03 -0.38195150662E+03  0.43890011429E+03  0.46999998093E+01 0. -1.
</event>
<event>
 5   0  0.1984680E-01  0.4915569E+03  0.7818609E-02  0.1016006E+00
       -1   -1    0    0    0  501  0.00000000000E+00  0.00000000000E+00  0.54794091323E+03  0.54794091325E+03  0.50400001928E-02 0. -1.
        1   -1    0    0  501    0  0.00000000000E+00  0.00000000000E+00 -0.11024371377E+03  0.11024371389E+03  0.50400001928E-02 0.  1.
    10030    2    1    2    0    0  0.00000000000E+00  0.00000000000E+00  0.43769719945E+03  0.65818462714E+03  0.49155687870E+03 0.  0.
        5    1    3    3  502    0 -0.14291092410E+03 -0.18019203889E+03  0.33474769161E+03  0.40616598841E+03  0.46999998093E+01 0. -1.
       -5    1    3    3    0  502  0.14291092410E+03  0.18019203889E+03  0.10294950784E+03  0.25201863873E+03  0.46999998093E+01 0.  1.
</event>
<event>
 5   0  0.3178149E-01  0.4828465E+03  0.7818609E-02  0.1018356E+00
       -2   -1    0    0    0  501  0.00000000000E+00  0.00000000000E+00  0.31847002597E+03  0.31847002598E+03  0.25500000920E-02 0. -1.
        2   -1    0    0  501    0  0.00000000000E+00  0.00000000000E+00 -0.18301626941E+03  0.18301626943E+03  0.25500000920E-02 0.  1.
    10030    2    1    2    0    0  0.00000000000E+00  0.00000000000E+00  0.13545375656E+03  0.50148629541E+03  0.48284654323E+03 0.  0.
        3    1    3    3  502    0 -0.99205099529E+02 -0.18029349232E+03 -0.63391630888E+02  0.21532743488E+03  0.10100000352E+00 0.  1.
       -3    1    3    3    0  502  0.99205099529E+02  0.18029349232E+03  0.19884538745E+03  0.28615886052E+03  0.10100000352E+00 0. -1.
</event>
<event>
 5   0  0.3178149E-01  0.4988073E+03  0.7818609E-02  0.1014091E+00
       -2   -1    0    0    0  501  0.00000000000E+00  0.00000000000E+00  0.17997572578E+03  0.17997572580E+03  0.25500000920E-02 0.  1.
        2   -1    0    0  501    0  0.00000000000E+00  0.00000000000E+00 -0.34561432022E+03  0.34561432023E+03  0.25500000920E-02 0. -1.
    10030    2    1    2    0    0  0.00000000000E+00  0.00000000000E+00 -0.16563859444E+03  0.52559004603E+03  0.49880733005E+03 0.  0.
        3    1    3    3  502    0  0.89610311083E+02 -0.22197715523E+03 -0.90734524464E+01  0.23955417558E+03  0.10100000352E+00 0.  1.
       -3    1    3    3    0  502 -0.89610311083E+02  0.22197715523E+03 -0.15656514200E+03  0.28603587045E+03  0.10100000352E+00 0. -1.
</event>
<event>
 5   0  0.1984680E-01  0.5330569E+03  0.7818609E-02  0.1005493E+00
       -1   -1    0    0    0  501  0.00000000000E+00  0.00000000000E+00  0.82648456330E+02  0.82648456483E+02  0.50400001928E-02 0.  1.
        1   -1    0    0  501    0  0.00000000000E+00  0.00000000000E+00 -0.85951302649E+03  0.85951302650E+03  0.50400001928E-02 0. -1.
    10030    2    1    2    0    0  0.00000000000E+00  0.00000000000E+00 -0.77686457016E+03  0.94216148299E+03  0.53305693847E+03 0.  0.
        5    1    3    3  502    0 -0.22993245314E+03  0.51129469566E+02 -0.16815589938E+03  0.28945060401E+03  0.46999998093E+01 0.  1.
       -5    1    3    3    0  502  0.22993245314E+03 -0.51129469566E+02 -0.60870867078E+03  0.65271087898E+03  0.46999998093E+01 0. -1.
</event>
<event>
 5   0  0.3111146E-01  0.5161714E+03  0.7818609E-02  0.1009642E+00
       -2   -1    0    0    0  501  0.00000000000E+00  0.00000000000E+00  0.68048159870E+02  0.68048159918E+02  0.25500000920E-02 0. -1.
        2   -1    0    0  501    0  0.00000000000E+00  0.00000000000E+00 -0.97883967967E+03  0.97883967968E+03  0.25500000920E-02 0.  1.
    10030    2    1    2    0    0  0.00000000000E+00  0.00000000000E+00 -0.91079151980E+03  0.10468878396E+04  0.51617144065E+03 0.  0.
        1    1    3    3  502    0  0.39778200818E+02 -0.10391262419E+02 -0.97215541549E+03  0.97302437559E+03  0.50400001928E-02 0.  1.
       -1    1    3    3    0  502 -0.39778200818E+02  0.10391262419E+02  0.61363895690E+02  0.73863464004E+02  0.50400001928E-02 0. -1.
</event>
<event>
 5   0  0.2000612E-01  0.6120038E+03  0.7818609E-02  0.9880810E-01
        1   -1    0    0  501    0  0.00000000000E+00  0.00000000000E+00  0.59955599522E+03  0.59955599525E+03  0.50400001928E-02 0. -1.
       -1   -1    0    0    0  501  0.00000000000E+00  0.00000000000E+00 -0.15617752528E+03  0.15617752536E+03  0.50400001928E-02 0.  1.
    10030    2    1    2    0    0  0.00000000000E+00  0.00000000000E+00  0.44337846995E+03  0.75573352060E+03  0.61200382887E+03 0.  0.
        2    1    3    3  502    0  0.10269142847E+03 -0.11641403809E+02 -0.13397382595E+03  0.16920413059E+03  0.25500000920E-02 0.  1.
       -2    1    3    3    0  502 -0.10269142847E+03  0.11641403809E+02  0.57735229590E+03  0.58652939001E+03  0.25500000920E-02 0. -1.
</event>
<event>
 5   0  0.3178149E-01  0.5043701E+03  0.7818609E-02  0.1012645E+00
       -2   -1    0    0    0  501  0.00000000000E+00  0.00000000000E+00  0.62567362224E+02  0.62567362276E+02  0.25500000920E-02 0. -1.
        2   -1    0    0  501    0  0.00000000000E+00  0.00000000000E+00 -0.10164610800E+04  0.10164610800E+04  0.25500000920E-02 0.  1.
    10030    2    1    2    0    0  0.00000000000E+00  0.00000000000E+00 -0.95389371779E+03  0.10790284423E+04  0.50437005704E+03 0.  0.
        3    1    3    3  502    0  0.16491218112E+03  0.11444898547E+02 -0.88438244868E+03  0.89969958259E+03  0.10100000352E+00 0.  1.
       -3    1    3    3    0  502 -0.16491218112E+03 -0.11444898547E+02 -0.69511269105E+02  0.17932885969E+03  0.10100000352E+00 0. -1.
</event>
<event>
 5   0  0.3117389E-01  0.3863986E+03  0.7818609E-02  0.1048594E+00
       -2   -1    0    0    0  501  0.00000000000E+00  0.00000000000E+00  0.19019534703E+03  0.19019534705E+03  0.25500000920E-02 0. -1.
        2   -1    0    0  501    0  0.00000000000E+00  0.00000000000E+00 -0.19625065217E+03  0.19625065218E+03  0.25500000920E-02 0.  1.
    10030    2    1    2    0    0  0.00000000000E+00  0.00000000000E+00 -0.60553051382E+01  0.38644599923E+03  0.38639855538E+03 0.  0.
        4    1    3    3  502    0 -0.51969333319E+02 -0.25025580673E+02 -0.18743374224E+03  0.19611249813E+03  0.12699999809E+01 0.  1.
       -4    1    3    3    0  502  0.51969333319E+02  0.25025580673E+02  0.18137843710E+03  0.19033350110E+03  0.12699999809E+01 0. -1.
</event>
<event>
 5   0  0.3187123E-01  0.4676037E+03  0.7818609E-02  0.1022599E+00
       -2   -1    0    0    0  501  0.00000000000E+00  0.00000000000E+00  0.85139443739E+02  0.85139443777E+02  0.25500000920E-02 0. -1.
        2   -1    0    0  501    0  0.00000000000E+00  0.00000000000E+00 -0.64204443241E+03  0.64204443242E+03  0.25500000920E-02 0.  1.
    10030    2    1    2    0    0  0.00000000000E+00  0.00000000000E+00 -0.55690498868E+03  0.72718387620E+03  0.46760370335E+03 0.  0.
        5    1    3    3  502    0  0.16364741795E+03  0.12698016760E+03 -0.44692952402E+03  0.49261803642E+03  0.46999998093E+01 0. -1.
       -5    1    3    3    0  502 -0.16364741795E+03 -0.12698016760E+03 -0.10997546466E+03  0.23456583978E+03  0.46999998093E+01 0.  1.
</event>
<event>
 5   0  0.1967161E-01  0.5131300E+03  0.7818609E-02  0.1010408E+00
        1   -1    0    0  501    0  0.00000000000E+00  0.00000000000E+00  0.94374390380E+02  0.94374390515E+02  0.50400001928E-02 0. -1.
       -1   -1    0    0    0  501  0.00000000000E+00  0.00000000000E+00 -0.69749419293E+03  0.69749419295E+03  0.50400001928E-02 0.  1.
    10030    2    1    2    0    0  0.00000000000E+00  0.00000000000E+00 -0.60311980255E+03  0.79186858346E+03  0.51312996136E+03 0.  0.
        1    1    3    3  502    0 -0.30100204943E+02  0.18448745874E+03 -0.57276142254E+03  0.60249256589E+03  0.50400001928E-02 0.  1.
       -1    1    3    3    0  502  0.30100204943E+02 -0.18448745874E+03 -0.30358380008E+02  0.18937601758E+03  0.50400001928E-02 0. -1.
</event>
<event>
 5   0  0.1292375E-01  0.4815919E+03  0.7818609E-02  0.1018699E+00
       -3   -1    0    0    0  501  0.00000000000E+00  0.00000000000E+00  0.17831009832E+03  0.17831012692E+03  0.10100000352E+00 0.  1.
        3   -1    0    0  501    0  0.00000000000E+00  0.00000000000E+00 -0.32517887035E+03  0.32517888603E+03  0.10100000352E+00 0. -1.
    10030    2    1    2    0    0  0.00000000000E+00  0.00000000000E+00 -0.14686877203E+03  0.50348901296E+03  0.48159189151E+03 0.  0.
        1    1    3    3  502    0 -0.13304911490E+03 -0.17007662698E+03  0.37968390296E+02  0.21924808940E+03  0.50400001928E-02 0.  1.
       -1    1    3    3    0  502  0.13304911490E+03  0.17007662698E+03 -0.18483716232E+03  0.28424092355E+03  0.50400001928E-02 0. -1.
</event>
<event>
 5   0  0.1292375E-01  0.5046902E+03  0.7818609E-02  0.1012562E+00
        3   -1    0    0  501    0  0.00000000000E+00  0.00000000000E+00  0.10188391393E+04  0.10188391444E+04  0.10100000352E+00 0. -1.
       -3   -1    0    0    0  501  0.00000000000E+00  0.00000000000E+00 -0.62500542547E+02  0.62500624154E+02  0.10100000352E+00 0.  1.
    10030    2    1    2    0    0  0.00000000000E+00  0.00000000000E+00  0.95633859680E+03  0.10813397685E+04  0.50469018539E+03 0.  0.
        5    1    3    3  502    0 -0.15858481852E+03 -0.15367017569E+03  0.73963699019E+03  0.77191232327E+03  0.46999998093E+01 0.  1.
       -5    1    3    3    0  502  0.15858481852E+03  0.15367017569E+03  0.21670160660E+03  0.30942744523E+03  0.46999998093E+01 0. -1.
</event>
<event>
 5   0  0.1967161E-01  0.5054585E+03  0.7818609E-02  0.1012364E+00
        1   -1    0    0  501    0  0.00000000000E+00  0.00000000000E+00  0.35842220262E+03  0.35842220265E+03  0.50400001928E-02 0. -1.
       -1   -1    0    0    0  501  0.00000000000E+00  0.00000000000E+00 -0.17820348588E+03  0.17820348596E+03  0.50400001928E-02 0.  1.
    10030    2    1    2    0    0  0.00000000000E+00  0.00000000000E+00  0.18021871673E+03  0.53662568861E+03  0.50545854807E+03 0.  0.
        1    1    3    3  502    0 -0.20721219241E+03  0.12840720762E+03  0.16090537886E+03  0.29208876155E+03  0.50400001928E-02 0. -1.
       -1    1    3    3    0  502  0.20721219241E+03 -0.12840720762E+03  0.19313337878E+02  0.24453692706E+03  0.50400001928E-02 0.  1.
</event>
<event>
 5   0  0.1292375E-01  0.5232812E+03  0.7818609E-02  0.1007875E+00
       -3   -1    0    0    0  501  0.00000000000E+00  0.00000000000E+00  0.34712484417E+03  0.34712485886E+03  0.10100000352E+00 0. -1.
        3   -1    0    0  501    0  0.00000000000E+00  0.00000000000E+00 -0.19720801765E+03  0.19720804351E+03  0.10100000352E+00 0.  1.
    10030    2    1    2    0    0  0.00000000000E+00  0.00000000000E+00  0.14991682652E+03  0.54433290237E+03  0.52328123770E+03 0.  0.
        5    1    3    3  502    0  0.11263271979E+03  0.68881286280E+02  0.30988227064E+03  0.33686773788E+03  0.46999998093E+01 0. -1.
       -5    1    3    3    0  502 -0.11263271979E+03 -0.68881286280E+02 -0.15996544412E+03  0.20746516449E+03  0.46999998093E+01 0.  1.
</event>
<event>
 5   0  0.2013450E-01  0.4919097E+03  0.7818609E-02  0.1015912E+00
       -1   -1    0    0    0  501  0.00000000000E+00  0.00000000000E+00  0.82496037236E+02  0.82496037390E+02  0.50400001928E-02 0. -1.
        1   -1    0    0  501    0  0.00000000000E+00  0.00000000000E+00 -0.73329334501E+03  0.73329334502E+03  0.50400001928E-02 0.  1.
    10030    2    1    2    0    0  0.00000000000E+00  0.00000000000E+00 -0.65079730777E+03  0.81578938241E+03  0.49190972816E+03 0.  0.
        4    1    3    3  502    0 -0.22114362172E+03 -0.58404421655E+02 -0.47535993069E+03  0.52752654389E+03  0.12699999809E+01 0.  1.
       -4    1    3    3    0  502  0.22114362172E+03  0.58404421655E+02 -0.17543737707E+03  0.28826283852E+03  0.12699999809E+01 0. -1.
</event>
<event>
 5   0  0.1984297E-01  0.5140763E+03  0.7818609E-02  0.1010169E+00
       -1   -1    0    0    0  501  0.00000000000E+00  0.00000000000E+00  0.82224512523E+02  0.82224512678E+02  0.50400001928E-02 0.  1.
        1   -1    0    0  501    0  0.00000000000E+00  0.00000000000E+00 -0.80351477165E+03  0.80351477167E+03  0.50400001928E-02 0. -1.
    10030    2    1    2    0    0  0.00000000000E+00  0.00000000000E+00 -0.72129025913E+03  0.88573928434E+03  0.51407629971E+03 0.  0.
        3    1    3    3  502    0  0.27562627033E+02 -0.12109385767E+03 -0.74839117941E+03  0.75862559171E+03  0.10100000352E+00 0. -1.
       -3    1    3    3    0  502 -0.27562627033E+02  0.12109385767E+03  0.27100920286E+02  0.12711369263E+03  0.10100000352E+00 0.  1.
</event>
<event>
 5   0  0.3178149E-01  0.5141838E+03  0.7818609E-02  0.1010142E+00
        2   -1    0    0  501    0  0.00000000000E+00  0.00000000000E+00  0.81275728362E+02  0.81275728402E+02  0.25500000920E-02 0.  1.
       -2   -1    0    0    0  501  0.00000000000E+00  0.00000000000E+00 -0.81323467480E+03  0.81323467481E+03  0.25500000920E-02 0. -1.
    10030    2    1    2    0    0  0.00000000000E+00  0.00000000000E+00 -0.73195894644E+03  0.89451040321E+03  0.51418378249E+03 0.  0.
        3    1    3    3  502    0  0.15044767820E+03  0.10005625709E+03 -0.68415600634E+03  0.70761233007E+03  0.10100000352E+00 0. -1.
       -3    1    3    3    0  502 -0.15044767820E+03 -0.10005625709E+03 -0.47802940102E+02  0.18689807314E+03  0.10100000352E+00 0.  1.
</event>
<event>
 5   0  0.2000612E-01  0.5084446E+03  0.7818609E-02  0.1011598E+00
        1   -1    0    0  501    0  0.00000000000E+00  0.00000000000E+00  0.18895215399E+03  0.18895215406E+03  0.50400001928E-02 0. -1.
       -1   -1    0    0    0  501  0.00000000000E+00  0.00000000000E+00 -0.34203884232E+03  0.34203884235E+03  0.50400001928E-02 0.  1.
    10030    2    1    2    0    0  0.00000000000E+00  0.00000000000E+00 -0.15308668832E+03  0.53099099641E+03  0.50844459298E+03 0.  0.
        2    1    3    3  502    0 -0.14647144190E+03 -0.97617897399E+02  0.11501858592E+03  0.21026747799E+03  0.25500000920E-02 0. -1.
       -2    1    3    3    0  502  0.14647144190E+03  0.97617897399E+02 -0.26810527425E+03  0.32072351842E+03  0.25500000920E-02 0.  1.
</event>
<event>
 5   0  0.2000612E-01  0.4905789E+03  0.7818609E-02  0.1016268E+00
        1   -1    0    0  501    0  0.00000000000E+00  0.00000000000E+00  0.13018273457E+04  0.13018273457E+04  0.50400001928E-02 0.  1.
       -1   -1    0    0    0  501  0.00000000000E+00  0.00000000000E+00 -0.46217281773E+02  0.46217282048E+02  0.50400001928E-02 0. -1.
    10030    2    1    2    0    0  0.00000000000E+00  0.00000000000E+00  0.12556100639E+04  0.13480446277E+04  0.49057892921E+03 0.  0.
        2    1    3    3  502    0 -0.19961772467E+03  0.77983122252E+02  0.29991763465E+03  0.36861794712E+03  0.25500000920E-02 0. -1.
       -2    1    3    3    0  502  0.19961772467E+03 -0.77983122252E+02  0.95569242924E+03  0.97942668060E+03  0.25500000920E-02 0.  1.
</event>
<event>
 5   0  0.1984297E-01  0.5034536E+03  0.7818609E-02  0.1012881E+00
       -1   -1    0    0    0  501  0.00000000000E+00  0.00000000000E+00  0.79287658344E+03  0.79287658345E+03  0.50400001928E-02 0. -1.
        1   -1    0    0  501    0  0.00000000000E+00  0.00000000000E+00 -0.79919596345E+02  0.79919596504E+02  0.50400001928E-02 0.  1.
    10030    2    1    2    0    0  0.00000000000E+00  0.00000000000E+00  0.71295698709E+03  0.87279617996E+03  0.50345357910E+03 0.  0.
        3    1    3    3  502    0  0.12965194511E+03 -0.21311998204E+03  0.41492514947E+03  0.48414114004E+03  0.10100000352E+00 0.  1.
       -3    1    3    3    0  502 -0.12965194511E+03  0.21311998204E+03  0.29803183762E+03  0.38865503991E+03  0.10100000352E+00 0. -1.
</event>
<event>
 5   0  0.2013450E-01  0.5043912E+03  0.7818609E-02  0.1012639E+00
        1   -1    0    0  501    0  0.00000000000E+00  0.00000000000E+00  0.26447904954E+04  0.26447904954E+04  0.50400001928E-02 0. -1.
       -1   -1    0    0    0  501  0.00000000000E+00  0.00000000000E+00 -0.24048262082E+02  0.24048262610E+02  0.50400001928E-02 0.  1.
    10030    2    1    2    0    0  0.00000000000E+00  0.00000000000E+00  0.26207422333E+04  0.26688387580E+04  0.50439118032E+03 0.  0.
        4    1    3    3  502    0 -0.89073700514E+00 -0.21432906456E+03  0.60715259482E+03  0.64387392214E+03  0.12699999809E+01 0.  1.
       -4    1    3    3    0  502  0.89073700514E+00  0.21432906456E+03  0.20135896385E+04  0.20249648359E+04  0.12699999809E+01 0. -1.
</event>
<event>
 5   0  0.3329246E-01  0.4696073E+03  0.7818609E-02  0.1022031E+00
        2   -1    0    0  501    0  0.00000000000E+00  0.00000000000E+00  0.57402310424E+03  0.57402310425E+03  0.25500000920E-02 0.  1.
       -2   -1    0    0    0  501  0.00000000000E+00  0.00000000000E+00 -0.96046246547E+02  0.96046246581E+02  0.25500000920E-02 0. -1.
    10030    2    1    2    0    0  0.00000000000E+00  0.00000000000E+00  0.47797685769E+03  0.67006935083E+03  0.46960734495E+03 0.  0.
        2    1    3    3  502    0  0.10387063040E+03 -0.18813989366E+03  0.37395446498E+03  0.43130925023E+03  0.25500000920E-02 0.  1.
       -2    1    3    3    0  502 -0.10387063040E+03  0.18813989366E+03  0.10402239271E+03  0.23876010060E+03  0.25500000920E-02 0. -1.
</event>
<event>
 5   0  0.3187123E-01  0.4895949E+03  0.7818609E-02  0.1016531E+00
       -2   -1    0    0    0  501  0.00000000000E+00  0.00000000000E+00  0.13565265983E+04  0.13565265983E+04  0.25500000920E-02 0. -1.
        2   -1    0    0  501    0  0.00000000000E+00  0.00000000000E+00 -0.44175907930E+02  0.44175908004E+02  0.25500000920E-02 0.  1.
    10030    2    1    2    0    0  0.00000000000E+00  0.00000000000E+00  0.13123506904E+04  0.14007025063E+04  0.48959491078E+03 0.  0.
        5    1    3    3  502    0 -0.55466117852E+02 -0.12679849756E+03  0.78652218354E+02  0.15925643053E+03  0.46999998093E+01 0.  1.
       -5    1    3    3    0  502  0.55466117852E+02  0.12679849756E+03  0.12336984720E+04  0.12414460758E+04  0.46999998093E+01 0. -1.
</event>
<event>
 5   0  0.3178149E-01  0.4741393E+03  0.7818609E-02  0.1020758E+00
        2   -1    0    0  501    0  0.00000000000E+00  0.00000000000E+00  0.10860962101E+04  0.10860962101E+04  0.25500000920E-02 0. -1.
       -2   -1    0    0    0  501  0.00000000000E+00  0.00000000000E+00 -0.51746819148E+02  0.51746819211E+02  0.25500000920E-02 0.  1.
    10030    2    1    2    0    0  0.00000000000E+00  0.00000000000E+00  0.10343493909E+04  0.11378430293E+04  0.47413932213E+03 0.  0.
        3    1    3    3  502    0 -0.18050823125E+03 -0.72734829643E+02  0.84206675291E+03  0.86426269361E+03  0.10100000352E+00 0. -1.
       -3    1    3    3    0  502  0.18050823125E+03  0.72734829643E+02  0.19228263803E+03  0.27358033570E+03  0.10100000352E+00 0.  1.
</event>
<event>
 5   0  0.3187123E-01  0.5338465E+03  0.7818609E-02  0.1005304E+00
       -2   -1    0    0    0  501  0.00000000000E+00  0.00000000000E+00  0.24530254475E+03  0.24530254476E+03  0.25500000920E-02 0.  1.
        2   -1    0    0  501    0  0.00000000000E+00  0.00000000000E+00 -0.29044959930E+03  0.29044959931E+03  0.25500000920E-02 0. -1.
    10030    2    1    2    0    0  0.00000000000E+00  0.00000000000E+00 -0.45147054552E+02  0.53575214407E+03  0.53384651665E+03 0.  0.
        5    1    3    3  502    0 -0.63685056671E+02 -0.22575428308E+03  0.10518034517E+03  0.25711043888E+03  0.46999998093E+01 0. -1.
       -5    1    3    3    0  502  0.63685056671E+02  0.22575428308E+03 -0.15032739972E+03  0.27864170520E+03  0.46999998093E+01 0.  1.
</event>
<event>
 5   0  0.2013450E-01  0.4759457E+03  0.7818609E-02  0.1020255E+00
       -1   -1    0    0    0  501  0.00000000000E+00  0.00000000000E+00  0.18126908878E+03  0.18126908885E+03  0.50400001928E-02 0.  1.
        1   -1    0    0  501    0  0.00000000000E+00  0.00000000000E+00 -0.31241444517E+03  0.31241444521E+03  0.50400001928E-02 0. -1.
    10030    2    1    2    0    0  0.00000000000E+00  0.00000000000E+00 -0.13114535640E+03  0.49368353406E+03  0.47594571885E+03 0.  0.
        4    1    3    3  502    0  0.16142512382E+03  0.10433497141E+03  0.79961728205E+02  0.20818104558E+03  0.12699999809E+01 0.  1.
       -4    1    3    3    0  502 -0.16142512382E+03 -0.10433497141E+03 -0.21110708460E+03  0.28550248848E+03  0.12699999809E+01 0. -1.
</event>
<event>
 5   0  0.1984297E-01  0.4899681E+03  0.7818609E-02  0.1016431E+00
        1   -1    0    0  501    0  0.00000000000E+00  0.00000000000E+00  0.89124099228E+03  0.89124099229E+03  0.50400001928E-02 0. -1.
       -1   -1    0    0    0  501  0.00000000000E+00  0.00000000000E+00 -0.67341152957E+02  0.67341153146E+02  0.50400001928E-02 0.  1.
    10030    2    1    2    0    0  0.00000000000E+00  0.00000000000E+00  0.82389983932E+03  0.95858214544E+03  0.48996814623E+03 0.  0.
        3    1    3    3  502    0 -0.15294716083E+03  0.13959143922E+03  0.15582671221E+03  0.25915358062E+03  0.10100000352E+00 0.  1.
       -3    1    3    3    0  502  0.15294716083E+03 -0.13959143922E+03  0.66807312711E+03  0.69942856482E+03  0.10100000352E+00 0. -1.
</event>
<event>
 5   0  0.1984297E-01  0.5121659E+03  0.7818609E-02  0.1010651E+00
        1   -1    0    0  501    0  0.00000000000E+00  0.00000000000E+00  0.22566568283E+03  0.22566568289E+03  0.50400001928E-02 0.  1.
       -1   -1    0    0    0  501  0.00000000000E+00  0.00000000000E+00 -0.29060009912E+03  0.29060009917E+03  0.50400001928E-02 0. -1.
    10030    2    1    2    0    0  0.00000000000E+00  0.00000000000E+00 -0.64934416289E+02  0.51626578206E+03  0.51216587089E+03 0.  0.
        3    1    3    3  502    0 -0.42352282649E+02 -0.12732110081E+03  0.18739364565E+03  0.23047942899E+03  0.10100000352E+00 0.  1.
       -3    1    3    3    0  502  0.42352282649E+02  0.12732110081E+03 -0.25232806194E+03  0.28578635307E+03  0.10100000352E+00 0. -1.
</event>
<event>
 5   0  0.1984680E-01  0.4584526E+03  0.7818609E-02  0.1025231E+00
       -1   -1    0    0    0  501  0.00000000000E+00  0.00000000000E+00  0.19708086335E+03  0.19708086342E+03  0.50400001928E-02 0.  1.
        1   -1    0    0  501    0  0.00000000000E+00  0.00000000000E+00 -0.26661487148E+03  0.26661487152E+03  0.50400001928E-02 0. -1.
    10030    2    1    2    0    0  0.00000000000E+00  0.00000000000E+00 -0.69534008123E+02  0.46369573494E+03  0.45845256714E+03 0.  0.
        5    1    3    3  502    0 -0.32412899978E+02  0.44686821316E+02 -0.25974082954E+03  0.26558406694E+03  0.46999998093E+01 0. -1.
       -5    1    3    3    0  502  0.32412899978E+02 -0.44686821316E+02  0.19020682142E+03  0.19811166800E+03  0.46999998093E+01 0.  1.
</event>
<event>
 5   0  0.3329246E-01  0.5013261E+03  0.7818609E-02  0.1013433E+00
       -2   -1    0    0    0  501  0.00000000000E+00  0.00000000000E+00  0.61680016116E+02  0.61680016169E+02  0.25500000920E-02 0. -1.
        2   -1    0    0  501    0  0.00000000000E+00  0.00000000000E+00 -0.10186760080E+04  0.10186760080E+04  0.25500000920E-02 0.  1.
    10030    2    1    2    0    0  0.00000000000E+00  0.00000000000E+00 -0.95699599187E+03  0.10803560242E+04  0.50132605207E+03 0.  0.
        2    1    3    3  502    0  0.31428887956E+02 -0.24536551748E+03 -0.56576712924E+03  0.61748235335E+03  0.25500000920E-02 0.  1.
       -2    1    3    3    0  502 -0.31428887956E+02  0.24536551748E+03 -0.39122886263E+03  0.46287367081E+03  0.25500000920E-02 0. -1.
</event>
<event>
 5   0  0.3178149E-01  0.5217033E+03  0.7818609E-02  0.1008264E+00
       -2   -1    0    0    0  501  0.00000000000E+00  0.00000000000E+00  0.17707509878E+03  0.17707509880E+03  0.25500000920E-02 0. -1.
        2   -1    0    0  501    0  0.00000000000E+00  0.00000000000E+00 -0.38426401361E+03  0.38426401362E+03  0.25500000920E-02 0.  1.
    10030    2    1    2    0    0  0.00000000000E+00  0.00000000000E+00 -0.20718891483E+03  0.56133911242E+03  0.52170331867E+03 0.  0.
        3    1    3    3  502    0  0.19346144596E+03  0.74354748481E+02 -0.27401871893E+03  0.34357274080E+03  0.10100000352E+00 0.  1.
       -3    1    3    3    0  502 -0.19346144596E+03 -0.74354748481E+02  0.66829804103E+02  0.21776637162E+03  0.10100000352E+00 0. -1.
</event>
<event>
 5   0  0.3178149E-01  0.5013295E+03  0.7818609E-02  0.1013432E+00
       -2   -1    0    0    0  501  0.00000000000E+00  0.00000000000E+00  0.10877950583E+03  0.10877950586E+03  0.25500000920E-02 0. -1.
        2   -1    0    0  501    0  0.00000000000E+00  0.00000000000E+00 -0.57761634343E+03  0.57761634344E+03  0.25500000920E-02 0.  1.
    10030    2    1    2    0    0  0.00000000000E+00  0.00000000000E+00 -0.46883683761E+03  0.68639584930E+03  0.50132951403E+03 0.  0.
        3    1    3    3  502    0  0.40728710372E+02 -0.18941826433E+03 -0.16664403393E+02  0.19446289942E+03  0.10100000352E+00 0. -1.
       -3    1    3    3    0  502 -0.40728710372E+02  0.18941826433E+03 -0.45217243421E+03  0.49193294988E+03  0.10100000352E+00 0.  1.
</event>
<event>
 5   0  0.2000612E-01  0.5030585E+03  0.7818609E-02  0.1012984E+00
        1   -1    0    0  501    0  0.00000000000E+00  0.00000000000E+00  0.78787823320E+03  0.78787823321E+03  0.50400001928E-02 0.  1.
       -1   -1    0    0    0  501  0.00000000000E+00  0.00000000000E+00 -0.80300420925E+02  0.80300421084E+02  0.50400001928E-02 0. -1.
    10030    2    1    2    0    0  0.00000000000E+00  0.00000000000E+00  0.70757781227E+03  0.86817865429E+03  0.50305846117E+03 0.  0.
        2    1    3    3  502    0 -0.45079300007E+02  0.19896197739E+03  0.99861845668E+02  0.22713520194E+03  0.25500000920E-02 0. -1.
       -2    1    3    3    0  502  0.45079300007E+02 -0.19896197739E+03  0.60771596660E+03  0.64104345235E+03  0.25500000920E-02 0.  1.
</event>
<event>
 5   0  0.3117389E-01  0.5073737E+03  0.7818609E-02  0.1011872E+00
       -2   -1    0    0    0  501  0.00000000000E+00  0.00000000000E+00  0.58814605126E+02  0.58814605181E+02  0.25500000920E-02 0. -1.
        2   -1    0    0  501    0  0.00000000000E+00  0.00000000000E+00 -0.10942352760E+04  0.10942352760E+04  0.25500000920E-02 0.  1.
    10030    2    1    2    0    0  0.00000000000E+00  0.00000000000E+00 -0.10354206709E+04  0.11530498812E+04  0.50737369150E+03 0.  0.
        4    1    3    3  502    0  0.33377792443E+02 -0.49327772195E+02  0.42693186548E+02  0.73291385685E+02  0.12699999809E+01 0. -1.
       -4    1    3    3    0  502 -0.33377792443E+02  0.49327772195E+02 -0.10781138574E+04  0.10797584955E+04  0.12699999809E+01 0.  1.
</event>
<event>
 5   0  0.3178149E-01  0.5147054E+03  0.7818609E-02  0.1010010E+00
        2   -1    0    0  501    0  0.00000000000E+00  0.00000000000E+00  0.44219531220E+03  0.44219531221E+03  0.25500000920E-02 0. -1.
       -2   -1    0    0    0  501  0.00000000000E+00  0.00000000000E+00 -0.14977638467E+03  0.14977638469E+03  0.25500000920E-02 0.  1.
    10030    2    1    2    0    0  0.00000000000E+00  0.00000000000E+00  0.29241892753E+03  0.59197169690E+03  0.51470541162E+03 0.  0.
        3    1    3    3  502    0  0.81749830907E+02 -0.19229059483E+03 -0.26582808975E+02  0.21063087060E+03  0.10100000352E+00 0.  1.
       -3    1    3    3    0  502 -0.81749830907E+02  0.19229059483E+03  0.31900173650E+03  0.38134082630E+03  0.10100000352E+00 0. -1.
</event>
<event>
 5   0  0.3178149E-01  0.4973809E+03  0.7818609E-02  0.1014465E+00
        2   -1    0    0  501    0  0.00000000000E+00  0.00000000000E+00  0.27705219739E+03  0.27705219740E+03  0.25500000920E-02 0.  1.
       -2   -1    0    0    0  501  0.00000000000E+00  0.00000000000E+00 -0.22323208023E+03  0.22323208024E+03  0.25500000920E-02 0. -1.
    10030    2    1    2    0    0  0.00000000000E+00  0.00000000000E+00  0.53820117160E+02  0.50028427764E+03  0.49738089373E+03 0.  0.
        3    1    3    3  502    0  0.83536718124E+01 -0.10152615983E+03  0.25510345998E+03  0.27469097265E+03  0.10100000352E+00 0.  1.
       -3    1    3    3    0  502 -0.83536718124E+01  0.10152615983E+03 -0.20128334282E+03  0.22559330499E+03  0.10100000352E+00 0. -1.
</event>
<event>
 5   0  0.1292375E-01  0.5045366E+03  0.7818609E-02  0.1012602E+00
       -3   -1    0    0    0  501  0.00000000000E+00  0.00000000000E+00  0.20857999483E+03  0.20858001928E+03  0.10100000352E+00 0. -1.
        3   -1    0    0  501    0  0.00000000000E+00  0.00000000000E+00 -0.30510735666E+03  0.30510737337E+03  0.10100000352E+00 0.  1.
    10030    2    1    2    0    0  0.00000000000E+00  0.00000000000E+00 -0.96527361827E+02  0.51368739266E+03  0.50453662483E+03 0.  0.
        4    1    3    3  502    0  0.10388806582E+03  0.71848426002E+02  0.17406060771E+03  0.21506658177E+03  0.12699999809E+01 0. -1.
       -4    1    3    3    0  502 -0.10388806582E+03 -0.71848426002E+02 -0.27058796954E+03  0.29862081089E+03  0.12699999809E+01 0.  1.
</event>
<event>
 5   0  0.3178149E-01  0.4805252E+03  0.7818609E-02  0.1018991E+00
       -2   -1    0    0    0  501  0.00000000000E+00  0.00000000000E+00  0.48271236346E+02  0.48271236413E+02  0.25500000920E-02 0.  1.
        2   -1    0    0  501    0  0.00000000000E+00  0.00000000000E+00 -0.11958699611E+04  0.11958699611E+04  0.25500000920E-02 0. -1.
    10030    2    1    2    0    0  0.00000000000E+00  0.00000000000E+00 -0.11475987247E+04  0.12441411975E+04  0.48052521920E+03 0.  0.
        3    1    3    3  502    0 -0.78657519294E+02 -0.52599071835E+02 -0.20038485978E+01  0.94645091313E+02  0.10100000352E+00 0.  1.
       -3    1    3    3    0  502  0.78657519294E+02  0.52599071835E+02 -0.11455948761E+04  0.11494961062E+04  0.10100000352E+00 0. -1.
</event>
<event>
 5   0  0.3187123E-01  0.4983294E+03  0.7818609E-02  0.1014216E+00
       -2   -1    0    0    0  501  0.00000000000E+00  0.00000000000E+00  0.47480840958E+02  0.47480841027E+02  0.25500000920E-02 0. -1.
        2   -1    0    0  501    0  0.00000000000E+00  0.00000000000E+00 -0.13075388486E+04  0.13075388486E+04  0.25500000920E-02 0.  1.
    10030    2    1    2    0    0  0.00000000000E+00  0.00000000000E+00 -0.12600580076E+04  0.13550196896E+04  0.49832938571E+03 0.  0.
        5    1    3    3  502    0 -0.13621802860E+03 -0.11818509565E+03 -0.10973537873E+04  0.11120838515E+04  0.46999998093E+01 0. -1.
       -5    1    3    3    0  502  0.13621802860E+03  0.11818509565E+03 -0.16270422029E+03  0.24293583813E+03  0.46999998093E+01 0.  1.
</event>
<event>
 5   0  0.1984297E-01  0.4920026E+03  0.7818609E-02  0.1015888E+00
       -1   -1    0    0    0  501  0.00000000000E+00  0.00000000000E+00  0.36174091110E+03  0.36174091113E+03  0.50400001928E-02 0. -1.
        1   -1    0    0  501    0  0.00000000000E+00  0.00000000000E+00 -0.16729278044E+03  0.16729278052E+03  0.50400001928E-02 0.  1.
    10030    2    1    2    0    0  0.00000000000E+00  0.00000000000E+00  0.19444813066E+03  0.52903369165E+03  0.49200261319E+03 0.  0.
        3    1    3    3  502    0  0.14923154716E+03 -0.15835258697E+03  0.22062711511E+03  0.30987405601E+03  0.10100000352E+00 0. -1.
       -3    1    3    3    0  502 -0.14923154716E+03  0.15835258697E+03 -0.26178984449E+02  0.21915963564E+03  0.10100000352E+00 0.  1.
</event>
<event>
 5   0  0.1292375E-01  0.3980070E+03  0.7818609E-02  0.1044472E+00
        3   -1    0    0  501    0  0.00000000000E+00  0.00000000000E+00  0.11480452690E+03  0.11480457133E+03  0.10100000352E+00 0.  1.
       -3   -1    0    0    0  501  0.00000000000E+00  0.00000000000E+00 -0.34495483434E+03  0.34495484913E+03  0.10100000352E+00 0. -1.
    10030    2    1    2    0    0  0.00000000000E+00  0.00000000000E+00 -0.23015030744E+03  0.45975942046E+03  0.39800698573E+03 0.  0.
        4    1    3    3  502    0  0.11648141710E+03 -0.18464070957E+02 -0.30023139152E+03  0.32256680517E+03  0.12699999809E+01 0. -1.
       -4    1    3    3    0  502 -0.11648141710E+03  0.18464070957E+02  0.70081084076E+02  0.13719261529E+03  0.12699999809E+01 0.  1.
</event>
<event>
 5   0  0.2000612E-01  0.5102893E+03  0.7818609E-02  0.1011128E+00
        1   -1    0    0  501    0  0.00000000000E+00  0.00000000000E+00  0.77914676104E+03  0.77914676106E+03  0.50400001928E-02 0. -1.
       -1   -1    0    0    0  501  0.00000000000E+00  0.00000000000E+00 -0.83551378330E+02  0.83551378482E+02  0.50400001928E-02 0.  1.
    10030    2    1    2    0    0  0.00000000000E+00  0.00000000000E+00  0.69559538271E+03  0.86269813954E+03  0.51028927435E+03 0.  0.
        2    1    3    3  502    0 -0.16851711785E+02  0.25400476074E+03  0.37690299589E+03  0.45481674000E+03  0.25500000920E-02 0.  1.
       -2    1    3    3    0  502  0.16851711785E+02 -0.25400476074E+03  0.31869238682E+03  0.40788139954E+03  0.25500000920E-02 0. -1.
</event>
<event>
 5   0  0.2013450E-01  0.5135540E+03  0.7818609E-02  0.1010300E+00
        1   -1    0    0  501    0  0.00000000000E+00  0.00000000000E+00  0.29869049560E+03  0.29869049564E+03  0.50400001928E-02 0.  1.
       -1   -1    0    0    0  501  0.00000000000E+00  0.00000000000E+00 -0.22074500234E+03  0.22074500240E+03  0.50400001928E-02 0. -1.
    10030    2    1    2    0    0  0.00000000000E+00  0.00000000000E+00  0.77945493257E+02  0.51943549804E+03  0.51355402511E+03 0.  0.
        4    1    3    3  502    0  0.12202651384E+03 -0.22030386911E+03  0.89631841692E+02  0.26731955554E+03  0.12699999809E+01 0. -1.
       -4    1    3    3    0  502 -0.12202651384E+03  0.22030386911E+03 -0.11686348435E+02  0.25211594251E+03  0.12699999809E+01 0.  1.
</event>
<event>
 5   0  0.3178149E-01  0.4995131E+03  0.7818609E-02  0.1013906E+00
       -2   -1    0    0    0  501  0.00000000000E+00  0.00000000000E+00  0.42587661091E+02  0.42587661167E+02  0.25500000920E-02 0. -1.
        2   -1    0    0  501    0  0.00000000000E+00  0.00000000000E+00 -0.14647044437E+04  0.14647044437E+04  0.25500000920E-02 0.  1.
    10030    2    1    2    0    0  0.00000000000E+00  0.00000000000E+00 -0.14221167826E+04  0.15072921049E+04  0.49951310896E+03 0.  0.
        3    1    3    3  502    0 -0.24121597225E+03 -0.14336778966E+02 -0.90160814281E+03  0.93342805929E+03  0.10100000352E+00 0.  1.
       -3    1    3    3    0  502  0.24121597225E+03  0.14336778966E+02 -0.52050863983E+03  0.57386404560E+03  0.10100000352E+00 0. -1.
</event>
<event>
 5   0  0.3178149E-01  0.5112404E+03  0.7818609E-02  0.1010886E+00
       -2   -1    0    0    0  501  0.00000000000E+00  0.00000000000E+00  0.15430833331E+03  0.15430833333E+03  0.25500000920E-02 0. -1.
        2   -1    0    0  501    0  0.00000000000E+00  0.00000000000E+00 -0.42344885801E+03  0.42344885801E+03  0.25500000920E-02 0.  1.
    10030    2    1    2    0    0  0.00000000000E+00  0.00000000000E+00 -0.26914052470E+03  0.57775719134E+03  0.51124040344E+03 0.  0.
        3    1    3    3  502    0  0.39559766437E+02 -0.20489194837E+03 -0.30141346119E+03  0.36660028698E+03  0.10100000352E+00 0.  1.
       -3    1    3    3    0  502 -0.39559766437E+02  0.20489194837E+03  0.32272936487E+02  0.21115690436E+03  0.10100000352E+00 0. -1.
</event>
<event>
 5   0  0.3111146E-01  0.4635267E+03  0.7818609E-02  0.1023763E+00
        2   -1    0    0  501    0  0.00000000000E+00  0.00000000000E+00  0.13045154022E+03  0.13045154025E+03  0.25500000920E-02 0. -1.
       -2   -1    0    0    0  501  0.00000000000E+00  0.00000000000E+00 -0.41175638366E+03  0.41175638367E+03  0.25500000920E-02 0.  1.
    10030    2    1    2    0    0  0.00000000000E+00  0.00000000000E+00 -0.28130484344E+03  0.54220792391E+03  0.46352671747E+03 0.  0.
        1    1    3    3  502    0  0.14374151367E+03  0.10401769415E+01 -0.35331300566E+03  0.38143516450E+03  0.50400001928E-02 0.  1.
       -1    1    3    3    0  502 -0.14374151367E+03 -0.10401769415E+01  0.72008162222E+02  0.16077275942E+03  0.50400001928E-02 0. -1.
</event>
<event>
 5   0  0.1967161E-01  0.4815569E+03  0.7818609E-02  0.1018708E+00
        1   -1    0    0  501    0  0.00000000000E+00  0.00000000000E+00  0.12297980947E+04  0.12297980947E+04  0.50400001928E-02 0. -1.
       -1   -1    0    0    0  501  0.00000000000E+00  0.00000000000E+00 -0.47141287175E+02  0.47141287444E+02  0.50400001928E-02 0.  1.
    10030    2    1    2    0    0  0.00000000000E+00  0.00000000000E+00  0.11826568075E+04  0.12769393822E+04  0.48155691389E+03 0.  0.
        1    1    3    3  502    0 -0.22526068448E+02 -0.23384636873E+03  0.45144789333E+03  0.50891723133E+03  0.50400001928E-02 0.  1.
       -1    1    3    3    0  502  0.22526068448E+02  0.23384636873E+03  0.73120891421E+03  0.76802215084E+03  0.50400001928E-02 0. -1.
</event>
<event>
 5   0  0.3329246E-01  0.4950983E+03  0.7818609E-02  0.1015066E+00
        2   -1    0    0  501    0  0.00000000000E+00  0.00000000000E+00  0.54639832920E+03  0.54639832921E+03  0.25500000920E-02 0.  1.
       -2   -1    0    0    0  501  0.00000000000E+00  0.00000000000E+00 -0.11215368431E+03  0.11215368434E+03  0.25500000920E-02 0. -1.
    10030    2    1    2    0    0  0.00000000000E+00  0.00000000000E+00  0.43424464489E+03  0.65855201355E+03  0.49509831644E+03 0.  0.
        2    1    3    3  502    0  0.20074081104E+03  0.46971865992E+02  0.39939260053E+03  0.44946376803E+03  0.25500000920E-02 0.  1.
       -2    1    3    3    0  502 -0.20074081104E+03 -0.46971865992E+02  0.34852044362E+02  0.20908824552E+03  0.25500000920E-02 0. -1.
</event>
<event>
 5   0  0.3178149E-01  0.5038683E+03  0.7818609E-02  0.1012774E+00
       -2   -1    0    0    0  501  0.00000000000E+00  0.00000000000E+00  0.64407027895E+02  0.64407027946E+02  0.25500000920E-02 0. -1.
        2   -1    0    0  501    0  0.00000000000E+00  0.00000000000E+00 -0.98546413833E+03  0.98546413833E+03  0.25500000920E-02 0.  1.
    10030    2    1    2    0    0  0.00000000000E+00  0.00000000000E+00 -0.92105711043E+03  0.10498711663E+04  0.50386830135E+03 0.  0.
        3    1    3    3  502    0  0.24518702619E+03  0.10759919385E+02 -0.57910024918E+03  0.62895911034E+03  0.10100000352E+00 0. -1.
       -3    1    3    3    0  502 -0.24518702619E+03 -0.10759919385E+02 -0.34195686125E+03  0.42091205593E+03  0.10100000352E+00 0.  1.
</event>
<event>
 5   0  0.1967161E-01  0.5206279E+03  0.7818609E-02  0.1008531E+00
       -1   -1    0    0    0  501  0.00000000000E+00  0.00000000000E+00  0.61352992711E+03  0.61352992713E+03  0.50400001928E-02 0.  1.
        1   -1    0    0  501    0  0.00000000000E+00  0.00000000000E+00 -0.11044834551E+03  0.11044834562E+03  0.50400001928E-02 0. -1.
    10030    2    1    2    0    0  0.00000000000E+00  0.00000000000E+00  0.50308158160E+03  0.72397827275E+03  0.52062794937E+03 0.  0.
        1    1    3    3  502    0 -0.31820185247E+02 -0.25434924748E+03  0.31461430461E+03  0.40581796975E+03  0.50400001928E-02 0.  1.
       -1    1    3    3    0  502  0.31820185247E+02  0.25434924748E+03  0.18846727699E+03  0.31816030300E+03  0.50400001928E-02 0. -1.
</event>
<event>
 5   0  0.3117389E-01  0.4960760E+03  0.7818609E-02  0.1014808E+00
        2   -1    0    0  501    0  0.00000000000E+00  0.00000000000E+00  0.24166408649E+03  0.24166408651E+03  0.25500000920E-02 0. -1.
       -2   -1    0    0    0  501  0.00000000000E+00  0.00000000000E+00 -0.25458002994E+03  0.25458002995E+03  0.25500000920E-02 0.  1.
    10030    2    1    2    0    0  0.00000000000E+00  0.00000000000E+00 -0.12915943448E+02  0.49624411646E+03  0.49607600378E+03 0.  0.
        4    1    3    3  502    0 -0.15438956563E+03  0.19294728501E+03 -0.27829778608E+02  0.24867831077E+03  0.12699999809E+01 0. -1.
       -4    1    3    3    0  502  0.15438956563E+03 -0.19294728501E+03  0.14913835160E+02  0.24756580569E+03  0.12699999809E+01 0.  1.
</event>
<event>
 5   0  0.1984680E-01  0.4929129E+03  0.7818609E-02  0.1015645E+00
       -1   -1    0    0    0  501  0.00000000000E+00  0.00000000000E+00  0.13096011055E+03  0.13096011065E+03  0.50400001928E-02 0. -1.
        1   -1    0    0  501    0  0.00000000000E+00  0.00000000000E+00 -0.46381126504E+03  0.46381126507E+03  0.50400001928E-02 0.  1.
    10030    2    1    2    0    0  0.00000000000E+00  0.00000000000E+00 -0.33285115449E+03  0.59477137572E+03  0.49291287093E+03 0.  0.
        5    1    3    3  502    0 -0.10186750880E+03 -0.34481967725E+02 -0.43394390572E+03  0.44709663246E+03  0.46999998093E+01 0.  1.
       -5    1    3    3    0  502  0.10186750880E+03  0.34481967725E+02  0.10109275122E+03  0.14767474326E+03  0.46999998093E+01 0. -1.
</event>
<event>
 5   0  0.3187123E-01  0.5032129E+03  0.7818609E-02  0.1012944E+00
        2   -1    0    0  501    0  0.00000000000E+00  0.00000000000E+00  0.12668504652E+03  0.12668504654E+03  0.25500000920E-02 0.  1.
       -2   -1    0    0    0  501  0.00000000000E+00  0.00000000000E+00 -0.49971012677E+03  0.49971012678E+03  0.25500000920E-02 0. -1.
    10030    2    1    2    0    0  0.00000000000E+00  0.00000000000E+00 -0.37302508026E+03  0.62639517332E+03  0.50321288007E+03 0.  0.
        5    1    3    3  502    0  0.14487847631E+01  0.82015111385E+02 -0.48254045678E+03  0.48948540316E+03  0.46999998093E+01 0. -1.
       -5    1    3    3    0  502 -0.14487847631E+01 -0.82015111385E+02  0.10951537653E+03  0.13690977017E+03  0.46999998093E+01 0.  1.
</event>
<event>
 5   0  0.3117389E-01  0.5047512E+03  0.7818609E-02  0.1012546E+00
       -2   -1    0    0    0  501  0.00000000000E+00  0.00000000000E+00  0.38395921001E+02  0.38395921085E+02  0.25500000920E-02 0. -1.
        2   -1    0    0  501    0  0.00000000000E+00  0.00000000000E+00 -0.16588595504E+04  0.16588595504E+04  0.25500000920E-02 0.  1.
    10030    2    1    2    0    0  0.00000000000E+00  0.00000000000E+00 -0.16204636294E+04  0.16972554715E+04  0.50475118751E+03 0.  0.
        4    1    3    3  502    0 -0.10085723429E+03  0.58577602164E+01 -0.32576369211E+02  0.10615709017E+03  0.12699999809E+01 0. -1.
       -4    1    3    3    0  502  0.10085723429E+03 -0.58577602164E+01 -0.15878872602E+04  0.15910983814E+04  0.12699999809E+01 0.  1.
</event>
<event>
 5   0  0.3178149E-01  0.4715501E+03  0.7818609E-02  0.1021484E+00
        2   -1    0    0  501    0  0.00000000000E+00  0.00000000000E+00  0.17247711250E+04  0.17247711250E+04  0.25500000920E-02 0.  1.
       -2   -1    0    0    0  501  0.00000000000E+00  0.00000000000E+00 -0.32230285294E+02  0.32230285395E+02  0.25500000920E-02 0. -1.
    10030    2    1    2    0    0  0.00000000000E+00  0.00000000000E+00  0.16925408397E+04  0.17570014103E+04  0.47155006315E+03 0.  0.
        3    1    3    3  502    0  0.30136957035E+02  0.77783624013E+02  0.24591088544E+02  0.86967006277E+02  0.10100000352E+00 0. -1.
       -3    1    3    3    0  502 -0.30136957035E+02 -0.77783624013E+02  0.16679497511E+04  0.16700344041E+04  0.10100000352E+00 0.  1.
</event>
<event>
 5   0  0.3178149E-01  0.5010001E+03  0.7818609E-02  0.1013518E+00
       -2   -1    0    0    0  501  0.00000000000E+00  0.00000000000E+00  0.15894805738E+03  0.15894805740E+03  0.25500000920E-02 0.  1.
        2   -1    0    0  501    0  0.00000000000E+00  0.00000000000E+00 -0.39478481312E+03  0.39478481312E+03  0.25500000920E-02 0. -1.
    10030    2    1    2    0    0  0.00000000000E+00  0.00000000000E+00 -0.23583675574E+03  0.55373287052E+03  0.50100011631E+03 0.  0.
        3    1    3    3  502    0  0.22262736082E+03  0.10346315988E+02 -0.24432534552E+03  0.33070360250E+03  0.10100000352E+00 0. -1.
       -3    1    3    3    0  502 -0.22262736082E+03 -0.10346315988E+02  0.84885897836E+01  0.22302926803E+03  0.10100000352E+00 0.  1.
</event>
<event>
 5   0  0.1292375E-01  0.5067675E+03  0.7818609E-02  0.1012027E+00
        3   -1    0    0  501    0  0.00000000000E+00  0.00000000000E+00  0.46739572254E+03  0.46739573346E+03  0.10100000352E+00 0. -1.
       -3   -1    0    0    0  501  0.00000000000E+00  0.00000000000E+00 -0.13736390166E+03  0.13736393879E+03  0.10100000352E+00 0.  1.
    10030    2    1    2    0    0  0.00000000000E+00  0.00000000000E+00  0.33003182088E+03  0.60475967225E+03  0.50676745987E+03 0.  0.
        5    1    3    3  502    0 -0.24705369681E+03  0.19266289174E+01  0.98123621258E+02  0.26587511364E+03  0.46999998093E+01 0.  1.
       -5    1    3    3    0  502  0.24705369681E+03 -0.19266289174E+01  0.23190819963E+03  0.33888455860E+03  0.46999998093E+01 0. -1.
</event>
<event>
 5   0  0.3117389E-01  0.4909778E+03  0.7818609E-02  0.1016161E+00
        2   -1    0    0  501    0  0.00000000000E+00  0.00000000000E+00  0.88205277195E+02  0.88205277232E+02  0.25500000920E-02 0. -1.
       -2   -1    0    0    0  501  0.00000000000E+00  0.00000000000E+00 -0.68323349078E+03  0.68323349078E+03  0.25500000920E-02 0.  1.
    10030    2    1    2    0    0  0.00000000000E+00  0.00000000000E+00 -0.59502821358E+03  0.77143876801E+03  0.49097779770E+03 0.  0.
        4    1    3    3  502    0  0.67168534535E+02  0.77248808770E+01 -0.66831060744E+03  0.67172313250E+03  0.12699999809E+01 0.  1.
       -4    1    3    3    0  502 -0.67168534535E+02 -0.77248808770E+01  0.73282393860E+02  0.99715635514E+02  0.12699999809E+01 0. -1.
</event>
<event>
 5   0  0.3178149E-01  0.5108182E+03  0.7818609E-02  0.1010993E+00
        2   -1    0    0  501    0  0.00000000000E+00  0.00000000000E+00  0.12567558936E+03  0.12567558939E+03  0.25500000920E-02 0. -1.
       -2   -1    0    0    0  501  0.00000000000E+00  0.00000000000E+00 -0.51906504224E+03  0.51906504224E+03  0.25500000920E-02 0.  1.
    10030    2    1    2    0    0  0.00000000000E+00  0.00000000000E+00 -0.39338945287E+03  0.64474063163E+03  0.51081818727E+03 0.  0.
        3    1    3    3  502    0  0.61155760877E+01 -0.23204667704E+03 -0.62223096825E+02  0.24032225152E+03  0.10100000352E+00 0. -1.
       -3    1    3    3    0  502 -0.61155760877E+01  0.23204667704E+03 -0.33116635605E+03  0.40441838012E+03  0.10100000352E+00 0.  1.
</event>
<event>
 5   0  0.1292375E-01  0.5007700E+03  0.7818609E-02  0.1013578E+00
        3   -1    0    0  501    0  0.00000000000E+00  0.00000000000E+00  0.71650249956E+02  0.71650321143E+02  0.10100000352E+00 0. -1.
       -3   -1    0    0    0  501  0.00000000000E+00  0.00000000000E+00 -0.87498098444E+03  0.87498099027E+03  0.10100000352E+00 0.  1.
    10030    2    1    2    0    0  0.00000000000E+00  0.00000000000E+00 -0.80333073448E+03  0.94663131141E+03  0.50076997791E+03 0.  0.
        4    1    3    3  502    0  0.16359498916E+03  0.23132420575E+02 -0.75729571769E+03  0.77511086065E+03  0.12699999809E+01 0.  1.
       -4    1    3    3    0  502 -0.16359498916E+03 -0.23132420575E+02 -0.46035016793E+02  0.17152045077E+03  0.12699999809E+01 0. -1.
</event>
<event>
 5   0  0.1984680E-01  0.5045315E+03  0.7818609E-02  0.1012603E+00
        1   -1    0    0  501    0  0.00000000000E+00  0.00000000000E+00  0.48518416729E+03  0.48518416732E+03  0.50400001928E-02 0.  1.
       -1   -1    0    0    0  501  0.00000000000E+00  0.00000000000E+00 -0.13116257730E+03  0.13116257740E+03  0.50400001928E-02 0. -1.
    10030    2    1    2    0    0  0.00000000000E+00  0.00000000000E+00  0.35402158999E+03  0.61634674472E+03  0.50453148915E+03 0.  0.
        5    1    3    3  502    0  0.58991751282E+02 -0.22183036020E+03  0.30471079211E+03  0.38152259730E+03  0.46999998093E+01 0.  1.
       -5    1    3    3    0  502 -0.58991751282E+02  0.22183036020E+03  0.49310797879E+02  0.23482414742E+03  0.46999998093E+01 0. -1.
</event>
<event>
 5   0  0.3111146E-01  0.5053777E+03  0.7818609E-02  0.1012385E+00
       -2   -1    0    0    0  501  0.00000000000E+00  0.00000000000E+00  0.33091368011E+02  0.33091368109E+02  0.25500000920E-02 0.  1.
        2   -1    0    0  501    0  0.00000000000E+00  0.00000000000E+00 -0.19295559580E+04  0.19295559580E+04  0.25500000920E-02 0. -1.
    10030    2    1    2    0    0  0.00000000000E+00  0.00000000000E+00 -0.18964645900E+04  0.19626473261E+04  0.50537766631E+03 0.  0.
        1    1    3    3  502    0  0.12548523506E+01 -0.10272321637E+03 -0.18447971871E+04  0.18476553508E+04  0.50400001928E-02 0. -1.
       -1    1    3    3    0  502 -0.12548523506E+01  0.10272321637E+03 -0.51667402888E+02  0.11499197529E+03  0.50400001928E-02 0.  1.
</event>
<event>
 5   0  0.1967161E-01  0.5058717E+03  0.7818609E-02  0.1012258E+00
       -1   -1    0    0    0  501  0.00000000000E+00  0.00000000000E+00  0.54821456867E+02  0.54821457099E+02  0.50400001928E-02 0. -1.
        1   -1    0    0  501    0  0.00000000000E+00  0.00000000000E+00 -0.11669984166E+04  0.11669984166E+04  0.50400001928E-02 0.  1.
    10030    2    1    2    0    0  0.00000000000E+00  0.00000000000E+00 -0.11121769597E+04  0.12218198737E+04  0.50587173674E+03 0.  0.
        1    1    3    3  502    0  0.32729965686E+02  0.23299349049E+03 -0.33185333584E+03  0.40679706709E+03  0.50400001928E-02 0. -1.
       -1    1    3    3    0  502 -0.32729965686E+02 -0.23299349049E+03 -0.78032362390E+03  0.81502280662E+03  0.50400001928E-02 0.  1.
</event>
<event>
 5   0  0.3117389E-01  0.3573622E+03  0.7818609E-02  0.1059633E+00
        2   -1    0    0  501    0  0.00000000000E+00  0.00000000000E+00  0.12021608641E+04  0.12021608641E+04  0.25500000920E-02 0.  1.
       -2   -1    0    0    0  501  0.00000000000E+00  0.00000000000E+00 -0.26557959989E+02  0.26557960111E+02  0.25500000920E-02 0. -1.
    10030    2    1    2    0    0  0.00000000000E+00  0.00000000000E+00  0.11756029041E+04  0.12287188242E+04  0.35736222635E+03 0.  0.
        4    1    3    3  502    0 -0.17530727303E+03 -0.34316424397E+02  0.60114912190E+03  0.62713007950E+03  0.12699999809E+01 0. -1.
       -4    1    3    3    0  502  0.17530727303E+03  0.34316424397E+02  0.57445378219E+03  0.60158874468E+03  0.12699999809E+01 0.  1.
</event>
<event>
 5   0  0.3117389E-01  0.5230551E+03  0.7818609E-02  0.1007930E+00
       -2   -1    0    0    0  501  0.00000000000E+00  0.00000000000E+00  0.61066874069E+02  0.61066874122E+02  0.25500000920E-02 0. -1.
        2   -1    0    0  501    0  0.00000000000E+00  0.00000000000E+00 -0.11200286219E+04  0.11200286219E+04  0.25500000920E-02 0.  1.
    10030    2    1    2    0    0  0.00000000000E+00  0.00000000000E+00 -0.10589617478E+04  0.11810954960E+04  0.52305505194E+03 0.  0.
        4    1    3    3  502    0  0.14373621872E+03  0.87356112375E+02 -0.98168092596E+03  0.99598707031E+03  0.12699999809E+01 0.  1.
       -4    1    3    3    0  502 -0.14373621872E+03 -0.87356112375E+02 -0.77280821877E+02  0.18510842572E+03  0.12699999809E+01 0. -1.
</event>
<event>
 5   0  0.1984680E-01  0.5315424E+03  0.7818609E-02  0.1005859E+00
       -1   -1    0    0    0  501  0.00000000000E+00  0.00000000000E+00  0.10620150340E+04  0.10620150340E+04  0.50400001928E-02 0. -1.
        1   -1    0    0  501    0  0.00000000000E+00  0.00000000000E+00 -0.66509720399E+02  0.66509720590E+02  0.50400001928E-02 0.  1.
    10030    2    1    2    0    0  0.00000000000E+00  0.00000000000E+00  0.99550531359E+03  0.11285247546E+04  0.53154237116E+03 0.  0.
        5    1    3    3  502    0 -0.88253961935E+02  0.13542204562E+03  0.94554512071E+03  0.95927345295E+03  0.46999998093E+01 0. -1.
       -5    1    3    3    0  502  0.88253961935E+02 -0.13542204562E+03  0.49960192879E+02  0.16925130164E+03  0.46999998093E+01 0.  1.
</event>
<event>
 5   0  0.3117389E-01  0.4910341E+03  0.7818609E-02  0.1016146E+00
        2   -1    0    0  501    0  0.00000000000E+00  0.00000000000E+00  0.48800470935E+03  0.48800470935E+03  0.25500000920E-02 0. -1.
       -2   -1    0    0    0  501  0.00000000000E+00  0.00000000000E+00 -0.12352058799E+03  0.12352058801E+03  0.25500000920E-02 0.  1.
    10030    2    1    2    0    0  0.00000000000E+00  0.00000000000E+00  0.36448412136E+03  0.61152529737E+03  0.49103412773E+03 0.  0.
        4    1    3    3  502    0  0.19931426557E+03  0.44120692222E+02  0.12375343269E+02  0.20451790622E+03  0.12699999809E+01 0.  1.
       -4    1    3    3    0  502 -0.19931426557E+03 -0.44120692222E+02  0.35210877809E+03  0.40700739115E+03  0.12699999809E+01 0. -1.
</event>
<event>
 5   0  0.3111146E-01  0.5059722E+03  0.7818609E-02  0.1012232E+00
        2   -1    0    0  501    0  0.00000000000E+00  0.00000000000E+00  0.70447226376E+03  0.70447226376E+03  0.25500000920E-02 0.  1.
       -2   -1    0    0    0  501  0.00000000000E+00  0.00000000000E+00 -0.90850938793E+02  0.90850938829E+02  0.25500000920E-02 0. -1.
    10030    2    1    2    0    0  0.00000000000E+00  0.00000000000E+00  0.61362132496E+03  0.79532320259E+03  0.50597219897E+03 0.  0.
        1    1    3    3  502    0 -0.24612468861E+03 -0.57137688150E+02  0.28693480098E+03  0.38232663756E+03  0.50400001928E-02 0. -1.
       -1    1    3    3    0  502  0.24612468861E+03  0.57137688150E+02  0.32668652399E+03  0.41299656503E+03  0.50400001928E-02 0.  1.
</event>
<event>
 5   0  0.2013450E-01  0.4575826E+03  0.7818609E-02  0.1025485E+00
        1   -1    0    0  501    0  0.00000000000E+00  0.00000000000E+00  0.60420796642E+02  0.60420796853E+02  0.50400001928E-02 0.  1.
       -1   -1    0    0    0  501  0.00000000000E+00  0.00000000000E+00 -0.86634853100E+03  0.86634853102E+03  0.50400001928E-02 0. -1.
    10030    2    1    2    0    0  0.00000000000E+00  0.00000000000E+00 -0.80592773436E+03  0.92676932787E+03  0.45758264179E+03 0.  0.
        4    1    3    3  502    0  0.56642946894E+02  0.10804845268E+03 -0.79496884837E+03  0.80427605605E+03  0.12699999809E+01 0. -1.
       -4    1    3    3    0  502 -0.56642946894E+02 -0.10804845268E+03 -0.10958885992E+02  0.12249327182E+03  0.12699999809E+01 0.  1.
</event>
<event>
 5   0  0.1984680E-01  0.5026584E+03  0.7818609E-02  0.1013087E+00
       -1   -1    0    0    0  501  0.00000000000E+00  0.00000000000E+00  0.13316045188E+03  0.13316045197E+03  0.50400001928E-02 0. -1.
        1   -1    0    0  501    0  0.00000000000E+00  0.00000000000E+00 -0.47436274593E+03  0.47436274595E+03  0.50400001928E-02 0.  1.
    10030    2    1    2    0    0  0.00000000000E+00  0.00000000000E+00 -0.34120229405E+03  0.60752319792E+03  0.50265836365E+03 0.  0.
        5    1    3    3  502    0 -0.39474460808E+01  0.24356248433E+03 -0.24516432886E+03  0.34563840100E+03  0.46999998093E+01 0.  1.
       -5    1    3    3    0  502  0.39474460808E+01 -0.24356248433E+03 -0.96037965186E+02  0.26188479692E+03  0.46999998093E+01 0. -1.
</event>
<event>
 5   0  0.1984297E-01  0.4942507E+03  0.7818609E-02  0.1015291E+00
        1   -1    0    0  501    0  0.00000000000E+00  0.00000000000E+00  0.58428526409E+03  0.58428526411E+03  0.50400001928E-02 0.  1.
       -1   -1    0    0    0  501  0.00000000000E+00  0.00000000000E+00 -0.10452248952E+03  0.10452248965E+03  0.50400001928E-02 0. -1.
    10030    2    1    2    0    0  0.00000000000E+00  0.00000000000E+00  0.47976277457E+03  0.68880775376E+03  0.49425074788E+03 0.  0.
        3    1    3    3  502    0  0.24661384298E+03 -0.14983040248E+02  0.24726389347E+03  0.34954588004E+03  0.10100000352E+00 0.  1.
       -3    1    3    3    0  502 -0.24661384298E+03  0.14983040248E+02  0.23249888110E+03  0.33926187372E+03  0.10100000352E+00 0. -1.
</event>
<event>
 5   0  0.3117389E-01  0.5006801E+03  0.7818609E-02  0.1013602E+00
        2   -1    0    0  501    0  0.00000000000E+00  0.00000000000E+00  0.30961099858E+03  0.30961099859E+03  0.25500000920E-02 0.  1.
       -2   -1    0    0    0  501  0.00000000000E+00  0.00000000000E+00 -0.20241573387E+03  0.20241573388E+03  0.25500000920E-02 0. -1.
    10030    2    1    2    0    0  0.00000000000E+00  0.00000000000E+00  0.10719526471E+03  0.51202673247E+03  0.50068008747E+03 0.  0.
        4    1    3    3  502    0 -0.17051501221E+03  0.66238490358E+02 -0.12117181524E+03  0.21942453989E+03  0.12699999809E+01 0. -1.
       -4    1    3    3    0  502  0.17051501221E+03 -0.66238490358E+02  0.22836707995E+03  0.29260219258E+03  0.12699999809E+01 0.  1.
</event>
<event>
 5   0  0.3111146E-01  0.5182446E+03  0.7818609E-02  0.1009124E+00
       -2   -1    0    0    0  501  0.00000000000E+00  0.00000000000E+00  0.63089149356E+02  0.63089149407E+02  0.25500000920E-02 0. -1.
        2   -1    0    0  501    0  0.00000000000E+00  0.00000000000E+00 -0.10642777458E+04  0.10642777458E+04  0.25500000920E-02 0.  1.
    10030    2    1    2    0    0  0.00000000000E+00  0.00000000000E+00 -0.10011885965E+04  0.11273668952E+04  0.51824464375E+03 0.  0.
        1    1    3    3  502    0 -0.82303057626E+02 -0.20998700342E+03 -0.77812105903E+03  0.81014857738E+03  0.50400001928E-02 0.  1.
       -1    1    3    3    0  502  0.82303057626E+02  0.20998700342E+03 -0.22306753744E+03  0.31721831786E+03  0.50400001928E-02 0. -1.
</event>
<event>
 5   0  0.3117389E-01  0.4424448E+03  0.7818609E-02  0.1029999E+00
       -2   -1    0    0    0  501  0.00000000000E+00  0.00000000000E+00  0.13661271198E+03  0.13661271200E+03  0.25500000920E-02 0.  1.
        2   -1    0    0  501    0  0.00000000000E+00  0.00000000000E+00 -0.35823431039E+03  0.35823431040E+03  0.25500000920E-02 0. -1.
    10030    2    1    2    0    0  0.00000000000E+00  0.00000000000E+00 -0.22162159842E+03  0.49484702240E+03  0.44244484707E+03 0.  0.
        4    1    3    3  502    0 -0.16698265297E+03  0.14508236752E+03 -0.10815276982E+03  0.24623308932E+03  0.12699999809E+01 0. -1.
       -4    1    3    3    0  502  0.16698265297E+03 -0.14508236752E+03 -0.11346882860E+03  0.24861393308E+03  0.12699999809E+01 0.  1.
</event>
<event>
 5   0  0.3187123E-01  0.4834226E+03  0.7818609E-02  0.1018199E+00
        2   -1    0    0  501    0  0.00000000000E+00  0.00000000000E+00  0.15263768758E+04  0.15263768758E+04  0.25500000920E-02 0. -1.
       -2   -1    0    0    0  501  0.00000000000E+00  0.00000000000E+00 -0.38276487215E+02  0.38276487300E+02  0.25500000920E-02 0.  1.
    10030    2    1    2    0    0  0.00000000000E+00  0.00000000000E+00  0.14881003886E+04  0.15646533631E+04  0.48342256894E+03 0.  0.
        5    1    3    3  502    0  0.81631181965E+02  0.14462956197E+03  0.17583369675E+03  0.24191101458E+03  0.46999998093E+01 0.  1.
       -5    1    3    3    0  502 -0.81631181965E+02 -0.14462956197E+03  0.13122666919E+04  0.13227423485E+04  0.46999998093E+01 0. -1.
</event>
<event>
 5   0  0.3329246E-01  0.5032727E+03  0.7818609E-02  0.1012928E+00
       -2   -1    0    0    0  501  0.00000000000E+00  0.00000000000E+00  0.12811449210E+03  0.12811449212E+03  0.25500000920E-02 0.  1.
        2   -1    0    0  501    0  0.00000000000E+00  0.00000000000E+00 -0.49425202000E+03  0.49425202001E+03  0.25500000920E-02 0. -1.
    10030    2    1    2    0    0  0.00000000000E+00  0.00000000000E+00 -0.36613752791E+03  0.62236651213E+03  0.50327267567E+03 0.  0.
        2    1    3    3  502    0  0.21072174187E+03  0.12861959999E+03 -0.24332483777E+03  0.34663183737E+03  0.25500000920E-02 0.  1.
       -2    1    3    3    0  502 -0.21072174187E+03 -0.12861959999E+03 -0.12281269014E+03  0.27573467476E+03  0.25500000920E-02 0. -1.
</event>
<event>
 5   0  0.1984297E-01  0.4937154E+03  0.7818609E-02  0.1015432E+00
       -1   -1    0    0    0  501  0.00000000000E+00  0.00000000000E+00  0.87068055655E+03  0.87068055656E+03  0.50400001928E-02 0.  1.
        1   -1    0    0  501    0  0.00000000000E+00  0.00000000000E+00 -0.69989753656E+02  0.69989753837E+02  0.50400001928E-02 0. -1.
    10030    2    1    2    0    0  0.00000000000E+00  0.00000000000E+00  0.80069080289E+03  0.94067031040E+03  0.49371537451E+03 0.  0.
        3    1    3    3  502    0 -0.74532968491E+02  0.19759262867E+03  0.15679094672E+03  0.26302361390E+03  0.10100000352E+00 0. -1.
       -3    1    3    3    0  502  0.74532968491E+02 -0.19759262867E+03  0.64389985617E+03  0.67764669649E+03  0.10100000352E+00 0.  1.
</event>
<event>
 5   0  0.3111146E-01  0.5085287E+03  0.7818609E-02  0.1011576E+00
       -2   -1    0    0    0  501  0.00000000000E+00  0.00000000000E+00  0.73797394470E+02  0.73797394514E+02  0.25500000920E-02 0.  1.
        2   -1    0    0  501    0  0.00000000000E+00  0.00000000000E+00 -0.87605223217E+03  0.87605223217E+03  0.25500000920E-02 0. -1.
    10030    2    1    2    0    0  0.00000000000E+00  0.00000000000E+00 -0.80225483770E+03  0.94984962669E+03  0.50852874914E+03 0.  0.
        1    1    3    3  502    0 -0.16035573812E+03  0.15904860602E+03 -0.18298217916E+03  0.29067662400E+03  0.50400001928E-02 0.  1.
       -1    1    3    3    0  502  0.16035573812E+03 -0.15904860602E+03 -0.61927265854E+03  0.65917300268E+03  0.50400001928E-02 0. -1.
</event>
<event>
 5   0  0.2000612E-01  0.5708625E+03  0.7818609E-02  0.9967772E-01
       -1   -1    0    0    0  501  0.00000000000E+00  0.00000000000E+00  0.10973214909E+03  0.10973214921E+03  0.50400001928E-02 0.  1.
        1   -1    0    0  501    0  0.00000000000E+00  0.00000000000E+00 -0.74245323926E+03  0.74245323928E+03  0.50400001928E-02 0. -1.
    10030    2    1    2    0    0  0.00000000000E+00  0.00000000000E+00 -0.63272109017E+03  0.85218538848E+03  0.57086246890E+03 0.  0.
        2    1    3    3  502    0 -0.16066317516E+03 -0.36481750847E+02  0.31585668647E+02  0.16775347528E+03  0.25500000920E-02 0.  1.
       -2    1    3    3    0  502  0.16066317516E+03  0.36481750847E+02 -0.66430675882E+03  0.68443191320E+03  0.25500000920E-02 0. -1.
</event>
<event>
 5   0  0.2013450E-01  0.5153385E+03  0.7818609E-02  0.1009851E+00
        1   -1    0    0  501    0  0.00000000000E+00  0.00000000000E+00  0.24394052818E+03  0.24394052823E+03  0.50400001928E-02 0.  1.
       -1   -1    0    0    0  501  0.00000000000E+00  0.00000000000E+00 -0.27217059044E+03  0.27217059049E+03  0.50400001928E-02 0. -1.
    10030    2    1    2    0    0  0.00000000000E+00  0.00000000000E+00 -0.28230062265E+02  0.51611111872E+03  0.51533848144E+03 0.  0.
        4    1    3    3  502    0  0.19656064402E+03  0.15999801306E+03 -0.60621424487E+02  0.26059934951E+03  0.12699999809E+01 0.  1.
       -4    1    3    3    0  502 -0.19656064402E+03 -0.15999801306E+03  0.32391362222E+02  0.25551176921E+03  0.12699999809E+01 0. -1.
</event>
<event>
 5   0  0.3178149E-01  0.3952687E+03  0.7818609E-02  0.1045430E+00
       -2   -1    0    0    0  501  0.00000000000E+00  0.00000000000E+00  0.91911385511E+02  0.91911385547E+02  0.25500000920E-02 0.  1.
        2   -1    0    0  501    0  0.00000000000E+00  0.00000000000E+00 -0.42496731533E+03  0.42496731533E+03  0.25500000920E-02 0. -1.
    10030    2    1    2    0    0  0.00000000000E+00  0.00000000000E+00 -0.33305592981E+03  0.51687870088E+03  0.39526869221E+03 0.  0.
        3    1    3    3  502    0 -0.49829155062E+02 -0.27483713861E+02  0.80966349272E+02  0.98963928465E+02  0.10100000352E+00 0.  1.
       -3    1    3    3    0  502  0.49829155062E+02  0.27483713861E+02 -0.41402227909E+03  0.41791477242E+03  0.10100000352E+00 0. -1.
</event>
<event>
 5   0  0.3187123E-01  0.5122829E+03  0.7818609E-02  0.1010622E+00
        2   -1    0    0  501    0  0.00000000000E+00  0.00000000000E+00  0.33662777685E+03  0.33662777686E+03  0.25500000920E-02 0. -1.
       -2   -1    0    0    0  501  0.00000000000E+00  0.00000000000E+00 -0.19489909689E+03  0.19489909690E+03  0.25500000920E-02 0.  1.
    10030    2    1    2    0    0  0.00000000000E+00  0.00000000000E+00  0.14172867997E+03  0.53152687377E+03  0.51228292848E+03 0.  0.
        5    1    3    3  502    0 -0.10429644961E+03  0.40932146948E+02 -0.16807581216E+03  0.20205137636E+03  0.46999998093E+01 0.  1.
       -5    1    3    3    0  502  0.10429644961E+03 -0.40932146948E+02  0.30980449213E+03  0.32947549741E+03  0.46999998093E+01 0. -1.
</event>
<event>
 5   0  0.1292375E-01  0.4919277E+03  0.7818609E-02  0.1015908E+00
        3   -1    0    0  501    0  0.00000000000E+00  0.00000000000E+00  0.22623831897E+03  0.22623834151E+03  0.10100000352E+00 0.  1.
       -3   -1    0    0    0  501  0.00000000000E+00  0.00000000000E+00 -0.26740923967E+03  0.26740925875E+03  0.10100000352E+00 0. -1.
    10030    2    1    2    0    0  0.00000000000E+00  0.00000000000E+00 -0.41170920707E+02  0.49364760026E+03  0.49192774727E+03 0.  0.
        4    1    3    3  502    0  0.16201972908E+03 -0.16281098423E+03  0.67692575807E+02  0.23946128479E+03  0.12699999809E+01 0.  1.
       -4    1    3    3    0  502 -0.16201972908E+03  0.16281098423E+03 -0.10886349651E+03  0.25418631546E+03  0.12699999809E+01 0. -1.
</event>
<event>
 5   0  0.1984680E-01  0.5017990E+03  0.7818609E-02  0.1013310E+00
        1   -1    0    0  501    0  0.00000000000E+00  0.00000000000E+00  0.36079717745E+03  0.36079717749E+03  0.50400001928E-02 0. -1.
       -1   -1    0    0    0  501  0.00000000000E+00  0.00000000000E+00 -0.17447629734E+03  0.17447629741E+03  0.50400001928E-02 0.  1.
    10030    2    1    2    0    0  0.00000000000E+00  0.00000000000E+00  0.18632088012E+03  0.53527347490E+03  0.50179898621E+03 0.  0.
        5    1    3    3  502    0  0.23582723504E+03 -0.81422527449E+02  0.65255185266E+02  0.25792332575E+03  0.46999998093E+01 0.  1.
       -5    1    3    3    0  502 -0.23582723504E+03  0.81422527449E+02  0.12106569485E+03  0.27735014915E+03  0.46999998093E+01 0. -1.
</event>
<event>
 5   0  0.3187123E-01  0.5044501E+03  0.7818609E-02  0.1012624E+00
       -2   -1    0    0    0  501  0.00000000000E+00  0.00000000000E+00  0.66913768304E+02  0.66913768352E+02  0.25500000920E-02 0. -1.
        2   -1    0    0  501    0  0.00000000000E+00  0.00000000000E+00 -0.95073838638E+03  0.95073838638E+03  0.25500000920E-02 0.  1.
    10030    2    1    2    0    0  0.00000000000E+00  0.00000000000E+00 -0.88382461807E+03  0.10176521547E+04  0.50445014870E+03 0.  0.
        5    1    3    3  502    0  0.16920568253E+03  0.79335925344E+02 -0.10032648266E+03  0.21216089454E+03  0.46999998093E+01 0. -1.
       -5    1    3    3    0  502 -0.16920568253E+03 -0.79335925344E+02 -0.78349813541E+03  0.80549126019E+03  0.46999998093E+01 0.  1.
</event>
<event>
 5   0  0.3111146E-01  0.4998918E+03  0.7818609E-02  0.1013807E+00
        2   -1    0    0  501    0  0.00000000000E+00  0.00000000000E+00  0.13119594434E+04  0.13119594434E+04  0.25500000920E-02 0.  1.
       -2   -1    0    0    0  501  0.00000000000E+00  0.00000000000E+00 -0.47618051077E+02  0.47618051145E+02  0.25500000920E-02 0. -1.
    10030    2    1    2    0    0  0.00000000000E+00  0.00000000000E+00  0.12643413923E+04  0.13595774945E+04  0.49989179563E+03 0.  0.
        1    1    3    3  502    0 -0.16870209097E+03  0.20328909860E+02  0.13363872022E+03  0.21617809242E+03  0.50400001928E-02 0. -1.
       -1    1    3    3    0  502  0.16870209097E+03 -0.20328909860E+02  0.11307026721E+04  0.11433994021E+04  0.50400001928E-02 0.  1.
</event>
<event>
 5   0  0.2013450E-01  0.4861583E+03  0.7818609E-02  0.1017456E+00
        1   -1    0    0  501    0  0.00000000000E+00  0.00000000000E+00  0.15179972643E+03  0.15179972651E+03  0.50400001928E-02 0.  1.
       -1   -1    0    0    0  501  0.00000000000E+00  0.00000000000E+00 -0.38924620861E+03  0.38924620864E+03  0.50400001928E-02 0. -1.
    10030    2    1    2    0    0  0.00000000000E+00  0.00000000000E+00 -0.23744648218E+03  0.54104593516E+03  0.48615827880E+03 0.  0.
        4    1    3    3  502    0  0.37819549813E+02 -0.19351095287E+03  0.39485100929E+02  0.20109075892E+03  0.12699999809E+01 0.  1.
       -4    1    3    3    0  502 -0.37819549813E+02  0.19351095287E+03 -0.27693158311E+03  0.33995517624E+03  0.12699999809E+01 0. -1.
</event>
<event>
 5   0  0.1292375E-01  0.4898176E+03  0.7818609E-02  0.1016471E+00
       -3   -1    0    0    0  501  0.00000000000E+00  0.00000000000E+00  0.27040319003E+03  0.27040320890E+03  0.10100000352E+00 0. -1.
        3   -1    0    0  501    0  0.00000000000E+00  0.00000000000E+00 -0.22181801873E+03  0.22181804172E+03  0.10100000352E+00 0.  1.
    10030    2    1    2    0    0  0.00000000000E+00  0.00000000000E+00  0.48585171304E+02  0.49222125062E+03  0.48981755858E+03 0.  0.
        1    1    3    3  502    0 -0.12426943244E+03 -0.14586897883E+03  0.17755218467E+03  0.26123826123E+03  0.50400001928E-02 0. -1.
       -1    1    3    3    0  502  0.12426943244E+03  0.14586897883E+03 -0.12896701337E+03  0.23098298939E+03  0.50400001928E-02 0.  1.
</event>
<event>
 5   0  0.1984680E-01  0.5003870E+03  0.7818609E-02  0.1013678E+00
        1   -1    0    0  501    0  0.00000000000E+00  0.00000000000E+00  0.48869048821E+03  0.48869048824E+03  0.50400001928E-02 0. -1.
       -1   -1    0    0    0  501  0.00000000000E+00  0.00000000000E+00 -0.12809088687E+03  0.12809088697E+03  0.50400001928E-02 0.  1.
    10030    2    1    2    0    0  0.00000000000E+00  0.00000000000E+00  0.36059960134E+03  0.61678137521E+03  0.50038704251E+03 0.  0.
        5    1    3    3  502    0 -0.20481714501E+03 -0.14325091886E+03  0.19285907455E+03  0.31573343390E+03  0.46999998093E+01 0. -1.
       -5    1    3    3    0  502  0.20481714501E+03  0.14325091886E+03  0.16774052679E+03  0.30104794131E+03  0.46999998093E+01 0.  1.
</event>
<event>
 5   0  0.3187123E-01  0.4928327E+03  0.7818609E-02  0.1015667E+00
        2   -1    0    0  501    0  0.00000000000E+00  0.00000000000E+00  0.76347543759E+03  0.76347543760E+03  0.25500000920E-02 0. -1.
       -2   -1    0    0    0  501  0.00000000000E+00  0.00000000000E+00 -0.79532377512E+02  0.79532377553E+02  0.25500000920E-02 0.  1.
    10030    2    1    2    0    0  0.00000000000E+00  0.00000000000E+00  0.68394306008E+03  0.84300781515E+03  0.49283269674E+03 0.  0.
        5    1    3    3  502    0  0.10564212024E+03 -0.20976684751E+03  0.46924892094E+03  0.52476568836E+03  0.46999998093E+01 0. -1.
       -5    1    3    3    0  502 -0.10564212024E+03  0.20976684751E+03  0.21469413914E+03  0.31824212679E+03  0.46999998093E+01 0.  1.
</event>
<event>
 5   0  0.3329246E-01  0.4961158E+03  0.7818609E-02  0.1014798E+00
        2   -1    0    0  501    0  0.00000000000E+00  0.00000000000E+00  0.88898302883E+03  0.88898302883E+03  0.25500000920E-02 0.  1.
       -2   -1    0    0    0  501  0.00000000000E+00  0.00000000000E+00 -0.69216969430E+02  0.69216969477E+02  0.25500000920E-02 0. -1.
    10030    2    1    2    0    0  0.00000000000E+00  0.00000000000E+00  0.81976605940E+03  0.95819999831E+03  0.49611575728E+03 0.  0.
        2    1    3    3  502    0  0.17908376039E+03  0.11067213726E+03  0.66328292087E+03  0.69589047151E+03  0.25500000920E-02 0.  1.
       -2    1    3    3    0  502 -0.17908376039E+03 -0.11067213726E+03  0.15648313852E+03  0.26230952680E+03  0.25500000920E-02 0. -1.
</event>
<event>
 5   0  0.3178149E-01  0.4472349E+03  0.7818609E-02  0.1028550E+00
       -2   -1    0    0    0  501  0.00000000000E+00  0.00000000000E+00  0.36048523884E+02  0.36048523974E+02  0.25500000920E-02 0.  1.
        2   -1    0    0  501    0  0.00000000000E+00  0.00000000000E+00 -0.13871514289E+04  0.13871514289E+04  0.25500000920E-02 0. -1.
    10030    2    1    2    0    0  0.00000000000E+00  0.00000000000E+00 -0.13511029050E+04  0.14231999529E+04  0.44723488898E+03 0.  0.
        3    1    3    3  502    0 -0.29023581450E+02  0.21562501018E+03 -0.51117389370E+03  0.55554952353E+03  0.10100000352E+00 0. -1.
       -3    1    3    3    0  502  0.29023581450E+02 -0.21562501018E+03 -0.83992901131E+03  0.86765042934E+03  0.10100000352E+00 0.  1.
</event>
<event>
 5   0  0.1967161E-01  0.5000715E+03  0.7818609E-02  0.1013760E+00
       -1   -1    0    0    0  501  0.00000000000E+00  0.00000000000E+00  0.12890461467E+03  0.12890461477E+03  0.50400001928E-02 0. -1.
        1   -1    0    0  501    0  0.00000000000E+00  0.00000000000E+00 -0.48499329174E+03  0.48499329177E+03  0.50400001928E-02 0.  1.
    10030    2    1    2    0    0  0.00000000000E+00  0.00000000000E+00 -0.35608867707E+03  0.61389790654E+03  0.50007148860E+03 0.  0.
        1    1    3    3  502    0  0.17166976984E+03  0.61104648548E+02 -0.38822779475E+03  0.42886490716E+03  0.50400001928E-02 0.  1.
       -1    1    3    3    0  502 -0.17166976984E+03 -0.61104648548E+02  0.32139117673E+02  0.18503299938E+03  0.50400001928E-02 0. -1.
</event>
<event>
 5   0  0.3178149E-01  0.5209173E+03  0.7818609E-02  0.1008459E+00
        2   -1    0    0  501    0  0.00000000000E+00  0.00000000000E+00  0.52511730888E+03  0.52511730889E+03  0.25500000920E-02 0.  1.
       -2   -1    0    0    0  501  0.00000000000E+00  0.00000000000E+00 -0.12918770106E+03  0.12918770108E+03  0.25500000920E-02 0. -1.
    10030    2    1    2    0    0  0.00000000000E+00  0.00000000000E+00  0.39592960783E+03  0.65430500997E+03  0.52091725996E+03 0.  0.
        3    1    3    3  502    0 -0.13064393671E+03 -0.19830935916E+03  0.33233567136E+03  0.40846229788E+03  0.10100000352E+00 0. -1.
       -3    1    3    3    0  502  0.13064393671E+03  0.19830935916E+03  0.63593936465E+02  0.24584271209E+03  0.10100000352E+00 0.  1.
</event>
<event>
 5   0  0.3187123E-01  0.5046927E+03  0.7818609E-02  0.1012561E+00
        2   -1    0    0  501    0  0.00000000000E+00  0.00000000000E+00  0.16667404647E+03  0.16667404649E+03  0.25500000920E-02 0. -1.
       -2   -1    0    0    0  501  0.00000000000E+00  0.00000000000E+00 -0.38205516394E+03  0.38205516395E+03  0.25500000920E-02 0.  1.
    10030    2    1    2    0    0  0.00000000000E+00  0.00000000000E+00 -0.21538111747E+03  0.54872921044E+03  0.50469269920E+03 0.  0.
        5    1    3    3  502    0 -0.12563766972E+03  0.21493962830E+03 -0.63223031525E+02  0.25691070351E+03  0.46999998093E+01 0. -1.
       -5    1    3    3    0  502  0.12563766972E+03 -0.21493962830E+03 -0.15215808595E+03  0.29181850692E+03  0.46999998093E+01 0.  1.
</event>
<event>
 5   0  0.2013450E-01  0.4980127E+03  0.7818609E-02  0.1014299E+00
        1   -1    0    0  501    0  0.00000000000E+00  0.00000000000E+00  0.95377663050E+02  0.95377663183E+02  0.50400001928E-02 0.  1.
       -1   -1    0    0    0  501  0.00000000000E+00  0.00000000000E+00 -0.65009100221E+03  0.65009100223E+03  0.50400001928E-02 0. -1.
    10030    2    1    2    0    0  0.00000000000E+00  0.00000000000E+00 -0.55471333916E+03  0.74546866542E+03  0.49801269308E+03 0.  0.
        4    1    3    3  502    0 -0.86033914281E+02 -0.23349242366E+03 -0.26380166611E+03  0.36264787088E+03  0.12699999809E+01 0. -1.
       -4    1    3    3    0  502  0.86033914281E+02  0.23349242366E+03 -0.29091167306E+03  0.38282079454E+03  0.12699999809E+01 0.  1.
</event>
<event>
 5   0  0.1292375E-01  0.4912921E+03  0.7818609E-02  0.1016077E+00
       -4   -1    0    0    0  501  0.00000000000E+00  0.00000000000E+00  0.35525050235E+03  0.35525277243E+03  0.12699999809E+01 0.  1.
        4   -1    0    0  501    0  0.00000000000E+00  0.00000000000E+00 -0.16985240205E+03  0.16985714993E+03  0.12699999809E+01 0. -1.
    10030    2    1    2    0    0  0.00000000000E+00  0.00000000000E+00  0.18539810030E+03  0.52510992236E+03  0.49129214829E+03 0.  0.
        5    1    3    3  502    0 -0.20422251051E+03 -0.43211090898E+02  0.23101245719E+03  0.31138862785E+03  0.46999998093E+01 0.  1.
       -5    1    3    3    0  502  0.20422251051E+03  0.43211090898E+02 -0.45614356895E+02  0.21372129451E+03  0.46999998093E+01 0. -1.
</event>
<event>
 5   0  0.3117389E-01  0.4991380E+03  0.7818609E-02  0.1014004E+00
        2   -1    0    0  501    0  0.00000000000E+00  0.00000000000E+00  0.86659204102E+03  0.86659204102E+03  0.25500000920E-02 0. -1.
       -2   -1    0    0    0  501  0.00000000000E+00  0.00000000000E+00 -0.71873147454E+02  0.71873147499E+02  0.25500000920E-02 0.  1.
    10030    2    1    2    0    0  0.00000000000E+00  0.00000000000E+00  0.79471889356E+03  0.93846518852E+03  0.49913804731E+03 0.  0.
        4    1    3    3  502    0 -0.11991875729E+03  0.21879904550E+03  0.40758073647E+03  0.47788827178E+03  0.12699999809E+01 0.  1.
       -4    1    3    3    0  502  0.11991875729E+03 -0.21879904550E+03  0.38713815709E+03  0.46057691674E+03  0.12699999809E+01 0. -1.
</event>
<event>
 5   0  0.3117389E-01  0.4788831E+03  0.7818609E-02  0.1019443E+00
       -2   -1    0    0    0  501  0.00000000000E+00  0.00000000000E+00  0.37055640253E+02  0.37055640341E+02  0.25500000920E-02 0.  1.
        2   -1    0    0  501    0  0.00000000000E+00  0.00000000000E+00 -0.15471935395E+04  0.15471935395E+04  0.25500000920E-02 0. -1.
    10030    2    1    2    0    0  0.00000000000E+00  0.00000000000E+00 -0.15101378993E+04  0.15842491799E+04  0.47888306412E+03 0.  0.
        4    1    3    3  502    0  0.10492893070E+03 -0.31218158355E+02 -0.50597477362E+02  0.12060833936E+03  0.12699999809E+01 0.  1.
       -4    1    3    3    0  502 -0.10492893070E+03  0.31218158355E+02 -0.14595404219E+04  0.14636408405E+04  0.12699999809E+01 0. -1.
</event>
<event>
 5   0  0.3329246E-01  0.5163295E+03  0.7818609E-02  0.1009602E+00
        2   -1    0    0  501    0  0.00000000000E+00  0.00000000000E+00  0.16486510624E+04  0.16486510624E+04  0.25500000920E-02 0.  1.
       -2   -1    0    0    0  501  0.00000000000E+00  0.00000000000E+00 -0.40426413245E+02  0.40426413325E+02  0.25500000920E-02 0. -1.
    10030    2    1    2    0    0  0.00000000000E+00  0.00000000000E+00  0.16082246492E+04  0.16890774758E+04  0.51632954289E+03 0.  0.
        2    1    3    3  502    0  0.18387494963E+03 -0.19822842777E+02  0.21485648680E+03  0.28348942154E+03  0.25500000920E-02 0. -1.
       -2    1    3    3    0  502 -0.18387494963E+03  0.19822842777E+02  0.13933681624E+04  0.14055880542E+04  0.25500000920E-02 0.  1.
</event>
<event>
 5   0  0.3111146E-01  0.4927933E+03  0.7818609E-02  0.1015677E+00
       -2   -1    0    0    0  501  0.00000000000E+00  0.00000000000E+00  0.12875482951E+03  0.12875482953E+03  0.25500000920E-02 0. -1.
        2   -1    0    0  501    0  0.00000000000E+00  0.00000000000E+00 -0.47152637408E+03  0.47152637408E+03  0.25500000920E-02 0.  1.
    10030    2    1    2    0    0  0.00000000000E+00  0.00000000000E+00 -0.34277154457E+03  0.60028120361E+03  0.49279325447E+03 0.  0.
        1    1    3    3  502    0 -0.13973260765E+03 -0.78750008175E+02 -0.39922475213E+03  0.43024082577E+03  0.50400001928E-02 0.  1.
       -1    1    3    3    0  502  0.13973260765E+03  0.78750008175E+02  0.56453207558E+02  0.17004037784E+03  0.50400001928E-02 0. -1.
</event>
<event>
 5   0  0.3117389E-01  0.5088220E+03  0.7818609E-02  0.1011502E+00
        2   -1    0    0  501    0  0.00000000000E+00  0.00000000000E+00  0.24507501661E+03  0.24507501663E+03  0.25500000920E-02 0. -1.
       -2   -1    0    0    0  501  0.00000000000E+00  0.00000000000E+00 -0.26410267869E+03  0.26410267871E+03  0.25500000920E-02 0.  1.
    10030    2    1    2    0    0  0.00000000000E+00  0.00000000000E+00 -0.19027662079E+02  0.50917769533E+03  0.50882204502E+03 0.  0.
        4    1    3    3  502    0  0.18016949222E+03 -0.17611944896E+03  0.25784741673E+02  0.25326976138E+03  0.12699999809E+01 0. -1.
       -4    1    3    3    0  502 -0.18016949222E+03  0.17611944896E+03 -0.44812403752E+02  0.25590793395E+03  0.12699999809E+01 0.  1.
</event>
<event>
 5   0  0.3178149E-01  0.4881473E+03  0.7818609E-02  0.1016920E+00
       -2   -1    0    0    0  501  0.00000000000E+00  0.00000000000E+00  0.15304921786E+03  0.15304921788E+03  0.25500000920E-02 0.  1.
        2   -1    0    0  501    0  0.00000000000E+00  0.00000000000E+00 -0.38923392766E+03  0.38923392767E+03  0.25500000920E-02 0. -1.
    10030    2    1    2    0    0  0.00000000000E+00  0.00000000000E+00 -0.23618470980E+03  0.54228314555E+03  0.48814730645E+03 0.  0.
        3    1    3    3  502    0  0.25496738226E+02  0.10123465560E+03  0.12699507986E+03  0.16439677510E+03  0.10100000352E+00 0.  1.
       -3    1    3    3    0  502 -0.25496738226E+02 -0.10123465560E+03 -0.36317978966E+03  0.37788637045E+03  0.10100000352E+00 0. -1.
</event>
<event>
 5   0  0.1292375E-01  0.4996884E+03  0.7818609E-02  0.1013860E+00
        3   -1    0    0  501    0  0.00000000000E+00  0.00000000000E+00  0.77885516598E+03  0.77885517253E+03  0.10100000352E+00 0. -1.
       -3   -1    0    0    0  501  0.00000000000E+00  0.00000000000E+00 -0.80145969308E+02  0.80146032948E+02  0.10100000352E+00 0.  1.
    10030    2    1    2    0    0  0.00000000000E+00  0.00000000000E+00  0.69870919667E+03  0.85900120548E+03  0.49968843242E+03 0.  0.
        1    1    3    3  502    0  0.39460550634E+02  0.18111785959E+03  0.63732543748E+03  0.66373528414E+03  0.50400001928E-02 0. -1.
       -1    1    3    3    0  502 -0.39460550634E+02 -0.18111785959E+03  0.61383759188E+02  0.19526592134E+03  0.50400001928E-02 0.  1.
</event>
<event>
 5   0  0.1967161E-01  0.4963926E+03  0.7818609E-02  0.1014725E+00
        1   -1    0    0  501    0  0.00000000000E+00  0.00000000000E+00  0.60836483845E+03  0.60836483847E+03  0.50400001928E-02 0. -1.
       -1   -1    0    0    0  501  0.00000000000E+00  0.00000000000E+00 -0.10125731960E+03  0.10125731972E+03  0.50400001928E-02 0.  1.
    10030    2    1    2    0    0  0.00000000000E+00  0.00000000000E+00  0.50710751886E+03  0.70962215819E+03  0.49639255808E+03 0.  0.
        1    1    3    3  502    0  0.21423798589E+03 -0.41953748170E+01  0.43259633250E+03  0.48275780956E+03  0.50400001928E-02 0. -1.
       -1    1    3    3    0  502 -0.21423798589E+03  0.41953748170E+01  0.74511186354E+02  0.22686434864E+03  0.50400001928E-02 0.  1.
</event>
<event>
 5   0  0.1967161E-01  0.5021427E+03  0.7818609E-02  0.1013221E+00
       -1   -1    0    0    0  501  0.00000000000E+00  0.00000000000E+00  0.36186549730E+03  0.36186549733E+03  0.50400001928E-02 0.  1.
        1   -1    0    0  501    0  0.00000000000E+00  0.00000000000E+00 -0.17419960183E+03  0.17419960190E+03  0.50400001928E-02 0. -1.
    10030    2    1    2    0    0  0.00000000000E+00  0.00000000000E+00  0.18766589547E+03  0.53606509923E+03  0.50214271108E+03 0.  0.
        1    1    3    3  502    0 -0.10901081552E+03 -0.16398942849E+03  0.26011452571E+03  0.32624447439E+03  0.50400001928E-02 0.  1.
       -1    1    3    3    0  502  0.10901081552E+03  0.16398942849E+03 -0.72448630242E+02  0.20982062484E+03  0.50400001928E-02 0. -1.
</event>
<event>
 5   0  0.2013450E-01  0.5306392E+03  0.7818609E-02  0.1006077E+00
        1   -1    0    0  501    0  0.00000000000E+00  0.00000000000E+00  0.43920464608E+03  0.43920464611E+03  0.50400001928E-02 0. -1.
       -1   -1    0    0    0  501  0.00000000000E+00  0.00000000000E+00 -0.16027716862E+03  0.16027716869E+03  0.50400001928E-02 0.  1.
    10030    2    1    2    0    0  0.00000000000E+00  0.00000000000E+00  0.27892747747E+03  0.59948181480E+03  0.53063915102E+03 0.  0.
        4    1    3    3  502    0 -0.12600417320E+03 -0.15482463457E+03  0.33690950249E+03  0.39160866296E+03  0.12699999809E+01 0. -1.
       -4    1    3    3    0  502  0.12600417320E+03  0.15482463457E+03 -0.57982025028E+02  0.20787315185E+03  0.12699999809E+01 0.  1.
</event>
<event>
 5   0  0.1967161E-01  0.5060882E+03  0.7818609E-02  0.1012202E+00
        1   -1    0    0  501    0  0.00000000000E+00  0.00000000000E+00  0.35813818555E+03  0.35813818558E+03  0.50400001928E-02 0.  1.
       -1   -1    0    0    0  501  0.00000000000E+00  0.00000000000E+00 -0.17878941900E+03  0.17878941907E+03  0.50400001928E-02 0. -1.
    10030    2    1    2    0    0  0.00000000000E+00  0.00000000000E+00  0.17934876655E+03  0.53692760465E+03  0.50608820632E+03 0.  0.
        1    1    3    3  502    0 -0.10885291352E+03 -0.66121323651E+02 -0.14230553712E+03  0.19097605123E+03  0.50400001928E-02 0. -1.
       -1    1    3    3    0  502  0.10885291352E+03  0.66121323651E+02  0.32165430367E+03  0.34595155342E+03  0.50400001928E-02 0.  1.
</event>
<event>
 5   0  0.3111146E-01  0.4979134E+03  0.7818609E-02  0.1014325E+00
       -2   -1    0    0    0  501  0.00000000000E+00  0.00000000000E+00  0.48077521429E+02  0.48077521497E+02  0.25500000920E-02 0. -1.
        2   -1    0    0  501    0  0.00000000000E+00  0.00000000000E+00 -0.12891561187E+04  0.12891561187E+04  0.25500000920E-02 0.  1.
    10030    2    1    2    0    0  0.00000000000E+00  0.00000000000E+00 -0.12410785973E+04  0.13372336402E+04  0.49791336985E+03 0.  0.
        1    1    3    3  502    0  0.80552729330E+02  0.39449180595E+02 -0.12442549412E+04  0.12474836026E+04  0.50400001928E-02 0.  1.
       -1    1    3    3    0  502 -0.80552729330E+02 -0.39449180595E+02  0.31763439789E+01  0.89750037540E+02  0.50400001928E-02 0. -1.
</event>
<event>
 5   0  0.3117389E-01  0.5079453E+03  0.7818609E-02  0.1011726E+00
       -2   -1    0    0    0  501  0.00000000000E+00  0.00000000000E+00  0.93449338641E+02  0.93449338675E+02  0.25500000920E-02 0.  1.
        2   -1    0    0  501    0  0.00000000000E+00  0.00000000000E+00 -0.69023602737E+03  0.69023602737E+03  0.25500000920E-02 0. -1.
    10030    2    1    2    0    0  0.00000000000E+00  0.00000000000E+00 -0.59678668872E+03  0.78368536605E+03  0.50794527374E+03 0.  0.
        4    1    3    3  502    0 -0.62853127223E+01  0.54948392884E+02  0.84040457453E+02  0.10061432515E+03  0.12699999809E+01 0.  1.
       -4    1    3    3    0  502  0.62853127223E+01 -0.54948392884E+02 -0.68082714618E+03  0.68307104090E+03  0.12699999809E+01 0. -1.
</event>
<event>
 5   0  0.3329246E-01  0.4250808E+03  0.7818609E-02  0.1035425E+00
       -2   -1    0    0    0  501  0.00000000000E+00  0.00000000000E+00  0.59474714298E+03  0.59474714299E+03  0.25500000920E-02 0.  1.
        2   -1    0    0  501    0  0.00000000000E+00  0.00000000000E+00 -0.75953999697E+02  0.75953999739E+02  0.25500000920E-02 0. -1.
    10030    2    1    2    0    0  0.00000000000E+00  0.00000000000E+00  0.51879314328E+03  0.67070114273E+03  0.42508081271E+03 0.  0.
        2    1    3    3  502    0 -0.14419779544E+03  0.15532471423E+03  0.28457520603E+03  0.35482646315E+03  0.25500000920E-02 0.  1.
       -2    1    3    3    0  502  0.14419779544E+03 -0.15532471423E+03  0.23421793726E+03  0.31587467958E+03  0.25500000920E-02 0. -1.
</event>
<event>
 5   0  0.1984680E-01  0.4963276E+03  0.7818609E-02  0.1014742E+00
        1   -1    0    0  501    0  0.00000000000E+00  0.00000000000E+00  0.65406582509E+03  0.65406582511E+03  0.50400001928E-02 0. -1.
       -1   -1    0    0    0  501  0.00000000000E+00  0.00000000000E+00 -0.94157616571E+02  0.94157616706E+02  0.50400001928E-02 0.  1.
    10030    2    1    2    0    0  0.00000000000E+00  0.00000000000E+00  0.55990820852E+03  0.74822344181E+03  0.49632763062E+03 0.  0.
        5    1    3    3  502    0 -0.13232852707E+03 -0.69162718155E+02  0.57868975345E+03  0.59766064067E+03  0.46999998093E+01 0. -1.
       -5    1    3    3    0  502  0.13232852707E+03  0.69162718155E+02 -0.18781544938E+02  0.15056280114E+03  0.46999998093E+01 0.  1.
</event>
<event>
 5   0  0.1984297E-01  0.4886440E+03  0.7818609E-02  0.1016786E+00
        1   -1    0    0  501    0  0.00000000000E+00  0.00000000000E+00  0.18114169273E+03  0.18114169280E+03  0.50400001928E-02 0.  1.
       -1   -1    0    0    0  501  0.00000000000E+00  0.00000000000E+00 -0.32953887777E+03  0.32953887781E+03  0.50400001928E-02 0. -1.
    10030    2    1    2    0    0  0.00000000000E+00  0.00000000000E+00 -0.14839718504E+03  0.51068057061E+03  0.48864396105E+03 0.  0.
        3    1    3    3  502    0  0.18350909649E+02 -0.11964960346E+03 -0.29599683185E+03  0.31979199202E+03  0.10100000352E+00 0. -1.
       -3    1    3    3    0  502 -0.18350909649E+02  0.11964960346E+03  0.14759964682E+03  0.19088857859E+03  0.10100000352E+00 0.  1.
</event>
<event>
 5   0  0.3111146E-01  0.5211040E+03  0.7818609E-02  0.1008413E+00
       -2   -1    0    0    0  501  0.00000000000E+00  0.00000000000E+00  0.21941463733E+03  0.21941463734E+03  0.25500000920E-02 0.  1.
        2   -1    0    0  501    0  0.00000000000E+00  0.00000000000E+00 -0.30940203110E+03  0.30940203111E+03  0.25500000920E-02 0. -1.
    10030    2    1    2    0    0  0.00000000000E+00  0.00000000000E+00 -0.89987393772E+02  0.52881666846E+03  0.52110396064E+03 0.  0.
        1    1    3    3  502    0  0.19308861401E+03 -0.11863867121E+03 -0.17546166061E+03  0.28660973734E+03  0.50400001928E-02 0. -1.
       -1    1    3    3    0  502 -0.19308861401E+03  0.11863867121E+03  0.85474266840E+02  0.24220693112E+03  0.50400001928E-02 0.  1.
</event>
<event>
 5   0  0.2013450E-01  0.5067634E+03  0.7818609E-02  0.1012029E+00
        1   -1    0    0  501    0  0.00000000000E+00  0.00000000000E+00  0.73454132391E+03  0.73454132393E+03  0.50400001928E-02 0.  1.
       -1   -1    0    0    0  501  0.00000000000E+00  0.00000000000E+00 -0.87404584023E+02  0.87404584168E+02  0.50400001928E-02 0. -1.
    10030    2    1    2    0    0  0.00000000000E+00  0.00000000000E+00  0.64713673989E+03  0.82194590810E+03  0.50676337252E+03 0.  0.
        4    1    3    3  502    0  0.81009558892E+01  0.17889772178E+03  0.61430365735E+03  0.63987546966E+03  0.12699999809E+01 0.  1.
       -4    1    3    3    0  502 -0.81009558892E+01 -0.17889772178E+03  0.32833082540E+02  0.18207043844E+03  0.12699999809E+01 0. -1.
</event>
<event>
 5   0  0.1967161E-01  0.4969883E+03  0.7818609E-02  0.1014568E+00
        1   -1    0    0  501    0  0.00000000000E+00  0.00000000000E+00  0.96150922658E+03  0.96150922659E+03  0.50400001928E-02 0.  1.
       -1   -1    0    0    0  501  0.00000000000E+00  0.00000000000E+00 -0.64221267800E+02  0.64221267998E+02  0.50400001928E-02 0. -1.
    10030    2    1    2    0    0  0.00000000000E+00  0.00000000000E+00  0.89728795878E+03  0.10257304946E+04  0.49698829620E+03 0.  0.
        1    1    3    3  502    0  0.80764155034E+02 -0.21674724663E+03  0.26121429809E+03  0.34890561362E+03  0.50400001928E-02 0.  1.
       -1    1    3    3    0  502 -0.80764155034E+02  0.21674724663E+03  0.63607366069E+03  0.67682488097E+03  0.50400001928E-02 0. -1.
</event>
<event>
 5   0  0.1967161E-01  0.5018919E+03  0.7818609E-02  0.1013286E+00
       -1   -1    0    0    0  501  0.00000000000E+00  0.00000000000E+00  0.50829211490E+03  0.50829211493E+03  0.50400001928E-02 0. -1.
        1   -1    0    0  501    0  0.00000000000E+00  0.00000000000E+00 -0.12389306431E+03  0.12389306441E+03  0.50400001928E-02 0.  1.
    10030    2    1    2    0    0  0.00000000000E+00  0.00000000000E+00  0.38439905059E+03  0.63218517933E+03  0.50189189162E+03 0.  0.
        1    1    3    3  502    0 -0.92784814625E+01 -0.18380781721E+03 -0.22681966152E+02  0.18543428890E+03  0.50400001928E-02 0.  1.
       -1    1    3    3    0  502  0.92784814625E+01  0.18380781721E+03  0.40708101675E+03  0.44675089044E+03  0.50400001928E-02 0. -1.
</event>
<event>
 5   0  0.1292375E-01  0.5080635E+03  0.7818609E-02  0.1011695E+00
       -3   -1    0    0    0  501  0.00000000000E+00  0.00000000000E+00  0.17834060018E+03  0.17834062878E+03  0.10100000352E+00 0.  1.
        3   -1    0    0  501    0  0.00000000000E+00  0.00000000000E+00 -0.36184766555E+03  0.36184767964E+03  0.10100000352E+00 0. -1.
    10030    2    1    2    0    0  0.00000000000E+00  0.00000000000E+00 -0.18350706537E+03  0.54018830842E+03  0.50806354476E+03 0.  0.
        4    1    3    3  502    0  0.10372821831E+03 -0.21380748957E+03 -0.18719191331E+03  0.30251547263E+03  0.12699999809E+01 0.  1.
       -4    1    3    3    0  502 -0.10372821831E+03  0.21380748957E+03  0.36848479418E+01  0.23767283579E+03  0.12699999809E+01 0. -1.
</event>
<event>
 5   0  0.1984680E-01  0.4838007E+03  0.7818609E-02  0.1018096E+00
        1   -1    0    0  501    0  0.00000000000E+00  0.00000000000E+00  0.14391286308E+04  0.14391286308E+04  0.50400001928E-02 0. -1.
       -1   -1    0    0    0  501  0.00000000000E+00  0.00000000000E+00 -0.40660561685E+02  0.40660561998E+02  0.50400001928E-02 0.  1.
    10030    2    1    2    0    0  0.00000000000E+00  0.00000000000E+00  0.13984680691E+04  0.14797891928E+04  0.48380069740E+03 0.  0.
        5    1    3    3  502    0 -0.87450511855E+02  0.18137958774E+03  0.28946810252E+03  0.35264715970E+03  0.46999998093E+01 0.  1.
       -5    1    3    3    0  502  0.87450511855E+02 -0.18137958774E+03  0.11089999666E+04  0.11271420331E+04  0.46999998093E+01 0. -1.
</event>
<event>
 5   0  0.1984297E-01  0.5005847E+03  0.7818609E-02  0.1013626E+00
        1   -1    0    0  501    0  0.00000000000E+00  0.00000000000E+00  0.12054094284E+03  0.12054094295E+03  0.50400001928E-02 0.  1.
       -1   -1    0    0    0  501  0.00000000000E+00  0.00000000000E+00 -0.51970937738E+03  0.51970937740E+03  0.50400001928E-02 0. -1.
    10030    2    1    2    0    0  0.00000000000E+00  0.00000000000E+00 -0.39916843453E+03  0.64025032035E+03  0.50058469171E+03 0.  0.
        3    1    3    3  502    0  0.20016741796E+03  0.44333946450E+02 -0.38321724138E+03  0.43461242310E+03  0.10100000352E+00 0. -1.
       -3    1    3    3    0  502 -0.20016741796E+03 -0.44333946450E+02 -0.15951193156E+02  0.20563789725E+03  0.10100000352E+00 0.  1.
</event>
<event>
 5   0  0.3117389E-01  0.4980574E+03  0.7818609E-02  0.1014287E+00
       -2   -1    0    0    0  501  0.00000000000E+00  0.00000000000E+00  0.89589485638E+02  0.89589485674E+02  0.25500000920E-02 0. -1.
        2   -1    0    0  501    0  0.00000000000E+00  0.00000000000E+00 -0.69221632668E+03  0.69221632669E+03  0.25500000920E-02 0.  1.
    10030    2    1    2    0    0  0.00000000000E+00  0.00000000000E+00 -0.60262684104E+03  0.78180581236E+03  0.49805744518E+03 0.  0.
        4    1    3    3  502    0 -0.77188211263E+02  0.21917556872E+02 -0.67136335957E+03  0.67614256834E+03  0.12699999809E+01 0.  1.
       -4    1    3    3    0  502  0.77188211263E+02 -0.21917556872E+02  0.68736518524E+02  0.10566324402E+03  0.12699999809E+01 0. -1.
</event>
<event>
 5   0  0.3111146E-01  0.5267508E+03  0.7818609E-02  0.1007023E+00
       -2   -1    0    0    0  501  0.00000000000E+00  0.00000000000E+00  0.51121103150E+03  0.51121103151E+03  0.25500000920E-02 0.  1.
        2   -1    0    0  501    0  0.00000000000E+00  0.00000000000E+00 -0.13569073280E+03  0.13569073283E+03  0.25500000920E-02 0. -1.
    10030    2    1    2    0    0  0.00000000000E+00  0.00000000000E+00  0.37552029870E+03  0.64690176434E+03  0.52675079304E+03 0.  0.
        1    1    3    3  502    0 -0.78416890339E+02 -0.48309997930E+02  0.49078836409E+03  0.49935586804E+03  0.50400001928E-02 0.  1.
       -1    1    3    3    0  502  0.78416890339E+02  0.48309997930E+02 -0.11526806539E+03  0.14754589630E+03  0.50400001928E-02 0. -1.
</event>
<event>
 5   0  0.2013450E-01  0.4783733E+03  0.7818609E-02  0.1019583E+00
        1   -1    0    0  501    0  0.00000000000E+00  0.00000000000E+00  0.19416074579E+03  0.19416074585E+03  0.50400001928E-02 0.  1.
       -1   -1    0    0    0  501  0.00000000000E+00  0.00000000000E+00 -0.29465411273E+03  0.29465411277E+03  0.50400001928E-02 0. -1.
    10030    2    1    2    0    0  0.00000000000E+00  0.00000000000E+00 -0.10049336695E+03  0.48881485863E+03  0.47837333665E+03 0.  0.
        4    1    3    3  502    0 -0.12538656330E+03 -0.84144120337E+02 -0.23978563679E+03  0.28337393626E+03  0.12699999809E+01 0. -1.
       -4    1    3    3    0  502  0.12538656330E+03  0.84144120337E+02  0.13929226984E+03  0.20544092236E+03  0.12699999809E+01 0.  1.
</event>
<event>
 5   0  0.3187123E-01  0.3912592E+03  0.7818609E-02  0.1046849E+00
       -2   -1    0    0    0  501  0.00000000000E+00  0.00000000000E+00  0.68879633764E+02  0.68879633811E+02  0.25500000920E-02 0. -1.
        2   -1    0    0  501    0  0.00000000000E+00  0.00000000000E+00 -0.55562059196E+03  0.55562059197E+03  0.25500000920E-02 0.  1.
    10030    2    1    2    0    0  0.00000000000E+00  0.00000000000E+00 -0.48674095820E+03  0.62450022578E+03  0.39125921281E+03 0.  0.
        5    1    3    3  502    0  0.17386414053E+03  0.89407792120E+02 -0.25156536261E+03  0.31863727704E+03  0.46999998093E+01 0.  1.
       -5    1    3    3    0  502 -0.17386414053E+03 -0.89407792120E+02 -0.23517559559E+03  0.30586294874E+03  0.46999998093E+01 0. -1.
</event>
<event>
 5   0  0.2000612E-01  0.4885508E+03  0.7818609E-02  0.1016811E+00
        1   -1    0    0  501    0  0.00000000000E+00  0.00000000000E+00  0.43759451267E+03  0.43759451269E+03  0.50400001928E-02 0.  1.
       -1   -1    0    0    0  501  0.00000000000E+00  0.00000000000E+00 -0.13636016587E+03  0.13636016596E+03  0.50400001928E-02 0. -1.
    10030    2    1    2    0    0  0.00000000000E+00  0.00000000000E+00  0.30123434680E+03  0.57395467866E+03  0.48855075628E+03 0.  0.
        2    1    3    3  502    0  0.14659852273E+03 -0.99166320893E+02 -0.47174957153E+02  0.18316812675E+03  0.25500000920E-02 0. -1.
       -2    1    3    3    0  502 -0.14659852273E+03  0.99166320893E+02  0.34840930395E+03  0.39078655191E+03  0.25500000920E-02 0.  1.
</event>
<event>
 5   0  0.1967161E-01  0.5048181E+03  0.7818609E-02  0.1012529E+00
        1   -1    0    0  501    0  0.00000000000E+00  0.00000000000E+00  0.30883229372E+03  0.30883229377E+03  0.50400001928E-02 0. -1.
       -1   -1    0    0    0  501  0.00000000000E+00  0.00000000000E+00 -0.20629424981E+03  0.20629424987E+03  0.50400001928E-02 0.  1.
    10030    2    1    2    0    0  0.00000000000E+00  0.00000000000E+00  0.10253804392E+03  0.51512654364E+03  0.50481809150E+03 0.  0.
        1    1    3    3  502    0  0.23271198728E+03 -0.96533420182E+02  0.66970105367E+02  0.26068863664E+03  0.50400001928E-02 0. -1.
       -1    1    3    3    0  502 -0.23271198728E+03  0.96533420182E+02  0.35567938548E+02  0.25443790699E+03  0.50400001928E-02 0.  1.
</event>
<event>
 5   0  0.1967161E-01  0.5195119E+03  0.7818609E-02  0.1008808E+00
        1   -1    0    0  501    0  0.00000000000E+00  0.00000000000E+00  0.41748593069E+03  0.41748593072E+03  0.50400001928E-02 0.  1.
       -1   -1    0    0    0  501  0.00000000000E+00  0.00000000000E+00 -0.16161780258E+03  0.16161780266E+03  0.50400001928E-02 0. -1.
    10030    2    1    2    0    0  0.00000000000E+00  0.00000000000E+00  0.25586812811E+03  0.57910373337E+03  0.51951192000E+03 0.  0.
        1    1    3    3  502    0  0.52369160338E+02 -0.66680089858E+02  0.40162682007E+03  0.41047882523E+03  0.50400001928E-02 0.  1.
       -1    1    3    3    0  502 -0.52369160338E+02  0.66680089858E+02 -0.14575869196E+03  0.16862490814E+03  0.50400001928E-02 0. -1.
</event>
<event>
 5   0  0.1984297E-01  0.5028346E+03  0.7818609E-02  0.1013042E+00
        1   -1    0    0  501    0  0.00000000000E+00  0.00000000000E+00  0.12020518516E+03  0.12020518526E+03  0.50400001928E-02 0. -1.
       -1   -1    0    0    0  501  0.00000000000E+00  0.00000000000E+00 -0.52585640310E+03  0.52585640312E+03  0.50400001928E-02 0.  1.
    10030    2    1    2    0    0  0.00000000000E+00  0.00000000000E+00 -0.40565121794E+03  0.64606158839E+03  0.50283463024E+03 0.  0.
        3    1    3    3  502    0 -0.75535418014E+02  0.98402864704E+01 -0.51067323046E+03  0.51632314409E+03  0.10100000352E+00 0.  1.
       -3    1    3    3    0  502  0.75535418014E+02 -0.98402864704E+01  0.10502201252E+03  0.12973844429E+03  0.10100000352E+00 0. -1.
</event>
<event>
 5   0  0.3187123E-01  0.5051907E+03  0.7818609E-02  0.1012433E+00
        2   -1    0    0  501    0  0.00000000000E+00  0.00000000000E+00  0.42390152007E+03  0.42390152008E+03  0.25500000920E-02 0.  1.
       -2   -1    0    0    0  501  0.00000000000E+00  0.00000000000E+00 -0.15051706247E+03  0.15051706249E+03  0.25500000920E-02 0. -1.
    10030    2    1    2    0    0  0.00000000000E+00  0.00000000000E+00  0.27338445760E+03  0.57441858257E+03  0.50519070295E+03 0.  0.
        5    1    3    3  502    0 -0.58395035579E+02 -0.19723126135E+02 -0.14178420749E+03  0.15467331178E+03  0.46999998093E+01 0. -1.
       -5    1    3    3    0  502  0.58395035579E+02  0.19723126135E+02  0.41516866509E+03  0.41974527079E+03  0.46999998093E+01 0.  1.
</event>
<event>
 5   0  0.3111146E-01  0.4917141E+03  0.7818609E-02  0.1015965E+00
       -2   -1    0    0    0  501  0.00000000000E+00  0.00000000000E+00  0.59553716472E+02  0.59553716526E+02  0.25500000920E-02 0.  1.
        2   -1    0    0  501    0  0.00000000000E+00  0.00000000000E+00 -0.10149777756E+04  0.10149777756E+04  0.25500000920E-02 0. -1.
    10030    2    1    2    0    0  0.00000000000E+00  0.00000000000E+00 -0.95542405917E+03  0.10745314922E+04  0.49171413934E+03 0.  0.
        1    1    3    3  502    0 -0.12019421994E+03  0.15494292013E+03 -0.15364395819E+03  0.24911929856E+03  0.50400001928E-02 0.  1.
       -1    1    3    3    0  502  0.12019421994E+03 -0.15494292013E+03 -0.80178010098E+03  0.82541219361E+03  0.50400001928E-02 0. -1.
</event>
<event>
 5   0  0.2013450E-01  0.4907710E+03  0.7818609E-02  0.1016216E+00
       -1   -1    0    0    0  501  0.00000000000E+00  0.00000000000E+00  0.64076049806E+02  0.64076050005E+02  0.50400001928E-02 0. -1.
        1   -1    0    0  501    0  0.00000000000E+00  0.00000000000E+00 -0.93972772624E+03  0.93972772626E+03  0.50400001928E-02 0.  1.
    10030    2    1    2    0    0  0.00000000000E+00  0.00000000000E+00 -0.87565167644E+03  0.10038037763E+04  0.49077098813E+03 0.  0.
        4    1    3    3  502    0 -0.28020371134E+02  0.22697740433E+03 -0.25593190020E+03  0.34322970984E+03  0.12699999809E+01 0.  1.
       -4    1    3    3    0  502  0.28020371134E+02 -0.22697740433E+03 -0.61971977624E+03  0.66057406642E+03  0.12699999809E+01 0. -1.
</event>
<event>
 5   0  0.1984297E-01  0.5057674E+03  0.7818609E-02  0.1012284E+00
        1   -1    0    0  501    0  0.00000000000E+00  0.00000000000E+00  0.25071181305E+03  0.25071181310E+03  0.50400001928E-02 0.  1.
       -1   -1    0    0    0  501  0.00000000000E+00  0.00000000000E+00 -0.25507440592E+03  0.25507440597E+03  0.50400001928E-02 0. -1.
    10030    2    1    2    0    0  0.00000000000E+00  0.00000000000E+00 -0.43625928685E+01  0.50578621907E+03  0.50576740423E+03 0.  0.
        3    1    3    3  502    0  0.70942629385E+02  0.44323063029E+02 -0.24083796080E+03  0.25495161137E+03  0.10100000352E+00 0. -1.
       -3    1    3    3    0  502 -0.70942629385E+02 -0.44323063029E+02  0.23647536793E+03  0.25083460769E+03  0.10100000352E+00 0.  1.
</event>
<event>
 5   0  0.3187123E-01  0.5001130E+03  0.7818609E-02  0.1013749E+00
       -2   -1    0    0    0  501  0.00000000000E+00  0.00000000000E+00  0.15764484885E+03  0.15764484887E+03  0.25500000920E-02 0. -1.
        2   -1    0    0  501    0  0.00000000000E+00  0.00000000000E+00 -0.39663993689E+03  0.39663993690E+03  0.25500000920E-02 0.  1.
    10030    2    1    2    0    0  0.00000000000E+00  0.00000000000E+00 -0.23899508804E+03  0.55428478577E+03  0.50011295887E+03 0.  0.
        5    1    3    3  502    0 -0.94675622613E+02  0.10587551881E+03  0.10853910466E+03  0.17881813733E+03  0.46999998093E+01 0. -1.
       -5    1    3    3    0  502  0.94675622613E+02 -0.10587551881E+03 -0.34753419270E+03  0.37546664844E+03  0.46999998093E+01 0.  1.
</event>
<event>
 5   0  0.1984297E-01  0.5122687E+03  0.7818609E-02  0.1010625E+00
       -1   -1    0    0    0  501  0.00000000000E+00  0.00000000000E+00  0.47444772944E+03  0.47444772946E+03  0.50400001928E-02 0. -1.
        1   -1    0    0  501    0  0.00000000000E+00  0.00000000000E+00 -0.13827616828E+03  0.13827616837E+03  0.50400001928E-02 0.  1.
    10030    2    1    2    0    0  0.00000000000E+00  0.00000000000E+00  0.33617156116E+03  0.61272389783E+03  0.51226873459E+03 0.  0.
        3    1    3    3  502    0 -0.28244237008E+02 -0.72329276839E+02  0.46003073412E+03  0.46653783099E+03  0.10100000352E+00 0. -1.
       -3    1    3    3    0  502  0.28244237008E+02  0.72329276839E+02 -0.12385917296E+03  0.14618606684E+03  0.10100000352E+00 0.  1.
</event>
<event>
 5   0  0.1967161E-01  0.5114482E+03  0.7818609E-02  0.1010833E+00
       -1   -1    0    0    0  501  0.00000000000E+00  0.00000000000E+00  0.11853741006E+03  0.11853741017E+03  0.50400001928E-02 0.  1.
        1   -1    0    0  501    0  0.00000000000E+00  0.00000000000E+00 -0.55168085011E+03  0.55168085013E+03  0.50400001928E-02 0. -1.
    10030    2    1    2    0    0  0.00000000000E+00  0.00000000000E+00 -0.43314344005E+03  0.67021826030E+03  0.51144821516E+03 0.  0.
        1    1    3    3  502    0  0.15610666591E+03 -0.15264220521E+03 -0.42102606204E+02  0.22235458940E+03  0.50400001928E-02 0.  1.
       -1    1    3    3    0  502 -0.15610666591E+03  0.15264220521E+03 -0.39104083384E+03  0.44786367090E+03  0.50400001928E-02 0. -1.
</event>
<event>
 5   0  0.3117389E-01  0.4949539E+03  0.7818609E-02  0.1015104E+00
        2   -1    0    0  501    0  0.00000000000E+00  0.00000000000E+00  0.21260198796E+03  0.21260198797E+03  0.25500000920E-02 0. -1.
       -2   -1    0    0    0  501  0.00000000000E+00  0.00000000000E+00 -0.28807274931E+03  0.28807274932E+03  0.25500000920E-02 0.  1.
    10030    2    1    2    0    0  0.00000000000E+00  0.00000000000E+00 -0.75470761349E+02  0.50067473729E+03  0.49495389356E+03 0.  0.
        4    1    3    3  502    0  0.18449875066E+03  0.25588264034E+02  0.12708555831E+03  0.22549257257E+03  0.12699999809E+01 0. -1.
       -4    1    3    3    0  502 -0.18449875066E+03 -0.25588264034E+02 -0.20255631966E+03  0.27518216473E+03  0.12699999809E+01 0.  1.
</event>
<event>
 5   0  0.3329246E-01  0.4730006E+03  0.7818609E-02  0.1021077E+00
       -2   -1    0    0    0  501  0.00000000000E+00  0.00000000000E+00  0.67180678620E+02  0.67180678669E+02  0.25500000920E-02 0.  1.
        2   -1    0    0  501    0  0.00000000000E+00  0.00000000000E+00 -0.83256655504E+03  0.83256655504E+03  0.25500000920E-02 0. -1.
    10030    2    1    2    0    0  0.00000000000E+00  0.00000000000E+00 -0.76538587642E+03  0.89974723371E+03  0.47300057585E+03 0.  0.
        2    1    3    3  502    0 -0.92671312910E+02  0.11060917790E+03 -0.26262805760E+02  0.14667002913E+03  0.25500000920E-02 0.  1.
       -2    1    3    3    0  502  0.92671312910E+02 -0.11060917790E+03 -0.73912307066E+03  0.75307720458E+03  0.25500000920E-02 0. -1.
</event>
<event>
 5   0  0.2000612E-01  0.4839728E+03  0.7818609E-02  0.1018049E+00
        1   -1    0    0  501    0  0.00000000000E+00  0.00000000000E+00  0.90536102342E+02  0.90536102482E+02  0.50400001928E-02 0.  1.
       -1   -1    0    0    0  501  0.00000000000E+00  0.00000000000E+00 -0.64678516333E+03  0.64678516335E+03  0.50400001928E-02 0. -1.
    10030    2    1    2    0    0  0.00000000000E+00  0.00000000000E+00 -0.55624906098E+03  0.73732126583E+03  0.48397275873E+03 0.  0.
        2    1    3    3  502    0 -0.35628987686E+02 -0.22438070879E+03 -0.40505200581E+03  0.46441711280E+03  0.25500000920E-02 0. -1.
       -2    1    3    3    0  502  0.35628987686E+02  0.22438070879E+03 -0.15119705517E+03  0.27290415303E+03  0.25500000920E-02 0.  1.
</event>
<event>
 5   0  0.3329246E-01  0.5083509E+03  0.7818609E-02  0.1011622E+00
        2   -1    0    0  501    0  0.00000000000E+00  0.00000000000E+00  0.74578957456E+03  0.74578957456E+03  0.25500000920E-02 0.  1.
       -2   -1    0    0    0  501  0.00000000000E+00  0.00000000000E+00 -0.86626535367E+02  0.86626535405E+02  0.25500000920E-02 0. -1.
    10030    2    1    2    0    0  0.00000000000E+00  0.00000000000E+00  0.65916303919E+03  0.83241610997E+03  0.50835092987E+03 0.  0.
        2    1    3    3  502    0  0.24484218233E+03  0.53392430630E+02  0.39918363023E+03  0.47132368553E+03  0.25500000920E-02 0.  1.
       -2    1    3    3    0  502 -0.24484218233E+03 -0.53392430630E+02  0.25997940897E+03  0.36109242444E+03  0.25500000920E-02 0. -1.
</event>
<event>
 5   0  0.2000612E-01  0.4958131E+03  0.7818609E-02  0.1014878E+00
        1   -1    0    0  501    0  0.00000000000E+00  0.00000000000E+00  0.14713414495E+03  0.14713414504E+03  0.50400001928E-02 0. -1.
       -1   -1    0    0    0  501  0.00000000000E+00  0.00000000000E+00 -0.41769821037E+03  0.41769821040E+03  0.50400001928E-02 0.  1.
    10030    2    1    2    0    0  0.00000000000E+00  0.00000000000E+00 -0.27056406542E+03  0.56483235544E+03  0.49581314652E+03 0.  0.
        2    1    3    3  502    0 -0.10176196320E+02 -0.17553338743E+02  0.14618667219E+03  0.14758800021E+03  0.25500000920E-02 0. -1.
       -2    1    3    3    0  502  0.10176196320E+02  0.17553338743E+02 -0.41675073761E+03  0.41724435524E+03  0.25500000920E-02 0.  1.
</event>
<event>
 5   0  0.1984680E-01  0.5052816E+03  0.7818609E-02  0.1012409E+00
       -1   -1    0    0    0  501  0.00000000000E+00  0.00000000000E+00  0.43774331703E+03  0.43774331706E+03  0.50400001928E-02 0.  1.
        1   -1    0    0  501    0  0.00000000000E+00  0.00000000000E+00 -0.14581007534E+03  0.14581007542E+03  0.50400001928E-02 0. -1.
    10030    2    1    2    0    0  0.00000000000E+00  0.00000000000E+00  0.29193324169E+03  0.58355339248E+03  0.50528164846E+03 0.  0.
        5    1    3    3  502    0  0.16088483773E+03  0.19083892582E+03  0.10120939457E+03  0.26938607642E+03  0.46999998093E+01 0. -1.
       -5    1    3    3    0  502 -0.16088483773E+03 -0.19083892582E+03  0.19072384712E+03  0.31416731606E+03  0.46999998093E+01 0.  1.
</event>
<event>
 5   0  0.1967161E-01  0.4553929E+03  0.7818609E-02  0.1026126E+00
        1   -1    0    0  501    0  0.00000000000E+00  0.00000000000E+00  0.10316288556E+04  0.10316288556E+04  0.50400001928E-02 0. -1.
       -1   -1    0    0    0  501  0.00000000000E+00  0.00000000000E+00 -0.50256132407E+02  0.50256132660E+02  0.50400001928E-02 0.  1.
    10030    2    1    2    0    0  0.00000000000E+00  0.00000000000E+00  0.98137272317E+03  0.10818849882E+04  0.45539291389E+03 0.  0.
        1    1    3    3  502    0 -0.22621305435E+03  0.19503523130E+02  0.53134814909E+03  0.57782660803E+03  0.50400001928E-02 0. -1.
       -1    1    3    3    0  502  0.22621305435E+03 -0.19503523130E+02  0.45002457408E+03  0.50405838022E+03  0.50400001928E-02 0.  1.
</event>
<event>
 5   0  0.3329246E-01  0.5048781E+03  0.7818609E-02  0.1012513E+00
        2   -1    0    0  501    0  0.00000000000E+00  0.00000000000E+00  0.72302691411E+03  0.72302691411E+03  0.25500000920E-02 0.  1.
       -2   -1    0    0    0  501  0.00000000000E+00  0.00000000000E+00 -0.88137059156E+02  0.88137059193E+02  0.25500000920E-02 0. -1.
    10030    2    1    2    0    0  0.00000000000E+00  0.00000000000E+00  0.63488985495E+03  0.81116397330E+03  0.50487806812E+03 0.  0.
        2    1    3    3  502    0  0.15279661844E+03  0.11398196208E+03  0.51560704100E+02  0.19747708855E+03  0.25500000920E-02 0. -1.
       -2    1    3    3    0  502 -0.15279661844E+03 -0.11398196208E+03  0.58332915085E+03  0.61368688476E+03  0.25500000920E-02 0.  1.
</event>
<event>
 5   0  0.3117389E-01  0.5316329E+03  0.7818609E-02  0.1005837E+00
        2   -1    0    0  501    0  0.00000000000E+00  0.00000000000E+00  0.38856098889E+03  0.38856098890E+03  0.25500000920E-02 0. -1.
       -2   -1    0    0    0  501  0.00000000000E+00  0.00000000000E+00 -0.18184631768E+03  0.18184631769E+03  0.25500000920E-02 0.  1.
    10030    2    1    2    0    0  0.00000000000E+00  0.00000000000E+00  0.20671467121E+03  0.57040730659E+03  0.53163289977E+03 0.  0.
        4    1    3    3  502    0  0.28478992188E+02 -0.25345896069E+02 -0.17889441730E+03  0.18291608154E+03  0.12699999809E+01 0.  1.
       -4    1    3    3    0  502 -0.28478992188E+02  0.25345896069E+02  0.38560908852E+03  0.38749122505E+03  0.12699999809E+01 0. -1.
</event>
<event>
 5   0  0.3111146E-01  0.4932119E+03  0.7818609E-02  0.1015566E+00
       -2   -1    0    0    0  501  0.00000000000E+00  0.00000000000E+00  0.21195760062E+03  0.21195760063E+03  0.25500000920E-02 0. -1.
        2   -1    0    0  501    0  0.00000000000E+00  0.00000000000E+00 -0.28691816784E+03  0.28691816785E+03  0.25500000920E-02 0.  1.
    10030    2    1    2    0    0  0.00000000000E+00  0.00000000000E+00 -0.74960567219E+02  0.49887576848E+03  0.49321186699E+03 0.  0.
        1    1    3    3  502    0  0.98060227565E+02  0.56587590043E+02  0.18411666716E+03  0.21614095107E+03  0.50400001928E-02 0. -1.
       -1    1    3    3    0  502 -0.98060227565E+02 -0.56587590043E+02 -0.25907723438E+03  0.28273481741E+03  0.50400001928E-02 0.  1.
</event>
<event>
 5   0  0.3111146E-01  0.4963131E+03  0.7818609E-02  0.1014746E+00
        2   -1    0    0  501    0  0.00000000000E+00  0.00000000000E+00  0.24478899618E+03  0.24478899619E+03  0.25500000920E-02 0. -1.
       -2   -1    0    0    0  501  0.00000000000E+00  0.00000000000E+00 -0.25157044380E+03  0.25157044381E+03  0.25500000920E-02 0.  1.
    10030    2    1    2    0    0  0.00000000000E+00  0.00000000000E+00 -0.67814476199E+01  0.49635944000E+03  0.49631311251E+03 0.  0.
        1    1    3    3  502    0  0.34582633770E+02  0.18124069589E+03 -0.16935056566E+03  0.25044712520E+03  0.50400001928E-02 0.  1.
       -1    1    3    3    0  502 -0.34582633770E+02 -0.18124069589E+03  0.16256911804E+03  0.24591231480E+03  0.50400001928E-02 0. -1.
</event>
<event>
 5   0  0.1292375E-01  0.4961988E+03  0.7818609E-02  0.1014776E+00
        4   -1    0    0  501    0  0.00000000000E+00  0.00000000000E+00  0.48038612895E+03  0.48038780770E+03  0.12699999809E+01 0. -1.
       -4   -1    0    0    0  501  0.00000000000E+00  0.00000000000E+00 -0.12812793701E+03  0.12813423096E+03  0.12699999809E+01 0.  1.
    10030    2    1    2    0    0  0.00000000000E+00  0.00000000000E+00  0.35225819193E+03  0.60852203866E+03  0.49619878854E+03 0.  0.
        5    1    3    3  502    0  0.31382360164E+02 -0.18758820770E+03 -0.19156321661E+02  0.19121517423E+03  0.46999998093E+01 0.  1.
       -5    1    3    3    0  502 -0.31382360164E+02  0.18758820770E+03  0.37141451359E+03  0.41730686443E+03  0.46999998093E+01 0. -1.
</event>
<event>
 5   0  0.1292375E-01  0.6467998E+03  0.7818609E-02  0.9812803E-01
        4   -1    0    0  501    0  0.00000000000E+00  0.00000000000E+00  0.42971961125E+03  0.42972148793E+03  0.12699999809E+01 0.  1.
       -4   -1    0    0    0  501  0.00000000000E+00  0.00000000000E+00 -0.24338134056E+03  0.24338465406E+03  0.12699999809E+01 0. -1.
    10030    2    1    2    0    0  0.00000000000E+00  0.00000000000E+00  0.18633827069E+03  0.67310614199E+03  0.64679975824E+03 0.  0.
        2    1    3    3  502    0  0.11385896628E+03 -0.20662346327E+03 -0.13702959242E+03  0.27282637149E+03  0.25500000920E-02 0. -1.
       -2    1    3    3    0  502 -0.11385896628E+03  0.20662346327E+03  0.32336786311E+03  0.40027977050E+03  0.25500000920E-02 0.  1.
</event>
<event>
 5   0  0.3111146E-01  0.5168682E+03  0.7818609E-02  0.1009468E+00
       -2   -1    0    0    0  501  0.00000000000E+00  0.00000000000E+00  0.84236398948E+02  0.84236398987E+02  0.25500000920E-02 0. -1.
        2   -1    0    0  501    0  0.00000000000E+00  0.00000000000E+00 -0.79286597804E+03  0.79286597804E+03  0.25500000920E-02 0.  1.
    10030    2    1    2    0    0  0.00000000000E+00  0.00000000000E+00 -0.70862957909E+03  0.87710237703E+03  0.51686816446E+03 0.  0.
        1    1    3    3  502    0  0.11370392696E+03  0.85379127223E+02 -0.72051923080E+03  0.73441550933E+03  0.50400001928E-02 0.  1.
       -1    1    3    3    0  502 -0.11370392696E+03 -0.85379127223E+02  0.11889651706E+02  0.14268686770E+03  0.50400001928E-02 0. -1.
</event>
<event>
 5   0  0.3187123E-01  0.5515448E+03  0.7818609E-02  0.1001137E+00
        2   -1    0    0  501    0  0.00000000000E+00  0.00000000000E+00  0.95634556039E+03  0.95634556039E+03  0.25500000920E-02 0. -1.
       -2   -1    0    0    0  501  0.00000000000E+00  0.00000000000E+00 -0.79521889737E+02  0.79521889778E+02  0.25500000920E-02 0.  1.
    10030    2    1    2    0    0  0.00000000000E+00  0.00000000000E+00  0.87682367065E+03  0.10358674502E+04  0.55154476238E+03 0.  0.
        5    1    3    3  502    0 -0.51567790905E+02  0.74557792176E+02  0.92748178824E+03  0.93191343962E+03  0.46999998093E+01 0. -1.
       -5    1    3    3    0  502  0.51567790905E+02 -0.74557792176E+02 -0.50658117589E+02  0.10395401055E+03  0.46999998093E+01 0.  1.
</event>
<event>
 5   0  0.3117389E-01  0.5024447E+03  0.7818609E-02  0.1013143E+00
        2   -1    0    0  501    0  0.00000000000E+00  0.00000000000E+00  0.16678639732E+04  0.16678639732E+04  0.25500000920E-02 0.  1.
       -2   -1    0    0    0  501  0.00000000000E+00  0.00000000000E+00 -0.37840410024E+02  0.37840410110E+02  0.25500000920E-02 0. -1.
    10030    2    1    2    0    0  0.00000000000E+00  0.00000000000E+00  0.16300235632E+04  0.17057043833E+04  0.50244465043E+03 0.  0.
        4    1    3    3  502    0  0.35075846848E+01  0.66672311505E+02 -0.71601881455E+01  0.67159373627E+02  0.12699999809E+01 0. -1.
       -4    1    3    3    0  502 -0.35075846848E+01 -0.66672311505E+02  0.16371837513E+04  0.16385450097E+04  0.12699999809E+01 0.  1.
</event>
<event>
 5   0  0.1967161E-01  0.5005187E+03  0.7818609E-02  0.1013644E+00
       -1   -1    0    0    0  501  0.00000000000E+00  0.00000000000E+00  0.20014588019E+03  0.20014588026E+03  0.50400001928E-02 0. -1.
        1   -1    0    0  501    0  0.00000000000E+00  0.00000000000E+00 -0.31292046178E+03  0.31292046182E+03  0.50400001928E-02 0.  1.
    10030    2    1    2    0    0  0.00000000000E+00  0.00000000000E+00 -0.11277458158E+03  0.51306634207E+03  0.50051869607E+03 0.  0.
        1    1    3    3  502    0  0.37151539141E+02  0.91834037409E+02 -0.29196599663E+03  0.30831456421E+03  0.50400001928E-02 0.  1.
       -1    1    3    3    0  502 -0.37151539141E+02 -0.91834037409E+02  0.17919141505E+03  0.20475177787E+03  0.50400001928E-02 0. -1.
</event>
<event>
 5   0  0.3178149E-01  0.5190605E+03  0.7818609E-02  0.1008920E+00
        2   -1    0    0  501    0  0.00000000000E+00  0.00000000000E+00  0.81037479001E+03  0.81037479001E+03  0.25500000920E-02 0.  1.
       -2   -1    0    0    0  501  0.00000000000E+00  0.00000000000E+00 -0.83117052012E+02  0.83117052051E+02  0.25500000920E-02 0. -1.
    10030    2    1    2    0    0  0.00000000000E+00  0.00000000000E+00  0.72725773800E+03  0.89349184206E+03  0.51906054980E+03 0.  0.
        3    1    3    3  502    0  0.75282734958E+02  0.14054457424E+03  0.71613318948E+03  0.73366683365E+03  0.10100000352E+00 0.  1.
       -3    1    3    3    0  502 -0.75282734958E+02 -0.14054457424E+03  0.11124548518E+02  0.15982500841E+03  0.10100000352E+00 0. -1.
</event>
<event>
 5   0  0.3111146E-01  0.5225981E+03  0.7818609E-02  0.1008043E+00
        2   -1    0    0  501    0  0.00000000000E+00  0.00000000000E+00  0.25962981720E+03  0.25962981722E+03  0.25500000920E-02 0. -1.
       -2   -1    0    0    0  501  0.00000000000E+00  0.00000000000E+00 -0.26297902963E+03  0.26297902964E+03  0.25500000920E-02 0.  1.
    10030    2    1    2    0    0  0.00000000000E+00  0.00000000000E+00 -0.33492124254E+01  0.52260884686E+03  0.52259811480E+03 0.  0.
        1    1    3    3  502    0  0.35398564466E+02 -0.13917192217E+03 -0.21998006286E+03  0.26270346470E+03  0.50400001928E-02 0.  1.
       -1    1    3    3    0  502 -0.35398564466E+02  0.13917192217E+03  0.21663085043E+03  0.25990538215E+03  0.50400001928E-02 0. -1.
</event>
<event>
 5   0  0.2013450E-01  0.5116644E+03  0.7818609E-02  0.1010778E+00
       -1   -1    0    0    0  501  0.00000000000E+00  0.00000000000E+00  0.15484175944E+04  0.15484175944E+04  0.50400001928E-02 0. -1.
        1   -1    0    0  501    0  0.00000000000E+00  0.00000000000E+00 -0.42269029135E+02  0.42269029435E+02  0.50400001928E-02 0.  1.
    10030    2    1    2    0    0  0.00000000000E+00  0.00000000000E+00  0.15061485653E+04  0.15906866239E+04  0.51166437694E+03 0.  0.
        4    1    3    3  502    0  0.87553686318E+01  0.21936844174E+03  0.11613800488E+04  0.11819494068E+04  0.12699999809E+01 0. -1.
       -4    1    3    3    0  502 -0.87553686318E+01 -0.21936844174E+03  0.34476851652E+03  0.40873721705E+03  0.12699999809E+01 0.  1.
</event>
<event>
 5   0  0.3178149E-01  0.5027745E+03  0.7818609E-02  0.1013057E+00
       -2   -1    0    0    0  501  0.00000000000E+00  0.00000000000E+00  0.92129636718E+02  0.92129636753E+02  0.25500000920E-02 0. -1.
        2   -1    0    0  501    0  0.00000000000E+00  0.00000000000E+00 -0.68594172482E+03  0.68594172483E+03  0.25500000920E-02 0.  1.
    10030    2    1    2    0    0  0.00000000000E+00  0.00000000000E+00 -0.59381208810E+03  0.77807136158E+03  0.50277454961E+03 0.  0.
        3    1    3    3  502    0  0.50759090150E+01 -0.23240516366E+03 -0.44500009567E+03  0.50205878171E+03  0.10100000352E+00 0.  1.
       -3    1    3    3    0  502 -0.50759090150E+01  0.23240516366E+03 -0.14881199244E+03  0.27601257987E+03  0.10100000352E+00 0. -1.
</event>
<event>
 5   0  0.3111146E-01  0.4858836E+03  0.7818609E-02  0.1017531E+00
       -2   -1    0    0    0  501  0.00000000000E+00  0.00000000000E+00  0.64978074426E+02  0.64978074476E+02  0.25500000920E-02 0. -1.
        2   -1    0    0  501    0  0.00000000000E+00  0.00000000000E+00 -0.90831748370E+03  0.90831748370E+03  0.25500000920E-02 0.  1.
    10030    2    1    2    0    0  0.00000000000E+00  0.00000000000E+00 -0.84333940927E+03  0.97329555818E+03  0.48588361193E+03 0.  0.
        1    1    3    3  502    0 -0.13898735091E+03 -0.18758166390E+03 -0.28705062772E+03  0.37000328005E+03  0.50400001928E-02 0. -1.
       -1    1    3    3    0  502  0.13898735091E+03  0.18758166390E+03 -0.55628878155E+03  0.60329227813E+03  0.50400001928E-02 0.  1.
</event>
<event>
 5   0  0.2000612E-01  0.4569982E+03  0.7818609E-02  0.1025655E+00
        1   -1    0    0  501    0  0.00000000000E+00  0.00000000000E+00  0.16714723068E+03  0.16714723076E+03  0.50400001928E-02 0.  1.
       -1   -1    0    0    0  501  0.00000000000E+00  0.00000000000E+00 -0.31237040970E+03  0.31237040975E+03  0.50400001928E-02 0. -1.
    10030    2    1    2    0    0  0.00000000000E+00  0.00000000000E+00 -0.14522317903E+03  0.47951764050E+03  0.45699824488E+03 0.  0.
        2    1    3    3  502    0  0.20525419525E+03  0.61851698200E+02  0.10387009948E+02  0.21462247604E+03  0.25500000920E-02 0. -1.
       -2    1    3    3    0  502 -0.20525419525E+03 -0.61851698200E+02 -0.15561018897E+03  0.26489516446E+03  0.25500000920E-02 0.  1.
</event>
<event>
 5   0  0.3187123E-01  0.4641385E+03  0.7818609E-02  0.1023588E+00
       -2   -1    0    0    0  501  0.00000000000E+00  0.00000000000E+00  0.34443296666E+02  0.34443296761E+02  0.25500000920E-02 0.  1.
        2   -1    0    0  501    0  0.00000000000E+00  0.00000000000E+00 -0.15636173421E+04  0.15636173421E+04  0.25500000920E-02 0. -1.
    10030    2    1    2    0    0  0.00000000000E+00  0.00000000000E+00 -0.15291740454E+04  0.15980606388E+04  0.46413849684E+03 0.  0.
        5    1    3    3  502    0  0.92060183898E+01 -0.17516029016E+03 -0.24164659654E+03  0.29863195683E+03  0.46999998093E+01 0.  1.
       -5    1    3    3    0  502 -0.92060183898E+01  0.17516029016E+03 -0.12875274489E+04  0.12994286820E+04  0.46999998093E+01 0. -1.
</event>
<event>
 5   0  0.1967161E-01  0.5039214E+03  0.7818609E-02  0.1012760E+00
       -1   -1    0    0    0  501  0.00000000000E+00  0.00000000000E+00  0.85265256830E+02  0.85265256979E+02  0.50400001928E-02 0.  1.
        1   -1    0    0  501    0  0.00000000000E+00  0.00000000000E+00 -0.74454931190E+03  0.74454931192E+03  0.50400001928E-02 0. -1.
    10030    2    1    2    0    0  0.00000000000E+00  0.00000000000E+00 -0.65928405507E+03  0.82981456890E+03  0.50392137629E+03 0.  0.
        1    1    3    3  502    0 -0.65260349207E+02  0.23798108898E+03 -0.24583289748E+03  0.34832129622E+03  0.50400001928E-02 0.  1.
       -1    1    3    3    0  502  0.65260349207E+02 -0.23798108898E+03 -0.41345115759E+03  0.48149327268E+03  0.50400001928E-02 0. -1.
</event>
<event>
 5   0  0.3111146E-01  0.5175294E+03  0.7818609E-02  0.1009302E+00
        2   -1    0    0  501    0  0.00000000000E+00  0.00000000000E+00  0.12361651695E+04  0.12361651695E+04  0.25500000920E-02 0.  1.
       -2   -1    0    0    0  501  0.00000000000E+00  0.00000000000E+00 -0.54166852884E+02  0.54166852945E+02  0.25500000920E-02 0. -1.
    10030    2    1    2    0    0  0.00000000000E+00  0.00000000000E+00  0.11819983167E+04  0.12903320225E+04  0.51752942687E+03 0.  0.
        1    1    3    3  502    0  0.14783426208E+03 -0.37020872462E+02  0.11124031513E+04  0.11227939638E+04  0.50400001928E-02 0.  1.
       -1    1    3    3    0  502 -0.14783426208E+03  0.37020872462E+02  0.69595165320E+02  0.16753805868E+03  0.50400001928E-02 0. -1.
</event>
<event>
 5   0  0.3329246E-01  0.4987626E+03  0.7818609E-02  0.1014102E+00
        2   -1    0    0  501    0  0.00000000000E+00  0.00000000000E+00  0.10777966610E+04  0.10777966610E+04  0.25500000920E-02 0.  1.
       -2   -1    0    0    0  501  0.00000000000E+00  0.00000000000E+00 -0.57702011849E+02  0.57702011905E+02  0.25500000920E-02 0. -1.
    10030    2    1    2    0    0  0.00000000000E+00  0.00000000000E+00  0.10200946492E+04  0.11354986730E+04  0.49876261183E+03 0.  0.
        2    1    3    3  502    0 -0.34212742583E+01  0.13586823331E+03  0.98607106680E+03  0.99539340501E+03  0.25500000920E-02 0.  1.
       -2    1    3    3    0  502  0.34212742583E+01 -0.13586823331E+03  0.34023582394E+02  0.14010526795E+03  0.25500000920E-02 0. -1.
</event>
<event>
 5   0  0.1984680E-01  0.4983645E+03  0.7818609E-02  0.1014207E+00
        1   -1    0    0  501    0  0.00000000000E+00  0.00000000000E+00  0.11280176402E+03  0.11280176413E+03  0.50400001928E-02 0.  1.
       -1   -1    0    0    0  501  0.00000000000E+00  0.00000000000E+00 -0.55045053175E+03  0.55045053177E+03  0.50400001928E-02 0. -1.
    10030    2    1    2    0    0  0.00000000000E+00  0.00000000000E+00 -0.43764876773E+03  0.66325229591E+03  0.49836448923E+03 0.  0.
        5    1    3    3  502    0  0.99250384175E+02 -0.17186310092E+03 -0.18389339930E+02  0.19936855830E+03  0.46999998093E+01 0.  1.
       -5    1    3    3    0  502 -0.99250384175E+02  0.17186310092E+03 -0.41925942780E+03  0.46388373761E+03  0.46999998093E+01 0. -1.
</event>
<event>
 5   0  0.1984297E-01  0.5066388E+03  0.7818609E-02  0.1012060E+00
       -1   -1    0    0    0  501  0.00000000000E+00  0.00000000000E+00  0.85349048798E+02  0.85349048946E+02  0.50400001928E-02 0. -1.
        1   -1    0    0  501    0  0.00000000000E+00  0.00000000000E+00 -0.75186218840E+03  0.75186218842E+03  0.50400001928E-02 0.  1.
    10030    2    1    2    0    0  0.00000000000E+00  0.00000000000E+00 -0.66651313961E+03  0.83721123737E+03  0.50663881682E+03 0.  0.
        3    1    3    3  502    0 -0.14174016351E+03 -0.20020617281E+03 -0.22877155412E+03  0.33542394035E+03  0.10100000352E+00 0. -1.
       -3    1    3    3    0  502  0.14174016351E+03  0.20020617281E+03 -0.43774158548E+03  0.50178729701E+03  0.10100000352E+00 0.  1.
</event>
<event>
 5   0  0.3178149E-01  0.5107083E+03  0.7818609E-02  0.1011021E+00
       -2   -1    0    0    0  501  0.00000000000E+00  0.00000000000E+00  0.34017950366E+03  0.34017950366E+03  0.25500000920E-02 0.  1.
        2   -1    0    0  501    0  0.00000000000E+00  0.00000000000E+00 -0.19168041470E+03  0.19168041471E+03  0.25500000920E-02 0. -1.
    10030    2    1    2    0    0  0.00000000000E+00  0.00000000000E+00  0.14849908896E+03  0.53185991838E+03  0.51070832513E+03 0.  0.
        3    1    3    3  502    0 -0.15441952533E+03 -0.16235616054E+03 -0.53300878837E+02  0.23031696975E+03  0.10100000352E+00 0. -1.
       -3    1    3    3    0  502  0.15441952533E+03  0.16235616054E+03  0.20179996780E+03  0.30154294863E+03  0.10100000352E+00 0.  1.
</event>
<event>
 5   0  0.3187123E-01  0.2751199E+03  0.7818609E-02  0.1098385E+00
        2   -1    0    0  501    0  0.00000000000E+00  0.00000000000E+00  0.12200411508E+04  0.12200411508E+04  0.25500000920E-02 0. -1.
       -2   -1    0    0    0  501  0.00000000000E+00  0.00000000000E+00 -0.15509922306E+02  0.15509922515E+02  0.25500000920E-02 0.  1.
    10030    2    1    2    0    0  0.00000000000E+00  0.00000000000E+00  0.12045312285E+04  0.12355510733E+04  0.27511992723E+03 0.  0.
        5    1    3    3  502    0  0.99370586560E+02  0.94616049007E+02  0.64088348532E+03  0.65542386435E+03  0.46999998093E+01 0.  1.
       -5    1    3    3    0  502 -0.99370586560E+02 -0.94616049007E+02  0.56364774316E+03  0.58012720895E+03  0.46999998093E+01 0. -1.
</event>
<event>
 5   0  0.1984680E-01  0.4901198E+03  0.7818609E-02  0.1016390E+00
       -1   -1    0    0    0  501  0.00000000000E+00  0.00000000000E+00  0.86747580145E+03  0.86747580147E+03  0.50400001928E-02 0. -1.
        1   -1    0    0  501    0  0.00000000000E+00  0.00000000000E+00 -0.69228856573E+02  0.69228856757E+02  0.50400001928E-02 0.  1.
    10030    2    1    2    0    0  0.00000000000E+00  0.00000000000E+00  0.79824694488E+03  0.93670465823E+03  0.49011981365E+03 0.  0.
        5    1    3    3  502    0 -0.90251136141E+02 -0.11458311132E+03  0.77537604677E+03  0.78898964561E+03  0.46999998093E+01 0. -1.
       -5    1    3    3    0  502  0.90251136141E+02  0.11458311132E+03  0.22870898113E+02  0.14771501262E+03  0.46999998093E+01 0.  1.
</event>
<event>
 5   0  0.3111146E-01  0.4832507E+03  0.7818609E-02  0.1018246E+00
        2   -1    0    0  501    0  0.00000000000E+00  0.00000000000E+00  0.16345392728E+03  0.16345392730E+03  0.25500000920E-02 0. -1.
       -2   -1    0    0    0  501  0.00000000000E+00  0.00000000000E+00 -0.35718206654E+03  0.35718206655E+03  0.25500000920E-02 0.  1.
    10030    2    1    2    0    0  0.00000000000E+00  0.00000000000E+00 -0.19372813927E+03  0.52063599385E+03  0.48325070734E+03 0.  0.
        1    1    3    3  502    0 -0.12911689750E+03 -0.15873459991E+03  0.41588340755E+02  0.20879999172E+03  0.50400001928E-02 0. -1.
       -1    1    3    3    0  502  0.12911689750E+03  0.15873459991E+03 -0.23531648002E+03  0.31183600213E+03  0.50400001928E-02 0.  1.
</event>
<event>
 5   0  0.2013450E-01  0.2888220E+03  0.7818609E-02  0.1090966E+00
       -1   -1    0    0    0  501  0.00000000000E+00  0.00000000000E+00  0.38438793215E+03  0.38438793218E+03  0.50400001928E-02 0.  1.
        1   -1    0    0  501    0  0.00000000000E+00  0.00000000000E+00 -0.54253895959E+02  0.54253896193E+02  0.50400001928E-02 0. -1.
    10030    2    1    2    0    0  0.00000000000E+00  0.00000000000E+00  0.33013403619E+03  0.43864182837E+03  0.28882204166E+03 0.  0.
        4    1    3    3  502    0 -0.12945801639E+02 -0.13673713457E+03  0.97346569949E+02  0.16835262199E+03  0.12699999809E+01 0.  1.
       -4    1    3    3    0  502  0.12945801639E+02  0.13673713457E+03  0.23278746624E+03  0.27028920638E+03  0.12699999809E+01 0. -1.
</event>
<event>
 5   0  0.3178149E-01  0.5012381E+03  0.7818609E-02  0.1013456E+00
       -2   -1    0    0    0  501  0.00000000000E+00  0.00000000000E+00  0.74553300556E+02  0.74553300600E+02  0.25500000920E-02 0.  1.
        2   -1    0    0  501    0  0.00000000000E+00  0.00000000000E+00 -0.84248318971E+03  0.84248318971E+03  0.25500000920E-02 0. -1.
    10030    2    1    2    0    0  0.00000000000E+00  0.00000000000E+00 -0.76792988915E+03  0.91703649031E+03  0.50123807708E+03 0.  0.
        3    1    3    3  502    0 -0.57081268691E+02 -0.23365397045E+03 -0.51278142607E+03  0.56638966292E+03  0.10100000352E+00 0.  1.
       -3    1    3    3    0  502  0.57081268691E+02  0.23365397045E+03 -0.25514846308E+03  0.35064682739E+03  0.10100000352E+00 0. -1.
</event>
<event>
 5   0  0.1292375E-01  0.4970287E+03  0.7818609E-02  0.1014557E+00
        3   -1    0    0  501    0  0.00000000000E+00  0.00000000000E+00  0.75441280509E+02  0.75441348118E+02  0.10100000352E+00 0. -1.
       -3   -1    0    0    0  501  0.00000000000E+00  0.00000000000E+00 -0.81864131068E+03  0.81864131691E+03  0.10100000352E+00 0.  1.
    10030    2    1    2    0    0  0.00000000000E+00  0.00000000000E+00 -0.74320003017E+03  0.89408266503E+03  0.49702869842E+03 0.  0.
        3    1    3    3  502    0  0.14683596461E+03 -0.19853497158E+03 -0.42191770032E+03  0.48886756028E+03  0.10100000352E+00 0.  1.
       -3    1    3    3    0  502 -0.14683596461E+03  0.19853497158E+03 -0.32128232985E+03  0.40521510475E+03  0.10100000352E+00 0. -1.
</event>
<event>
 5   0  0.3117389E-01  0.4818554E+03  0.7818609E-02  0.1018627E+00
       -2   -1    0    0    0  501  0.00000000000E+00  0.00000000000E+00  0.20523486796E+03  0.20523486798E+03  0.25500000920E-02 0.  1.
        2   -1    0    0  501    0  0.00000000000E+00  0.00000000000E+00 -0.28282793855E+03  0.28282793856E+03  0.25500000920E-02 0. -1.
    10030    2    1    2    0    0  0.00000000000E+00  0.00000000000E+00 -0.77593070583E+02  0.48806280654E+03  0.48185539171E+03 0.  0.
        4    1    3    3  502    0  0.18703462669E+03  0.12035584404E+03 -0.13260202139E+03  0.25894476197E+03  0.12699999809E+01 0. -1.
       -4    1    3    3    0  502 -0.18703462669E+03 -0.12035584404E+03  0.55008950810E+02  0.22911804456E+03  0.12699999809E+01 0.  1.
</event>
<event>
 5   0  0.3329246E-01  0.5020586E+03  0.7818609E-02  0.1013243E+00
        2   -1    0    0  501    0  0.00000000000E+00  0.00000000000E+00  0.88215803555E+03  0.88215803555E+03  0.25500000920E-02 0. -1.
       -2   -1    0    0    0  501  0.00000000000E+00  0.00000000000E+00 -0.71433588303E+02  0.71433588348E+02  0.25500000920E-02 0.  1.
    10030    2    1    2    0    0  0.00000000000E+00  0.00000000000E+00  0.81072444725E+03  0.95359162390E+03  0.50205861790E+03 0.  0.
        2    1    3    3  502    0  0.22603657124E+03 -0.16971578928E+02  0.61023957729E+03  0.65097842340E+03  0.25500000920E-02 0. -1.
       -2    1    3    3    0  502 -0.22603657124E+03  0.16971578928E+02  0.20048486996E+03  0.30261320050E+03  0.25500000920E-02 0.  1.
</event>
<event>
 5   0  0.3117389E-01  0.4879850E+03  0.7818609E-02  0.1016963E+00
        2   -1    0    0  501    0  0.00000000000E+00  0.00000000000E+00  0.10073920957E+04  0.10073920957E+04  0.25500000920E-02 0. -1.
       -2   -1    0    0    0  501  0.00000000000E+00  0.00000000000E+00 -0.59095492303E+02  0.59095492358E+02  0.25500000920E-02 0.  1.
    10030    2    1    2    0    0  0.00000000000E+00  0.00000000000E+00  0.94829660344E+03  0.10664875881E+04  0.48798496645E+03 0.  0.
        4    1    3    3  502    0  0.94433104167E+02 -0.12607248346E+03  0.66925633260E+02  0.17115062236E+03  0.12699999809E+01 0.  1.
       -4    1    3    3    0  502 -0.94433104167E+02  0.12607248346E+03  0.88137097018E+03  0.89533696574E+03  0.12699999809E+01 0. -1.
</event>
<event>
 5   0  0.3111146E-01  0.4538414E+03  0.7818609E-02  0.1026583E+00
        2   -1    0    0  501    0  0.00000000000E+00  0.00000000000E+00  0.62429436313E+03  0.62429436314E+03  0.25500000920E-02 0.  1.
       -2   -1    0    0    0  501  0.00000000000E+00  0.00000000000E+00 -0.82481931961E+02  0.82481932001E+02  0.25500000920E-02 0. -1.
    10030    2    1    2    0    0  0.00000000000E+00  0.00000000000E+00  0.54181243117E+03  0.70677629514E+03  0.45384140490E+03 0.  0.
        1    1    3    3  502    0 -0.26779607010E+02  0.22445498006E+03  0.30188943830E+03  0.37713978630E+03  0.50400001928E-02 0. -1.
       -1    1    3    3    0  502  0.26779607010E+02 -0.22445498006E+03  0.23992299287E+03  0.32963650884E+03  0.50400001928E-02 0.  1.
</event>
<event>
 5   0  0.1984680E-01  0.4758209E+03  0.7818609E-02  0.1020290E+00
        1   -1    0    0  501    0  0.00000000000E+00  0.00000000000E+00  0.18569922823E+03  0.18569922830E+03  0.50400001928E-02 0. -1.
       -1   -1    0    0    0  501  0.00000000000E+00  0.00000000000E+00 -0.30480133031E+03  0.30480133035E+03  0.50400001928E-02 0.  1.
    10030    2    1    2    0    0  0.00000000000E+00  0.00000000000E+00 -0.11910210208E+03  0.49050055864E+03  0.47582085632E+03 0.  0.
        5    1    3    3  502    0  0.19595711191E+03  0.12840698040E+03 -0.10195075043E+03  0.25554566683E+03  0.46999998093E+01 0.  1.
       -5    1    3    3    0  502 -0.19595711191E+03 -0.12840698040E+03 -0.17151351649E+02  0.23495489181E+03  0.46999998093E+01 0. -1.
</event>
<event>
 5   0  0.1967161E-01  0.4529016E+03  0.7818609E-02  0.1026860E+00
        1   -1    0    0  501    0  0.00000000000E+00  0.00000000000E+00  0.86387296395E+02  0.86387296542E+02  0.50400001928E-02 0.  1.
       -1   -1    0    0    0  501  0.00000000000E+00  0.00000000000E+00 -0.59360536980E+03  0.59360536982E+03  0.50400001928E-02 0. -1.
    10030    2    1    2    0    0  0.00000000000E+00  0.00000000000E+00 -0.50721807340E+03  0.67999266636E+03  0.45290159231E+03 0.  0.
        1    1    3    3  502    0  0.80275975443E+02  0.17062915158E+03 -0.44186394753E+03  0.48041886699E+03  0.50400001928E-02 0. -1.
       -1    1    3    3    0  502 -0.80275975443E+02 -0.17062915158E+03 -0.65354125866E+02  0.19957379937E+03  0.50400001928E-02 0.  1.
</event>
<event>
 5   0  0.3111146E-01  0.4940294E+03  0.7818609E-02  0.1015349E+00
        2   -1    0    0  501    0  0.00000000000E+00  0.00000000000E+00  0.15700047676E+04  0.15700047676E+04  0.25500000920E-02 0. -1.
       -2   -1    0    0    0  501  0.00000000000E+00  0.00000000000E+00 -0.38863743551E+02  0.38863743635E+02  0.25500000920E-02 0.  1.
    10030    2    1    2    0    0  0.00000000000E+00  0.00000000000E+00  0.15311410241E+04  0.16088685112E+04  0.49402940290E+03 0.  0.
        1    1    3    3  502    0 -0.14152635429E+03 -0.14838330302E+03  0.12140983372E+04  0.12312928514E+04  0.50400001928E-02 0. -1.
       -1    1    3    3    0  502  0.14152635429E+03  0.14838330302E+03  0.31704268689E+03  0.37757565984E+03  0.50400001928E-02 0.  1.
</event>
<event>
 5   0  0.2000612E-01  0.5179939E+03  0.7818609E-02  0.1009186E+00
        1   -1    0    0  501    0  0.00000000000E+00  0.00000000000E+00  0.71688053413E+03  0.71688053415E+03  0.50400001928E-02 0. -1.
       -1   -1    0    0    0  501  0.00000000000E+00  0.00000000000E+00 -0.93571278693E+02  0.93571278828E+02  0.50400001928E-02 0.  1.
    10030    2    1    2    0    0  0.00000000000E+00  0.00000000000E+00  0.62330925544E+03  0.81045181298E+03  0.51799393167E+03 0.  0.
        2    1    3    3  502    0  0.18996536005E+03 -0.44189567751E+02  0.57827901959E+03  0.61028368848E+03  0.25500000920E-02 0. -1.
       -2    1    3    3    0  502 -0.18996536005E+03  0.44189567751E+02  0.45030235849E+02  0.20016812450E+03  0.25500000920E-02 0.  1.
</event>
<event>
 5   0  0.1984297E-01  0.4953896E+03  0.7818609E-02  0.1014989E+00
        1   -1    0    0  501    0  0.00000000000E+00  0.00000000000E+00  0.75750998421E+03  0.75750998422E+03  0.50400001928E-02 0. -1.
       -1   -1    0    0    0  501  0.00000000000E+00  0.00000000000E+00 -0.80992627482E+02  0.80992627638E+02  0.50400001928E-02 0.  1.
    10030    2    1    2    0    0  0.00000000000E+00  0.00000000000E+00  0.67651735672E+03  0.83850261186E+03  0.49538964074E+03 0.  0.
        3    1    3    3  502    0 -0.18402571458E+03  0.62177400523E+02  0.59839959799E+03  0.62913717251E+03  0.10100000352E+00 0.  1.
       -3    1    3    3    0  502  0.18402571458E+03 -0.62177400523E+02  0.78117758733E+02  0.20936543935E+03  0.10100000352E+00 0. -1.
</event>
<event>
 5   0  0.2013450E-01  0.5276279E+03  0.7818609E-02  0.1006809E+00
       -1   -1    0    0    0  501  0.00000000000E+00  0.00000000000E+00  0.94820617915E+03  0.94820617916E+03  0.50400001928E-02 0. -1.
        1   -1    0    0  501    0  0.00000000000E+00  0.00000000000E+00 -0.73399438965E+02  0.73399439138E+02  0.50400001928E-02 0.  1.
    10030    2    1    2    0    0  0.00000000000E+00  0.00000000000E+00  0.87480674019E+03  0.10216056183E+04  0.52762790551E+03 0.  0.
        4    1    3    3  502    0 -0.19288193858E+03  0.12804093160E+03  0.68230517042E+03  0.72051362296E+03  0.12699999809E+01 0. -1.
       -4    1    3    3    0  502  0.19288193858E+03 -0.12804093160E+03  0.19250156977E+03  0.30109199534E+03  0.12699999809E+01 0.  1.
</event>
<event>
 5   0  0.3111146E-01  0.5049382E+03  0.7818609E-02  0.1012498E+00
        2   -1    0    0  501    0  0.00000000000E+00  0.00000000000E+00  0.38988634338E+03  0.38988634339E+03  0.25500000920E-02 0. -1.
       -2   -1    0    0    0  501  0.00000000000E+00  0.00000000000E+00 -0.16348520867E+03  0.16348520869E+03  0.25500000920E-02 0.  1.
    10030    2    1    2    0    0  0.00000000000E+00  0.00000000000E+00  0.22640113470E+03  0.55337155208E+03  0.50493821489E+03 0.  0.
        1    1    3    3  502    0  0.79372549308E+02  0.26622846029E+02 -0.14783046948E+03  0.16989003869E+03  0.50400001928E-02 0.  1.
       -1    1    3    3    0  502 -0.79372549308E+02 -0.26622846029E+02  0.37423160419E+03  0.38348151339E+03  0.50400001928E-02 0. -1.
</event>
<event>
 5   0  0.2000612E-01  0.5022057E+03  0.7818609E-02  0.1013205E+00
       -1   -1    0    0    0  501  0.00000000000E+00  0.00000000000E+00  0.37640289987E+03  0.37640289990E+03  0.50400001928E-02 0. -1.
        1   -1    0    0  501    0  0.00000000000E+00  0.00000000000E+00 -0.16751367153E+03  0.16751367160E+03  0.50400001928E-02 0.  1.
    10030    2    1    2    0    0  0.00000000000E+00  0.00000000000E+00  0.20888922834E+03  0.54391657151E+03  0.50220566209E+03 0.  0.
        2    1    3    3  502    0  0.49763870852E+02  0.18985897574E+03 -0.65183299213E+02  0.20681328781E+03  0.25500000920E-02 0.  1.
       -2    1    3    3    0  502 -0.49763870852E+02 -0.18985897574E+03  0.27407252756E+03  0.33710328370E+03  0.25500000920E-02 0. -1.
</event>
<event>
 5   0  0.1984297E-01  0.5330333E+03  0.7818609E-02  0.1005499E+00
       -1   -1    0    0    0  501  0.00000000000E+00  0.00000000000E+00  0.11647499722E+03  0.11647499733E+03  0.50400001928E-02 0.  1.
        1   -1    0    0  501    0  0.00000000000E+00  0.00000000000E+00 -0.60984013441E+03  0.60984013443E+03  0.50400001928E-02 0. -1.
    10030    2    1    2    0    0  0.00000000000E+00  0.00000000000E+00 -0.49336513719E+03  0.72631513176E+03  0.53303331231E+03 0.  0.
        3    1    3    3  502    0  0.18635547502E+03  0.97361254486E+02 -0.46984896162E+03  0.51474812664E+03  0.10100000352E+00 0. -1.
       -3    1    3    3    0  502 -0.18635547502E+03 -0.97361254486E+02 -0.23516175576E+02  0.21156700513E+03  0.10100000352E+00 0.  1.
</event>
<event>
 5   0  0.1984680E-01  0.4605115E+03  0.7818609E-02  0.1024633E+00
        1   -1    0    0  501    0  0.00000000000E+00  0.00000000000E+00  0.54011940420E+03  0.54011940422E+03  0.50400001928E-02 0.  1.
       -1   -1    0    0    0  501  0.00000000000E+00  0.00000000000E+00 -0.98159248338E+02  0.98159248468E+02  0.50400001928E-02 0. -1.
    10030    2    1    2    0    0  0.00000000000E+00  0.00000000000E+00  0.44196015586E+03  0.63827865269E+03  0.46051151898E+03 0.  0.
        5    1    3    3  502    0 -0.17886353706E+03 -0.13820274433E+03  0.16050981551E+03  0.27726819923E+03  0.46999998093E+01 0.  1.
       -5    1    3    3    0  502  0.17886353706E+03  0.13820274433E+03  0.28145034035E+03  0.36101045346E+03  0.46999998093E+01 0. -1.
</event>
<event>
 5   0  0.3111146E-01  0.4884747E+03  0.7818609E-02  0.1016832E+00
        2   -1    0    0  501    0  0.00000000000E+00  0.00000000000E+00  0.17834684924E+03  0.17834684926E+03  0.25500000920E-02 0.  1.
       -2   -1    0    0    0  501  0.00000000000E+00  0.00000000000E+00 -0.33447118583E+03  0.33447118584E+03  0.25500000920E-02 0. -1.
    10030    2    1    2    0    0  0.00000000000E+00  0.00000000000E+00 -0.15612433659E+03  0.51281803510E+03  0.48847469601E+03 0.  0.
        1    1    3    3  502    0 -0.50171210685E+02  0.22214929101E+03  0.14564164000E+02  0.22820949317E+03  0.50400001928E-02 0.  1.
       -1    1    3    3    0  502  0.50171210685E+02 -0.22214929101E+03 -0.17068850059E+03  0.28460854192E+03  0.50400001928E-02 0. -1.
</event>
<event>
 5   0  0.1292375E-01  0.5031708E+03  0.7818609E-02  0.1012955E+00
       -3   -1    0    0    0  501  0.00000000000E+00  0.00000000000E+00  0.31322943040E+03  0.31322944668E+03  0.10100000352E+00 0. -1.
        3   -1    0    0  501    0  0.00000000000E+00  0.00000000000E+00 -0.20207295630E+03  0.20207298154E+03  0.10100000352E+00 0.  1.
    10030    2    1    2    0    0  0.00000000000E+00  0.00000000000E+00  0.11115647410E+03  0.51530242822E+03  0.50317077697E+03 0.  0.
        2    1    3    3  502    0  0.55285264048E+02  0.15953026015E+03  0.24659292952E+03  0.29885521113E+03  0.25500000920E-02 0. -1.
       -2    1    3    3    0  502 -0.55285264048E+02 -0.15953026015E+03 -0.13543645542E+03  0.21644721709E+03  0.25500000920E-02 0.  1.
</event>
<event>
 5   0  0.1984297E-01  0.4963984E+03  0.7818609E-02  0.1014723E+00
       -1   -1    0    0    0  501  0.00000000000E+00  0.00000000000E+00  0.12863315071E+03  0.12863315081E+03  0.50400001928E-02 0. -1.
        1   -1    0    0  501    0  0.00000000000E+00  0.00000000000E+00 -0.47890322600E+03  0.47890322603E+03  0.50400001928E-02 0.  1.
    10030    2    1    2    0    0  0.00000000000E+00  0.00000000000E+00 -0.35027007529E+03  0.60753637684E+03  0.49639835167E+03 0.  0.
        3    1    3    3  502    0 -0.94697800212E+01 -0.68588300371E+02  0.11657389076E+03  0.13558581744E+03  0.10100000352E+00 0. -1.
       -3    1    3    3    0  502  0.94697800212E+01  0.68588300371E+02 -0.46684396605E+03  0.47195055940E+03  0.10100000352E+00 0.  1.
</event>
<event>
 5   0  0.1292375E-01  0.4872667E+03  0.7818609E-02  0.1017157E+00
        3   -1    0    0  501    0  0.00000000000E+00  0.00000000000E+00  0.15315265205E+03  0.15315268536E+03  0.10100000352E+00 0.  1.
       -3   -1    0    0    0  501  0.00000000000E+00  0.00000000000E+00 -0.38756884003E+03  0.38756885319E+03  0.10100000352E+00 0. -1.
    10030    2    1    2    0    0  0.00000000000E+00  0.00000000000E+00 -0.23441618798E+03  0.54072153855E+03  0.48726669603E+03 0.  0.
        1    1    3    3  502    0  0.23430996484E+03 -0.62457154246E+02 -0.91061622397E+02  0.25902562584E+03  0.50400001928E-02 0. -1.
       -1    1    3    3    0  502 -0.23430996484E+03  0.62457154246E+02 -0.14335456558E+03  0.28169591271E+03  0.50400001928E-02 0.  1.
</event>
<event>
 5   0  0.3329246E-01  0.4965025E+03  0.7818609E-02  0.1014696E+00
       -2   -1    0    0    0  501  0.00000000000E+00  0.00000000000E+00  0.26275538471E+03  0.26275538473E+03  0.25500000920E-02 0. -1.
        2   -1    0    0  501    0  0.00000000000E+00  0.00000000000E+00 -0.23454771367E+03  0.23454771368E+03  0.25500000920E-02 0.  1.
    10030    2    1    2    0    0  0.00000000000E+00  0.00000000000E+00  0.28207671044E+02  0.49730309841E+03  0.49650246624E+03 0.  0.
        2    1    3    3  502    0  0.35359971170E+02 -0.24388609234E+03 -0.15909817253E+02  0.24694913624E+03  0.25500000920E-02 0.  1.
       -2    1    3    3    0  502 -0.35359971170E+02  0.24388609234E+03  0.44117488297E+02  0.25035396218E+03  0.25500000920E-02 0. -1.
</event>
<event>
 5   0  0.2000612E-01  0.5029712E+03  0.7818609E-02  0.1013006E+00
        1   -1    0    0  501    0  0.00000000000E+00  0.00000000000E+00  0.98532876164E+02  0.98532876293E+02  0.50400001928E-02 0. -1.
       -1   -1    0    0    0  501  0.00000000000E+00  0.00000000000E+00 -0.64186718137E+03  0.64186718139E+03  0.50400001928E-02 0.  1.
    10030    2    1    2    0    0  0.00000000000E+00  0.00000000000E+00 -0.54333430520E+03  0.74040005768E+03  0.50297124988E+03 0.  0.
        2    1    3    3  502    0 -0.13618436791E+03  0.29030690078E+02 -0.57994198591E+03  0.59642406898E+03  0.25500000920E-02 0.  1.
       -2    1    3    3    0  502  0.13618436791E+03 -0.29030690078E+02  0.36607680706E+02  0.14397598870E+03  0.25500000920E-02 0. -1.
</event>
<event>
 5   0  0.3187123E-01  0.5020058E+03  0.7818609E-02  0.1013257E+00
        2   -1    0    0  501    0  0.00000000000E+00  0.00000000000E+00  0.15547365366E+04  0.15547365366E+04  0.25500000920E-02 0. -1.
       -2   -1    0    0    0  501  0.00000000000E+00  0.00000000000E+00 -0.40522918169E+02  0.40522918249E+02  0.25500000920E-02 0.  1.
    10030    2    1    2    0    0  0.00000000000E+00  0.00000000000E+00  0.15142136184E+04  0.15952594548E+04  0.50200582272E+03 0.  0.
        5    1    3    3  502    0 -0.52666233407E+00  0.52661430230E+02  0.15368392262E+04  0.15377484843E+04  0.46999998093E+01 0. -1.
       -5    1    3    3    0  502  0.52666233407E+00 -0.52661430230E+02 -0.22625607820E+02  0.57510970557E+02  0.46999998093E+01 0.  1.
</event>
<event>
 5   0  0.3117389E-01  0.5178791E+03  0.7818609E-02  0.1009215E+00
        2   -1    0    0  501    0  0.00000000000E+00  0.00000000000E+00  0.13408898175E+04  0.13408898175E+04  0.25500000920E-02 0. -1.
       -2   -1    0    0    0  501  0.00000000000E+00  0.00000000000E+00 -0.50003883461E+02  0.50003883526E+02  0.25500000920E-02 0.  1.
    10030    2    1    2    0    0  0.00000000000E+00  0.00000000000E+00  0.12908859340E+04  0.13908937010E+04  0.51787912958E+03 0.  0.
        4    1    3    3  502    0 -0.27076207192E+02  0.14220685089E+03  0.68836995021E+02  0.16029988840E+03  0.12699999809E+01 0.  1.
       -4    1    3    3    0  502  0.27076207192E+02 -0.14220685089E+03  0.12220489390E+04  0.12305938126E+04  0.12699999809E+01 0. -1.
</event>
<event>
 5   0  0.3117389E-01  0.5021753E+03  0.7818609E-02  0.1013213E+00
        2   -1    0    0  501    0  0.00000000000E+00  0.00000000000E+00  0.79279023214E+02  0.79279023255E+02  0.25500000920E-02 0. -1.
       -2   -1    0    0    0  501  0.00000000000E+00  0.00000000000E+00 -0.79522935068E+03  0.79522935068E+03  0.25500000920E-02 0.  1.
    10030    2    1    2    0    0  0.00000000000E+00  0.00000000000E+00 -0.71595032747E+03  0.87450837394E+03  0.50217529279E+03 0.  0.
        4    1    3    3  502    0 -0.10374595983E+03  0.50070536508E+02 -0.74648858123E+03  0.75532582216E+03  0.12699999809E+01 0.  1.
       -4    1    3    3    0  502  0.10374595983E+03 -0.50070536508E+02  0.30538253766E+02  0.11918255178E+03  0.12699999809E+01 0. -1.
</event>
<event>
 5   0  0.1984680E-01  0.5052629E+03  0.7818609E-02  0.1012414E+00
        1   -1    0    0  501    0  0.00000000000E+00  0.00000000000E+00  0.11713212764E+04  0.11713212764E+04  0.50400001928E-02 0. -1.
       -1   -1    0    0    0  501  0.00000000000E+00  0.00000000000E+00 -0.54487746605E+02  0.54487746838E+02  0.50400001928E-02 0.  1.
    10030    2    1    2    0    0  0.00000000000E+00  0.00000000000E+00  0.11168335298E+04  0.12258090233E+04  0.50526292978E+03 0.  0.
        5    1    3    3  502    0  0.24145213426E+03 -0.29575109477E+02  0.39339423336E+03  0.46255262737E+03  0.46999998093E+01 0.  1.
       -5    1    3    3    0  502 -0.24145213426E+03  0.29575109477E+02  0.72343929645E+03  0.76325639590E+03  0.46999998093E+01 0. -1.
</event>
<event>
 5   0  0.1984680E-01  0.4620190E+03  0.7818609E-02  0.1024197E+00
       -1   -1    0    0    0  501  0.00000000000E+00  0.00000000000E+00  0.52910811020E+02  0.52910811261E+02  0.50400001928E-02 0. -1.
        1   -1    0    0  501    0  0.00000000000E+00  0.00000000000E+00 -0.10085912358E+04  0.10085912358E+04  0.50400001928E-02 0.  1.
    10030    2    1    2    0    0  0.00000000000E+00  0.00000000000E+00 -0.95568042480E+03  0.10615020471E+04  0.46201896242E+03 0.  0.
        5    1    3    3  502    0 -0.18111066259E+03 -0.52474459581E+02 -0.78427108885E+03  0.80663366643E+03  0.46999998093E+01 0. -1.
       -5    1    3    3    0  502  0.18111066259E+03  0.52474459581E+02 -0.17140933595E+03  0.25486838067E+03  0.46999998093E+01 0.  1.
</event>
<event>
 5   0  0.1984680E-01  0.5070698E+03  0.7818609E-02  0.1011950E+00
        1   -1    0    0  501    0  0.00000000000E+00  0.00000000000E+00  0.60639291099E+03  0.60639291101E+03  0.50400001928E-02 0.  1.
       -1   -1    0    0    0  501  0.00000000000E+00  0.00000000000E+00 -0.10600377144E+03  0.10600377156E+03  0.50400001928E-02 0. -1.
    10030    2    1    2    0    0  0.00000000000E+00  0.00000000000E+00  0.50038913955E+03  0.71239668257E+03  0.50706976084E+03 0.  0.
        5    1    3    3  502    0  0.82406991502E+02  0.78821166742E+02  0.56826165118E+03  0.57960942261E+03  0.46999998093E+01 0.  1.
       -5    1    3    3    0  502 -0.82406991502E+02 -0.78821166742E+02 -0.67872511632E+02  0.13278725996E+03  0.46999998093E+01 0. -1.
</event>
<event>
 5   0  0.3111146E-01  0.4994758E+03  0.7818609E-02  0.1013916E+00
       -2   -1    0    0    0  501  0.00000000000E+00  0.00000000000E+00  0.18070353133E+03  0.18070353135E+03  0.25500000920E-02 0. -1.
        2   -1    0    0  501    0  0.00000000000E+00  0.00000000000E+00 -0.34514553287E+03  0.34514553288E+03  0.25500000920E-02 0.  1.
    10030    2    1    2    0    0  0.00000000000E+00  0.00000000000E+00 -0.16444200154E+03  0.52584906423E+03  0.49947579169E+03 0.  0.
        1    1    3    3  502    0  0.56765546200E+02 -0.19043373980E+03  0.77033097129E+02  0.21312305030E+03  0.50400001928E-02 0. -1.
       -1    1    3    3    0  502 -0.56765546200E+02  0.19043373980E+03 -0.24147509867E+03  0.31272601394E+03  0.50400001928E-02 0.  1.
</event>
<event>
 5   0  0.3187123E-01  0.4982292E+03  0.7818609E-02  0.1014242E+00
        2   -1    0    0  501    0  0.00000000000E+00  0.00000000000E+00  0.52578355919E+03  0.52578355919E+03  0.25500000920E-02 0. -1.
       -2   -1    0    0    0  501  0.00000000000E+00  0.00000000000E+00 -0.11802971987E+03  0.11802971990E+03  0.25500000920E-02 0.  1.
    10030    2    1    2    0    0  0.00000000000E+00  0.00000000000E+00  0.40775383932E+03  0.64381327909E+03  0.49822920915E+03 0.  0.
        5    1    3    3  502    0 -0.35111702356E+02 -0.24336080707E+03  0.15253429156E+03  0.28938920878E+03  0.46999998093E+01 0. -1.
       -5    1    3    3    0  502  0.35111702356E+02  0.24336080707E+03  0.25521954776E+03  0.35442407031E+03  0.46999998093E+01 0.  1.
</event>
<event>
 5   0  0.1984297E-01  0.5141617E+03  0.7818609E-02  0.1010147E+00
       -1   -1    0    0    0  501  0.00000000000E+00  0.00000000000E+00  0.40547056349E+03  0.40547056353E+03  0.50400001928E-02 0. -1.
        1   -1    0    0  501    0  0.00000000000E+00  0.00000000000E+00 -0.16299718291E+03  0.16299718299E+03  0.50400001928E-02 0.  1.
    10030    2    1    2    0    0  0.00000000000E+00  0.00000000000E+00  0.24247338059E+03  0.56846774651E+03  0.51416168520E+03 0.  0.
        3    1    3    3  502    0  0.14358341126E+02 -0.15039205296E+03  0.35121273086E+03  0.38232750892E+03  0.10100000352E+00 0. -1.
       -3    1    3    3    0  502 -0.14358341126E+02  0.15039205296E+03 -0.10873935028E+03  0.18614023759E+03  0.10100000352E+00 0.  1.
</event>
<event>
 5   0  0.3117389E-01  0.5034764E+03  0.7818609E-02  0.1012875E+00
       -2   -1    0    0    0  501  0.00000000000E+00  0.00000000000E+00  0.64989676618E+02  0.64989676668E+02  0.25500000920E-02 0.  1.
        2   -1    0    0  501    0  0.00000000000E+00  0.00000000000E+00 -0.97511059806E+03  0.97511059806E+03  0.25500000920E-02 0. -1.
    10030    2    1    2    0    0  0.00000000000E+00  0.00000000000E+00 -0.91012092144E+03  0.10401002747E+04  0.50347640446E+03 0.  0.
        4    1    3    3  502    0  0.22696437749E+03  0.19082757960E+02 -0.67653448241E+03  0.71384697176E+03  0.12699999809E+01 0. -1.
       -4    1    3    3    0  502 -0.22696437749E+03 -0.19082757960E+02 -0.23358643903E+03  0.32625330297E+03  0.12699999809E+01 0.  1.
</event>
<event>
 5   0  0.3111146E-01  0.5089151E+03  0.7818609E-02  0.1011478E+00
        2   -1    0    0  501    0  0.00000000000E+00  0.00000000000E+00  0.12846951164E+03  0.12846951167E+03  0.25500000920E-02 0. -1.
       -2   -1    0    0    0  501  0.00000000000E+00  0.00000000000E+00 -0.50400012439E+03  0.50400012440E+03  0.25500000920E-02 0.  1.
    10030    2    1    2    0    0  0.00000000000E+00  0.00000000000E+00 -0.37553061275E+03  0.63246963607E+03  0.50891512006E+03 0.  0.
        1    1    3    3  502    0  0.97960589707E+02 -0.11304065595E+03  0.68060878507E+02  0.16433730630E+03  0.50400001928E-02 0. -1.
       -1    1    3    3    0  502 -0.97960589707E+02  0.11304065595E+03 -0.44359149126E+03  0.46813232977E+03  0.50400001928E-02 0.  1.
</event>
<event>
 5   0  0.1292375E-01  0.5009115E+03  0.7818609E-02  0.1013541E+00
        3   -1    0    0  501    0  0.00000000000E+00  0.00000000000E+00  0.12719535640E+03  0.12719539650E+03  0.10100000352E+00 0. -1.
       -3   -1    0    0    0  501  0.00000000000E+00  0.00000000000E+00 -0.49316322573E+03  0.49316323608E+03  0.10100000352E+00 0.  1.
    10030    2    1    2    0    0  0.00000000000E+00  0.00000000000E+00 -0.36596786934E+03  0.62035863257E+03  0.50091152075E+03 0.  0.
        1    1    3    3  502    0 -0.16441829904E+03 -0.15047300771E+03 -0.32447534350E+03  0.39364927496E+03  0.50400001928E-02 0. -1.
       -1    1    3    3    0  502  0.16441829904E+03  0.15047300771E+03 -0.41492525832E+02  0.22670935762E+03  0.50400001928E-02 0.  1.
</event>
<event>
 5   0  0.1967161E-01  0.5000751E+03  0.7818609E-02  0.1013759E+00
       -1   -1    0    0    0  501  0.00000000000E+00  0.00000000000E+00  0.38264915730E+03  0.38264915734E+03  0.50400001928E-02 0. -1.
        1   -1    0    0  501    0  0.00000000000E+00  0.00000000000E+00 -0.16338404959E+03  0.16338404966E+03  0.50400001928E-02 0.  1.
    10030    2    1    2    0    0  0.00000000000E+00  0.00000000000E+00  0.21926510772E+03  0.54603320700E+03  0.50007507005E+03 0.  0.
        1    1    3    3  502    0 -0.65637367064E+02 -0.20972020866E+03 -0.20610583219E+02  0.22071616625E+03  0.50400001928E-02 0.  1.
       -1    1    3    3    0  502  0.65637367064E+02  0.20972020866E+03  0.23987569094E+03  0.32531704075E+03  0.50400001928E-02 0. -1.
</event>
<event>
 5   0  0.3178149E-01  0.4976729E+03  0.7818609E-02  0.1014388E+00
       -2   -1    0    0    0  501  0.00000000000E+00  0.00000000000E+00  0.11791340558E+03  0.11791340561E+03  0.25500000920E-02 0.  1.
        2   -1    0    0  501    0  0.00000000000E+00  0.00000000000E+00 -0.52512759797E+03  0.52512759798E+03  0.25500000920E-02 0. -1.
    10030    2    1    2    0    0  0.00000000000E+00  0.00000000000E+00 -0.40721419239E+03  0.64304100358E+03  0.49767291849E+03 0.  0.
        3    1    3    3  502    0  0.18772656850E+03 -0.15288256704E+03 -0.12932306512E+03  0.27447915987E+03  0.10100000352E+00 0. -1.
       -3    1    3    3    0  502 -0.18772656850E+03  0.15288256704E+03 -0.27789112727E+03  0.36856184372E+03  0.10100000352E+00 0.  1.
</event>
<event>
 5   0  0.1984297E-01  0.4949824E+03  0.7818609E-02  0.1015097E+00
       -1   -1    0    0    0  501  0.00000000000E+00  0.00000000000E+00  0.15653326876E+03  0.15653326884E+03  0.50400001928E-02 0.  1.
        1   -1    0    0  501    0  0.00000000000E+00  0.00000000000E+00 -0.39130279048E+03  0.39130279051E+03  0.50400001928E-02 0. -1.
    10030    2    1    2    0    0  0.00000000000E+00  0.00000000000E+00 -0.23476952172E+03  0.54783605935E+03  0.49498244372E+03 0.  0.
        3    1    3    3  502    0  0.18163496287E+03 -0.16628126513E+03 -0.14474651303E+03  0.28564362780E+03  0.10100000352E+00 0. -1.
       -3    1    3    3    0  502 -0.18163496287E+03  0.16628126513E+03 -0.90023008698E+02  0.26219243155E+03  0.10100000352E+00 0.  1.
</event>
<event>
 5   0  0.1984680E-01  0.5035789E+03  0.7818609E-02  0.1012849E+00
        1   -1    0    0  501    0  0.00000000000E+00  0.00000000000E+00  0.56356938745E+02  0.56356938970E+02  0.50400001928E-02 0.  1.
       -1   -1    0    0    0  501  0.00000000000E+00  0.00000000000E+00 -0.11249353824E+04  0.11249353824E+04  0.50400001928E-02 0. -1.
    10030    2    1    2    0    0  0.00000000000E+00  0.00000000000E+00 -0.10685784436E+04  0.11812923214E+04  0.50357885014E+03 0.  0.
        5    1    3    3  502    0  0.24348531296E+03 -0.63784446153E+02 -0.52321881833E+03  0.58063204790E+03  0.46999998093E+01 0.  1.
       -5    1    3    3    0  502 -0.24348531296E+03  0.63784446153E+02 -0.54535962531E+03  0.60066027346E+03  0.46999998093E+01 0. -1.
</event>
<event>
 5   0  0.1292375E-01  0.4949023E+03  0.7818609E-02  0.1015118E+00
       -3   -1    0    0    0  501  0.00000000000E+00  0.00000000000E+00  0.44976041775E+03  0.44976042909E+03  0.10100000352E+00 0.  1.
        3   -1    0    0  501    0  0.00000000000E+00  0.00000000000E+00 -0.13614370275E+03  0.13614374022E+03  0.10100000352E+00 0. -1.
    10030    2    1    2    0    0  0.00000000000E+00  0.00000000000E+00  0.31361671500E+03  0.58590416931E+03  0.49490226478E+03 0.  0.
        1    1    3    3  502    0  0.23417928636E+03 -0.38042439776E+02  0.73558059884E+02  0.24839072765E+03  0.50400001928E-02 0. -1.
       -1    1    3    3    0  502 -0.23417928636E+03  0.38042439776E+02  0.24005865511E+03  0.33751344166E+03  0.50400001928E-02 0.  1.
</event>
<event>
 5   0  0.1967161E-01  0.5087788E+03  0.7818609E-02  0.1011513E+00
        1   -1    0    0  501    0  0.00000000000E+00  0.00000000000E+00  0.23224295318E+03  0.23224295324E+03  0.50400001928E-02 0.  1.
       -1   -1    0    0    0  501  0.00000000000E+00  0.00000000000E+00 -0.27864767211E+03  0.27864767215E+03  0.50400001928E-02 0. -1.
    10030    2    1    2    0    0  0.00000000000E+00  0.00000000000E+00 -0.46404718923E+02  0.51089062539E+03  0.50877876643E+03 0.  0.
        1    1    3    3  502    0 -0.15241942230E+03 -0.20158831838E+03 -0.52382019939E+02  0.25809573115E+03  0.50400001928E-02 0. -1.
       -1    1    3    3    0  502  0.15241942230E+03  0.20158831838E+03  0.59773010158E+01  0.25279489424E+03  0.50400001928E-02 0.  1.
</event>
<event>
 5   0  0.1967161E-01  0.4995868E+03  0.7818609E-02  0.1013887E+00
       -1   -1    0    0    0  501  0.00000000000E+00  0.00000000000E+00  0.16617738037E+03  0.16617738044E+03  0.50400001928E-02 0.  1.
        1   -1    0    0  501    0  0.00000000000E+00  0.00000000000E+00 -0.37548275658E+03  0.37548275662E+03  0.50400001928E-02 0. -1.
    10030    2    1    2    0    0  0.00000000000E+00  0.00000000000E+00 -0.20930537622E+03  0.54166013706E+03  0.49958679283E+03 0.  0.
        1    1    3    3  502    0  0.14379511284E+03 -0.20346936421E+03 -0.12404544191E+03  0.27832371141E+03  0.50400001928E-02 0. -1.
       -1    1    3    3    0  502 -0.14379511284E+03  0.20346936421E+03 -0.85259934309E+02  0.26333642565E+03  0.50400001928E-02 0.  1.
</event>
<event>
 5   0  0.1292375E-01  0.4470341E+03  0.7818609E-02  0.1028610E+00
        3   -1    0    0  501    0  0.00000000000E+00  0.00000000000E+00  0.76844500174E+02  0.76844566548E+02  0.10100000352E+00 0.  1.
       -3   -1    0    0    0  501  0.00000000000E+00  0.00000000000E+00 -0.65014211115E+03  0.65014211900E+03  0.10100000352E+00 0. -1.
    10030    2    1    2    0    0  0.00000000000E+00  0.00000000000E+00 -0.57329761098E+03  0.72698668555E+03  0.44703410408E+03 0.  0.
        1    1    3    3  502    0  0.21484006737E+03 -0.18769435629E+02 -0.38218739138E+03  0.43883453421E+03  0.50400001928E-02 0.  1.
       -1    1    3    3    0  502 -0.21484006737E+03  0.18769435629E+02 -0.19111021960E+03  0.28815215134E+03  0.50400001928E-02 0. -1.
</event>
<event>
 5   0  0.3178149E-01  0.5092957E+03  0.7818609E-02  0.1011381E+00
       -2   -1    0    0    0  501  0.00000000000E+00  0.00000000000E+00  0.48669903800E+02  0.48669903867E+02  0.25500000920E-02 0.  1.
        2   -1    0    0  501    0  0.00000000000E+00  0.00000000000E+00 -0.13323535644E+04  0.13323535644E+04  0.25500000920E-02 0. -1.
    10030    2    1    2    0    0  0.00000000000E+00  0.00000000000E+00 -0.12836836606E+04  0.13810234683E+04  0.50929566994E+03 0.  0.
        3    1    3    3  502    0 -0.44505291832E+01  0.19652500025E+03 -0.20289514173E+03  0.28250368435E+03  0.10100000352E+00 0.  1.
       -3    1    3    3    0  502  0.44505291832E+01 -0.19652500025E+03 -0.10807885189E+04  0.10985197840E+04  0.10100000352E+00 0. -1.
</event>
<event>
 5   0  0.1292375E-01  0.5028481E+03  0.7818609E-02  0.1013038E+00
       -3   -1    0    0    0  501  0.00000000000E+00  0.00000000000E+00  0.12909639889E+04  0.12909639928E+04  0.10100000352E+00 0.  1.
        3   -1    0    0  501    0  0.00000000000E+00  0.00000000000E+00 -0.48966495165E+02  0.48966599328E+02  0.10100000352E+00 0. -1.
    10030    2    1    2    0    0  0.00000000000E+00  0.00000000000E+00  0.12419974937E+04  0.13399305922E+04  0.50284810571E+03 0.  0.
        3    1    3    3  502    0  0.17018132537E+02 -0.20905172209E+03  0.99043759852E+03  0.10124025317E+04  0.10100000352E+00 0.  1.
       -3    1    3    3    0  502 -0.17018132537E+02  0.20905172209E+03  0.25155989521E+03  0.32752806051E+03  0.10100000352E+00 0. -1.
</event>
<event>
 5   0  0.1967161E-01  0.4693700E+03  0.7818609E-02  0.1022098E+00
       -1   -1    0    0    0  501  0.00000000000E+00  0.00000000000E+00  0.12716757542E+03  0.12716757552E+03  0.50400001928E-02 0. -1.
        1   -1    0    0  501    0  0.00000000000E+00  0.00000000000E+00 -0.43310615992E+03  0.43310615995E+03  0.50400001928E-02 0.  1.
    10030    2    1    2    0    0  0.00000000000E+00  0.00000000000E+00 -0.30593858449E+03  0.56027373547E+03  0.46937004717E+03 0.  0.
        1    1    3    3  502    0 -0.59734864103E+02  0.17991907989E+03 -0.31810172700E+03  0.37030776126E+03  0.50400001928E-02 0.  1.
       -1    1    3    3    0  502  0.59734864103E+02 -0.17991907989E+03  0.12163142507E+02  0.18996597422E+03  0.50400001928E-02 0. -1.
</event>
<event>
 5   0  0.2000612E-01  0.4990692E+03  0.7818609E-02  0.1014022E+00
       -1   -1    0    0    0  501  0.00000000000E+00  0.00000000000E+00  0.22118220251E+03  0.22118220256E+03  0.50400001928E-02 0.  1.
        1   -1    0    0  501    0  0.00000000000E+00  0.00000000000E+00 -0.28152139107E+03  0.28152139112E+03  0.50400001928E-02 0. -1.
    10030    2    1    2    0    0  0.00000000000E+00  0.00000000000E+00 -0.60339188565E+02  0.50270359368E+03  0.49906921907E+03 0.  0.
        2    1    3    3  502    0 -0.15758662950E+03  0.16283940557E+03  0.75077205176E+02  0.23871909129E+03  0.25500000920E-02 0.  1.
       -2    1    3    3    0  502  0.15758662950E+03 -0.16283940557E+03 -0.13541639374E+03  0.26398450239E+03  0.25500000920E-02 0. -1.
</event>
<event>
 5   0  0.1984297E-01  0.4929491E+03  0.7818609E-02  0.1015636E+00
        1   -1    0    0  501    0  0.00000000000E+00  0.00000000000E+00  0.52747973912E+03  0.52747973914E+03  0.50400001928E-02 0.  1.
       -1   -1    0    0    0  501  0.00000000000E+00  0.00000000000E+00 -0.11516972137E+03  0.11516972148E+03  0.50400001928E-02 0. -1.
    10030    2    1    2    0    0  0.00000000000E+00  0.00000000000E+00  0.41231001775E+03  0.64264946062E+03  0.49294906279E+03 0.  0.
        3    1    3    3  502    0  0.29835185760E+02 -0.23595038713E+03  0.29051209235E+03  0.37544641362E+03  0.10100000352E+00 0.  1.
       -3    1    3    3    0  502 -0.29835185760E+02  0.23595038713E+03  0.12179792540E+03  0.26720304701E+03  0.10100000352E+00 0. -1.
</event>
<event>
 5   0  0.3111146E-01  0.5100128E+03  0.7818609E-02  0.1011198E+00
        2   -1    0    0  501    0  0.00000000000E+00  0.00000000000E+00  0.87699584088E+03  0.87699584089E+03  0.25500000920E-02 0.  1.
       -2   -1    0    0    0  501  0.00000000000E+00  0.00000000000E+00 -0.74148880349E+02  0.74148880393E+02  0.25500000920E-02 0. -1.
    10030    2    1    2    0    0  0.00000000000E+00  0.00000000000E+00  0.80284696053E+03  0.95114472128E+03  0.51001278296E+03 0.  0.
        1    1    3    3  502    0  0.69941061915E+02  0.98308031069E+02 -0.17554273097E+02  0.12191953758E+03  0.50400001928E-02 0. -1.
       -1    1    3    3    0  502 -0.69941061915E+02 -0.98308031069E+02  0.82040123363E+03  0.82922518370E+03  0.50400001928E-02 0.  1.
</event>
<event>
 5   0  0.3178149E-01  0.4148752E+03  0.7818609E-02  0.1038747E+00
       -2   -1    0    0    0  501  0.00000000000E+00  0.00000000000E+00  0.36693838646E+02  0.36693838735E+02  0.25500000920E-02 0.  1.
        2   -1    0    0  501    0  0.00000000000E+00  0.00000000000E+00 -0.11726861661E+04  0.11726861661E+04  0.25500000920E-02 0. -1.
    10030    2    1    2    0    0  0.00000000000E+00  0.00000000000E+00 -0.11359923274E+04  0.12093800048E+04  0.41487519576E+03 0.  0.
        3    1    3    3  502    0  0.75248768751E+02  0.14249637654E+03 -0.94877241725E+03  0.96235996616E+03  0.10100000352E+00 0. -1.
       -3    1    3    3    0  502 -0.75248768751E+02 -0.14249637654E+03 -0.18721991017E+03  0.24702003864E+03  0.10100000352E+00 0.  1.
</event>
<event>
 5   0  0.1292375E-01  0.4932479E+03  0.7818609E-02  0.1015556E+00
       -3   -1    0    0    0  501  0.00000000000E+00  0.00000000000E+00  0.14171203710E+03  0.14171207309E+03  0.10100000352E+00 0. -1.
        3   -1    0    0  501    0  0.00000000000E+00  0.00000000000E+00 -0.42920385818E+03  0.42920387007E+03  0.10100000352E+00 0.  1.
    10030    2    1    2    0    0  0.00000000000E+00  0.00000000000E+00 -0.28749182108E+03  0.57091594316E+03  0.49324787579E+03 0.  0.
        5    1    3    3  502    0  0.71848253305E+01  0.14358973068E+03 -0.37561904054E+03  0.40222056895E+03  0.46999998093E+01 0.  1.
       -5    1    3    3    0  502 -0.71848253305E+01 -0.14358973068E+03  0.88127219456E+02  0.16869537421E+03  0.46999998093E+01 0. -1.
</event>
<event>
 5   0  0.2013450E-01  0.5156469E+03  0.7818609E-02  0.1009774E+00
        1   -1    0    0  501    0  0.00000000000E+00  0.00000000000E+00  0.79973411709E+03  0.79973411711E+03  0.50400001928E-02 0. -1.
       -1   -1    0    0    0  501  0.00000000000E+00  0.00000000000E+00 -0.83118802945E+02  0.83118803098E+02  0.50400001928E-02 0.  1.
    10030    2    1    2    0    0  0.00000000000E+00  0.00000000000E+00  0.71661531415E+03  0.88285292021E+03  0.51564694341E+03 0.  0.
        4    1    3    3  502    0  0.14286256808E+03 -0.18574631887E+03  0.54239051551E+03  0.59084726669E+03  0.12699999809E+01 0.  1.
       -4    1    3    3    0  502 -0.14286256808E+03  0.18574631887E+03  0.17422479863E+03  0.29200565352E+03  0.12699999809E+01 0. -1.
</event>
<event>
 5   0  0.2000612E-01  0.5200713E+03  0.7818609E-02  0.1008669E+00
       -1   -1    0    0    0  501  0.00000000000E+00  0.00000000000E+00  0.76395390765E+02  0.76395390932E+02  0.50400001928E-02 0. -1.
        1   -1    0    0  501    0  0.00000000000E+00  0.00000000000E+00 -0.88511296888E+03  0.88511296890E+03  0.50400001928E-02 0.  1.
    10030    2    1    2    0    0  0.00000000000E+00  0.00000000000E+00 -0.80871757812E+03  0.96150835983E+03  0.52007134594E+03 0.  0.
        2    1    3    3  502    0 -0.83773581450E+02  0.24216806198E+03 -0.32260983956E+03  0.41199574243E+03  0.25500000920E-02 0.  1.
       -2    1    3    3    0  502  0.83773581450E+02 -0.24216806198E+03 -0.48610773855E+03  0.54951261740E+03  0.25500000920E-02 0. -1.
</event>
<event>
 5   0  0.2000612E-01  0.4844032E+03  0.7818609E-02  0.1017932E+00
        1   -1    0    0  501    0  0.00000000000E+00  0.00000000000E+00  0.48361519818E+03  0.48361519821E+03  0.50400001928E-02 0. -1.
       -1   -1    0    0    0  501  0.00000000000E+00  0.00000000000E+00 -0.12129811818E+03  0.12129811829E+03  0.50400001928E-02 0.  1.
    10030    2    1    2    0    0  0.00000000000E+00  0.00000000000E+00  0.36231708000E+03  0.60491331650E+03  0.48440319365E+03 0.  0.
        2    1    3    3  502    0 -0.24035833258E+03  0.26003340300E+02  0.16291985435E+03  0.29153246937E+03  0.25500000920E-02 0. -1.
       -2    1    3    3    0  502  0.24035833258E+03 -0.26003340300E+02  0.19939722565E+03  0.31338084713E+03  0.25500000920E-02 0.  1.
</event>
<event>
 5   0  0.1967161E-01  0.5009308E+03  0.7818609E-02  0.1013536E+00
        1   -1    0    0  501    0  0.00000000000E+00  0.00000000000E+00  0.26702692899E+03  0.26702692904E+03  0.50400001928E-02 0.  1.
       -1   -1    0    0    0  501  0.00000000000E+00  0.00000000000E+00 -0.23493106059E+03  0.23493106064E+03  0.50400001928E-02 0. -1.
    10030    2    1    2    0    0  0.00000000000E+00  0.00000000000E+00  0.32095868406E+02  0.50195798968E+03  0.50093081222E+03 0.  0.
        1    1    3    3  502    0 -0.41387488945E+01  0.24708848011E+03  0.56912353579E+02  0.25359192073E+03  0.50400001928E-02 0.  1.
       -1    1    3    3    0  502  0.41387488945E+01 -0.24708848011E+03 -0.24816485174E+02  0.24836606895E+03  0.50400001928E-02 0. -1.
</event>
<event>
 5   0  0.1984680E-01  0.4659322E+03  0.7818609E-02  0.1023075E+00
        1   -1    0    0  501    0  0.00000000000E+00  0.00000000000E+00  0.48221459855E+03  0.48221459857E+03  0.50400001928E-02 0.  1.
       -1   -1    0    0    0  501  0.00000000000E+00  0.00000000000E+00 -0.11254991169E+03  0.11254991181E+03  0.50400001928E-02 0. -1.
    10030    2    1    2    0    0  0.00000000000E+00  0.00000000000E+00  0.36966468685E+03  0.59476451038E+03  0.46593222908E+03 0.  0.
        5    1    3    3  502    0  0.10753210882E+03  0.42187445100E+02  0.44301520072E+03  0.45785095066E+03  0.46999998093E+01 0.  1.
       -5    1    3    3    0  502 -0.10753210882E+03 -0.42187445100E+02 -0.73350513869E+02  0.13691355972E+03  0.46999998093E+01 0. -1.
</event>
<event>
 5   0  0.2013450E-01  0.4997151E+03  0.7818609E-02  0.1013853E+00
        1   -1    0    0  501    0  0.00000000000E+00  0.00000000000E+00  0.13640017155E+04  0.13640017155E+04  0.50400001928E-02 0.  1.
       -1   -1    0    0    0  501  0.00000000000E+00  0.00000000000E+00 -0.45768846613E+02  0.45768846891E+02  0.50400001928E-02 0. -1.
    10030    2    1    2    0    0  0.00000000000E+00  0.00000000000E+00  0.13182328689E+04  0.14097705624E+04  0.49971506081E+03 0.  0.
        4    1    3    3  502    0  0.10453093563E+03 -0.10792321924E+03  0.12223087215E+04  0.12315089773E+04  0.12699999809E+01 0.  1.
       -4    1    3    3    0  502 -0.10453093563E+03  0.10792321924E+03  0.95924147424E+02  0.17826158508E+03  0.12699999809E+01 0. -1.
</event>
<event>
 5   0  0.3117389E-01  0.5068876E+03  0.7818609E-02  0.1011997E+00
       -2   -1    0    0    0  501  0.00000000000E+00  0.00000000000E+00  0.71970396190E+02  0.71970396235E+02  0.25500000920E-02 0. -1.
        2   -1    0    0  501    0  0.00000000000E+00  0.00000000000E+00 -0.89250256993E+03  0.89250256993E+03  0.25500000920E-02 0.  1.
    10030    2    1    2    0    0  0.00000000000E+00  0.00000000000E+00 -0.82053217374E+03  0.96447296616E+03  0.50688761508E+03 0.  0.
        4    1    3    3  502    0  0.21589259249E+03 -0.12838618529E+03 -0.34603568844E+03  0.42759201891E+03  0.12699999809E+01 0. -1.
       -4    1    3    3    0  502 -0.21589259249E+03  0.12838618529E+03 -0.47449648529E+03  0.53688094725E+03  0.12699999809E+01 0.  1.
</event>
<event>
 5   0  0.1292375E-01  0.5007853E+03  0.7818609E-02  0.1013574E+00
        3   -1    0    0  501    0  0.00000000000E+00  0.00000000000E+00  0.72596692364E+02  0.72596762622E+02  0.10100000352E+00 0. -1.
       -3   -1    0    0    0  501  0.00000000000E+00  0.00000000000E+00 -0.86362688802E+03  0.86362689393E+03  0.10100000352E+00 0.  1.
    10030    2    1    2    0    0  0.00000000000E+00  0.00000000000E+00 -0.79103019566E+03  0.93622365655E+03  0.50078534787E+03 0.  0.
        4    1    3    3  502    0 -0.54190650674E+02  0.18707031441E+03 -0.10132423528E+03  0.21954530901E+03  0.12699999809E+01 0. -1.
       -4    1    3    3    0  502  0.54190650674E+02 -0.18707031441E+03 -0.68970596038E+03  0.71667834754E+03  0.12699999809E+01 0.  1.
</event>
<event>
 5   0  0.3117389E-01  0.5016322E+03  0.7818609E-02  0.1013354E+00
        2   -1    0    0  501    0  0.00000000000E+00  0.00000000000E+00  0.37222292641E+03  0.37222292642E+03  0.25500000920E-02 0.  1.
       -2   -1    0    0    0  501  0.00000000000E+00  0.00000000000E+00 -0.16900814530E+03  0.16900814532E+03  0.25500000920E-02 0. -1.
    10030    2    1    2    0    0  0.00000000000E+00  0.00000000000E+00  0.20321478111E+03  0.54123107174E+03  0.50163216181E+03 0.  0.
        4    1    3    3  502    0 -0.19534501109E+02 -0.20743060850E+03 -0.49050825468E+02  0.21404824329E+03  0.12699999809E+01 0. -1.
       -4    1    3    3    0  502  0.19534501109E+02  0.20743060850E+03  0.25226560658E+03  0.32718282846E+03  0.12699999809E+01 0.  1.
</event>
<event>
 5   0  0.1967161E-01  0.5053694E+03  0.7818609E-02  0.1012387E+00
       -1   -1    0    0    0  501  0.00000000000E+00  0.00000000000E+00  0.23682648419E+03  0.23682648425E+03  0.50400001928E-02 0. -1.
        1   -1    0    0  501    0  0.00000000000E+00  0.00000000000E+00 -0.26960483592E+03  0.26960483597E+03  0.50400001928E-02 0.  1.
    10030    2    1    2    0    0  0.00000000000E+00  0.00000000000E+00 -0.32778351727E+02  0.50643132021E+03  0.50536943096E+03 0.  0.
        1    1    3    3  502    0 -0.23116158225E+03  0.54651909508E+02  0.69972282847E+02  0.24762598554E+03  0.50400001928E-02 0. -1.
       -1    1    3    3    0  502  0.23116158225E+03 -0.54651909508E+02 -0.10275063457E+03  0.25880533467E+03  0.50400001928E-02 0.  1.
</event>
<event>
 5   0  0.2013450E-01  0.3942278E+03  0.7818609E-02  0.1045797E+00
       -1   -1    0    0    0  501  0.00000000000E+00  0.00000000000E+00  0.62234207238E+03  0.62234207240E+03  0.50400001928E-02 0. -1.
        1   -1    0    0  501    0  0.00000000000E+00  0.00000000000E+00 -0.62431738400E+02  0.62431738604E+02  0.50400001928E-02 0.  1.
    10030    2    1    2    0    0  0.00000000000E+00  0.00000000000E+00  0.55991033398E+03  0.68477381100E+03  0.39422784039E+03 0.  0.
        4    1    3    3  502    0  0.85168618510E+02  0.14244200777E+03  0.95237101936E+02  0.19135082346E+03  0.12699999809E+01 0.  1.
       -4    1    3    3    0  502 -0.85168618510E+02 -0.14244200777E+03  0.46467323204E+03  0.49342298754E+03  0.12699999809E+01 0. -1.
</event>
<event>
 5   0  0.3117389E-01  0.5070710E+03  0.7818609E-02  0.1011950E+00
        2   -1    0    0  501    0  0.00000000000E+00  0.00000000000E+00  0.12725555734E+04  0.12725555734E+04  0.25500000920E-02 0. -1.
       -2   -1    0    0    0  501  0.00000000000E+00  0.00000000000E+00 -0.50512729847E+02  0.50512729912E+02  0.25500000920E-02 0.  1.
    10030    2    1    2    0    0  0.00000000000E+00  0.00000000000E+00  0.12220428435E+04  0.13230683033E+04  0.50707102437E+03 0.  0.
        4    1    3    3  502    0 -0.85193163704E+02  0.23750261911E+03  0.67563751269E+03  0.72121635497E+03  0.12699999809E+01 0. -1.
       -4    1    3    3    0  502  0.85193163704E+02 -0.23750261911E+03  0.54640533084E+03  0.60185194832E+03  0.12699999809E+01 0.  1.
</event>
<event>
 5   0  0.3117389E-01  0.5202000E+03  0.7818609E-02  0.1008637E+00
       -2   -1    0    0    0  501  0.00000000000E+00  0.00000000000E+00  0.10161548244E+03  0.10161548247E+03  0.25500000920E-02 0.  1.
        2   -1    0    0  501    0  0.00000000000E+00  0.00000000000E+00 -0.66576483986E+03  0.66576483986E+03  0.25500000920E-02 0. -1.
    10030    2    1    2    0    0  0.00000000000E+00  0.00000000000E+00 -0.56414935742E+03  0.76738032233E+03  0.52020002079E+03 0.  0.
        4    1    3    3  502    0  0.13718100198E+03 -0.28363841014E+02  0.41209338022E+02  0.14602382415E+03  0.12699999809E+01 0.  1.
       -4    1    3    3    0  502 -0.13718100198E+03  0.28363841014E+02 -0.60535869544E+03  0.62135649818E+03  0.12699999809E+01 0. -1.
</event>
<event>
 5   0  0.3187123E-01  0.5023101E+03  0.7818609E-02  0.1013178E+00
        2   -1    0    0  501    0  0.00000000000E+00  0.00000000000E+00  0.92447501066E+03  0.92447501067E+03  0.25500000920E-02 0.  1.
       -2   -1    0    0    0  501  0.00000000000E+00  0.00000000000E+00 -0.68232091739E+02  0.68232091786E+02  0.25500000920E-02 0. -1.
    10030    2    1    2    0    0  0.00000000000E+00  0.00000000000E+00  0.85624291893E+03  0.99270710245E+03  0.50231011841E+03 0.  0.
        5    1    3    3  502    0 -0.86867958174E+02  0.21717396755E+03  0.60866983337E+03  0.65208253342E+03  0.46999998093E+01 0. -1.
       -5    1    3    3    0  502  0.86867958174E+02 -0.21717396755E+03  0.24757308556E+03  0.34062456904E+03  0.46999998093E+01 0.  1.
</event>
<event>
 5   0  0.3111146E-01  0.4987205E+03  0.7818609E-02  0.1014113E+00
        2   -1    0    0  501    0  0.00000000000E+00  0.00000000000E+00  0.46204593062E+03  0.46204593062E+03  0.25500000920E-02 0.  1.
       -2   -1    0    0    0  501  0.00000000000E+00  0.00000000000E+00 -0.13457653900E+03  0.13457653902E+03  0.25500000920E-02 0. -1.
    10030    2    1    2    0    0  0.00000000000E+00  0.00000000000E+00  0.32746939162E+03  0.59662246965E+03  0.49872053180E+03 0.  0.
        1    1    3    3  502    0  0.12659310456E+03  0.16253161883E+03  0.33180699472E+03  0.39056142028E+03  0.50400001928E-02 0.  1.
       -1    1    3    3    0  502 -0.12659310456E+03 -0.16253161883E+03 -0.43376031043E+01  0.20606104937E+03  0.50400001928E-02 0. -1.
</event>
<event>
 5   0  0.1984680E-01  0.4978798E+03  0.7818609E-02  0.1014334E+00
        1   -1    0    0  501    0  0.00000000000E+00  0.00000000000E+00  0.34687660750E+03  0.34687660754E+03  0.50400001928E-02 0. -1.
       -1   -1    0    0    0  501  0.00000000000E+00  0.00000000000E+00 -0.17865453870E+03  0.17865453877E+03  0.50400001928E-02 0.  1.
    10030    2    1    2    0    0  0.00000000000E+00  0.00000000000E+00  0.16822206880E+03  0.52553114631E+03  0.49787982618E+03 0.  0.
        5    1    3    3  502    0 -0.82094087287E+02 -0.20663331277E+03 -0.33959412588E+02  0.22497132443E+03  0.46999998093E+01 0.  1.
       -5    1    3    3    0  502  0.82094087287E+02  0.20663331277E+03  0.20218148139E+03  0.30055982188E+03  0.46999998093E+01 0. -1.
</event>
<event>
 5   0  0.3187123E-01  0.5005224E+03  0.7818609E-02  0.1013643E+00
       -2   -1    0    0    0  501  0.00000000000E+00  0.00000000000E+00  0.99481063527E+02  0.99481063560E+02  0.25500000920E-02 0.  1.
        2   -1    0    0  501    0  0.00000000000E+00  0.00000000000E+00 -0.62957375788E+03  0.62957375789E+03  0.25500000920E-02 0. -1.
    10030    2    1    2    0    0  0.00000000000E+00  0.00000000000E+00 -0.53009269435E+03  0.72905482144E+03  0.50052239517E+03 0.  0.
        5    1    3    3  502    0 -0.73240483015E+02 -0.17234553433E+03 -0.50677597279E+03  0.54028800482E+03  0.46999998093E+01 0. -1.
       -5    1    3    3    0  502  0.73240483015E+02  0.17234553433E+03 -0.23316721568E+02  0.18876681663E+03  0.46999998093E+01 0.  1.
</event>
<event>
 5   0  0.1292375E-01  0.5038616E+03  0.7818609E-02  0.1012776E+00
       -4   -1    0    0    0  501  0.00000000000E+00  0.00000000000E+00  0.54364063343E+03  0.54364211686E+03  0.12699999809E+01 0.  1.
        4   -1    0    0  501    0  0.00000000000E+00  0.00000000000E+00 -0.11674320575E+03  0.11675011344E+03  0.12699999809E+01 0. -1.
    10030    2    1    2    0    0  0.00000000000E+00  0.00000000000E+00  0.42689742768E+03  0.66039223030E+03  0.50386157234E+03 0.  0.
        1    1    3    3  502    0  0.98430249021E+02 -0.19191207780E+02  0.51635715502E+03  0.52600525467E+03  0.50400001928E-02 0.  1.
       -1    1    3    3    0  502 -0.98430249021E+02  0.19191207780E+02 -0.89459727336E+02  0.13438697563E+03  0.50400001928E-02 0. -1.
</event>
<event>
 5   0  0.3187123E-01  0.4921978E+03  0.7818609E-02  0.1015836E+00
        2   -1    0    0  501    0  0.00000000000E+00  0.00000000000E+00  0.30511266714E+03  0.30511266715E+03  0.25500000920E-02 0.  1.
       -2   -1    0    0    0  501  0.00000000000E+00  0.00000000000E+00 -0.19849935141E+03  0.19849935143E+03  0.25500000920E-02 0. -1.
    10030    2    1    2    0    0  0.00000000000E+00  0.00000000000E+00  0.10661331573E+03  0.50361201857E+03  0.49219779171E+03 0.  0.
        5    1    3    3  502    0 -0.12675623565E+03 -0.19333181666E+03 -0.32898216616E+02  0.23355666820E+03  0.46999998093E+01 0.  1.
       -5    1    3    3    0  502  0.12675623565E+03  0.19333181666E+03  0.13951153234E+03  0.27005535037E+03  0.46999998093E+01 0. -1.
</event>
<event>
 5   0  0.1984297E-01  0.4984641E+03  0.7818609E-02  0.1014181E+00
       -1   -1    0    0    0  501  0.00000000000E+00  0.00000000000E+00  0.42096947570E+02  0.42096947871E+02  0.50400001928E-02 0.  1.
        1   -1    0    0  501    0  0.00000000000E+00  0.00000000000E+00 -0.14755612629E+04  0.14755612629E+04  0.50400001928E-02 0. -1.
    10030    2    1    2    0    0  0.00000000000E+00  0.00000000000E+00 -0.14334643154E+04  0.15176582108E+04  0.49846414257E+03 0.  0.
        3    1    3    3  502    0 -0.89605555310E+02  0.23244540944E+03 -0.73963633397E+03  0.78046264526E+03  0.10100000352E+00 0.  1.
       -3    1    3    3    0  502  0.89605555310E+02 -0.23244540944E+03 -0.69382798140E+03  0.73719556556E+03  0.10100000352E+00 0. -1.
</event>
<event>
 5   0  0.2000612E-01  0.5022085E+03  0.7818609E-02  0.1013204E+00
        1   -1    0    0  501    0  0.00000000000E+00  0.00000000000E+00  0.45757029353E+03  0.45757029356E+03  0.50400001928E-02 0. -1.
       -1   -1    0    0    0  501  0.00000000000E+00  0.00000000000E+00 -0.13780035410E+03  0.13780035420E+03  0.50400001928E-02 0.  1.
    10030    2    1    2    0    0  0.00000000000E+00  0.00000000000E+00  0.31976993943E+03  0.59537064776E+03  0.50220851650E+03 0.  0.
        2    1    3    3  502    0  0.75436072387E+02  0.23489687138E+03  0.10445444153E+03  0.26791392566E+03  0.25500000920E-02 0.  1.
       -2    1    3    3    0  502 -0.75436072387E+02 -0.23489687138E+03  0.21531549790E+03  0.32745672209E+03  0.25500000920E-02 0. -1.
</event>
<event>
 5   0  0.1984297E-01  0.4824066E+03  0.7818609E-02  0.1018476E+00
        1   -1    0    0  501    0  0.00000000000E+00  0.00000000000E+00  0.26199003798E+03  0.26199003803E+03  0.50400001928E-02 0.  1.
       -1   -1    0    0    0  501  0.00000000000E+00  0.00000000000E+00 -0.22206579410E+03  0.22206579416E+03  0.50400001928E-02 0. -1.
    10030    2    1    2    0    0  0.00000000000E+00  0.00000000000E+00  0.39924243884E+02  0.48405583219E+03  0.48240657481E+03 0.  0.
        3    1    3    3  502    0 -0.74640798250E+02  0.11081932139E+03  0.22146412206E+03  0.25864751751E+03  0.10100000352E+00 0.  1.
       -3    1    3    3    0  502  0.74640798250E+02 -0.11081932139E+03 -0.18153987817E+03  0.22540831467E+03  0.10100000352E+00 0. -1.
</event>
<event>
 5   0  0.1292375E-01  0.5179849E+03  0.7818609E-02  0.1009188E+00
        3   -1    0    0  501    0  0.00000000000E+00  0.00000000000E+00  0.58287868901E+03  0.58287869776E+03  0.10100000352E+00 0. -1.
       -3   -1    0    0    0  501  0.00000000000E+00  0.00000000000E+00 -0.11507897382E+03  0.11507901814E+03  0.10100000352E+00 0.  1.
    10030    2    1    2    0    0  0.00000000000E+00  0.00000000000E+00  0.46779971519E+03  0.69795771589E+03  0.51798494153E+03 0.  0.
        5    1    3    3  502    0 -0.14729742881E+02  0.69525388087E+02  0.56942321596E+03  0.57386029118E+03  0.46999998093E+01 0. -1.
       -5    1    3    3    0  502  0.14729742881E+02 -0.69525388087E+02 -0.10162350077E+03  0.12409742472E+03  0.46999998093E+01 0.  1.
</event>
<event>
 5   0  0.1984297E-01  0.3907518E+03  0.7818609E-02  0.1047030E+00
       -1   -1    0    0    0  501  0.00000000000E+00  0.00000000000E+00  0.56506096546E+02  0.56506096771E+02  0.50400001928E-02 0. -1.
        1   -1    0    0  501    0  0.00000000000E+00  0.00000000000E+00 -0.67553319213E+03  0.67553319215E+03  0.50400001928E-02 0.  1.
    10030    2    1    2    0    0  0.00000000000E+00  0.00000000000E+00 -0.61902709559E+03  0.73203928892E+03  0.39075180800E+03 0.  0.
        3    1    3    3  502    0 -0.15242936774E+03  0.11635650848E+03 -0.23946233992E+03  0.30678293899E+03  0.10100000352E+00 0. -1.
       -3    1    3    3    0  502  0.15242936774E+03 -0.11635650848E+03 -0.37956475567E+03  0.42525634993E+03  0.10100000352E+00 0.  1.
</event>
<event>
 5   0  0.3329246E-01  0.5097422E+03  0.7818609E-02  0.1011267E+00
        2   -1    0    0  501    0  0.00000000000E+00  0.00000000000E+00  0.21568546554E+03  0.21568546555E+03  0.25500000920E-02 0.  1.
       -2   -1    0    0    0  501  0.00000000000E+00  0.00000000000E+00 -0.30117599951E+03  0.30117599952E+03  0.25500000920E-02 0. -1.
    10030    2    1    2    0    0  0.00000000000E+00  0.00000000000E+00 -0.85490533976E+02  0.51686146508E+03  0.50974223160E+03 0.  0.
        2    1    3    3  502    0  0.38374191102E+02  0.18602538359E+03  0.12957312564E+03  0.22992872108E+03  0.25500000920E-02 0.  1.
       -2    1    3    3    0  502 -0.38374191102E+02 -0.18602538359E+03 -0.21506365962E+03  0.28693274400E+03  0.25500000920E-02 0. -1.
</event>
<event>
 5   0  0.1984297E-01  0.5657778E+03  0.7818609E-02  0.9979066E-01
       -1   -1    0    0    0  501  0.00000000000E+00  0.00000000000E+00  0.67263366008E+02  0.67263366197E+02  0.50400001928E-02 0.  1.
        1   -1    0    0  501    0  0.00000000000E+00  0.00000000000E+00 -0.11897429539E+04  0.11897429539E+04  0.50400001928E-02 0. -1.
    10030    2    1    2    0    0  0.00000000000E+00  0.00000000000E+00 -0.11224795879E+04  0.12570063201E+04  0.56577775102E+03 0.  0.
        3    1    3    3  502    0 -0.11323948221E+03  0.25744685669E+03 -0.62877609896E+03  0.68881162677E+03  0.10100000352E+00 0. -1.
       -3    1    3    3    0  502  0.11323948221E+03 -0.25744685669E+03 -0.49370348892E+03  0.56819469332E+03  0.10100000352E+00 0.  1.
</event>
<event>
 5   0  0.2000612E-01  0.5259179E+03  0.7818609E-02  0.1007227E+00
        1   -1    0    0  501    0  0.00000000000E+00  0.00000000000E+00  0.20188427269E+03  0.20188427275E+03  0.50400001928E-02 0.  1.
       -1   -1    0    0    0  501  0.00000000000E+00  0.00000000000E+00 -0.34251016197E+03  0.34251016200E+03  0.50400001928E-02 0. -1.
    10030    2    1    2    0    0  0.00000000000E+00  0.00000000000E+00 -0.14062588928E+03  0.54439443475E+03  0.52591792121E+03 0.  0.
        2    1    3    3  502    0 -0.19350706014E+03 -0.17789752095E+03 -0.77983032688E+02  0.27417852520E+03  0.25500000920E-02 0.  1.
       -2    1    3    3    0  502  0.19350706014E+03  0.17789752095E+03 -0.62642856593E+02  0.27021590955E+03  0.25500000920E-02 0. -1.
</event>
<event>
 5   0  0.1967161E-01  0.5063650E+03  0.7818609E-02  0.1012131E+00
       -1   -1    0    0    0  501  0.00000000000E+00  0.00000000000E+00  0.51366815863E+02  0.51366816110E+02  0.50400001928E-02 0. -1.
        1   -1    0    0  501    0  0.00000000000E+00  0.00000000000E+00 -0.12479142535E+04  0.12479142535E+04  0.50400001928E-02 0.  1.
    10030    2    1    2    0    0  0.00000000000E+00  0.00000000000E+00 -0.11965474376E+04  0.12992810696E+04  0.50636501396E+03 0.  0.
        1    1    3    3  502    0 -0.19701618781E+03  0.51832581014E+02 -0.21253987063E+03  0.29440650697E+03  0.50400001928E-02 0. -1.
       -1    1    3    3    0  502  0.19701618781E+03 -0.51832581014E+02 -0.98400756701E+03  0.10048745627E+04  0.50400001928E-02 0.  1.
</event>
<event>
 5   0  0.3111146E-01  0.4846475E+03  0.7818609E-02  0.1017866E+00
        2   -1    0    0  501    0  0.00000000000E+00  0.00000000000E+00  0.52381490620E+03  0.52381490621E+03  0.25500000920E-02 0. -1.
       -2   -1    0    0    0  501  0.00000000000E+00  0.00000000000E+00 -0.11210218934E+03  0.11210218937E+03  0.25500000920E-02 0.  1.
    10030    2    1    2    0    0  0.00000000000E+00  0.00000000000E+00  0.41171271686E+03  0.63591709558E+03  0.48464749171E+03 0.  0.
        1    1    3    3  502    0  0.14662615123E+02  0.45996624005E+02 -0.10572827077E+03  0.11622886461E+03  0.50400001928E-02 0.  1.
       -1    1    3    3    0  502 -0.14662615123E+02 -0.45996624005E+02  0.51744098763E+03  0.51968823097E+03  0.50400001928E-02 0. -1.
</event>
<event>
 5   0  0.3329246E-01  0.4969228E+03  0.7818609E-02  0.1014585E+00
        2   -1    0    0  501    0  0.00000000000E+00  0.00000000000E+00  0.11827714679E+04  0.11827714679E+04  0.25500000920E-02 0.  1.
       -2   -1    0    0    0  501  0.00000000000E+00  0.00000000000E+00 -0.52193579621E+02  0.52193579683E+02  0.25500000920E-02 0. -1.
    10030    2    1    2    0    0  0.00000000000E+00  0.00000000000E+00  0.11305778882E+04  0.12349650475E+04  0.49692283836E+03 0.  0.
        2    1    3    3  502    0  0.10769815058E+03 -0.18499355908E+03  0.25180001928E+03  0.33049169166E+03  0.25500000920E-02 0. -1.
       -2    1    3    3    0  502 -0.10769815058E+03  0.18499355908E+03  0.87877786896E+03  0.90447335589E+03  0.25500000920E-02 0.  1.
</event>
<event>
 5   0  0.1292375E-01  0.4926407E+03  0.7818609E-02  0.1015718E+00
       -3   -1    0    0    0  501  0.00000000000E+00  0.00000000000E+00  0.95296266351E+02  0.95296319873E+02  0.10100000352E+00 0. -1.
        3   -1    0    0  501    0  0.00000000000E+00  0.00000000000E+00 -0.63668479580E+03  0.63668480381E+03  0.10100000352E+00 0.  1.
    10030    2    1    2    0    0  0.00000000000E+00  0.00000000000E+00 -0.54138852944E+03  0.73198112368E+03  0.49264066581E+03 0.  0.
        5    1    3    3  502    0  0.55381443086E+02  0.23557402474E+03 -0.33861141989E+03  0.41622350852E+03  0.46999998093E+01 0. -1.
       -5    1    3    3    0  502 -0.55381443086E+02 -0.23557402474E+03 -0.20277710956E+03  0.31575761516E+03  0.46999998093E+01 0.  1.
</event>
<event>
 5   0  0.1984297E-01  0.5170284E+03  0.7818609E-02  0.1009427E+00
       -1   -1    0    0    0  501  0.00000000000E+00  0.00000000000E+00  0.16378609940E+03  0.16378609948E+03  0.50400001928E-02 0.  1.
        1   -1    0    0  501    0  0.00000000000E+00  0.00000000000E+00 -0.40802966144E+03  0.40802966147E+03  0.50400001928E-02 0. -1.
    10030    2    1    2    0    0  0.00000000000E+00  0.00000000000E+00 -0.24424356204E+03  0.57181576095E+03  0.51702838111E+03 0.  0.
        3    1    3    3  502    0  0.21296542567E+03 -0.33433832222E+02  0.35677048349E+02  0.21850619132E+03  0.10100000352E+00 0.  1.
       -3    1    3    3    0  502 -0.21296542567E+03  0.33433832222E+02 -0.27992061039E+03  0.35330956963E+03  0.10100000352E+00 0. -1.
</event>
<event>
 5   0  0.3111146E-01  0.5081785E+03  0.7818609E-02  0.1011666E+00
       -2   -1    0    0    0  501  0.00000000000E+00  0.00000000000E+00  0.53801294894E+02  0.53801294955E+02  0.25500000920E-02 0.  1.
        2   -1    0    0  501    0  0.00000000000E+00  0.00000000000E+00 -0.11999959858E+04  0.11999959858E+04  0.25500000920E-02 0. -1.
    10030    2    1    2    0    0  0.00000000000E+00  0.00000000000E+00 -0.11461946909E+04  0.12537972808E+04  0.50817846450E+03 0.  0.
        1    1    3    3  502    0  0.16951000480E+03  0.38365158384E+02 -0.11578685051E+03  0.20883515480E+03  0.50400001928E-02 0.  1.
       -1    1    3    3    0  502 -0.16951000480E+03 -0.38365158384E+02 -0.10304078404E+04  0.10449621260E+04  0.50400001928E-02 0. -1.
</event>
<event>
 5   0  0.1967161E-01  0.5143384E+03  0.7818609E-02  0.1010103E+00
       -1   -1    0    0    0  501  0.00000000000E+00  0.00000000000E+00  0.71863968187E+02  0.71863968363E+02  0.50400001928E-02 0.  1.
        1   -1    0    0  501    0  0.00000000000E+00  0.00000000000E+00 -0.92029411693E+03  0.92029411695E+03  0.50400001928E-02 0. -1.
    10030    2    1    2    0    0  0.00000000000E+00  0.00000000000E+00 -0.84843014875E+03  0.99215808531E+03  0.51433836037E+03 0.  0.
        1    1    3    3  502    0 -0.54660586719E+01  0.20661570245E+03 -0.71939640045E+03  0.74849923667E+03  0.50400001928E-02 0. -1.
       -1    1    3    3    0  502  0.54660586719E+01 -0.20661570245E+03 -0.12903374830E+03  0.24365884864E+03  0.50400001928E-02 0.  1.
</event>
<event>
 5   0  0.1984297E-01  0.4973246E+03  0.7818609E-02  0.1014480E+00
       -1   -1    0    0    0  501  0.00000000000E+00  0.00000000000E+00  0.51655171093E+03  0.51655171095E+03  0.50400001928E-02 0.  1.
        1   -1    0    0  501    0  0.00000000000E+00  0.00000000000E+00 -0.11970327148E+03  0.11970327159E+03  0.50400001928E-02 0. -1.
    10030    2    1    2    0    0  0.00000000000E+00  0.00000000000E+00  0.39684843945E+03  0.63625498254E+03  0.49732456094E+03 0.  0.
        3    1    3    3  502    0  0.12326028537E+03 -0.19157085824E+03  0.70870294636E+02  0.23856885911E+03  0.10100000352E+00 0. -1.
       -3    1    3    3    0  502 -0.12326028537E+03  0.19157085824E+03  0.32597814481E+03  0.39768612343E+03  0.10100000352E+00 0.  1.
</event>
<event>
 5   0  0.3117389E-01  0.4954564E+03  0.7818609E-02  0.1014972E+00
        2   -1    0    0  501    0  0.00000000000E+00  0.00000000000E+00  0.10684123746E+04  0.10684123746E+04  0.25500000920E-02 0. -1.
       -2   -1    0    0    0  501  0.00000000000E+00  0.00000000000E+00 -0.57439686202E+02  0.57439686258E+02  0.25500000920E-02 0.  1.
    10030    2    1    2    0    0  0.00000000000E+00  0.00000000000E+00  0.10109726884E+04  0.11258520609E+04  0.49545644235E+03 0.  0.
        4    1    3    3  502    0  0.21541260765E+03 -0.71292295725E+02  0.27959024847E+03  0.36007985629E+03  0.12699999809E+01 0.  1.
       -4    1    3    3    0  502 -0.21541260765E+03  0.71292295725E+02  0.73138243996E+03  0.76577220460E+03  0.12699999809E+01 0. -1.
</event>
<event>
 5   0  0.1292375E-01  0.5149859E+03  0.7818609E-02  0.1009940E+00
       -4   -1    0    0    0  501  0.00000000000E+00  0.00000000000E+00  0.32772576527E+03  0.32772822601E+03  0.12699999809E+01 0. -1.
        4   -1    0    0  501    0  0.00000000000E+00  0.00000000000E+00 -0.20230605942E+03  0.20231004567E+03  0.12699999809E+01 0.  1.
    10030    2    1    2    0    0  0.00000000000E+00  0.00000000000E+00  0.12541970585E+03  0.53003827167E+03  0.51498588993E+03 0.  0.
        2    1    3    3  502    0  0.11468487970E+03  0.59036451200E+02  0.29207940930E+03  0.31929344739E+03  0.25500000920E-02 0. -1.
       -2    1    3    3    0  502 -0.11468487970E+03 -0.59036451200E+02 -0.16665970345E+03  0.21074482428E+03  0.25500000920E-02 0.  1.
</event>
<event>
 5   0  0.1292375E-01  0.4952303E+03  0.7818609E-02  0.1015031E+00
       -3   -1    0    0    0  501  0.00000000000E+00  0.00000000000E+00  0.31380108827E+03  0.31380110453E+03  0.10100000352E+00 0. -1.
        3   -1    0    0  501    0  0.00000000000E+00  0.00000000000E+00 -0.19538891677E+03  0.19538894287E+03  0.10100000352E+00 0.  1.
    10030    2    1    2    0    0  0.00000000000E+00  0.00000000000E+00  0.11841217150E+03  0.50919004740E+03  0.49523031209E+03 0.  0.
        2    1    3    3  502    0  0.20994425298E+03  0.10014867107E+03  0.14649267675E+03  0.27489352489E+03  0.25500000920E-02 0.  1.
       -2    1    3    3    0  502 -0.20994425298E+03 -0.10014867107E+03 -0.28080505246E+02  0.23429652251E+03  0.25500000920E-02 0. -1.
</event>
<event>
 5   0  0.3111146E-01  0.4904820E+03  0.7818609E-02  0.1016294E+00
        2   -1    0    0  501    0  0.00000000000E+00  0.00000000000E+00  0.11361802283E+04  0.11361802283E+04  0.25500000920E-02 0.  1.
       -2   -1    0    0    0  501  0.00000000000E+00  0.00000000000E+00 -0.52934505090E+02  0.52934505151E+02  0.25500000920E-02 0. -1.
    10030    2    1    2    0    0  0.00000000000E+00  0.00000000000E+00  0.10832457232E+04  0.11891147334E+04  0.49048195936E+03 0.  0.
        1    1    3    3  502    0 -0.17389843913E+02 -0.24410872537E+03  0.58008285579E+03  0.62959319888E+03  0.50400001928E-02 0.  1.
       -1    1    3    3    0  502  0.17389843913E+02  0.24410872537E+03  0.50316286739E+03  0.55952153454E+03  0.50400001928E-02 0. -1.
</event>
<event>
 5   0  0.3187123E-01  0.4900314E+03  0.7818609E-02  0.1016414E+00
        2   -1    0    0  501    0  0.00000000000E+00  0.00000000000E+00  0.18210006358E+03  0.18210006359E+03  0.25500000920E-02 0. -1.
       -2   -1    0    0    0  501  0.00000000000E+00  0.00000000000E+00 -0.32966872599E+03  0.32966872600E+03  0.25500000920E-02 0.  1.
    10030    2    1    2    0    0  0.00000000000E+00  0.00000000000E+00 -0.14756866241E+03  0.51176878959E+03  0.49003141111E+03 0.  0.
        5    1    3    3  502    0 -0.14789546571E+02 -0.16640483647E+03  0.11333179852E+03  0.20192941055E+03  0.46999998093E+01 0. -1.
       -5    1    3    3    0  502  0.14789546571E+02  0.16640483647E+03 -0.26090046094E+03  0.30983937904E+03  0.46999998093E+01 0.  1.
</event>
<event>
 5   0  0.3117389E-01  0.5924871E+03  0.7818609E-02  0.9921117E-01
        2   -1    0    0  501    0  0.00000000000E+00  0.00000000000E+00  0.39772889451E+03  0.39772889452E+03  0.25500000920E-02 0.  1.
       -2   -1    0    0    0  501  0.00000000000E+00  0.00000000000E+00 -0.22065342047E+03  0.22065342049E+03  0.25500000920E-02 0. -1.
    10030    2    1    2    0    0  0.00000000000E+00  0.00000000000E+00  0.17707547404E+03  0.61838231501E+03  0.59248710029E+03 0.  0.
        4    1    3    3  502    0 -0.23153289769E+03  0.86784259951E+02 -0.81748375478E+02  0.26042926157E+03  0.12699999809E+01 0. -1.
       -4    1    3    3    0  502  0.23153289769E+03 -0.86784259951E+02  0.25882384952E+03  0.35795305344E+03  0.12699999809E+01 0.  1.
</event>
<event>
 5   0  0.1984297E-01  0.4891849E+03  0.7818609E-02  0.1016641E+00
        1   -1    0    0  501    0  0.00000000000E+00  0.00000000000E+00  0.20653700674E+03  0.20653700680E+03  0.50400001928E-02 0.  1.
       -1   -1    0    0    0  501  0.00000000000E+00  0.00000000000E+00 -0.28965978245E+03  0.28965978250E+03  0.50400001928E-02 0. -1.
    10030    2    1    2    0    0  0.00000000000E+00  0.00000000000E+00 -0.83122775710E+02  0.49619678930E+03  0.48918489129E+03 0.  0.
        3    1    3    3  502    0  0.76838346596E+02 -0.16203315614E+03 -0.21027831070E+03  0.27636181602E+03  0.10100000352E+00 0. -1.
       -3    1    3    3    0  502 -0.76838346596E+02  0.16203315614E+03  0.12715553499E+03  0.21983497328E+03  0.10100000352E+00 0.  1.
</event>
<event>
 5   0  0.1984297E-01  0.5091699E+03  0.7818609E-02  0.1011413E+00
       -1   -1    0    0    0  501  0.00000000000E+00  0.00000000000E+00  0.74024161143E+02  0.74024161315E+02  0.50400001928E-02 0. -1.
        1   -1    0    0  501    0  0.00000000000E+00  0.00000000000E+00 -0.87557218669E+03  0.87557218670E+03  0.50400001928E-02 0.  1.
    10030    2    1    2    0    0  0.00000000000E+00  0.00000000000E+00 -0.80154802554E+03  0.94959634802E+03  0.50916989985E+03 0.  0.
        3    1    3    3  502    0  0.41238583148E+02 -0.13732308348E+03 -0.79311045266E+03  0.80596677991E+03  0.10100000352E+00 0.  1.
       -3    1    3    3    0  502 -0.41238583148E+02  0.13732308348E+03 -0.84375728830E+01  0.14362956811E+03  0.10100000352E+00 0. -1.
</event>
<event>
 5   0  0.3178149E-01  0.5107935E+03  0.7818609E-02  0.1010999E+00
        2   -1    0    0  501    0  0.00000000000E+00  0.00000000000E+00  0.33263299545E+03  0.33263299546E+03  0.25500000920E-02 0. -1.
       -2   -1    0    0    0  501  0.00000000000E+00  0.00000000000E+00 -0.19609449201E+03  0.19609449202E+03  0.25500000920E-02 0.  1.
    10030    2    1    2    0    0  0.00000000000E+00  0.00000000000E+00  0.13653850344E+03  0.52872748748E+03  0.51079349359E+03 0.  0.
        3    1    3    3  502    0 -0.88689188026E+02 -0.60933283707E+02  0.30802373927E+03  0.32627790500E+03  0.10100000352E+00 0. -1.
       -3    1    3    3    0  502  0.88689188026E+02  0.60933283707E+02 -0.17148523583E+03  0.20244958248E+03  0.10100000352E+00 0.  1.
</event>
<event>
 5   0  0.3117389E-01  0.5010161E+03  0.7818609E-02  0.1013514E+00
       -2   -1    0    0    0  501  0.00000000000E+00  0.00000000000E+00  0.70941674812E+02  0.70941674858E+02  0.25500000920E-02 0.  1.
        2   -1    0    0  501    0  0.00000000000E+00  0.00000000000E+00 -0.88458998992E+03  0.88458998993E+03  0.25500000920E-02 0. -1.
    10030    2    1    2    0    0  0.00000000000E+00  0.00000000000E+00 -0.81364831511E+03  0.95553166478E+03  0.50101614916E+03 0.  0.
        4    1    3    3  502    0 -0.23149125911E+02 -0.15360104528E+03 -0.32007156967E+02  0.15860401678E+03  0.12699999809E+01 0.  1.
       -4    1    3    3    0  502  0.23149125911E+02  0.15360104528E+03 -0.78164115814E+03  0.79692764800E+03  0.12699999809E+01 0. -1.
</event>
<event>
 5   0  0.2000612E-01  0.4468048E+03  0.7818609E-02  0.1028679E+00
        1   -1    0    0  501    0  0.00000000000E+00  0.00000000000E+00  0.89583685002E+02  0.89583685144E+02  0.50400001928E-02 0. -1.
       -1   -1    0    0    0  501  0.00000000000E+00  0.00000000000E+00 -0.55711747281E+03  0.55711747284E+03  0.50400001928E-02 0.  1.
    10030    2    1    2    0    0  0.00000000000E+00  0.00000000000E+00 -0.46753378781E+03  0.64670115798E+03  0.44680481755E+03 0.  0.
        2    1    3    3  502    0  0.25366160979E+02  0.14468852524E+03 -0.47738655495E+03  0.49947585959E+03  0.25500000920E-02 0.  1.
       -2    1    3    3    0  502 -0.25366160979E+02 -0.14468852524E+03  0.98527671348E+01  0.14722529839E+03  0.25500000920E-02 0. -1.
</event>
<event>
 5   0  0.1967161E-01  0.5529207E+03  0.7818609E-02  0.1000820E+00
       -1   -1    0    0    0  501  0.00000000000E+00  0.00000000000E+00  0.14207605552E+03  0.14207605561E+03  0.50400001928E-02 0.  1.
        1   -1    0    0  501    0  0.00000000000E+00  0.00000000000E+00 -0.53795352663E+03  0.53795352666E+03  0.50400001928E-02 0. -1.
    10030    2    1    2    0    0  0.00000000000E+00  0.00000000000E+00 -0.39587747111E+03  0.68002958227E+03  0.55292066396E+03 0.  0.
        1    1    3    3  502    0 -0.20359566588E+02  0.19082779352E+03  0.46807279107E+02  0.19753652861E+03  0.50400001928E-02 0.  1.
       -1    1    3    3    0  502  0.20359566588E+02 -0.19082779352E+03 -0.44268475022E+03  0.48249305366E+03  0.50400001928E-02 0. -1.
</event>
<event>
 5   0  0.2000612E-01  0.4947856E+03  0.7818609E-02  0.1015149E+00
       -1   -1    0    0    0  501  0.00000000000E+00  0.00000000000E+00  0.35690534459E+03  0.35690534463E+03  0.50400001928E-02 0. -1.
        1   -1    0    0  501    0  0.00000000000E+00  0.00000000000E+00 -0.17148301644E+03  0.17148301651E+03  0.50400001928E-02 0.  1.
    10030    2    1    2    0    0  0.00000000000E+00  0.00000000000E+00  0.18542232815E+03  0.52838836114E+03  0.49478563076E+03 0.  0.
        2    1    3    3  502    0  0.30925294102E+02  0.10216709407E+03 -0.14562439238E+03  0.18055733879E+03  0.25500000920E-02 0.  1.
       -2    1    3    3    0  502 -0.30925294102E+02 -0.10216709407E+03  0.33104672054E+03  0.34783102235E+03  0.25500000920E-02 0. -1.
</event>
<event>
 5   0  0.1292375E-01  0.4452924E+03  0.7818609E-02  0.1029135E+00
       -3   -1    0    0    0  501  0.00000000000E+00  0.00000000000E+00  0.79939569661E+02  0.79939633465E+02  0.10100000352E+00 0. -1.
        3   -1    0    0  501    0  0.00000000000E+00  0.00000000000E+00 -0.62010975578E+03  0.62010976401E+03  0.10100000352E+00 0.  1.
    10030    2    1    2    0    0  0.00000000000E+00  0.00000000000E+00 -0.54017018612E+03  0.70004939747E+03  0.44529240834E+03 0.  0.
        2    1    3    3  502    0 -0.14398924640E+03 -0.12960136391E+03 -0.97568376050E+02  0.21690782517E+03  0.25500000920E-02 0. -1.
       -2    1    3    3    0  502  0.14398924640E+03  0.12960136391E+03 -0.44260181007E+03  0.48314157230E+03  0.25500000920E-02 0.  1.
</event>
<event>
 5   0  0.3117389E-01  0.5078936E+03  0.7818609E-02  0.1011739E+00
        2   -1    0    0  501    0  0.00000000000E+00  0.00000000000E+00  0.13610585065E+03  0.13610585067E+03  0.25500000920E-02 0.  1.
       -2   -1    0    0    0  501  0.00000000000E+00  0.00000000000E+00 -0.47381480251E+03  0.47381480252E+03  0.25500000920E-02 0. -1.
    10030    2    1    2    0    0  0.00000000000E+00  0.00000000000E+00 -0.33770895186E+03  0.60992065319E+03  0.50789355875E+03 0.  0.
        4    1    3    3  502    0  0.13767737325E+03 -0.18698443779E+03 -0.29231267621E+03  0.37331829939E+03  0.12699999809E+01 0. -1.
       -4    1    3    3    0  502 -0.13767737325E+03  0.18698443779E+03 -0.45396275649E+02  0.23660235380E+03  0.12699999809E+01 0.  1.
</event>
<event>
 5   0  0.3117389E-01  0.4933199E+03  0.7818609E-02  0.1015537E+00
        2   -1    0    0  501    0  0.00000000000E+00  0.00000000000E+00  0.13520377377E+04  0.13520377377E+04  0.25500000920E-02 0.  1.
       -2   -1    0    0    0  501  0.00000000000E+00  0.00000000000E+00 -0.44999581250E+02  0.44999581322E+02  0.25500000920E-02 0. -1.
    10030    2    1    2    0    0  0.00000000000E+00  0.00000000000E+00  0.13070381565E+04  0.13970373190E+04  0.49331990466E+03 0.  0.
        4    1    3    3  502    0 -0.14514633165E+03 -0.17782072894E+03  0.90920537744E+03  0.93773327790E+03  0.12699999809E+01 0.  1.
       -4    1    3    3    0  502  0.14514633165E+03  0.17782072894E+03  0.39783277903E+03  0.45930404113E+03  0.12699999809E+01 0. -1.
</event>
<event>
 5   0  0.3187123E-01  0.4996010E+03  0.7818609E-02  0.1013883E+00
       -2   -1    0    0    0  501  0.00000000000E+00  0.00000000000E+00  0.48347595359E+03  0.48347595359E+03  0.25500000920E-02 0. -1.
        2   -1    0    0  501    0  0.00000000000E+00  0.00000000000E+00 -0.12906598416E+03  0.12906598418E+03  0.25500000920E-02 0.  1.
    10030    2    1    2    0    0  0.00000000000E+00  0.00000000000E+00  0.35440996943E+03  0.61254193778E+03  0.49960103994E+03 0.  0.
        5    1    3    3  502    0 -0.67923958439E+02  0.19350172634E+03  0.35198498596E+03  0.40739673854E+03  0.46999998093E+01 0. -1.
       -5    1    3    3    0  502  0.67923958439E+02 -0.19350172634E+03  0.24249834633E+01  0.20514519924E+03  0.46999998093E+01 0.  1.
</event>
<event>
 5   0  0.1292375E-01  0.4927811E+03  0.7818609E-02  0.1015681E+00
       -3   -1    0    0    0  501  0.00000000000E+00  0.00000000000E+00  0.17458342187E+03  0.17458345108E+03  0.10100000352E+00 0.  1.
        3   -1    0    0  501    0  0.00000000000E+00  0.00000000000E+00 -0.34773227416E+03  0.34773228882E+03  0.10100000352E+00 0. -1.
    10030    2    1    2    0    0  0.00000000000E+00  0.00000000000E+00 -0.17314885229E+03  0.52231573990E+03  0.49278109451E+03 0.  0.
        1    1    3    3  502    0  0.19458896459E+03 -0.89580192681E+02  0.42454169502E+02  0.21838459788E+03  0.50400001928E-02 0. -1.
       -1    1    3    3    0  502 -0.19458896459E+03  0.89580192681E+02 -0.21560302179E+03  0.30393114202E+03  0.50400001928E-02 0.  1.
</event>
<event>
 5   0  0.1984297E-01  0.5081842E+03  0.7818609E-02  0.1011665E+00
        1   -1    0    0  501    0  0.00000000000E+00  0.00000000000E+00  0.78692404339E+03  0.78692404341E+03  0.50400001928E-02 0.  1.
       -1   -1    0    0    0  501  0.00000000000E+00  0.00000000000E+00 -0.82044522956E+02  0.82044523111E+02  0.50400001928E-02 0. -1.
    10030    2    1    2    0    0  0.00000000000E+00  0.00000000000E+00  0.70487952044E+03  0.86896856652E+03  0.50818424933E+03 0.  0.
        3    1    3    3  502    0  0.22312245483E+03  0.80572448057E+02  0.50810370939E+03  0.56075390229E+03  0.10100000352E+00 0.  1.
       -3    1    3    3    0  502 -0.22312245483E+03 -0.80572448057E+02  0.19677581104E+03  0.30821466423E+03  0.10100000352E+00 0. -1.
</event>
<event>
 5   0  0.2000612E-01  0.5095721E+03  0.7818609E-02  0.1011310E+00
        1   -1    0    0  501    0  0.00000000000E+00  0.00000000000E+00  0.21536991121E+03  0.21536991127E+03  0.50400001928E-02 0. -1.
       -1   -1    0    0    0  501  0.00000000000E+00  0.00000000000E+00 -0.30141601587E+03  0.30141601591E+03  0.50400001928E-02 0.  1.
    10030    2    1    2    0    0  0.00000000000E+00  0.00000000000E+00 -0.86046104658E+02  0.51678592718E+03  0.50957213661E+03 0.  0.
        2    1    3    3  502    0  0.98617110125E+02 -0.15397874704E+03  0.13691802305E+03  0.22843234007E+03  0.25500000920E-02 0. -1.
       -2    1    3    3    0  502 -0.98617110125E+02  0.15397874704E+03 -0.22296412771E+03  0.28835358711E+03  0.25500000920E-02 0.  1.
</event>
<event>
 5   0  0.3111146E-01  0.4222507E+03  0.7818609E-02  0.1036336E+00
       -2   -1    0    0    0  501  0.00000000000E+00  0.00000000000E+00  0.25463804417E+03  0.25463804418E+03  0.25500000920E-02 0.  1.
        2   -1    0    0  501    0  0.00000000000E+00  0.00000000000E+00 -0.17504814528E+03  0.17504814530E+03  0.25500000920E-02 0. -1.
    10030    2    1    2    0    0  0.00000000000E+00  0.00000000000E+00  0.79589898887E+02  0.42968618947E+03  0.42225071867E+03 0.  0.
        1    1    3    3  502    0  0.71458341459E+02  0.33777487035E+02 -0.15942449971E+03  0.17794208139E+03  0.50400001928E-02 0. -1.
       -1    1    3    3    0  502 -0.71458341459E+02 -0.33777487035E+02  0.23901439860E+03  0.25174410809E+03  0.50400001928E-02 0.  1.
</event>
<event>
 5   0  0.2000612E-01  0.4947762E+03  0.7818609E-02  0.1015151E+00
       -1   -1    0    0    0  501  0.00000000000E+00  0.00000000000E+00  0.67373841990E+03  0.67373841992E+03  0.50400001928E-02 0. -1.
        1   -1    0    0  501    0  0.00000000000E+00  0.00000000000E+00 -0.90837723983E+02  0.90837724123E+02  0.50400001928E-02 0.  1.
    10030    2    1    2    0    0  0.00000000000E+00  0.00000000000E+00  0.58290069592E+03  0.76457614404E+03  0.49477617034E+03 0.  0.
        2    1    3    3  502    0 -0.13506568757E+03 -0.97050179190E+02  0.84483303956E+01  0.16653183339E+03  0.25500000920E-02 0.  1.
       -2    1    3    3    0  502  0.13506568757E+03  0.97050179190E+02  0.57445236552E+03  0.59804431065E+03  0.25500000920E-02 0. -1.
</event>
<event>
 5   0  0.3111146E-01  0.5533784E+03  0.7818609E-02  0.1000715E+00
       -2   -1    0    0    0  501  0.00000000000E+00  0.00000000000E+00  0.12536466813E+03  0.12536466816E+03  0.25500000920E-02 0.  1.
        2   -1    0    0  501    0  0.00000000000E+00  0.00000000000E+00 -0.61067365449E+03  0.61067365450E+03  0.25500000920E-02 0. -1.
    10030    2    1    2    0    0  0.00000000000E+00  0.00000000000E+00 -0.48530898636E+03  0.73603832265E+03  0.55337835174E+03 0.  0.
        1    1    3    3  502    0  0.13527268962E+03  0.86520540734E+02 -0.54235818220E+03  0.56562965123E+03  0.50400001928E-02 0. -1.
       -1    1    3    3    0  502 -0.13527268962E+03 -0.86520540734E+02  0.57049195836E+02  0.17040867142E+03  0.50400001928E-02 0.  1.
</event>
<event>
 5   0  0.1984680E-01  0.5058224E+03  0.7818609E-02  0.1012270E+00
        1   -1    0    0  501    0  0.00000000000E+00  0.00000000000E+00  0.13597671603E+03  0.13597671612E+03  0.50400001928E-02 0.  1.
       -1   -1    0    0    0  501  0.00000000000E+00  0.00000000000E+00 -0.47040458328E+03  0.47040458331E+03  0.50400001928E-02 0. -1.
    10030    2    1    2    0    0  0.00000000000E+00  0.00000000000E+00 -0.33442786726E+03  0.60638129943E+03  0.50582238177E+03 0.  0.
        5    1    3    3  502    0 -0.25457055948E+02 -0.16630134341E+03  0.59095725414E+02  0.17837767035E+03  0.46999998093E+01 0.  1.
       -5    1    3    3    0  502  0.25457055948E+02  0.16630134341E+03 -0.39352359267E+03  0.42800362908E+03  0.46999998093E+01 0. -1.
</event>
<event>
 5   0  0.3329246E-01  0.4974181E+03  0.7818609E-02  0.1014455E+00
        2   -1    0    0  501    0  0.00000000000E+00  0.00000000000E+00  0.68685536173E+03  0.68685536173E+03  0.25500000920E-02 0. -1.
       -2   -1    0    0    0  501  0.00000000000E+00  0.00000000000E+00 -0.90057091347E+02  0.90057091383E+02  0.25500000920E-02 0.  1.
    10030    2    1    2    0    0  0.00000000000E+00  0.00000000000E+00  0.59679827038E+03  0.77691245311E+03  0.49741811816E+03 0.  0.
        2    1    3    3  502    0  0.24382598587E+03 -0.44058600070E+01  0.22211118476E+03  0.32985436391E+03  0.25500000920E-02 0. -1.
       -2    1    3    3    0  502 -0.24382598587E+03  0.44058600070E+01  0.37468708562E+03  0.44705808920E+03  0.25500000920E-02 0.  1.
</event>
<event>
 5   0  0.2013450E-01  0.6266881E+03  0.7818609E-02  0.9851533E-01
        1   -1    0    0  501    0  0.00000000000E+00  0.00000000000E+00  0.88271195781E+03  0.88271195783E+03  0.50400001928E-02 0. -1.
       -1   -1    0    0    0  501  0.00000000000E+00  0.00000000000E+00 -0.11123051666E+03  0.11123051677E+03  0.50400001928E-02 0.  1.
    10030    2    1    2    0    0  0.00000000000E+00  0.00000000000E+00  0.77148144116E+03  0.99394247460E+03  0.62668814315E+03 0.  0.
        4    1    3    3  502    0  0.11066848404E+03  0.98296914492E+02 -0.52280815510E+02  0.15698628389E+03  0.12699999809E+01 0.  1.
       -4    1    3    3    0  502 -0.11066848404E+03 -0.98296914492E+02  0.82376225667E+03  0.83695619071E+03  0.12699999809E+01 0. -1.
</event>
<event>
 5   0  0.3117389E-01  0.4911462E+03  0.7818609E-02  0.1016116E+00
       -2   -1    0    0    0  501  0.00000000000E+00  0.00000000000E+00  0.71641444625E+02  0.71641444670E+02  0.25500000920E-02 0. -1.
        2   -1    0    0  501    0  0.00000000000E+00  0.00000000000E+00 -0.84177750134E+03  0.84177750135E+03  0.25500000920E-02 0.  1.
    10030    2    1    2    0    0  0.00000000000E+00  0.00000000000E+00 -0.77013605672E+03  0.91341894602E+03  0.49114623595E+03 0.  0.
        4    1    3    3  502    0 -0.18836588629E+03  0.95642115675E+02 -0.61791404651E+03  0.65303024676E+03  0.12699999809E+01 0.  1.
       -4    1    3    3    0  502  0.18836588629E+03 -0.95642115675E+02 -0.15222201021E+03  0.26038869926E+03  0.12699999809E+01 0. -1.
</event>
<event>
 5   0  0.1984297E-01  0.5076351E+03  0.7818609E-02  0.1011805E+00
       -1   -1    0    0    0  501  0.00000000000E+00  0.00000000000E+00  0.23882456937E+03  0.23882456943E+03  0.50400001928E-02 0. -1.
        1   -1    0    0  501    0  0.00000000000E+00  0.00000000000E+00 -0.26975178000E+03  0.26975178004E+03  0.50400001928E-02 0.  1.
    10030    2    1    2    0    0  0.00000000000E+00  0.00000000000E+00 -0.30927210623E+02  0.50857634947E+03  0.50763511589E+03 0.  0.
        3    1    3    3  502    0 -0.16416830532E+03 -0.14144859864E+03 -0.14786159402E+03  0.26233947419E+03  0.10100000352E+00 0.  1.
       -3    1    3    3    0  502  0.16416830532E+03  0.14144859864E+03  0.11693438339E+03  0.24623687529E+03  0.10100000352E+00 0. -1.
</event>
<event>
 5   0  0.3187123E-01  0.4935477E+03  0.7818609E-02  0.1015477E+00
        2   -1    0    0  501    0  0.00000000000E+00  0.00000000000E+00  0.68286018711E+03  0.68286018712E+03  0.25500000920E-02 0.  1.
       -2   -1    0    0    0  501  0.00000000000E+00  0.00000000000E+00 -0.89179795711E+02  0.89179795747E+02  0.25500000920E-02 0. -1.
    10030    2    1    2    0    0  0.00000000000E+00  0.00000000000E+00  0.59368039140E+03  0.77203998286E+03  0.49354769578E+03 0.  0.
        5    1    3    3  502    0 -0.11868840322E+03  0.14844191302E+03  0.54294905432E+03  0.57527185241E+03  0.46999998093E+01 0.  1.
       -5    1    3    3    0  502  0.11868840322E+03 -0.14844191302E+03  0.50731337086E+02  0.19676813045E+03  0.46999998093E+01 0. -1.
</event>
<event>
 5   0  0.3187123E-01  0.5040138E+03  0.7818609E-02  0.1012737E+00
        2   -1    0    0  501    0  0.00000000000E+00  0.00000000000E+00  0.12732976049E+03  0.12732976052E+03  0.25500000920E-02 0. -1.
       -2   -1    0    0    0  501  0.00000000000E+00  0.00000000000E+00 -0.49876378027E+03  0.49876378028E+03  0.25500000920E-02 0.  1.
    10030    2    1    2    0    0  0.00000000000E+00  0.00000000000E+00 -0.37143401978E+03  0.62609354079E+03  0.50401378034E+03 0.  0.
        5    1    3    3  502    0 -0.14838229843E+03  0.38906145979E+02  0.62584324816E+02  0.16574040664E+03  0.46999998093E+01 0. -1.
       -5    1    3    3    0  502  0.14838229843E+03 -0.38906145979E+02 -0.43401834459E+03  0.46035313415E+03  0.46999998093E+01 0.  1.
</event>
<event>
 5   0  0.3111146E-01  0.4776765E+03  0.7818609E-02  0.1019776E+00
       -2   -1    0    0    0  501  0.00000000000E+00  0.00000000000E+00  0.63921086485E+03  0.63921086485E+03  0.25500000920E-02 0.  1.
        2   -1    0    0  501    0  0.00000000000E+00  0.00000000000E+00 -0.89240836523E+02  0.89240836560E+02  0.25500000920E-02 0. -1.
    10030    2    1    2    0    0  0.00000000000E+00  0.00000000000E+00  0.54997002832E+03  0.72845170141E+03  0.47767651108E+03 0.  0.
        1    1    3    3  502    0 -0.12223961787E+03 -0.27796095338E+02  0.58500667599E+03  0.59828752124E+03  0.50400001928E-02 0.  1.
       -1    1    3    3    0  502  0.12223961787E+03  0.27796095338E+02 -0.35036647671E+02  0.13016418017E+03  0.50400001928E-02 0. -1.
</event>
<event>
 5   0  0.2000612E-01  0.5398771E+03  0.7818609E-02  0.1003865E+00
        1   -1    0    0  501    0  0.00000000000E+00  0.00000000000E+00  0.10418761116E+03  0.10418761128E+03  0.50400001928E-02 0.  1.
       -1   -1    0    0    0  501  0.00000000000E+00  0.00000000000E+00 -0.69938079820E+03  0.69938079822E+03  0.50400001928E-02 0. -1.
    10030    2    1    2    0    0  0.00000000000E+00  0.00000000000E+00 -0.59519318704E+03  0.80356840950E+03  0.53987707754E+03 0.  0.
        2    1    3    3  502    0  0.20942868793E+03 -0.76182247525E+02 -0.70872710114E+02  0.23385262712E+03  0.25500000920E-02 0.  1.
       -2    1    3    3    0  502 -0.20942868793E+03  0.76182247525E+02 -0.52432047693E+03  0.56971578239E+03  0.25500000920E-02 0. -1.
</event>
<event>
 5   0  0.1984297E-01  0.5089770E+03  0.7818609E-02  0.1011462E+00
       -1   -1    0    0    0  501  0.00000000000E+00  0.00000000000E+00  0.40375344172E+03  0.40375344175E+03  0.50400001928E-02 0.  1.
        1   -1    0    0  501    0  0.00000000000E+00  0.00000000000E+00 -0.16040581751E+03  0.16040581759E+03  0.50400001928E-02 0. -1.
    10030    2    1    2    0    0  0.00000000000E+00  0.00000000000E+00  0.24334762421E+03  0.56415925933E+03  0.50897701685E+03 0.  0.
        3    1    3    3  502    0  0.12147339256E+03  0.73388092768E+02  0.35581721491E+03  0.38307636038E+03  0.10100000352E+00 0.  1.
       -3    1    3    3    0  502 -0.12147339256E+03 -0.73388092768E+02 -0.11246959070E+03  0.18108289895E+03  0.10100000352E+00 0. -1.
</event>
<event>
 5   0  0.1967161E-01  0.4961173E+03  0.7818609E-02  0.1014797E+00
       -1   -1    0    0    0  501  0.00000000000E+00  0.00000000000E+00  0.34746788832E+03  0.34746788836E+03  0.50400001928E-02 0.  1.
        1   -1    0    0  501    0  0.00000000000E+00  0.00000000000E+00 -0.17709003256E+03  0.17709003263E+03  0.50400001928E-02 0. -1.
    10030    2    1    2    0    0  0.00000000000E+00  0.00000000000E+00  0.17037785576E+03  0.52455792099E+03  0.49611732356E+03 0.  0.
        1    1    3    3  502    0  0.23012604114E+03  0.73866039265E+02  0.14423767589E+03  0.28145815629E+03  0.50400001928E-02 0.  1.
       -1    1    3    3    0  502 -0.23012604114E+03 -0.73866039265E+02  0.26140179874E+02  0.24309976470E+03  0.50400001928E-02 0. -1.
</event>
<event>
 5   0  0.3117389E-01  0.4955680E+03  0.7818609E-02  0.1014942E+00
        2   -1    0    0  501    0  0.00000000000E+00  0.00000000000E+00  0.71669673329E+03  0.71669673330E+03  0.25500000920E-02 0.  1.
       -2   -1    0    0    0  501  0.00000000000E+00  0.00000000000E+00 -0.85666504290E+02  0.85666504328E+02  0.25500000920E-02 0. -1.
    10030    2    1    2    0    0  0.00000000000E+00  0.00000000000E+00  0.63103022900E+03  0.80236323763E+03  0.49556797231E+03 0.  0.
        4    1    3    3  502    0 -0.20429079465E+03 -0.10244507387E+03  0.16050947267E+03  0.27927517909E+03  0.12699999809E+01 0. -1.
       -4    1    3    3    0  502  0.20429079465E+03  0.10244507387E+03  0.47052075633E+03  0.52308805853E+03  0.12699999809E+01 0.  1.
</event>
<event>
 5   0  0.1984680E-01  0.4898680E+03  0.7818609E-02  0.1016458E+00
        1   -1    0    0  501    0  0.00000000000E+00  0.00000000000E+00  0.41906626841E+03  0.41906626844E+03  0.50400001928E-02 0.  1.
       -1   -1    0    0    0  501  0.00000000000E+00  0.00000000000E+00 -0.14315795329E+03  0.14315795338E+03  0.50400001928E-02 0. -1.
    10030    2    1    2    0    0  0.00000000000E+00  0.00000000000E+00  0.27590831512E+03  0.56222422181E+03  0.48986802023E+03 0.  0.
        5    1    3    3  502    0 -0.22472703922E+02  0.28356445566E+02 -0.14002160494E+03  0.14469709836E+03  0.46999998093E+01 0. -1.
       -5    1    3    3    0  502  0.22472703922E+02 -0.28356445566E+02  0.41592992005E+03  0.41752712346E+03  0.46999998093E+01 0.  1.
</event>
<event>
 5   0  0.2013450E-01  0.4977017E+03  0.7818609E-02  0.1014381E+00
        1   -1    0    0  501    0  0.00000000000E+00  0.00000000000E+00  0.20435487035E+03  0.20435487042E+03  0.50400001928E-02 0. -1.
       -1   -1    0    0    0  501  0.00000000000E+00  0.00000000000E+00 -0.30303530440E+03  0.30303530444E+03  0.50400001928E-02 0.  1.
    10030    2    1    2    0    0  0.00000000000E+00  0.00000000000E+00 -0.98680434044E+02  0.50739017485E+03  0.49770167920E+03 0.  0.
        4    1    3    3  502    0 -0.14170938047E+03 -0.16521243473E+03  0.73624642259E+02  0.22978010782E+03  0.12699999809E+01 0. -1.
       -4    1    3    3    0  502  0.14170938047E+03  0.16521243473E+03 -0.17230507630E+03  0.27761006704E+03  0.12699999809E+01 0.  1.
</event>
<event>
 5   0  0.2000612E-01  0.5010232E+03  0.7818609E-02  0.1013512E+00
        1   -1    0    0  501    0  0.00000000000E+00  0.00000000000E+00  0.41848758865E+03  0.41848758868E+03  0.50400001928E-02 0.  1.
       -1   -1    0    0    0  501  0.00000000000E+00  0.00000000000E+00 -0.14995920358E+03  0.14995920366E+03  0.50400001928E-02 0. -1.
    10030    2    1    2    0    0  0.00000000000E+00  0.00000000000E+00  0.26852838508E+03  0.56844679234E+03  0.50102321516E+03 0.  0.
        2    1    3    3  502    0  0.22687784843E+01 -0.24474993880E+03  0.19481659289E+03  0.31282772378E+03  0.25500000920E-02 0.  1.
       -2    1    3    3    0  502 -0.22687784843E+01  0.24474993880E+03  0.73711792189E+02  0.25561906856E+03  0.25500000920E-02 0. -1.
</event>
<event>
 5   0  0.3178149E-01  0.5094044E+03  0.7818609E-02  0.1011353E+00
       -2   -1    0    0    0  501  0.00000000000E+00  0.00000000000E+00  0.11736356987E+03  0.11736356990E+03  0.25500000920E-02 0. -1.
        2   -1    0    0  501    0  0.00000000000E+00  0.00000000000E+00 -0.55275416861E+03  0.55275416862E+03  0.25500000920E-02 0.  1.
    10030    2    1    2    0    0  0.00000000000E+00  0.00000000000E+00 -0.43539059874E+03  0.67011773851E+03  0.50940436786E+03 0.  0.
        3    1    3    3  502    0  0.10431665771E+03  0.14882092891E+03 -0.45244186413E+03  0.48757900342E+03  0.10100000352E+00 0.  1.
       -3    1    3    3    0  502 -0.10431665771E+03 -0.14882092891E+03  0.17051265383E+02  0.18253873510E+03  0.10100000352E+00 0. -1.
</event>
<event>
 5   0  0.3117389E-01  0.5070444E+03  0.7818609E-02  0.1011956E+00
        2   -1    0    0  501    0  0.00000000000E+00  0.00000000000E+00  0.15398733663E+03  0.15398733666E+03  0.25500000920E-02 0. -1.
       -2   -1    0    0    0  501  0.00000000000E+00  0.00000000000E+00 -0.41739469645E+03  0.41739469646E+03  0.25500000920E-02 0.  1.
    10030    2    1    2    0    0  0.00000000000E+00  0.00000000000E+00 -0.26340735982E+03  0.57138203311E+03  0.50704436745E+03 0.  0.
        4    1    3    3  502    0 -0.23872302053E+03  0.47084503061E+02 -0.51494497835E+02  0.24871454957E+03  0.12699999809E+01 0. -1.
       -4    1    3    3    0  502  0.23872302053E+03 -0.47084503061E+02 -0.21191286198E+03  0.32266748354E+03  0.12699999809E+01 0.  1.
</event>
<event>
 5   0  0.3111146E-01  0.5234650E+03  0.7818609E-02  0.1007829E+00
        2   -1    0    0  501    0  0.00000000000E+00  0.00000000000E+00  0.21942885833E+03  0.21942885835E+03  0.25500000920E-02 0.  1.
       -2   -1    0    0    0  501  0.00000000000E+00  0.00000000000E+00 -0.31219183237E+03  0.31219183238E+03  0.25500000920E-02 0. -1.
    10030    2    1    2    0    0  0.00000000000E+00  0.00000000000E+00 -0.92762974040E+02  0.53162069073E+03  0.52346498399E+03 0.  0.
        1    1    3    3  502    0 -0.13294687486E+02 -0.10217037105E+03 -0.29073009947E+03  0.30844695524E+03  0.50400001928E-02 0. -1.
       -1    1    3    3    0  502  0.13294687486E+02  0.10217037105E+03  0.19796712543E+03  0.22317373549E+03  0.50400001928E-02 0.  1.
</event>
<event>
 5   0  0.3178149E-01  0.5080633E+03  0.7818609E-02  0.1011695E+00
        2   -1    0    0  501    0  0.00000000000E+00  0.00000000000E+00  0.71803241107E+03  0.71803241108E+03  0.25500000920E-02 0.  1.
       -2   -1    0    0    0  501  0.00000000000E+00  0.00000000000E+00 -0.89873482176E+02  0.89873482212E+02  0.25500000920E-02 0. -1.
    10030    2    1    2    0    0  0.00000000000E+00  0.00000000000E+00  0.62815892890E+03  0.80790589329E+03  0.50806327604E+03 0.  0.
        3    1    3    3  502    0  0.19158654143E+03 -0.13021255990E+03  0.14827939930E+03  0.27504091345E+03  0.10100000352E+00 0. -1.
       -3    1    3    3    0  502 -0.19158654143E+03  0.13021255990E+03  0.47987952960E+03  0.53286497984E+03  0.10100000352E+00 0.  1.
</event>
<event>
 5   0  0.1984680E-01  0.5414142E+03  0.7818609E-02  0.1003501E+00
       -1   -1    0    0    0  501  0.00000000000E+00  0.00000000000E+00  0.91974424910E+02  0.91974425049E+02  0.50400001928E-02 0.  1.
        1   -1    0    0  501    0  0.00000000000E+00  0.00000000000E+00 -0.79676860095E+03  0.79676860097E+03  0.50400001928E-02 0. -1.
    10030    2    1    2    0    0  0.00000000000E+00  0.00000000000E+00 -0.70479417604E+03  0.88874302602E+03  0.54141419977E+03 0.  0.
        5    1    3    3  502    0  0.30575311600E+02 -0.21049792733E+03 -0.62715471628E+03  0.66226079095E+03  0.46999998093E+01 0. -1.
       -5    1    3    3    0  502 -0.30575311600E+02  0.21049792733E+03 -0.77639459767E+02  0.22648223506E+03  0.46999998093E+01 0.  1.
</event>
<event>
 5   0  0.2013450E-01  0.4969196E+03  0.7818609E-02  0.1014586E+00
       -1   -1    0    0    0  501  0.00000000000E+00  0.00000000000E+00  0.31440434734E+03  0.31440434738E+03  0.50400001928E-02 0. -1.
        1   -1    0    0  501    0  0.00000000000E+00  0.00000000000E+00 -0.19634674292E+03  0.19634674299E+03  0.50400001928E-02 0.  1.
    10030    2    1    2    0    0  0.00000000000E+00  0.00000000000E+00  0.11805760442E+03  0.51075109037E+03  0.49691958942E+03 0.  0.
        4    1    3    3  502    0 -0.87098917370E+02  0.10373251950E+03 -0.15505705533E+03  0.20589065136E+03  0.12699999809E+01 0.  1.
       -4    1    3    3    0  502  0.87098917370E+02 -0.10373251950E+03  0.27311465975E+03  0.30486043901E+03  0.12699999809E+01 0. -1.
</event>
<event>
 5   0  0.1292375E-01  0.5026560E+03  0.7818609E-02  0.1013088E+00
       -3   -1    0    0    0  501  0.00000000000E+00  0.00000000000E+00  0.36487587422E+02  0.36487727209E+02  0.10100000352E+00 0.  1.
        3   -1    0    0  501    0  0.00000000000E+00  0.00000000000E+00 -0.17311541283E+04  0.17311541313E+04  0.10100000352E+00 0. -1.
    10030    2    1    2    0    0  0.00000000000E+00  0.00000000000E+00 -0.16946665409E+04  0.17676418585E+04  0.50265600066E+03 0.  0.
        5    1    3    3  502    0 -0.96480675170E+02  0.12891977621E+03 -0.15257265069E+04  0.15342073827E+04  0.46999998093E+01 0. -1.
       -5    1    3    3    0  502  0.96480675170E+02 -0.12891977621E+03 -0.16894003400E+03  0.23343447574E+03  0.46999998093E+01 0.  1.
</event>
<event>
 5   0  0.1984297E-01  0.4988840E+03  0.7818609E-02  0.1014071E+00
        1   -1    0    0  501    0  0.00000000000E+00  0.00000000000E+00  0.17512976908E+03  0.17512976915E+03  0.50400001928E-02 0. -1.
       -1   -1    0    0    0  501  0.00000000000E+00  0.00000000000E+00 -0.35528688990E+03  0.35528688994E+03  0.50400001928E-02 0.  1.
    10030    2    1    2    0    0  0.00000000000E+00  0.00000000000E+00 -0.18015712083E+03  0.53041665909E+03  0.49888399859E+03 0.  0.
        3    1    3    3  502    0  0.24336946553E+03 -0.17575055699E+01 -0.31946198762E+02  0.24546355207E+03  0.10100000352E+00 0.  1.
       -3    1    3    3    0  502 -0.24336946553E+03  0.17575055699E+01 -0.14821092207E+03  0.28495310702E+03  0.10100000352E+00 0. -1.
</event>
<event>
 5   0  0.1967161E-01  0.5088221E+03  0.7818609E-02  0.1011502E+00
        1   -1    0    0  501    0  0.00000000000E+00  0.00000000000E+00  0.99824068276E+03  0.99824068278E+03  0.50400001928E-02 0. -1.
       -1   -1    0    0    0  501  0.00000000000E+00  0.00000000000E+00 -0.64839065662E+02  0.64839065858E+02  0.50400001928E-02 0.  1.
    10030    2    1    2    0    0  0.00000000000E+00  0.00000000000E+00  0.93340161710E+03  0.10630797486E+04  0.50882214294E+03 0.  0.
        1    1    3    3  502    0 -0.72073310807E+02  0.15393928605E+03  0.71204714423E+02  0.18428775679E+03  0.50400001928E-02 0. -1.
       -1    1    3    3    0  502  0.72073310807E+02 -0.15393928605E+03  0.86219690268E+03  0.87879199185E+03  0.50400001928E-02 0.  1.
</event>
<event>
 5   0  0.3117389E-01  0.4969103E+03  0.7818609E-02  0.1014589E+00
       -2   -1    0    0    0  501  0.00000000000E+00  0.00000000000E+00  0.50882396013E+02  0.50882396077E+02  0.25500000920E-02 0. -1.
        2   -1    0    0  501    0  0.00000000000E+00  0.00000000000E+00 -0.12131888327E+04  0.12131888327E+04  0.25500000920E-02 0.  1.
    10030    2    1    2    0    0  0.00000000000E+00  0.00000000000E+00 -0.11623064367E+04  0.12640712288E+04  0.49691027226E+03 0.  0.
        4    1    3    3  502    0  0.18032399367E+03  0.97936135204E+01 -0.14708591626E+03  0.23291315382E+03  0.12699999809E+01 0. -1.
       -4    1    3    3    0  502 -0.18032399367E+03 -0.97936135204E+01 -0.10152205205E+04  0.10311580750E+04  0.12699999809E+01 0.  1.
</event>
<event>
 5   0  0.3111146E-01  0.4971209E+03  0.7818609E-02  0.1014533E+00
        2   -1    0    0  501    0  0.00000000000E+00  0.00000000000E+00  0.67359387413E+02  0.67359387462E+02  0.25500000920E-02 0. -1.
       -2   -1    0    0    0  501  0.00000000000E+00  0.00000000000E+00 -0.91720382930E+03  0.91720382930E+03  0.25500000920E-02 0.  1.
    10030    2    1    2    0    0  0.00000000000E+00  0.00000000000E+00 -0.84984444189E+03  0.98456321677E+03  0.49712086297E+03 0.  0.
        1    1    3    3  502    0  0.16856020037E+03  0.53838488713E+02 -0.77064352257E+03  0.79069751670E+03  0.50400001928E-02 0.  1.
       -1    1    3    3    0  502 -0.16856020037E+03 -0.53838488713E+02 -0.79200919315E+02  0.19386570006E+03  0.50400001928E-02 0. -1.
</event>
<event>
 5   0  0.3329246E-01  0.4994288E+03  0.7818609E-02  0.1013928E+00
        2   -1    0    0  501    0  0.00000000000E+00  0.00000000000E+00  0.86758189802E+03  0.86758189802E+03  0.25500000920E-02 0. -1.
       -2   -1    0    0    0  501  0.00000000000E+00  0.00000000000E+00 -0.71874793406E+02  0.71874793451E+02  0.25500000920E-02 0.  1.
    10030    2    1    2    0    0  0.00000000000E+00  0.00000000000E+00  0.79570710461E+03  0.93945669147E+03  0.49942875250E+03 0.  0.
        2    1    3    3  502    0 -0.90020220889E+02 -0.22571147565E+03  0.50604260066E+03  0.56136300563E+03  0.25500000920E-02 0. -1.
       -2    1    3    3    0  502  0.90020220889E+02  0.22571147565E+03  0.28966450396E+03  0.37809368584E+03  0.25500000920E-02 0.  1.
</event>
<event>
 5   0  0.1967161E-01  0.4953835E+03  0.7818609E-02  0.1014991E+00
        1   -1    0    0  501    0  0.00000000000E+00  0.00000000000E+00  0.47195289208E+03  0.47195289211E+03  0.50400001928E-02 0. -1.
       -1   -1    0    0    0  501  0.00000000000E+00  0.00000000000E+00 -0.12999434226E+03  0.12999434236E+03  0.50400001928E-02 0.  1.
    10030    2    1    2    0    0  0.00000000000E+00  0.00000000000E+00  0.34195854982E+03  0.60194723447E+03  0.49538351133E+03 0.  0.
        1    1    3    3  502    0 -0.21171802470E+03  0.54246322160E+02  0.31260137759E+03  0.38142732826E+03  0.50400001928E-02 0. -1.
       -1    1    3    3    0  502  0.21171802470E+03 -0.54246322160E+02  0.29357172231E+02  0.22051990621E+03  0.50400001928E-02 0.  1.
</event>
<event>
 5   0  0.3178149E-01  0.3699495E+03  0.7818609E-02  0.1054712E+00
        2   -1    0    0  501    0  0.00000000000E+00  0.00000000000E+00  0.74236779022E+03  0.74236779022E+03  0.25500000920E-02 0. -1.
       -2   -1    0    0    0  501  0.00000000000E+00  0.00000000000E+00 -0.46089893954E+02  0.46089894024E+02  0.25500000920E-02 0.  1.
    10030    2    1    2    0    0  0.00000000000E+00  0.00000000000E+00  0.69627789627E+03  0.78845768425E+03  0.36994947090E+03 0.  0.
        3    1    3    3  502    0 -0.24829388182E+02  0.11057033635E+03  0.65972085091E+03  0.66938323038E+03  0.10100000352E+00 0. -1.
       -3    1    3    3    0  502  0.24829388182E+02 -0.11057033635E+03  0.36557045361E+02  0.11907445387E+03  0.10100000352E+00 0.  1.
</event>
<event>
 5   0  0.3187123E-01  0.5334043E+03  0.7818609E-02  0.1005410E+00
        2   -1    0    0  501    0  0.00000000000E+00  0.00000000000E+00  0.44841601238E+03  0.44841601239E+03  0.25500000920E-02 0. -1.
       -2   -1    0    0    0  501  0.00000000000E+00  0.00000000000E+00 -0.15862510747E+03  0.15862510749E+03  0.25500000920E-02 0.  1.
    10030    2    1    2    0    0  0.00000000000E+00  0.00000000000E+00  0.28979090492E+03  0.60704111988E+03  0.53340430506E+03 0.  0.
        5    1    3    3  502    0  0.25146842664E+03  0.45214371793E+02  0.58020813056E+02  0.26204811344E+03  0.46999998093E+01 0.  1.
       -5    1    3    3    0  502 -0.25146842664E+03 -0.45214371793E+02  0.23177009186E+03  0.34499300644E+03  0.46999998093E+01 0. -1.
</event>
<event>
 5   0  0.3111146E-01  0.5205898E+03  0.7818609E-02  0.1008540E+00
        2   -1    0    0  501    0  0.00000000000E+00  0.00000000000E+00  0.44211178033E+03  0.44211178033E+03  0.25500000920E-02 0.  1.
       -2   -1    0    0    0  501  0.00000000000E+00  0.00000000000E+00 -0.15324957435E+03  0.15324957437E+03  0.25500000920E-02 0. -1.
    10030    2    1    2    0    0  0.00000000000E+00  0.00000000000E+00  0.28886220598E+03  0.59536135471E+03  0.52058982763E+03 0.  0.
        1    1    3    3  502    0 -0.95114152276E+02  0.20399814395E+03  0.29394274814E+03  0.37022193872E+03  0.50400001928E-02 0. -1.
       -1    1    3    3    0  502  0.95114152276E+02 -0.20399814395E+03 -0.50805421646E+01  0.22513941599E+03  0.50400001928E-02 0.  1.
</event>
<event>
 5   0  0.1967161E-01  0.4750834E+03  0.7818609E-02  0.1020495E+00
       -1   -1    0    0    0  501  0.00000000000E+00  0.00000000000E+00  0.49687604077E+02  0.49687604333E+02  0.50400001928E-02 0.  1.
        1   -1    0    0  501    0  0.00000000000E+00  0.00000000000E+00 -0.11356165389E+04  0.11356165389E+04  0.50400001928E-02 0. -1.
    10030    2    1    2    0    0  0.00000000000E+00  0.00000000000E+00 -0.10859289349E+04  0.11853041433E+04  0.47508342479E+03 0.  0.
        1    1    3    3  502    0 -0.59869095525E+02 -0.17193675864E+03 -0.16229607478E+03  0.24389869513E+03  0.50400001928E-02 0.  1.
       -1    1    3    3    0  502  0.59869095525E+02  0.17193675864E+03 -0.92363286007E+03  0.94140544815E+03  0.50400001928E-02 0. -1.
</event>
<event>
 5   0  0.2013450E-01  0.4672964E+03  0.7818609E-02  0.1022686E+00
        1   -1    0    0  501    0  0.00000000000E+00  0.00000000000E+00  0.22702665619E+03  0.22702665624E+03  0.50400001928E-02 0. -1.
       -1   -1    0    0    0  501  0.00000000000E+00  0.00000000000E+00 -0.24046283228E+03  0.24046283233E+03  0.50400001928E-02 0.  1.
    10030    2    1    2    0    0  0.00000000000E+00  0.00000000000E+00 -0.13436176088E+02  0.46748948857E+03  0.46729636324E+03 0.  0.
        4    1    3    3  502    0 -0.91469035066E+00  0.20712891479E+03 -0.11486751074E+03  0.23685308089E+03  0.12699999809E+01 0.  1.
       -4    1    3    3    0  502  0.91469035066E+00 -0.20712891479E+03  0.10143133465E+03  0.23063640769E+03  0.12699999809E+01 0. -1.
</event>
<event>
 5   0  0.1984297E-01  0.4983721E+03  0.7818609E-02  0.1014205E+00
       -1   -1    0    0    0  501  0.00000000000E+00  0.00000000000E+00  0.86592269315E+02  0.86592269461E+02  0.50400001928E-02 0. -1.
        1   -1    0    0  501    0  0.00000000000E+00  0.00000000000E+00 -0.71708107894E+03  0.71708107896E+03  0.50400001928E-02 0.  1.
    10030    2    1    2    0    0  0.00000000000E+00  0.00000000000E+00 -0.63048880963E+03  0.80367334842E+03  0.49837206171E+03 0.  0.
        3    1    3    3  502    0 -0.12688684924E+03 -0.10814959518E+03 -0.16600038263E+02  0.16754754227E+03  0.10100000352E+00 0. -1.
       -3    1    3    3    0  502  0.12688684924E+03  0.10814959518E+03 -0.61388877136E+03  0.63612580615E+03  0.10100000352E+00 0.  1.
</event>
<event>
 5   0  0.3117389E-01  0.5200396E+03  0.7818609E-02  0.1008677E+00
       -2   -1    0    0    0  501  0.00000000000E+00  0.00000000000E+00  0.95422524043E+02  0.95422524077E+02  0.25500000920E-02 0.  1.
        2   -1    0    0  501    0  0.00000000000E+00  0.00000000000E+00 -0.70853592025E+03  0.70853592026E+03  0.25500000920E-02 0. -1.
    10030    2    1    2    0    0  0.00000000000E+00  0.00000000000E+00 -0.61311339621E+03  0.80395844433E+03  0.52003955965E+03 0.  0.
        4    1    3    3  502    0 -0.96253049831E+02 -0.22619866420E+03 -0.17557680706E+03  0.30209156454E+03  0.12699999809E+01 0.  1.
       -4    1    3    3    0  502  0.96253049831E+02  0.22619866420E+03 -0.43753658915E+03  0.50186687979E+03  0.12699999809E+01 0. -1.
</event>
<event>
 5   0  0.3187123E-01  0.4372890E+03  0.7818609E-02  0.1031582E+00
        2   -1    0    0  501    0  0.00000000000E+00  0.00000000000E+00  0.75836041112E+03  0.75836041112E+03  0.25500000920E-02 0.  1.
       -2   -1    0    0    0  501  0.00000000000E+00  0.00000000000E+00 -0.63037858117E+02  0.63037858169E+02  0.25500000920E-02 0. -1.
    10030    2    1    2    0    0  0.00000000000E+00  0.00000000000E+00  0.69532255300E+03  0.82139826929E+03  0.43728899378E+03 0.  0.
        5    1    3    3  502    0 -0.10171199730E+03 -0.16970474509E+03  0.52224319251E+03  0.55848462201E+03  0.46999998093E+01 0.  1.
       -5    1    3    3    0  502  0.10171199730E+03  0.16970474509E+03  0.17307936049E+03  0.26291364728E+03  0.46999998093E+01 0. -1.
</event>
<event>
 5   0  0.3329246E-01  0.4952297E+03  0.7818609E-02  0.1015032E+00
        2   -1    0    0  501    0  0.00000000000E+00  0.00000000000E+00  0.10719322464E+04  0.10719322464E+04  0.25500000920E-02 0.  1.
       -2   -1    0    0    0  501  0.00000000000E+00  0.00000000000E+00 -0.57198682540E+02  0.57198682597E+02  0.25500000920E-02 0. -1.
    10030    2    1    2    0    0  0.00000000000E+00  0.00000000000E+00  0.10147335639E+04  0.11291309290E+04  0.49522969339E+03 0.  0.
        2    1    3    3  502    0  0.15955266597E+02  0.11789862250E+03  0.10024947041E+04  0.10095297358E+04  0.25500000920E-02 0.  1.
       -2    1    3    3    0  502 -0.15955266597E+02 -0.11789862250E+03  0.12238859768E+02  0.11960119320E+03  0.25500000920E-02 0. -1.
</event>
<event>
 5   0  0.3178149E-01  0.5064199E+03  0.7818609E-02  0.1012117E+00
        2   -1    0    0  501    0  0.00000000000E+00  0.00000000000E+00  0.38702443957E+03  0.38702443958E+03  0.25500000920E-02 0. -1.
       -2   -1    0    0    0  501  0.00000000000E+00  0.00000000000E+00 -0.16566208410E+03  0.16566208412E+03  0.25500000920E-02 0.  1.
    10030    2    1    2    0    0  0.00000000000E+00  0.00000000000E+00  0.22136235547E+03  0.55268652370E+03  0.50641988612E+03 0.  0.
        3    1    3    3  502    0 -0.14088501186E+03  0.20466369712E+03  0.57445059953E+02  0.25502109834E+03  0.10100000352E+00 0.  1.
       -3    1    3    3    0  502  0.14088501186E+03 -0.20466369712E+03  0.16391729552E+03  0.29766542536E+03  0.10100000352E+00 0. -1.
</event>
<event>
 5   0  0.3329246E-01  0.4482719E+03  0.7818609E-02  0.1028239E+00
       -2   -1    0    0    0  501  0.00000000000E+00  0.00000000000E+00  0.19657459992E+03  0.19657459994E+03  0.25500000920E-02 0. -1.
        2   -1    0    0  501    0  0.00000000000E+00  0.00000000000E+00 -0.25556161954E+03  0.25556161955E+03  0.25500000920E-02 0.  1.
    10030    2    1    2    0    0  0.00000000000E+00  0.00000000000E+00 -0.58987019616E+02  0.45213621949E+03  0.44827189572E+03 0.  0.
        2    1    3    3  502    0 -0.60655408365E+02 -0.58225918599E+02 -0.23905268149E+03  0.25340781499E+03  0.25500000920E-02 0.  1.
       -2    1    3    3    0  502  0.60655408365E+02  0.58225918599E+02  0.18006566188E+03  0.19872840450E+03  0.25500000920E-02 0. -1.
</event>
<event>
 5   0  0.3178149E-01  0.4708826E+03  0.7818609E-02  0.1021671E+00
        2   -1    0    0  501    0  0.00000000000E+00  0.00000000000E+00  0.15114939840E+04  0.15114939840E+04  0.25500000920E-02 0. -1.
       -2   -1    0    0    0  501  0.00000000000E+00  0.00000000000E+00 -0.36674050189E+02  0.36674050278E+02  0.25500000920E-02 0.  1.
    10030    2    1    2    0    0  0.00000000000E+00  0.00000000000E+00  0.14748199338E+04  0.15481680343E+04  0.47088260235E+03 0.  0.
        3    1    3    3  502    0 -0.17641281526E+03  0.67479492885E+01  0.12495642257E+04  0.12619737638E+04  0.10100000352E+00 0. -1.
       -3    1    3    3    0  502  0.17641281526E+03 -0.67479492885E+01  0.22525570810E+03  0.28619427045E+03  0.10100000352E+00 0.  1.
</event>
<event>
 5   0  0.3178149E-01  0.4827060E+03  0.7818609E-02  0.1018394E+00
        2   -1    0    0  501    0  0.00000000000E+00  0.00000000000E+00  0.49622715541E+03  0.49622715542E+03  0.25500000920E-02 0.  1.
       -2   -1    0    0    0  501  0.00000000000E+00  0.00000000000E+00 -0.11738830924E+03  0.11738830927E+03  0.25500000920E-02 0. -1.
    10030    2    1    2    0    0  0.00000000000E+00  0.00000000000E+00  0.37883884617E+03  0.61361546469E+03  0.48270598416E+03 0.  0.
        3    1    3    3  502    0  0.32730428640E+02 -0.23324148016E+03  0.12241398882E+03  0.26543937893E+03  0.10100000352E+00 0. -1.
       -3    1    3    3    0  502 -0.32730428640E+02  0.23324148016E+03  0.25642485735E+03  0.34817608576E+03  0.10100000352E+00 0.  1.
</event>
<event>
 5   0  0.3117389E-01  0.5144293E+03  0.7818609E-02  0.1010080E+00
        2   -1    0    0  501    0  0.00000000000E+00  0.00000000000E+00  0.17414002710E+04  0.17414002710E+04  0.25500000920E-02 0.  1.
       -2   -1    0    0    0  501  0.00000000000E+00  0.00000000000E+00 -0.37992056515E+02  0.37992056600E+02  0.25500000920E-02 0. -1.
    10030    2    1    2    0    0  0.00000000000E+00  0.00000000000E+00  0.17034082145E+04  0.17793923276E+04  0.51442930550E+03 0.  0.
        4    1    3    3  502    0 -0.90302746921E+02 -0.17944747928E+03  0.29609308467E+03  0.35781099985E+03  0.12699999809E+01 0. -1.
       -4    1    3    3    0  502  0.90302746921E+02  0.17944747928E+03  0.14073151298E+04  0.14215813278E+04  0.12699999809E+01 0.  1.
</event>
<event>
 5   0  0.1984297E-01  0.4726210E+03  0.7818609E-02  0.1021183E+00
       -1   -1    0    0    0  501  0.00000000000E+00  0.00000000000E+00  0.56044240967E+02  0.56044241194E+02  0.50400001928E-02 0. -1.
        1   -1    0    0  501    0  0.00000000000E+00  0.00000000000E+00 -0.99640283365E+03  0.99640283366E+03  0.50400001928E-02 0.  1.
    10030    2    1    2    0    0  0.00000000000E+00  0.00000000000E+00 -0.94035859268E+03  0.10524470749E+04  0.47262095017E+03 0.  0.
        3    1    3    3  502    0 -0.10032189090E+03 -0.32773562804E+02  0.64698144312E+00  0.10554154158E+03  0.10100000352E+00 0. -1.
       -3    1    3    3    0  502  0.10032189090E+03  0.32773562804E+02 -0.94100557412E+03  0.94690553328E+03  0.10100000352E+00 0.  1.
</event>
<event>
 5   0  0.2000612E-01  0.5084772E+03  0.7818609E-02  0.1011590E+00
        1   -1    0    0  501    0  0.00000000000E+00  0.00000000000E+00  0.55309367192E+03  0.55309367195E+03  0.50400001928E-02 0. -1.
       -1   -1    0    0    0  501  0.00000000000E+00  0.00000000000E+00 -0.11686493088E+03  0.11686493099E+03  0.50400001928E-02 0.  1.
    10030    2    1    2    0    0  0.00000000000E+00  0.00000000000E+00  0.43622874104E+03  0.66995860294E+03  0.50847715302E+03 0.  0.
        2    1    3    3  502    0  0.15596406244E+03  0.19408951308E+03  0.15039383199E+03  0.29088456914E+03  0.25500000920E-02 0. -1.
       -2    1    3    3    0  502 -0.15596406244E+03 -0.19408951308E+03  0.28583490905E+03  0.37907403380E+03  0.25500000920E-02 0.  1.
</event>
<event>
 5   0  0.1292375E-01  0.5016689E+03  0.7818609E-02  0.1013344E+00
        3   -1    0    0  501    0  0.00000000000E+00  0.00000000000E+00  0.13170066237E+03  0.13170070109E+03  0.10100000352E+00 0.  1.
       -3   -1    0    0    0  501  0.00000000000E+00  0.00000000000E+00 -0.47773425945E+03  0.47773427013E+03  0.10100000352E+00 0. -1.
    10030    2    1    2    0    0  0.00000000000E+00  0.00000000000E+00 -0.34603359709E+03  0.60943497122E+03  0.50166894845E+03 0.  0.
        5    1    3    3  502    0  0.82903909301E+02  0.15801606317E+03  0.41058664028E+02  0.18316669536E+03  0.46999998093E+01 0.  1.
       -5    1    3    3    0  502 -0.82903909301E+02 -0.15801606317E+03 -0.38709226111E+03  0.42626827587E+03  0.46999998093E+01 0. -1.
</event>
<event>
 5   0  0.2000612E-01  0.5019509E+03  0.7818609E-02  0.1013271E+00
        1   -1    0    0  501    0  0.00000000000E+00  0.00000000000E+00  0.81890975144E+03  0.81890975145E+03  0.50400001928E-02 0. -1.
       -1   -1    0    0    0  501  0.00000000000E+00  0.00000000000E+00 -0.76917713415E+02  0.76917713580E+02  0.50400001928E-02 0.  1.
    10030    2    1    2    0    0  0.00000000000E+00  0.00000000000E+00  0.74199203802E+03  0.89582746503E+03  0.50195085678E+03 0.  0.
        2    1    3    3  502    0  0.11458399027E+03  0.11906796831E+03  0.70811851196E+03  0.72714407024E+03  0.25500000920E-02 0. -1.
       -2    1    3    3    0  502 -0.11458399027E+03 -0.11906796831E+03  0.33873526065E+02  0.16868339479E+03  0.25500000920E-02 0.  1.
</event>
<event>
 5   0  0.1984297E-01  0.4924525E+03  0.7818609E-02  0.1015768E+00
        1   -1    0    0  501    0  0.00000000000E+00  0.00000000000E+00  0.13840821249E+03  0.13840821258E+03  0.50400001928E-02 0.  1.
       -1   -1    0    0    0  501  0.00000000000E+00  0.00000000000E+00 -0.43803303173E+03  0.43803303176E+03  0.50400001928E-02 0. -1.
    10030    2    1    2    0    0  0.00000000000E+00  0.00000000000E+00 -0.29962481924E+03  0.57644124435E+03  0.49245251129E+03 0.  0.
        3    1    3    3  502    0  0.51633477950E+02 -0.24075148188E+03 -0.15011471367E+03  0.28837775492E+03  0.10100000352E+00 0.  1.
       -3    1    3    3    0  502 -0.51633477950E+02  0.24075148188E+03 -0.14951010557E+03  0.28806348943E+03  0.10100000352E+00 0. -1.
</event>
<event>
 5   0  0.3111146E-01  0.4958011E+03  0.7818609E-02  0.1014881E+00
       -2   -1    0    0    0  501  0.00000000000E+00  0.00000000000E+00  0.23966132405E+03  0.23966132407E+03  0.25500000920E-02 0.  1.
        2   -1    0    0  501    0  0.00000000000E+00  0.00000000000E+00 -0.25642300747E+03  0.25642300748E+03  0.25500000920E-02 0. -1.
    10030    2    1    2    0    0  0.00000000000E+00  0.00000000000E+00 -0.16761683414E+02  0.49608433155E+03  0.49580107904E+03 0.  0.
        1    1    3    3  502    0  0.21399994798E+03 -0.79974877569E+02  0.87917161107E+02  0.24478845157E+03  0.50400001928E-02 0.  1.
       -1    1    3    3    0  502 -0.21399994798E+03  0.79974877569E+02 -0.10467884452E+03  0.25129587998E+03  0.50400001928E-02 0. -1.
</event>
<event>
 5   0  0.1984297E-01  0.4835899E+03  0.7818609E-02  0.1018153E+00
        1   -1    0    0  501    0  0.00000000000E+00  0.00000000000E+00  0.50954979393E+03  0.50954979395E+03  0.50400001928E-02 0. -1.
       -1   -1    0    0    0  501  0.00000000000E+00  0.00000000000E+00 -0.11473812090E+03  0.11473812101E+03  0.50400001928E-02 0.  1.
    10030    2    1    2    0    0  0.00000000000E+00  0.00000000000E+00  0.39481167303E+03  0.62428791496E+03  0.48358985060E+03 0.  0.
        3    1    3    3  502    0 -0.39937384631E+02  0.19689137542E+02 -0.10939973403E+03  0.11811421944E+03  0.10100000352E+00 0.  1.
       -3    1    3    3    0  502  0.39937384631E+02 -0.19689137542E+02  0.50421140705E+03  0.50617369552E+03  0.10100000352E+00 0. -1.
</event>
<event>
 5   0  0.3178149E-01  0.4167673E+03  0.7818609E-02  0.1038124E+00
        2   -1    0    0  501    0  0.00000000000E+00  0.00000000000E+00  0.16433866110E+04  0.16433866110E+04  0.25500000920E-02 0. -1.
       -2   -1    0    0    0  501  0.00000000000E+00  0.00000000000E+00 -0.26423329741E+02  0.26423329864E+02  0.25500000920E-02 0.  1.
    10030    2    1    2    0    0  0.00000000000E+00  0.00000000000E+00  0.16169632813E+04  0.16698099409E+04  0.41676730400E+03 0.  0.
        3    1    3    3  502    0 -0.91188671767E+02 -0.13483588325E+03  0.13297624032E+04  0.13396880788E+04  0.10100000352E+00 0. -1.
       -3    1    3    3    0  502  0.91188671767E+02  0.13483588325E+03  0.28720087811E+03  0.33012186214E+03  0.10100000352E+00 0.  1.
</event>
<event>
 5   0  0.1967161E-01  0.5144388E+03  0.7818609E-02  0.1010077E+00
        1   -1    0    0  501    0  0.00000000000E+00  0.00000000000E+00  0.42217951762E+03  0.42217951765E+03  0.50400001928E-02 0. -1.
       -1   -1    0    0    0  501  0.00000000000E+00  0.00000000000E+00 -0.15671490538E+03  0.15671490546E+03  0.50400001928E-02 0.  1.
    10030    2    1    2    0    0  0.00000000000E+00  0.00000000000E+00  0.26546461224E+03  0.57889442311E+03  0.51443881342E+03 0.  0.
        1    1    3    3  502    0 -0.24825264316E+03  0.35402361412E+02  0.68293962538E+02  0.25989760940E+03  0.50400001928E-02 0.  1.
       -1    1    3    3    0  502  0.24825264316E+03 -0.35402361412E+02  0.19717064970E+03  0.31899681371E+03  0.50400001928E-02 0. -1.
</event>
<event>
 5   0  0.3117389E-01  0.5066059E+03  0.7818609E-02  0.1012069E+00
        2   -1    0    0  501    0  0.00000000000E+00  0.00000000000E+00  0.19685127043E+03  0.19685127044E+03  0.25500000920E-02 0. -1.
       -2   -1    0    0    0  501  0.00000000000E+00  0.00000000000E+00 -0.32594351469E+03  0.32594351470E+03  0.25500000920E-02 0.  1.
    10030    2    1    2    0    0  0.00000000000E+00  0.00000000000E+00 -0.12909224426E+03  0.52279478514E+03  0.50660594138E+03 0.  0.
        4    1    3    3  502    0  0.29441309101E+02  0.19694971052E+03  0.96996294286E+02  0.22150817854E+03  0.12699999809E+01 0.  1.
       -4    1    3    3    0  502 -0.29441309101E+02 -0.19694971052E+03 -0.22608853855E+03  0.30128660660E+03  0.12699999809E+01 0. -1.
</event>
<event>
 5   0  0.3117389E-01  0.4974869E+03  0.7818609E-02  0.1014437E+00
        2   -1    0    0  501    0  0.00000000000E+00  0.00000000000E+00  0.69358914250E+03  0.69358914251E+03  0.25500000920E-02 0. -1.
       -2   -1    0    0    0  501  0.00000000000E+00  0.00000000000E+00 -0.89207414891E+02  0.89207414928E+02  0.25500000920E-02 0.  1.
    10030    2    1    2    0    0  0.00000000000E+00  0.00000000000E+00  0.60438172761E+03  0.78279655744E+03  0.49748686180E+03 0.  0.
        4    1    3    3  502    0  0.20917496690E+03  0.60021725571E+02  0.49176296462E+03  0.53776314544E+03  0.12699999809E+01 0. -1.
       -4    1    3    3    0  502 -0.20917496690E+03 -0.60021725571E+02  0.11261876299E+03  0.24503341200E+03  0.12699999809E+01 0.  1.
</event>
<event>
 5   0  0.1984680E-01  0.5239132E+03  0.7818609E-02  0.1007719E+00
        1   -1    0    0  501    0  0.00000000000E+00  0.00000000000E+00  0.21909991260E+03  0.21909991266E+03  0.50400001928E-02 0. -1.
       -1   -1    0    0    0  501  0.00000000000E+00  0.00000000000E+00 -0.31319615104E+03  0.31319615108E+03  0.50400001928E-02 0.  1.
    10030    2    1    2    0    0  0.00000000000E+00  0.00000000000E+00 -0.94096238437E+02  0.53229606373E+03  0.52391315824E+03 0.  0.
        5    1    3    3  502    0 -0.16250540750E+03  0.14405142225E+03  0.10171996792E+03  0.23984966456E+03  0.46999998093E+01 0. -1.
       -5    1    3    3    0  502  0.16250540750E+03 -0.14405142225E+03 -0.19581620636E+03  0.29244639917E+03  0.46999998093E+01 0.  1.
</event>
<event>
 5   0  0.1984297E-01  0.4887975E+03  0.7818609E-02  0.1016745E+00
       -1   -1    0    0    0  501  0.00000000000E+00  0.00000000000E+00  0.92837224743E+03  0.92837224744E+03  0.50400001928E-02 0.  1.
        1   -1    0    0  501    0  0.00000000000E+00  0.00000000000E+00 -0.64339216158E+02  0.64339216355E+02  0.50400001928E-02 0. -1.
    10030    2    1    2    0    0  0.00000000000E+00  0.00000000000E+00  0.86403303127E+03  0.99271146380E+03  0.48879747465E+03 0.  0.
        3    1    3    3  502    0  0.18957671874E+03  0.10813022449E+03  0.20862154256E+03  0.30191792918E+03  0.10100000352E+00 0. -1.
       -3    1    3    3    0  502 -0.18957671874E+03 -0.10813022449E+03  0.65541148871E+03  0.69079353462E+03  0.10100000352E+00 0.  1.
</event>
<event>
 5   0  0.2000612E-01  0.4957640E+03  0.7818609E-02  0.1014891E+00
       -1   -1    0    0    0  501  0.00000000000E+00  0.00000000000E+00  0.41163364584E+02  0.41163364893E+02  0.50400001928E-02 0. -1.
        1   -1    0    0  501    0  0.00000000000E+00  0.00000000000E+00 -0.14927225880E+04  0.14927225880E+04  0.50400001928E-02 0.  1.
    10030    2    1    2    0    0  0.00000000000E+00  0.00000000000E+00 -0.14515592234E+04  0.15338859529E+04  0.49576399367E+03 0.  0.
        2    1    3    3  502    0 -0.49783937815E+02 -0.19448960064E+03 -0.11756414973E+04  0.11926598742E+04  0.25500000920E-02 0.  1.
       -2    1    3    3    0  502  0.49783937815E+02  0.19448960064E+03 -0.27591772603E+03  0.34122607867E+03  0.25500000920E-02 0. -1.
</event>
<event>
 5   0  0.3117389E-01  0.5140047E+03  0.7818609E-02  0.1010187E+00
       -2   -1    0    0    0  501  0.00000000000E+00  0.00000000000E+00  0.15282303514E+03  0.15282303516E+03  0.25500000920E-02 0.  1.
        2   -1    0    0  501    0  0.00000000000E+00  0.00000000000E+00 -0.43220061015E+03  0.43220061016E+03  0.25500000920E-02 0. -1.
    10030    2    1    2    0    0  0.00000000000E+00  0.00000000000E+00 -0.27937757501E+03  0.58502364532E+03  0.51400470442E+03 0.  0.
        4    1    3    3  502    0  0.19124861450E+03  0.98481296619E+02  0.20360434210E+02  0.21608044454E+03  0.12699999809E+01 0.  1.
       -4    1    3    3    0  502 -0.19124861450E+03 -0.98481296619E+02 -0.29973800922E+03  0.36894320078E+03  0.12699999809E+01 0. -1.
</event>
<event>
 5   0  0.1984297E-01  0.5324030E+03  0.7818609E-02  0.1005651E+00
        1   -1    0    0  501    0  0.00000000000E+00  0.00000000000E+00  0.26249755072E+03  0.26249755077E+03  0.50400001928E-02 0. -1.
       -1   -1    0    0    0  501  0.00000000000E+00  0.00000000000E+00 -0.26995769499E+03  0.26995769504E+03  0.50400001928E-02 0.  1.
    10030    2    1    2    0    0  0.00000000000E+00  0.00000000000E+00 -0.74601442720E+01  0.53245524581E+03  0.53240298181E+03 0.  0.
        3    1    3    3  502    0  0.14924462699E+03  0.15320792912E+03  0.15476764637E+03  0.26400693702E+03  0.10100000352E+00 0. -1.
       -3    1    3    3    0  502 -0.14924462699E+03 -0.15320792912E+03 -0.16222779065E+03  0.26844830879E+03  0.10100000352E+00 0.  1.
</event>
<event>
 5   0  0.3329246E-01  0.5120629E+03  0.7818609E-02  0.1010677E+00
        2   -1    0    0  501    0  0.00000000000E+00  0.00000000000E+00  0.10944024159E+04  0.10944024159E+04  0.25500000920E-02 0. -1.
       -2   -1    0    0    0  501  0.00000000000E+00  0.00000000000E+00 -0.59897616866E+02  0.59897616921E+02  0.25500000920E-02 0.  1.
    10030    2    1    2    0    0  0.00000000000E+00  0.00000000000E+00  0.10345047991E+04  0.11543000328E+04  0.51206287364E+03 0.  0.
        2    1    3    3  502    0  0.74412890546E+02 -0.53745271032E+02  0.10560347132E+04  0.10600165791E+04  0.25500000920E-02 0. -1.
       -2    1    3    3    0  502 -0.74412890546E+02  0.53745271032E+02 -0.21529914172E+02  0.94283453736E+02  0.25500000920E-02 0.  1.
</event>
<event>
 5   0  0.3117389E-01  0.3233718E+03  0.7818609E-02  0.1074108E+00
        2   -1    0    0  501    0  0.00000000000E+00  0.00000000000E+00  0.25217128441E+02  0.25217128570E+02  0.25500000920E-02 0. -1.
       -2   -1    0    0    0  501  0.00000000000E+00  0.00000000000E+00 -0.10366893500E+04  0.10366893500E+04  0.25500000920E-02 0.  1.
    10030    2    1    2    0    0  0.00000000000E+00  0.00000000000E+00 -0.10114722215E+04  0.10619064786E+04  0.32337178950E+03 0.  0.
        4    1    3    3  502    0 -0.10079063687E+03 -0.43807524278E+02 -0.11631362132E+03  0.16002600747E+03  0.12699999809E+01 0. -1.
       -4    1    3    3    0  502  0.10079063687E+03  0.43807524278E+02 -0.89515860022E+03  0.90188047108E+03  0.12699999809E+01 0.  1.
</event>
<event>
 5   0  0.1984680E-01  0.4973510E+03  0.7818609E-02  0.1014473E+00
        1   -1    0    0  501    0  0.00000000000E+00  0.00000000000E+00  0.16615620953E+04  0.16615620953E+04  0.50400001928E-02 0.  1.
       -1   -1    0    0    0  501  0.00000000000E+00  0.00000000000E+00 -0.37217697661E+02  0.37217698002E+02  0.50400001928E-02 0. -1.
    10030    2    1    2    0    0  0.00000000000E+00  0.00000000000E+00  0.16243443976E+04  0.16987797933E+04  0.49735104706E+03 0.  0.
        5    1    3    3  502    0 -0.22217433297E+02 -0.10285687479E+03  0.42744926542E+02  0.11367660171E+03  0.46999998093E+01 0. -1.
       -5    1    3    3    0  502  0.22217433297E+02  0.10285687479E+03  0.15815994711E+04  0.15851031916E+04  0.46999998093E+01 0.  1.
</event>
<event>
 5   0  0.1292375E-01  0.4772215E+03  0.7818609E-02  0.1019902E+00
       -4   -1    0    0    0  501  0.00000000000E+00  0.00000000000E+00  0.14916938254E+03  0.14917478872E+03  0.12699999809E+01 0.  1.
        4   -1    0    0  501    0  0.00000000000E+00  0.00000000000E+00 -0.38166745778E+03  0.38166957074E+03  0.12699999809E+01 0. -1.
    10030    2    1    2    0    0  0.00000000000E+00  0.00000000000E+00 -0.23249807523E+03  0.53084435945E+03  0.47722151982E+03 0.  0.
        4    1    3    3  502    0  0.20743354229E+03  0.51080113764E+02 -0.23447215427E+03  0.31720128707E+03  0.12699999809E+01 0. -1.
       -4    1    3    3    0  502 -0.20743354229E+03 -0.51080113764E+02  0.19740790355E+01  0.21364307238E+03  0.12699999809E+01 0.  1.
</event>
<event>
 5   0  0.3329246E-01  0.3798546E+03  0.7818609E-02  0.1050988E+00
       -2   -1    0    0    0  501  0.00000000000E+00  0.00000000000E+00  0.22883544271E+03  0.22883544273E+03  0.25500000920E-02 0.  1.
        2   -1    0    0  501    0  0.00000000000E+00  0.00000000000E+00 -0.15763458788E+03  0.15763458791E+03  0.25500000920E-02 0. -1.
    10030    2    1    2    0    0  0.00000000000E+00  0.00000000000E+00  0.71200854829E+02  0.38647003063E+03  0.37985460751E+03 0.  0.
        2    1    3    3  502    0  0.16599204766E+03  0.73332671643E+02  0.92624194127E+02  0.20374072239E+03  0.25500000920E-02 0.  1.
       -2    1    3    3    0  502 -0.16599204766E+03 -0.73332671643E+02 -0.21423339298E+02  0.18272930824E+03  0.25500000920E-02 0. -1.
</event>
<event>
 5   0  0.3178149E-01  0.4974784E+03  0.7818609E-02  0.1014439E+00
        2   -1    0    0  501    0  0.00000000000E+00  0.00000000000E+00  0.26401019625E+03  0.26401019627E+03  0.25500000920E-02 0.  1.
       -2   -1    0    0    0  501  0.00000000000E+00  0.00000000000E+00 -0.23435149973E+03  0.23435149975E+03  0.25500000920E-02 0. -1.
    10030    2    1    2    0    0  0.00000000000E+00  0.00000000000E+00  0.29658696523E+02  0.49836169601E+03  0.49747838322E+03 0.  0.
        3    1    3    3  502    0  0.97744021427E+02  0.16962758994E+03 -0.13888286385E+03  0.24003306661E+03  0.10100000352E+00 0. -1.
       -3    1    3    3    0  502 -0.97744021427E+02 -0.16962758994E+03  0.16854156038E+03  0.25832862940E+03  0.10100000352E+00 0.  1.
</event>
<event>
 5   0  0.3187123E-01  0.4601445E+03  0.7818609E-02  0.1024739E+00
        2   -1    0    0  501    0  0.00000000000E+00  0.00000000000E+00  0.60170290441E+03  0.60170290442E+03  0.25500000920E-02 0.  1.
       -2   -1    0    0    0  501  0.00000000000E+00  0.00000000000E+00 -0.87972384781E+02  0.87972384818E+02  0.25500000920E-02 0. -1.
    10030    2    1    2    0    0  0.00000000000E+00  0.00000000000E+00  0.51373051963E+03  0.68967528924E+03  0.46014449663E+03 0.  0.
        5    1    3    3  502    0  0.13182078162E+03 -0.16415236478E+03  0.11796361861E+03  0.24137154481E+03  0.46999998093E+01 0. -1.
       -5    1    3    3    0  502 -0.13182078162E+03  0.16415236478E+03  0.39576690102E+03  0.44830374443E+03  0.46999998093E+01 0.  1.
</event>
<event>
 5   0  0.2000612E-01  0.4861092E+03  0.7818609E-02  0.1017470E+00
        1   -1    0    0  501    0  0.00000000000E+00  0.00000000000E+00  0.62999145750E+03  0.62999145752E+03  0.50400001928E-02 0.  1.
       -1   -1    0    0    0  501  0.00000000000E+00  0.00000000000E+00 -0.93771960711E+02  0.93771960846E+02  0.50400001928E-02 0. -1.
    10030    2    1    2    0    0  0.00000000000E+00  0.00000000000E+00  0.53621949679E+03  0.72376341836E+03  0.48610918221E+03 0.  0.
        2    1    3    3  502    0  0.15145354512E+03  0.73285296227E+02  0.52926737963E+03  0.55536732900E+03  0.25500000920E-02 0.  1.
       -2    1    3    3    0  502 -0.15145354512E+03 -0.73285296227E+02  0.69521171551E+01  0.16839608936E+03  0.25500000920E-02 0. -1.
</event>
<event>
 5   0  0.3329246E-01  0.4792781E+03  0.7818609E-02  0.1019334E+00
       -2   -1    0    0    0  501  0.00000000000E+00  0.00000000000E+00  0.58161586180E+02  0.58161586236E+02  0.25500000920E-02 0. -1.
        2   -1    0    0  501    0  0.00000000000E+00  0.00000000000E+00 -0.98736763117E+03  0.98736763118E+03  0.25500000920E-02 0.  1.
    10030    2    1    2    0    0  0.00000000000E+00  0.00000000000E+00 -0.92920604499E+03  0.10455292174E+04  0.47927807212E+03 0.  0.
        2    1    3    3  502    0 -0.12418660354E+03  0.13254767091E+03 -0.12359802784E+03  0.21969904427E+03  0.25500000920E-02 0. -1.
       -2    1    3    3    0  502  0.12418660354E+03 -0.13254767091E+03 -0.80560801716E+03  0.82583017314E+03  0.25500000920E-02 0.  1.
</event>
<event>
 5   0  0.1292375E-01  0.5038936E+03  0.7818609E-02  0.1012768E+00
        4   -1    0    0  501    0  0.00000000000E+00  0.00000000000E+00  0.98503961941E+03  0.98504043811E+03  0.12699999809E+01 0.  1.
       -4   -1    0    0    0  501  0.00000000000E+00  0.00000000000E+00 -0.64434160926E+02  0.64446675587E+02  0.12699999809E+01 0. -1.
    10030    2    1    2    0    0  0.00000000000E+00  0.00000000000E+00  0.92060545849E+03  0.10494871137E+04  0.50389363126E+03 0.  0.
        1    1    3    3  502    0  0.22050472188E+03  0.79803479809E+00  0.20646083881E+03  0.30207457228E+03  0.50400001928E-02 0. -1.
       -1    1    3    3    0  502 -0.22050472188E+03 -0.79803479809E+00  0.71414461967E+03  0.74741254141E+03  0.50400001928E-02 0.  1.
</event>
<event>
 5   0  0.3187123E-01  0.4878517E+03  0.7818609E-02  0.1016999E+00
        2   -1    0    0  501    0  0.00000000000E+00  0.00000000000E+00  0.19624352157E+04  0.19624352157E+04  0.25500000920E-02 0. -1.
       -2   -1    0    0    0  501  0.00000000000E+00  0.00000000000E+00 -0.30319374845E+02  0.30319374952E+02  0.25500000920E-02 0.  1.
    10030    2    1    2    0    0  0.00000000000E+00  0.00000000000E+00  0.19321158409E+04  0.19927545907E+04  0.48785165378E+03 0.  0.
        5    1    3    3  502    0  0.47089998406E+02  0.45034968655E+02  0.60787159741E+01  0.65609885976E+02  0.46999998093E+01 0.  1.
       -5    1    3    3    0  502 -0.47089998406E+02 -0.45034968655E+02  0.19260371249E+04  0.19271447047E+04  0.46999998093E+01 0. -1.
</event>
<event>
 5   0  0.2013450E-01  0.5060624E+03  0.7818609E-02  0.1012209E+00
       -1   -1    0    0    0  501  0.00000000000E+00  0.00000000000E+00  0.49500286514E+02  0.49500286771E+02  0.50400001928E-02 0. -1.
        1   -1    0    0  501    0  0.00000000000E+00  0.00000000000E+00 -0.12934227568E+04  0.12934227568E+04  0.50400001928E-02 0.  1.
    10030    2    1    2    0    0  0.00000000000E+00  0.00000000000E+00 -0.12439224703E+04  0.13429230436E+04  0.50606243577E+03 0.  0.
        4    1    3    3  502    0 -0.98047642785E+02 -0.21040524627E+03 -0.35474995407E+03  0.42394911337E+03  0.12699999809E+01 0. -1.
       -4    1    3    3    0  502  0.98047642785E+02  0.21040524627E+03 -0.88917251620E+03  0.91897393019E+03  0.12699999809E+01 0.  1.
</event>
<event>
 5   0  0.2000612E-01  0.4959007E+03  0.7818609E-02  0.1014854E+00
        1   -1    0    0  501    0  0.00000000000E+00  0.00000000000E+00  0.16424665485E+04  0.16424665485E+04  0.50400001928E-02 0. -1.
       -1   -1    0    0    0  501  0.00000000000E+00  0.00000000000E+00 -0.37431126020E+02  0.37431126359E+02  0.50400001928E-02 0.  1.
    10030    2    1    2    0    0  0.00000000000E+00  0.00000000000E+00  0.16050354224E+04  0.16798976748E+04  0.49590068623E+03 0.  0.
        2    1    3    3  502    0  0.36924184037E+02 -0.15903021386E+02 -0.26316400431E+02  0.48050539999E+02  0.25500000920E-02 0.  1.
       -2    1    3    3    0  502 -0.36924184037E+02  0.15903021386E+02  0.16313518229E+04  0.16318471348E+04  0.25500000920E-02 0. -1.
</event>
<event>
 5   0  0.1967161E-01  0.5039270E+03  0.7818609E-02  0.1012759E+00
        1   -1    0    0  501    0  0.00000000000E+00  0.00000000000E+00  0.20016007411E+03  0.20016007418E+03  0.50400001928E-02 0. -1.
       -1   -1    0    0    0  501  0.00000000000E+00  0.00000000000E+00 -0.31717417521E+03  0.31717417525E+03  0.50400001928E-02 0.  1.
    10030    2    1    2    0    0  0.00000000000E+00  0.00000000000E+00 -0.11701410109E+03  0.51733424943E+03  0.50392700441E+03 0.  0.
        1    1    3    3  502    0  0.13586594394E+03 -0.12823383090E+03 -0.23206757043E+03  0.29792419737E+03  0.50400001928E-02 0.  1.
       -1    1    3    3    0  502 -0.13586594394E+03  0.12823383090E+03  0.11505346934E+03  0.21941005205E+03  0.50400001928E-02 0. -1.
</event>
<event>
 5   0  0.3187123E-01  0.5010897E+03  0.7818609E-02  0.1013495E+00
        2   -1    0    0  501    0  0.00000000000E+00  0.00000000000E+00  0.26579527494E+03  0.26579527495E+03  0.25500000920E-02 0.  1.
       -2   -1    0    0    0  501  0.00000000000E+00  0.00000000000E+00 -0.23616945024E+03  0.23616945025E+03  0.25500000920E-02 0. -1.
    10030    2    1    2    0    0  0.00000000000E+00  0.00000000000E+00  0.29625824701E+02  0.50196472520E+03  0.50108970839E+03 0.  0.
        5    1    3    3  502    0 -0.18567838574E+03 -0.10497362248E+03  0.14639947528E+03  0.25874856658E+03  0.46999998093E+01 0.  1.
       -5    1    3    3    0  502  0.18567838574E+03  0.10497362248E+03 -0.11677365058E+03  0.24321615862E+03  0.46999998093E+01 0. -1.
</event>
<event>
 5   0  0.1984680E-01  0.5027488E+03  0.7818609E-02  0.1013064E+00
       -1   -1    0    0    0  501  0.00000000000E+00  0.00000000000E+00  0.17487521267E+03  0.17487521274E+03  0.50400001928E-02 0.  1.
        1   -1    0    0  501    0  0.00000000000E+00  0.00000000000E+00 -0.36133822587E+03  0.36133822590E+03  0.50400001928E-02 0. -1.
    10030    2    1    2    0    0  0.00000000000E+00  0.00000000000E+00 -0.18646301320E+03  0.53621343864E+03  0.50274884037E+03 0.  0.
        5    1    3    3  502    0 -0.16363085092E+03 -0.32334163225E+02 -0.29375236373E+03  0.33783589904E+03  0.46999998093E+01 0. -1.
       -5    1    3    3    0  502  0.16363085092E+03  0.32334163225E+02  0.10728935053E+03  0.19837753961E+03  0.46999998093E+01 0.  1.
</event>
<event>
 5   0  0.1984297E-01  0.5023152E+03  0.7818609E-02  0.1013176E+00
        1   -1    0    0  501    0  0.00000000000E+00  0.00000000000E+00  0.45446044881E+03  0.45446044884E+03  0.50400001928E-02 0.  1.
       -1   -1    0    0    0  501  0.00000000000E+00  0.00000000000E+00 -0.13880224005E+03  0.13880224014E+03  0.50400001928E-02 0. -1.
    10030    2    1    2    0    0  0.00000000000E+00  0.00000000000E+00  0.31565820876E+03  0.59326268898E+03  0.50231515344E+03 0.  0.
        3    1    3    3  502    0  0.17577242137E+03  0.41445280836E+02  0.36397836098E+03  0.40631750255E+03  0.10100000352E+00 0.  1.
       -3    1    3    3    0  502 -0.17577242137E+03 -0.41445280836E+02 -0.48320152214E+02  0.18694518643E+03  0.10100000352E+00 0. -1.
</event>
<event>
 5   0  0.3111146E-01  0.5036444E+03  0.7818609E-02  0.1012832E+00
       -2   -1    0    0    0  501  0.00000000000E+00  0.00000000000E+00  0.60649875052E+02  0.60649875105E+02  0.25500000920E-02 0. -1.
        2   -1    0    0  501    0  0.00000000000E+00  0.00000000000E+00 -0.10455819111E+04  0.10455819112E+04  0.25500000920E-02 0.  1.
    10030    2    1    2    0    0  0.00000000000E+00  0.00000000000E+00 -0.98493203610E+03  0.11062317863E+04  0.50364436778E+03 0.  0.
        1    1    3    3  502    0 -0.43002928216E+02 -0.16953142665E+03 -0.89040785095E+03  0.90742288792E+03  0.50400001928E-02 0.  1.
       -1    1    3    3    0  502  0.43002928216E+02  0.16953142665E+03 -0.94524185143E+02  0.19880889834E+03  0.50400001928E-02 0. -1.
</event>
<event>
 5   0  0.1967161E-01  0.5100667E+03  0.7818609E-02  0.1011184E+00
        1   -1    0    0  501    0  0.00000000000E+00  0.00000000000E+00  0.16533816054E+03  0.16533816062E+03  0.50400001928E-02 0. -1.
       -1   -1    0    0    0  501  0.00000000000E+00  0.00000000000E+00 -0.39338777712E+03  0.39338777716E+03  0.50400001928E-02 0.  1.
    10030    2    1    2    0    0  0.00000000000E+00  0.00000000000E+00 -0.22804961658E+03  0.55872593778E+03  0.51006670733E+03 0.  0.
        1    1    3    3  502    0 -0.10705127529E+03 -0.21539633304E+03 -0.21164690591E+02  0.24146117696E+03  0.50400001928E-02 0. -1.
       -1    1    3    3    0  502  0.10705127529E+03  0.21539633304E+03 -0.20688492599E+03  0.31726476081E+03  0.50400001928E-02 0.  1.
</event>
<event>
 5   0  0.3178149E-01  0.4844024E+03  0.7818609E-02  0.1017932E+00
        2   -1    0    0  501    0  0.00000000000E+00  0.00000000000E+00  0.27468853764E+03  0.27468853765E+03  0.25500000920E-02 0.  1.
       -2   -1    0    0    0  501  0.00000000000E+00  0.00000000000E+00 -0.21355613208E+03  0.21355613209E+03  0.25500000920E-02 0. -1.
    10030    2    1    2    0    0  0.00000000000E+00  0.00000000000E+00  0.61132405562E+02  0.48824466975E+03  0.48440240145E+03 0.  0.
        3    1    3    3  502    0 -0.18673897778E+03 -0.14871517712E+03  0.71802345733E+02  0.24928545241E+03  0.10100000352E+00 0.  1.
       -3    1    3    3    0  502  0.18673897778E+03  0.14871517712E+03 -0.10669940171E+02  0.23895921734E+03  0.10100000352E+00 0. -1.
</event>
<event>
 5   0  0.1967161E-01  0.4953401E+03  0.7818609E-02  0.1015002E+00
        1   -1    0    0  501    0  0.00000000000E+00  0.00000000000E+00  0.86457650688E+02  0.86457650835E+02  0.50400001928E-02 0. -1.
       -1   -1    0    0    0  501  0.00000000000E+00  0.00000000000E+00 -0.70948555777E+03  0.70948555779E+03  0.50400001928E-02 0.  1.
    10030    2    1    2    0    0  0.00000000000E+00  0.00000000000E+00 -0.62302790709E+03  0.79594320863E+03  0.49534010372E+03 0.  0.
        1    1    3    3  502    0 -0.23966213625E+03  0.53667760690E+02 -0.26013740824E+03  0.35775639656E+03  0.50400001928E-02 0.  1.
       -1    1    3    3    0  502  0.23966213625E+03 -0.53667760690E+02 -0.36289049884E+03  0.43818681206E+03  0.50400001928E-02 0. -1.
</event>
<event>
 5   0  0.2013450E-01  0.5080815E+03  0.7818609E-02  0.1011691E+00
        1   -1    0    0  501    0  0.00000000000E+00  0.00000000000E+00  0.40525288499E+03  0.40525288502E+03  0.50400001928E-02 0.  1.
       -1   -1    0    0    0  501  0.00000000000E+00  0.00000000000E+00 -0.15925042653E+03  0.15925042661E+03  0.50400001928E-02 0. -1.
    10030    2    1    2    0    0  0.00000000000E+00  0.00000000000E+00  0.24600245846E+03  0.56450331164E+03  0.50808146914E+03 0.  0.
        4    1    3    3  502    0  0.15656710624E+03 -0.19796467524E+03  0.90957330979E+02  0.26828738389E+03  0.12699999809E+01 0.  1.
       -4    1    3    3    0  502 -0.15656710624E+03  0.19796467524E+03  0.15504512748E+03  0.29621592775E+03  0.12699999809E+01 0. -1.
</event>
<event>
 5   0  0.3111146E-01  0.4771395E+03  0.7818609E-02  0.1019924E+00
        2   -1    0    0  501    0  0.00000000000E+00  0.00000000000E+00  0.26000219955E+03  0.26000219957E+03  0.25500000920E-02 0.  1.
       -2   -1    0    0    0  501  0.00000000000E+00  0.00000000000E+00 -0.21890404025E+03  0.21890404026E+03  0.25500000920E-02 0. -1.
    10030    2    1    2    0    0  0.00000000000E+00  0.00000000000E+00  0.41098159308E+02  0.47890623983E+03  0.47713952660E+03 0.  0.
        1    1    3    3  502    0 -0.15571980755E+02  0.75446599658E+02  0.24717452040E+03  0.25890137031E+03  0.50400001928E-02 0.  1.
       -1    1    3    3    0  502  0.15571980755E+02 -0.75446599658E+02 -0.20607636110E+03  0.22000486952E+03  0.50400001928E-02 0. -1.
</event>
<event>
 5   0  0.1967161E-01  0.4758280E+03  0.7818609E-02  0.1020288E+00
       -1   -1    0    0    0  501  0.00000000000E+00  0.00000000000E+00  0.64367964164E+02  0.64367964361E+02  0.50400001928E-02 0. -1.
        1   -1    0    0  501    0  0.00000000000E+00  0.00000000000E+00 -0.87936730272E+03  0.87936730273E+03  0.50400001928E-02 0.  1.
    10030    2    1    2    0    0  0.00000000000E+00  0.00000000000E+00 -0.81499933855E+03  0.94373526709E+03  0.47582804931E+03 0.  0.
        1    1    3    3  502    0  0.76931117869E+02 -0.16294686177E+03 -0.71560971597E+03  0.73794806205E+03  0.50400001928E-02 0.  1.
       -1    1    3    3    0  502 -0.76931117869E+02  0.16294686177E+03 -0.99389622581E+02  0.20578720505E+03  0.50400001928E-02 0. -1.
</event>
<event>
 5   0  0.1967161E-01  0.4974377E+03  0.7818609E-02  0.1014450E+00
       -1   -1    0    0    0  501  0.00000000000E+00  0.00000000000E+00  0.46817231661E+02  0.46817231932E+02  0.50400001928E-02 0. -1.
        1   -1    0    0  501    0  0.00000000000E+00  0.00000000000E+00 -0.13213309934E+04  0.13213309934E+04  0.50400001928E-02 0.  1.
    10030    2    1    2    0    0  0.00000000000E+00  0.00000000000E+00 -0.12745137617E+04  0.13681482253E+04  0.49743767212E+03 0.  0.
        1    1    3    3  502    0 -0.21458461532E+03 -0.10638979270E+03 -0.82167085605E+03  0.85586701118E+03  0.50400001928E-02 0. -1.
       -1    1    3    3    0  502  0.21458461532E+03  0.10638979270E+03 -0.45284290570E+03  0.51228121417E+03  0.50400001928E-02 0.  1.
</event>
<event>
 5   0  0.3178149E-01  0.4879912E+03  0.7818609E-02  0.1016962E+00
       -2   -1    0    0    0  501  0.00000000000E+00  0.00000000000E+00  0.47622612726E+03  0.47622612726E+03  0.25500000920E-02 0.  1.
        2   -1    0    0  501    0  0.00000000000E+00  0.00000000000E+00 -0.12501174656E+03  0.12501174659E+03  0.25500000920E-02 0. -1.
    10030    2    1    2    0    0  0.00000000000E+00  0.00000000000E+00  0.35121438069E+03  0.60123787385E+03  0.48799122917E+03 0.  0.
        3    1    3    3  502    0  0.11996311124E+03 -0.20395155914E+03  0.10223490559E+03  0.25775836098E+03  0.10100000352E+00 0.  1.
       -3    1    3    3    0  502 -0.11996311124E+03  0.20395155914E+03  0.24897947510E+03  0.34347951287E+03  0.10100000352E+00 0. -1.
</event>
<event>
 5   0  0.3187123E-01  0.4925021E+03  0.7818609E-02  0.1015755E+00
       -2   -1    0    0    0  501  0.00000000000E+00  0.00000000000E+00  0.17479465200E+03  0.17479465202E+03  0.25500000920E-02 0.  1.
        2   -1    0    0  501    0  0.00000000000E+00  0.00000000000E+00 -0.34691890863E+03  0.34691890864E+03  0.25500000920E-02 0. -1.
    10030    2    1    2    0    0  0.00000000000E+00  0.00000000000E+00 -0.17212425663E+03  0.52171356066E+03  0.49250206056E+03 0.  0.
        5    1    3    3  502    0  0.71877450712E+02 -0.20588672429E+03  0.35004673189E+02  0.22091430081E+03  0.46999998093E+01 0. -1.
       -5    1    3    3    0  502 -0.71877450712E+02  0.20588672429E+03 -0.20712892982E+03  0.30079925985E+03  0.46999998093E+01 0.  1.
</event>
<event>
 5   0  0.1292375E-01  0.4668164E+03  0.7818609E-02  0.1022823E+00
        3   -1    0    0  501    0  0.00000000000E+00  0.00000000000E+00  0.11333863875E+03  0.11333868375E+03  0.10100000352E+00 0.  1.
       -3   -1    0    0    0  501  0.00000000000E+00  0.00000000000E+00 -0.48067791531E+03  0.48067792592E+03  0.10100000352E+00 0. -1.
    10030    2    1    2    0    0  0.00000000000E+00  0.00000000000E+00 -0.36733927656E+03  0.59401660968E+03  0.46681643980E+03 0.  0.
        3    1    3    3  502    0 -0.34935661215E+02  0.15773978128E+03  0.30686563550E+02  0.16445064429E+03  0.10100000352E+00 0.  1.
       -3    1    3    3    0  502  0.34935661215E+02 -0.15773978128E+03 -0.39802584011E+03  0.42956596539E+03  0.10100000352E+00 0. -1.
</event>
<event>
 5   0  0.3329246E-01  0.4858870E+03  0.7818609E-02  0.1017530E+00
        2   -1    0    0  501    0  0.00000000000E+00  0.00000000000E+00  0.20238441975E+04  0.20238441975E+04  0.25500000920E-02 0. -1.
       -2   -1    0    0    0  501  0.00000000000E+00  0.00000000000E+00 -0.29163091697E+02  0.29163091809E+02  0.25500000920E-02 0.  1.
    10030    2    1    2    0    0  0.00000000000E+00  0.00000000000E+00  0.19946811058E+04  0.20530072893E+04  0.48588704049E+03 0.  0.
        2    1    3    3  502    0  0.65862468865E+02 -0.18448080641E+03  0.39015604083E+03  0.43656931745E+03  0.25500000920E-02 0.  1.
       -2    1    3    3    0  502 -0.65862468865E+02  0.18448080641E+03  0.16045250650E+04  0.16164379719E+04  0.25500000920E-02 0. -1.
</event>
<event>
 5   0  0.3329246E-01  0.4981491E+03  0.7818609E-02  0.1014263E+00
        2   -1    0    0  501    0  0.00000000000E+00  0.00000000000E+00  0.11749773739E+04  0.11749773739E+04  0.25500000920E-02 0.  1.
       -2   -1    0    0    0  501  0.00000000000E+00  0.00000000000E+00 -0.52799429282E+02  0.52799429343E+02  0.25500000920E-02 0. -1.
    10030    2    1    2    0    0  0.00000000000E+00  0.00000000000E+00  0.11221779446E+04  0.12277768032E+04  0.49814911342E+03 0.  0.
        2    1    3    3  502    0  0.15433641169E+03  0.17920376995E+03  0.36852186310E+03  0.43788364062E+03  0.25500000920E-02 0. -1.
       -2    1    3    3    0  502 -0.15433641169E+03 -0.17920376995E+03  0.75365608152E+03  0.78989316262E+03  0.25500000920E-02 0.  1.
</event>
<event>
 5   0  0.3178149E-01  0.5385911E+03  0.7818609E-02  0.1004170E+00
       -2   -1    0    0    0  501  0.00000000000E+00  0.00000000000E+00  0.84779040584E+02  0.84779040622E+02  0.25500000920E-02 0. -1.
        2   -1    0    0  501    0  0.00000000000E+00  0.00000000000E+00 -0.85540130827E+03  0.85540130828E+03  0.25500000920E-02 0.  1.
    10030    2    1    2    0    0  0.00000000000E+00  0.00000000000E+00 -0.77062226769E+03  0.94018034890E+03  0.53859113342E+03 0.  0.
        3    1    3    3  502    0 -0.40100851633E+02  0.26267123581E+02 -0.84789313223E+03  0.84924720427E+03  0.10100000352E+00 0.  1.
       -3    1    3    3    0  502  0.40100851633E+02 -0.26267123581E+02  0.77270864543E+02  0.90933144624E+02  0.10100000352E+00 0. -1.
</event>
<event>
 5   0  0.2000612E-01  0.4870293E+03  0.7818609E-02  0.1017221E+00
        1   -1    0    0  501    0  0.00000000000E+00  0.00000000000E+00  0.11168997410E+03  0.11168997422E+03  0.50400001928E-02 0. -1.
       -1   -1    0    0    0  501  0.00000000000E+00  0.00000000000E+00 -0.53092848601E+03  0.53092848604E+03  0.50400001928E-02 0.  1.
    10030    2    1    2    0    0  0.00000000000E+00  0.00000000000E+00 -0.41923851191E+03  0.64261846026E+03  0.48702931698E+03 0.  0.
        2    1    3    3  502    0  0.50255730340E+02 -0.22858072899E+03 -0.29837331545E+03  0.37921158141E+03  0.25500000920E-02 0.  1.
       -2    1    3    3    0  502 -0.50255730340E+02  0.22858072899E+03 -0.12086519646E+03  0.26340687884E+03  0.25500000920E-02 0. -1.
</event>
<event>
 5   0  0.3111146E-01  0.5051648E+03  0.7818609E-02  0.1012440E+00
       -2   -1    0    0    0  501  0.00000000000E+00  0.00000000000E+00  0.29670610200E+03  0.29670610201E+03  0.25500000920E-02 0. -1.
        2   -1    0    0  501    0  0.00000000000E+00  0.00000000000E+00 -0.21502042776E+03  0.21502042778E+03  0.25500000920E-02 0.  1.
    10030    2    1    2    0    0  0.00000000000E+00  0.00000000000E+00  0.81685674238E+02  0.51172652979E+03  0.50516481659E+03 0.  0.
        1    1    3    3  502    0 -0.17239616097E+03  0.18435304231E+03  0.50526952301E+02  0.25740911689E+03  0.50400001928E-02 0.  1.
       -1    1    3    3    0  502  0.17239616097E+03 -0.18435304231E+03  0.31158721937E+02  0.25431741290E+03  0.50400001928E-02 0. -1.
</event>
<event>
 5   0  0.1967161E-01  0.5035140E+03  0.7818609E-02  0.1012866E+00
        1   -1    0    0  501    0  0.00000000000E+00  0.00000000000E+00  0.16889915545E+03  0.16889915553E+03  0.50400001928E-02 0.  1.
       -1   -1    0    0    0  501  0.00000000000E+00  0.00000000000E+00 -0.37526288756E+03  0.37526288760E+03  0.50400001928E-02 0. -1.
    10030    2    1    2    0    0  0.00000000000E+00  0.00000000000E+00 -0.20636373211E+03  0.54416204312E+03  0.50351399111E+03 0.  0.
        1    1    3    3  502    0  0.20919423563E+03 -0.13884274706E+03 -0.83194280778E+02  0.26450108697E+03  0.50400001928E-02 0.  1.
       -1    1    3    3    0  502 -0.20919423563E+03  0.13884274706E+03 -0.12316945133E+03  0.27966095615E+03  0.50400001928E-02 0. -1.
</event>
<event>
 5   0  0.1984297E-01  0.5006434E+03  0.7818609E-02  0.1013611E+00
       -1   -1    0    0    0  501  0.00000000000E+00  0.00000000000E+00  0.17522292522E+03  0.17522292529E+03  0.50400001928E-02 0.  1.
        1   -1    0    0  501    0  0.00000000000E+00  0.00000000000E+00 -0.35760709891E+03  0.35760709894E+03  0.50400001928E-02 0. -1.
    10030    2    1    2    0    0  0.00000000000E+00  0.00000000000E+00 -0.18238417369E+03  0.53283002423E+03  0.50064343391E+03 0.  0.
        3    1    3    3  502    0 -0.23577383695E+03 -0.32794025055E+02 -0.87786029174E+01  0.23820542466E+03  0.10100000352E+00 0.  1.
       -3    1    3    3    0  502  0.23577383695E+03  0.32794025055E+02 -0.17360557077E+03  0.29462459957E+03  0.10100000352E+00 0. -1.
</event>
<event>
 5   0  0.2000612E-01  0.5037718E+03  0.7818609E-02  0.1012799E+00
        1   -1    0    0  501    0  0.00000000000E+00  0.00000000000E+00  0.56524617907E+03  0.56524617909E+03  0.50400001928E-02 0. -1.
       -1   -1    0    0    0  501  0.00000000000E+00  0.00000000000E+00 -0.11224579202E+03  0.11224579213E+03  0.50400001928E-02 0.  1.
    10030    2    1    2    0    0  0.00000000000E+00  0.00000000000E+00  0.45300038705E+03  0.67749197123E+03  0.50377179398E+03 0.  0.
        2    1    3    3  502    0  0.13092764658E+03 -0.13608771411E+03  0.45066751648E+03  0.48863393761E+03  0.25500000920E-02 0. -1.
       -2    1    3    3    0  502 -0.13092764658E+03  0.13608771411E+03  0.23328705659E+01  0.18885803361E+03  0.25500000920E-02 0.  1.
</event>
<event>
 5   0  0.3117389E-01  0.4998797E+03  0.7818609E-02  0.1013810E+00
        2   -1    0    0  501    0  0.00000000000E+00  0.00000000000E+00  0.93866458093E+03  0.93866458093E+03  0.25500000920E-02 0. -1.
       -2   -1    0    0    0  501  0.00000000000E+00  0.00000000000E+00 -0.66551908365E+02  0.66551908414E+02  0.25500000920E-02 0.  1.
    10030    2    1    2    0    0  0.00000000000E+00  0.00000000000E+00  0.87211267256E+03  0.10052164893E+04  0.49987966233E+03 0.  0.
        4    1    3    3  502    0  0.68686059564E+02 -0.59708106699E+02 -0.32040356501E+02  0.96493679216E+02  0.12699999809E+01 0.  1.
       -4    1    3    3    0  502 -0.68686059564E+02  0.59708106699E+02  0.90415302906E+03  0.90872281013E+03  0.12699999809E+01 0. -1.
</event>
<event>
 5   0  0.1984297E-01  0.5046872E+03  0.7818609E-02  0.1012563E+00
        1   -1    0    0  501    0  0.00000000000E+00  0.00000000000E+00  0.98060926923E+03  0.98060926925E+03  0.50400001928E-02 0.  1.
       -1   -1    0    0    0  501  0.00000000000E+00  0.00000000000E+00 -0.64936456748E+02  0.64936456944E+02  0.50400001928E-02 0. -1.
    10030    2    1    2    0    0  0.00000000000E+00  0.00000000000E+00  0.91567281249E+03  0.10455457262E+04  0.50468719622E+03 0.  0.
        3    1    3    3  502    0  0.17740865869E+03  0.15463676792E+03  0.64647132262E+03  0.68797641190E+03  0.10100000352E+00 0.  1.
       -3    1    3    3    0  502 -0.17740865869E+03 -0.15463676792E+03  0.26920148987E+03  0.35756931429E+03  0.10100000352E+00 0. -1.
</event>
<event>
 5   0  0.3187123E-01  0.5130059E+03  0.7818609E-02  0.1010439E+00
        2   -1    0    0  501    0  0.00000000000E+00  0.00000000000E+00  0.13743509598E+04  0.13743509598E+04  0.25500000920E-02 0. -1.
       -2   -1    0    0    0  501  0.00000000000E+00  0.00000000000E+00 -0.47872601031E+02  0.47872601099E+02  0.25500000920E-02 0.  1.
    10030    2    1    2    0    0  0.00000000000E+00  0.00000000000E+00  0.13264783588E+04  0.14222235609E+04  0.51300586829E+03 0.  0.
        5    1    3    3  502    0  0.24881330317E+02 -0.16760802261E+03  0.12953692573E+03  0.21333877981E+03  0.46999998093E+01 0.  1.
       -5    1    3    3    0  502 -0.24881330317E+02  0.16760802261E+03  0.11969414330E+04  0.12088847811E+04  0.46999998093E+01 0. -1.
</event>
<event>
 5   0  0.1984297E-01  0.5027367E+03  0.7818609E-02  0.1013067E+00
        1   -1    0    0  501    0  0.00000000000E+00  0.00000000000E+00  0.11878447988E+03  0.11878447999E+03  0.50400001928E-02 0.  1.
       -1   -1    0    0    0  501  0.00000000000E+00  0.00000000000E+00 -0.53193865184E+03  0.53193865186E+03  0.50400001928E-02 0. -1.
    10030    2    1    2    0    0  0.00000000000E+00  0.00000000000E+00 -0.41315417196E+03  0.65072313185E+03  0.50273673480E+03 0.  0.
        3    1    3    3  502    0 -0.16711867347E+03  0.10272005335E+03 -0.41002662803E+03  0.45453482405E+03  0.10100000352E+00 0. -1.
       -3    1    3    3    0  502  0.16711867347E+03 -0.10272005335E+03 -0.31275439237E+01  0.19618830779E+03  0.10100000352E+00 0.  1.
</event>
<event>
 5   0  0.3111146E-01  0.5169933E+03  0.7818609E-02  0.1009436E+00
        2   -1    0    0  501    0  0.00000000000E+00  0.00000000000E+00  0.17678609356E+04  0.17678609356E+04  0.25500000920E-02 0.  1.
       -2   -1    0    0    0  501  0.00000000000E+00  0.00000000000E+00 -0.37797381879E+02  0.37797381965E+02  0.25500000920E-02 0. -1.
    10030    2    1    2    0    0  0.00000000000E+00  0.00000000000E+00  0.17300635537E+04  0.18056583176E+04  0.51699328804E+03 0.  0.
        1    1    3    3  502    0  0.24726626460E+03  0.64295285296E+02  0.72770380320E+03  0.77125048755E+03  0.50400001928E-02 0. -1.
       -1    1    3    3    0  502 -0.24726626460E+03 -0.64295285296E+02  0.10023597505E+04  0.10344078300E+04  0.50400001928E-02 0.  1.
</event>
<event>
 5   0  0.1984297E-01  0.5053143E+03  0.7818609E-02  0.1012401E+00
        1   -1    0    0  501    0  0.00000000000E+00  0.00000000000E+00  0.23886077731E+03  0.23886077736E+03  0.50400001928E-02 0. -1.
       -1   -1    0    0    0  501  0.00000000000E+00  0.00000000000E+00 -0.26725033945E+03  0.26725033950E+03  0.50400001928E-02 0.  1.
    10030    2    1    2    0    0  0.00000000000E+00  0.00000000000E+00 -0.28389562144E+02  0.50611111686E+03  0.50531425407E+03 0.  0.
        3    1    3    3  502    0  0.18782635194E+03  0.13522703491E+03 -0.11569819106E+03  0.25874924361E+03  0.10100000352E+00 0.  1.
       -3    1    3    3    0  502 -0.18782635194E+03 -0.13522703491E+03  0.87308628921E+02  0.24736187325E+03  0.10100000352E+00 0. -1.
</event>
<event>
 5   0  0.3187123E-01  0.4970434E+03  0.7818609E-02  0.1014554E+00
        2   -1    0    0  501    0  0.00000000000E+00  0.00000000000E+00  0.10497400065E+04  0.10497400065E+04  0.25500000920E-02 0. -1.
       -2   -1    0    0    0  501  0.00000000000E+00  0.00000000000E+00 -0.58836503614E+02  0.58836503669E+02  0.25500000920E-02 0.  1.
    10030    2    1    2    0    0  0.00000000000E+00  0.00000000000E+00  0.99090350285E+03  0.11085765101E+04  0.49704338529E+03 0.  0.
        5    1    3    3  502    0 -0.15534709859E+03 -0.17861185616E+03  0.66392782331E+03  0.70488095503E+03  0.46999998093E+01 0. -1.
       -5    1    3    3    0  502  0.15534709859E+03  0.17861185616E+03  0.32697567954E+03  0.40369555510E+03  0.46999998093E+01 0.  1.
</event>
<event>
 5   0  0.3178149E-01  0.4957281E+03  0.7818609E-02  0.1014900E+00
        2   -1    0    0  501    0  0.00000000000E+00  0.00000000000E+00  0.54549583144E+03  0.54549583144E+03  0.25500000920E-02 0.  1.
       -2   -1    0    0    0  501  0.00000000000E+00  0.00000000000E+00 -0.11262520250E+03  0.11262520253E+03  0.25500000920E-02 0. -1.
    10030    2    1    2    0    0  0.00000000000E+00  0.00000000000E+00  0.43287062893E+03  0.65812103398E+03  0.49572806454E+03 0.  0.
        3    1    3    3  502    0 -0.28589852160E+02 -0.18511983858E+03  0.93336311916E+00  0.18731688565E+03  0.10100000352E+00 0. -1.
       -3    1    3    3    0  502  0.28589852160E+02  0.18511983858E+03  0.43193726582E+03  0.47080414833E+03  0.10100000352E+00 0.  1.
</event>
<event>
 5   0  0.1292375E-01  0.5032268E+03  0.7818609E-02  0.1012940E+00
        3   -1    0    0  501    0  0.00000000000E+00  0.00000000000E+00  0.46288083345E+03  0.46288084447E+03  0.10100000352E+00 0. -1.
       -3   -1    0    0    0  501  0.00000000000E+00  0.00000000000E+00 -0.13677233729E+03  0.13677237458E+03  0.10100000352E+00 0.  1.
    10030    2    1    2    0    0  0.00000000000E+00  0.00000000000E+00  0.32610849616E+03  0.59965321906E+03  0.50322681949E+03 0.  0.
        1    1    3    3  502    0  0.11114390856E+03 -0.98902736814E+02 -0.78742815639E+02  0.16833048090E+03  0.50400001928E-02 0.  1.
       -1    1    3    3    0  502 -0.11114390856E+03  0.98902736814E+02  0.40485131180E+03  0.43132273816E+03  0.50400001928E-02 0. -1.
</event>
<event>
 5   0  0.3178149E-01  0.5329440E+03  0.7818609E-02  0.1005521E+00
       -2   -1    0    0    0  501  0.00000000000E+00  0.00000000000E+00  0.89592448494E+02  0.89592448530E+02  0.25500000920E-02 0.  1.
        2   -1    0    0  501    0  0.00000000000E+00  0.00000000000E+00 -0.79255941013E+03  0.79255941013E+03  0.25500000920E-02 0. -1.
    10030    2    1    2    0    0  0.00000000000E+00  0.00000000000E+00 -0.70296696163E+03  0.88215185866E+03  0.53294404264E+03 0.  0.
        3    1    3    3  502    0  0.41559617528E+02  0.10100719444E+03 -0.75380515622E+03  0.76167701743E+03  0.10100000352E+00 0. -1.
       -3    1    3    3    0  502 -0.41559617528E+02 -0.10100719444E+03  0.50838194590E+02  0.12047484123E+03  0.10100000352E+00 0.  1.
</event>
<event>
 5   0  0.2013450E-01  0.4921340E+03  0.7818609E-02  0.1015853E+00
       -1   -1    0    0    0  501  0.00000000000E+00  0.00000000000E+00  0.35146413393E+02  0.35146413754E+02  0.50400001928E-02 0.  1.
        1   -1    0    0  501    0  0.00000000000E+00  0.00000000000E+00 -0.17227637027E+04  0.17227637027E+04  0.50400001928E-02 0. -1.
    10030    2    1    2    0    0  0.00000000000E+00  0.00000000000E+00 -0.16876172893E+04  0.17579101164E+04  0.49213398825E+03 0.  0.
        4    1    3    3  502    0  0.15411441581E+03 -0.18662743495E+03 -0.68541483583E+03  0.72689487735E+03  0.12699999809E+01 0.  1.
       -4    1    3    3    0  502 -0.15411441581E+03  0.18662743495E+03 -0.10022024535E+04  0.10310152391E+04  0.12699999809E+01 0. -1.
</event>
<event>
 5   0  0.2013450E-01  0.5043132E+03  0.7818609E-02  0.1012659E+00
        1   -1    0    0  501    0  0.00000000000E+00  0.00000000000E+00  0.38373622092E+03  0.38373622095E+03  0.50400001928E-02 0. -1.
       -1   -1    0    0    0  501  0.00000000000E+00  0.00000000000E+00 -0.16569445279E+03  0.16569445286E+03  0.50400001928E-02 0.  1.
    10030    2    1    2    0    0  0.00000000000E+00  0.00000000000E+00  0.21804176813E+03  0.54943067381E+03  0.50431324856E+03 0.  0.
        4    1    3    3  502    0 -0.23423734650E+03  0.13334773529E+02  0.83625143021E+01  0.23476902527E+03  0.12699999809E+01 0.  1.
       -4    1    3    3    0  502  0.23423734650E+03 -0.13334773529E+02  0.20967925383E+03  0.31466164855E+03  0.12699999809E+01 0. -1.
</event>
<event>
 5   0  0.1967161E-01  0.4968192E+03  0.7818609E-02  0.1014613E+00
       -1   -1    0    0    0  501  0.00000000000E+00  0.00000000000E+00  0.63932320578E+02  0.63932320777E+02  0.50400001928E-02 0.  1.
        1   -1    0    0  501    0  0.00000000000E+00  0.00000000000E+00 -0.96519759310E+03  0.96519759311E+03  0.50400001928E-02 0. -1.
    10030    2    1    2    0    0  0.00000000000E+00  0.00000000000E+00 -0.90126527252E+03  0.10291299139E+04  0.49681917053E+03 0.  0.
        1    1    3    3  502    0 -0.14505009715E+03 -0.17982589243E+03 -0.26156995155E+03  0.34899243810E+03  0.50400001928E-02 0.  1.
       -1    1    3    3    0  502  0.14505009715E+03  0.17982589243E+03 -0.63969532097E+03  0.68013747578E+03  0.50400001928E-02 0. -1.
</event>
<event>
 5   0  0.1984680E-01  0.4747703E+03  0.7818609E-02  0.1020582E+00
       -1   -1    0    0    0  501  0.00000000000E+00  0.00000000000E+00  0.39514799383E+02  0.39514799705E+02  0.50400001928E-02 0. -1.
        1   -1    0    0  501    0  0.00000000000E+00  0.00000000000E+00 -0.14260912258E+04  0.14260912259E+04  0.50400001928E-02 0.  1.
    10030    2    1    2    0    0  0.00000000000E+00  0.00000000000E+00 -0.13865764265E+04  0.14656060256E+04  0.47477029786E+03 0.  0.
        5    1    3    3  502    0 -0.13735745192E+03 -0.12761811796E+03 -0.11425064304E+04  0.11577981202E+04  0.46999998093E+01 0. -1.
       -5    1    3    3    0  502  0.13735745192E+03  0.12761811796E+03 -0.24406999609E+03  0.30780790539E+03  0.46999998093E+01 0.  1.
</event>
<event>
 5   0  0.1984297E-01  0.4972218E+03  0.7818609E-02  0.1014507E+00
       -1   -1    0    0    0  501  0.00000000000E+00  0.00000000000E+00  0.59497417407E+02  0.59497417621E+02  0.50400001928E-02 0. -1.
        1   -1    0    0  501    0  0.00000000000E+00  0.00000000000E+00 -0.10388245374E+04  0.10388245374E+04  0.50400001928E-02 0.  1.
    10030    2    1    2    0    0  0.00000000000E+00  0.00000000000E+00 -0.97932711996E+03  0.10983219550E+04  0.49722179050E+03 0.  0.
        3    1    3    3  502    0 -0.16963790422E+03 -0.19707511801E+02 -0.90576503640E+02  0.19331197009E+03  0.10100000352E+00 0. -1.
       -3    1    3    3    0  502  0.16963790422E+03  0.19707511801E+02 -0.88875061632E+03  0.90500998491E+03  0.10100000352E+00 0.  1.
</event>
<event>
 5   0  0.2000612E-01  0.5002891E+03  0.7818609E-02  0.1013703E+00
        1   -1    0    0  501    0  0.00000000000E+00  0.00000000000E+00  0.59403037788E+03  0.59403037790E+03  0.50400001928E-02 0. -1.
       -1   -1    0    0    0  501  0.00000000000E+00  0.00000000000E+00 -0.10533518006E+03  0.10533518019E+03  0.50400001928E-02 0.  1.
    10030    2    1    2    0    0  0.00000000000E+00  0.00000000000E+00  0.48869519781E+03  0.69936555808E+03  0.50028910389E+03 0.  0.
        2    1    3    3  502    0 -0.27311596464E+02  0.46187791966E+02  0.58589038973E+03  0.58834240389E+03  0.25500000920E-02 0. -1.
       -2    1    3    3    0  502  0.27311596464E+02 -0.46187791966E+02 -0.97195191920E+02  0.11102315419E+03  0.25500000920E-02 0.  1.
</event>
<event>
 5   0  0.1292375E-01  0.4890922E+03  0.7818609E-02  0.1016666E+00
       -4   -1    0    0    0  501  0.00000000000E+00  0.00000000000E+00  0.30507032124E+03  0.30507296472E+03  0.12699999809E+01 0. -1.
        4   -1    0    0  501    0  0.00000000000E+00  0.00000000000E+00 -0.19602395602E+03  0.19602807002E+03  0.12699999809E+01 0.  1.
    10030    2    1    2    0    0  0.00000000000E+00  0.00000000000E+00  0.10904636522E+03  0.50110103474E+03  0.48909215619E+03 0.  0.
        5    1    3    3  502    0  0.47982367791E+02 -0.49506954013E+02 -0.18581583877E+03  0.19824949445E+03  0.46999998093E+01 0.  1.
       -5    1    3    3    0  502 -0.47982367791E+02  0.49506954013E+02  0.29486220399E+03  0.30285154029E+03  0.46999998093E+01 0. -1.
</event>
<event>
 5   0  0.3329246E-01  0.6846183E+03  0.7818609E-02  0.9743905E-01
       -2   -1    0    0    0  501  0.00000000000E+00  0.00000000000E+00  0.57494413129E+03  0.57494413130E+03  0.25500000920E-02 0. -1.
        2   -1    0    0  501    0  0.00000000000E+00  0.00000000000E+00 -0.20380338055E+03  0.20380338057E+03  0.25500000920E-02 0.  1.
    10030    2    1    2    0    0  0.00000000000E+00  0.00000000000E+00  0.37114075074E+03  0.77874751187E+03  0.68461831000E+03 0.  0.
        2    1    3    3  502    0  0.22980396035E+03 -0.13179558539E+03  0.43216116918E+03  0.50689566252E+03  0.25500000920E-02 0. -1.
       -2    1    3    3    0  502 -0.22980396035E+03  0.13179558539E+03 -0.61020418447E+02  0.27185184935E+03  0.25500000920E-02 0.  1.
</event>
<event>
 5   0  0.1984297E-01  0.4197421E+03  0.7818609E-02  0.1037150E+00
        1   -1    0    0  501    0  0.00000000000E+00  0.00000000000E+00  0.46052834001E+03  0.46052834004E+03  0.50400001928E-02 0.  1.
       -1   -1    0    0    0  501  0.00000000000E+00  0.00000000000E+00 -0.95642003651E+02  0.95642003783E+02  0.50400001928E-02 0. -1.
    10030    2    1    2    0    0  0.00000000000E+00  0.00000000000E+00  0.36488633636E+03  0.55617034382E+03  0.41974207900E+03 0.  0.
        3    1    3    3  502    0 -0.40611672277E+02 -0.11128771693E+01 -0.90381827724E+02  0.99093044178E+02  0.10100000352E+00 0. -1.
       -3    1    3    3    0  502  0.40611672277E+02  0.11128771693E+01  0.45526816409E+03  0.45707729965E+03  0.10100000352E+00 0.  1.
</event>
<event>
 5   0  0.1967161E-01  0.4923718E+03  0.7818609E-02  0.1015789E+00
       -1   -1    0    0    0  501  0.00000000000E+00  0.00000000000E+00  0.18159333622E+03  0.18159333629E+03  0.50400001928E-02 0.  1.
        1   -1    0    0  501    0  0.00000000000E+00  0.00000000000E+00 -0.33375402423E+03  0.33375402427E+03  0.50400001928E-02 0. -1.
    10030    2    1    2    0    0  0.00000000000E+00  0.00000000000E+00 -0.15216068801E+03  0.51534736056E+03  0.49237183821E+03 0.  0.
        1    1    3    3  502    0 -0.46675073253E+02  0.84985866029E+02 -0.31292781288E+03  0.32760490837E+03  0.50400001928E-02 0. -1.
       -1    1    3    3    0  502  0.46675073253E+02 -0.84985866029E+02  0.16076712487E+03  0.18774245219E+03  0.50400001928E-02 0.  1.
</event>
<event>
 5   0  0.3329246E-01  0.5014374E+03  0.7818609E-02  0.1013404E+00
       -2   -1    0    0    0  501  0.00000000000E+00  0.00000000000E+00  0.54926855301E+02  0.54926855360E+02  0.25500000920E-02 0. -1.
        2   -1    0    0  501    0  0.00000000000E+00  0.00000000000E+00 -0.11444286115E+04  0.11444286115E+04  0.25500000920E-02 0.  1.
    10030    2    1    2    0    0  0.00000000000E+00  0.00000000000E+00 -0.10895017562E+04  0.11993554668E+04  0.50143739303E+03 0.  0.
        2    1    3    3  502    0  0.65802691433E+02  0.23114005690E+03 -0.71563145042E+03  0.75490667830E+03  0.25500000920E-02 0.  1.
       -2    1    3    3    0  502 -0.65802691433E+02 -0.23114005690E+03 -0.37387030575E+03  0.44444878853E+03  0.25500000920E-02 0. -1.
</event>
<event>
 5   0  0.2000612E-01  0.4996016E+03  0.7818609E-02  0.1013883E+00
        1   -1    0    0  501    0  0.00000000000E+00  0.00000000000E+00  0.72951932654E+02  0.72951932828E+02  0.50400001928E-02 0. -1.
       -1   -1    0    0    0  501  0.00000000000E+00  0.00000000000E+00 -0.85536364653E+03  0.85536364655E+03  0.50400001928E-02 0.  1.
    10030    2    1    2    0    0  0.00000000000E+00  0.00000000000E+00 -0.78241171388E+03  0.92831557938E+03  0.49960156615E+03 0.  0.
        2    1    3    3  502    0  0.17020373712E+03 -0.65103850974E+02 -0.73731762367E+02  0.19658127157E+03  0.25500000920E-02 0. -1.
       -2    1    3    3    0  502 -0.17020373712E+03  0.65103850974E+02 -0.70867995151E+03  0.73173430781E+03  0.25500000920E-02 0.  1.
</event>
<event>
 5   0  0.1984297E-01  0.4918776E+03  0.7818609E-02  0.1015921E+00
        1   -1    0    0  501    0  0.00000000000E+00  0.00000000000E+00  0.46200827639E+03  0.46200827642E+03  0.50400001928E-02 0.  1.
       -1   -1    0    0    0  501  0.00000000000E+00  0.00000000000E+00 -0.13091950450E+03  0.13091950460E+03  0.50400001928E-02 0. -1.
    10030    2    1    2    0    0  0.00000000000E+00  0.00000000000E+00  0.33108877189E+03  0.59292778101E+03  0.49187760533E+03 0.  0.
        3    1    3    3  502    0  0.15161084387E+03  0.10561698888E+03  0.36120101963E+03  0.40571786145E+03  0.10100000352E+00 0.  1.
       -3    1    3    3    0  502 -0.15161084387E+03 -0.10561698888E+03 -0.30112247740E+02  0.18720991956E+03  0.10100000352E+00 0. -1.
</event>
<event>
 5   0  0.3111146E-01  0.5037457E+03  0.7818609E-02  0.1012806E+00
        2   -1    0    0  501    0  0.00000000000E+00  0.00000000000E+00  0.19529183808E+03  0.19529183810E+03  0.25500000920E-02 0. -1.
       -2   -1    0    0    0  501  0.00000000000E+00  0.00000000000E+00 -0.32484676223E+03  0.32484676224E+03  0.25500000920E-02 0.  1.
    10030    2    1    2    0    0  0.00000000000E+00  0.00000000000E+00 -0.12955492415E+03  0.52013860033E+03  0.50374565525E+03 0.  0.
        1    1    3    3  502    0 -0.24055743023E+03 -0.41704360656E+02 -0.85326195402E+00  0.24414720768E+03  0.50400001928E-02 0.  1.
       -1    1    3    3    0  502  0.24055743023E+03  0.41704360656E+02 -0.12870166219E+03  0.27599139265E+03  0.50400001928E-02 0. -1.
</event>
<event>
 5   0  0.3329246E-01  0.5013201E+03  0.7818609E-02  0.1013435E+00
        2   -1    0    0  501    0  0.00000000000E+00  0.00000000000E+00  0.72198875802E+03  0.72198875802E+03  0.25500000920E-02 0.  1.
       -2   -1    0    0    0  501  0.00000000000E+00  0.00000000000E+00 -0.87024154019E+02  0.87024154057E+02  0.25500000920E-02 0. -1.
    10030    2    1    2    0    0  0.00000000000E+00  0.00000000000E+00  0.63496460400E+03  0.80901291208E+03  0.50132010091E+03 0.  0.
        2    1    3    3  502    0  0.10922577953E+03  0.31423651818E+02  0.67801616192E+03  0.68747627787E+03  0.25500000920E-02 0.  1.
       -2    1    3    3    0  502 -0.10922577953E+03 -0.31423651818E+02 -0.43051557919E+02  0.12153663421E+03  0.25500000920E-02 0. -1.
</event>
<event>
 5   0  0.3117389E-01  0.5082419E+03  0.7818609E-02  0.1011650E+00
        2   -1    0    0  501    0  0.00000000000E+00  0.00000000000E+00  0.17634910657E+03  0.17634910659E+03  0.25500000920E-02 0.  1.
       -2   -1    0    0    0  501  0.00000000000E+00  0.00000000000E+00 -0.36619093989E+03  0.36619093990E+03  0.25500000920E-02 0. -1.
    10030    2    1    2    0    0  0.00000000000E+00  0.00000000000E+00 -0.18984183332E+03  0.54254004649E+03  0.50824185223E+03 0.  0.
        4    1    3    3  502    0 -0.16356394204E+03 -0.91799486677E+02 -0.27794235882E+03  0.33531161122E+03  0.12699999809E+01 0. -1.
       -4    1    3    3    0  502  0.16356394204E+03  0.91799486677E+02  0.88100525504E+02  0.20722843527E+03  0.12699999809E+01 0.  1.
</event>
<event>
 5   0  0.3187123E-01  0.4957692E+03  0.7818609E-02  0.1014889E+00
        2   -1    0    0  501    0  0.00000000000E+00  0.00000000000E+00  0.21330722292E+03  0.21330722294E+03  0.25500000920E-02 0. -1.
       -2   -1    0    0    0  501  0.00000000000E+00  0.00000000000E+00 -0.28806700690E+03  0.28806700692E+03  0.25500000920E-02 0.  1.
    10030    2    1    2    0    0  0.00000000000E+00  0.00000000000E+00 -0.74759783980E+02  0.50137422985E+03  0.49576919334E+03 0.  0.
        5    1    3    3  502    0 -0.46030763673E+01 -0.23736818605E+03  0.34556860680E+02  0.23996064402E+03  0.46999998093E+01 0. -1.
       -5    1    3    3    0  502  0.46030763673E+01  0.23736818605E+03 -0.10931664466E+03  0.26141358583E+03  0.46999998093E+01 0.  1.
</event>
<event>
 5   0  0.3117389E-01  0.5043949E+03  0.7818609E-02  0.1012638E+00
        2   -1    0    0  501    0  0.00000000000E+00  0.00000000000E+00  0.24420796845E+03  0.24420796847E+03  0.25500000920E-02 0.  1.
       -2   -1    0    0    0  501  0.00000000000E+00  0.00000000000E+00 -0.26044835259E+03  0.26044835260E+03  0.25500000920E-02 0. -1.
    10030    2    1    2    0    0  0.00000000000E+00  0.00000000000E+00 -0.16240384137E+02  0.50465632107E+03  0.50439493685E+03 0.  0.
        4    1    3    3  502    0  0.23781641254E+03  0.74211034642E+02 -0.47358195427E+02  0.25359088176E+03  0.12699999809E+01 0.  1.
       -4    1    3    3    0  502 -0.23781641254E+03 -0.74211034642E+02  0.31117811289E+02  0.25106543931E+03  0.12699999809E+01 0. -1.
</event>
<event>
 5   0  0.3111146E-01  0.4865415E+03  0.7818609E-02  0.1017353E+00
        2   -1    0    0  501    0  0.00000000000E+00  0.00000000000E+00  0.32400545397E+03  0.32400545398E+03  0.25500000920E-02 0. -1.
       -2   -1    0    0    0  501  0.00000000000E+00  0.00000000000E+00 -0.18265327841E+03  0.18265327843E+03  0.25500000920E-02 0.  1.
    10030    2    1    2    0    0  0.00000000000E+00  0.00000000000E+00  0.14135217555E+03  0.50665873241E+03  0.48654150244E+03 0.  0.
        1    1    3    3  502    0  0.12386892628E+02  0.18996204400E+03 -0.87051593503E+02  0.20932508982E+03  0.50400001928E-02 0. -1.
       -1    1    3    3    0  502 -0.12386892628E+02 -0.18996204400E+03  0.22840376905E+03  0.29733364259E+03  0.50400001928E-02 0.  1.
</event>
<event>
 5   0  0.2000612E-01  0.5023293E+03  0.7818609E-02  0.1013173E+00
        1   -1    0    0  501    0  0.00000000000E+00  0.00000000000E+00  0.16758532559E+04  0.16758532559E+04  0.50400001928E-02 0.  1.
       -1   -1    0    0    0  501  0.00000000000E+00  0.00000000000E+00 -0.37642719747E+02  0.37642720084E+02  0.50400001928E-02 0. -1.
    10030    2    1    2    0    0  0.00000000000E+00  0.00000000000E+00  0.16382105362E+04  0.17134959760E+04  0.50232927347E+03 0.  0.
        2    1    3    3  502    0 -0.48572396136E+02  0.52152269164E+02 -0.24288170900E+01  0.71309438396E+02  0.25500000920E-02 0. -1.
       -2    1    3    3    0  502  0.48572396136E+02 -0.52152269164E+02  0.16406393533E+04  0.16421865376E+04  0.25500000920E-02 0.  1.
</event>
<event>
 5   0  0.3329246E-01  0.5030038E+03  0.7818609E-02  0.1012998E+00
       -2   -1    0    0    0  501  0.00000000000E+00  0.00000000000E+00  0.52036829192E+03  0.52036829193E+03  0.25500000920E-02 0.  1.
        2   -1    0    0  501    0  0.00000000000E+00  0.00000000000E+00 -0.12155468136E+03  0.12155468139E+03  0.25500000920E-02 0. -1.
    10030    2    1    2    0    0  0.00000000000E+00  0.00000000000E+00  0.39881361056E+03  0.64192297331E+03  0.50300378498E+03 0.  0.
        2    1    3    3  502    0  0.14070861462E+03 -0.20103570146E+03  0.12905547237E+03  0.27725364280E+03  0.25500000920E-02 0. -1.
       -2    1    3    3    0  502 -0.14070861462E+03  0.20103570146E+03  0.26975813819E+03  0.36466933051E+03  0.25500000920E-02 0.  1.
</event>
<event>
 5   0  0.3178149E-01  0.4982796E+03  0.7818609E-02  0.1014229E+00
       -2   -1    0    0    0  501  0.00000000000E+00  0.00000000000E+00  0.33556698292E+02  0.33556698389E+02  0.25500000920E-02 0. -1.
        2   -1    0    0  501    0  0.00000000000E+00  0.00000000000E+00 -0.18497246175E+04  0.18497246175E+04  0.25500000920E-02 0.  1.
    10030    2    1    2    0    0  0.00000000000E+00  0.00000000000E+00 -0.18161679192E+04  0.18832813159E+04  0.49827964440E+03 0.  0.
        3    1    3    3  502    0  0.51924813883E+02  0.85817931293E+02 -0.46129379862E+02  0.11040305030E+03  0.10100000352E+00 0. -1.
       -3    1    3    3    0  502 -0.51924813883E+02 -0.85817931293E+02 -0.17700385394E+04  0.17728782656E+04  0.10100000352E+00 0.  1.
</event>
<event>
 5   0  0.3187123E-01  0.4877257E+03  0.7818609E-02  0.1017033E+00
       -2   -1    0    0    0  501  0.00000000000E+00  0.00000000000E+00  0.38880095926E+03  0.38880095926E+03  0.25500000920E-02 0.  1.
        2   -1    0    0  501    0  0.00000000000E+00  0.00000000000E+00 -0.15295509331E+03  0.15295509333E+03  0.25500000920E-02 0. -1.
    10030    2    1    2    0    0  0.00000000000E+00  0.00000000000E+00  0.23584586595E+03  0.54175605259E+03  0.48772568933E+03 0.  0.
        5    1    3    3  502    0  0.23510301643E+03  0.12541798239E+02  0.47528275824E+02  0.24023270393E+03  0.46999998093E+01 0. -1.
       -5    1    3    3    0  502 -0.23510301643E+03 -0.12541798239E+02  0.18831759013E+03  0.30152334866E+03  0.46999998093E+01 0.  1.
</event>
<event>
 5   0  0.3111146E-01  0.4997107E+03  0.7818609E-02  0.1013854E+00
       -2   -1    0    0    0  501  0.00000000000E+00  0.00000000000E+00  0.19922743064E+03  0.19922743065E+03  0.25500000920E-02 0.  1.
        2   -1    0    0  501    0  0.00000000000E+00  0.00000000000E+00 -0.31334894301E+03  0.31334894302E+03  0.25500000920E-02 0. -1.
    10030    2    1    2    0    0  0.00000000000E+00  0.00000000000E+00 -0.11412151238E+03  0.51257637368E+03  0.49971073559E+03 0.  0.
        1    1    3    3  502    0  0.20664551574E+02  0.15094930609E+03 -0.26018695816E+03  0.30151280226E+03  0.50400001928E-02 0. -1.
       -1    1    3    3    0  502 -0.20664551574E+02 -0.15094930609E+03  0.14606544579E+03  0.21106357142E+03  0.50400001928E-02 0.  1.
</event>
<event>
 5   0  0.1967161E-01  0.4025309E+03  0.7818609E-02  0.1042907E+00
       -1   -1    0    0    0  501  0.00000000000E+00  0.00000000000E+00  0.18868843944E+03  0.18868843951E+03  0.50400001928E-02 0. -1.
        1   -1    0    0  501    0  0.00000000000E+00  0.00000000000E+00 -0.21468081605E+03  0.21468081611E+03  0.50400001928E-02 0.  1.
    10030    2    1    2    0    0  0.00000000000E+00  0.00000000000E+00 -0.25992376608E+02  0.40336925562E+03  0.40253093389E+03 0.  0.
        1    1    3    3  502    0 -0.34359972986E+02 -0.16075151629E+03 -0.12936784324E+03  0.20918340428E+03  0.50400001928E-02 0.  1.
       -1    1    3    3    0  502  0.34359972986E+02  0.16075151629E+03  0.10337546663E+03  0.19418585134E+03  0.50400001928E-02 0. -1.
</event>
<event>
 5   0  0.3329246E-01  0.4748154E+03  0.7818609E-02  0.1020570E+00
       -2   -1    0    0    0  501  0.00000000000E+00  0.00000000000E+00  0.25620095850E+02  0.25620095977E+02  0.25500000920E-02 0.  1.
        2   -1    0    0  501    0  0.00000000000E+00  0.00000000000E+00 -0.21999298982E+04  0.21999298982E+04  0.25500000920E-02 0. -1.
    10030    2    1    2    0    0  0.00000000000E+00  0.00000000000E+00 -0.21743098023E+04  0.22255499942E+04  0.47481539570E+03 0.  0.
        2    1    3    3  502    0 -0.35095586838E+02 -0.79335374612E+02 -0.51332423863E+02  0.10080089100E+03  0.25500000920E-02 0.  1.
       -2    1    3    3    0  502  0.35095586838E+02  0.79335374612E+02 -0.21229773785E+04  0.21247491032E+04  0.25500000920E-02 0. -1.
</event>
<event>
 5   0  0.1984297E-01  0.4956367E+03  0.7818609E-02  0.1014924E+00
        1   -1    0    0  501    0  0.00000000000E+00  0.00000000000E+00  0.27255983823E+03  0.27255983828E+03  0.50400001928E-02 0.  1.
       -1   -1    0    0    0  501  0.00000000000E+00  0.00000000000E+00 -0.22532274595E+03  0.22532274601E+03  0.50400001928E-02 0. -1.
    10030    2    1    2    0    0  0.00000000000E+00  0.00000000000E+00  0.47237092280E+02  0.49788258429E+03  0.49563668634E+03 0.  0.
        3    1    3    3  502    0 -0.24658199050E+03  0.16002037020E+02  0.42550105412E+02  0.25073744216E+03  0.10100000352E+00 0. -1.
       -3    1    3    3    0  502  0.24658199050E+03 -0.16002037020E+02  0.46869868686E+01  0.24714514213E+03  0.10100000352E+00 0.  1.
</event>
<event>
 5   0  0.3187123E-01  0.5037723E+03  0.7818609E-02  0.1012799E+00
        2   -1    0    0  501    0  0.00000000000E+00  0.00000000000E+00  0.12643770156E+04  0.12643770156E+04  0.25500000920E-02 0. -1.
       -2   -1    0    0    0  501  0.00000000000E+00  0.00000000000E+00 -0.50180151939E+02  0.50180152004E+02  0.25500000920E-02 0.  1.
    10030    2    1    2    0    0  0.00000000000E+00  0.00000000000E+00  0.12141968636E+04  0.13145571676E+04  0.50377229298E+03 0.  0.
        5    1    3    3  502    0 -0.13164579184E+03 -0.19528242759E+03  0.37430739201E+03  0.44226005330E+03  0.46999998093E+01 0.  1.
       -5    1    3    3    0  502  0.13164579184E+03  0.19528242759E+03  0.83988947163E+03  0.87229711428E+03  0.46999998093E+01 0. -1.
</event>
<event>
 5   0  0.2000612E-01  0.5111125E+03  0.7818609E-02  0.1010918E+00
       -1   -1    0    0    0  501  0.00000000000E+00  0.00000000000E+00  0.72602339412E+03  0.72602339414E+03  0.50400001928E-02 0. -1.
        1   -1    0    0  501    0  0.00000000000E+00  0.00000000000E+00 -0.89954413342E+02  0.89954413483E+02  0.50400001928E-02 0.  1.
    10030    2    1    2    0    0  0.00000000000E+00  0.00000000000E+00  0.63606898078E+03  0.81597780762E+03  0.51111254555E+03 0.  0.
        2    1    3    3  502    0 -0.88221184628E+02  0.20494240507E+03  0.11911717032E+03  0.25292937173E+03  0.25500000920E-02 0.  1.
       -2    1    3    3    0  502  0.88221184628E+02 -0.20494240507E+03  0.51695181046E+03  0.56304843589E+03  0.25500000920E-02 0. -1.
</event>
<event>
 5   0  0.3117389E-01  0.5010342E+03  0.7818609E-02  0.1013509E+00
        2   -1    0    0  501    0  0.00000000000E+00  0.00000000000E+00  0.64022787675E+03  0.64022787676E+03  0.25500000920E-02 0.  1.
       -2   -1    0    0    0  501  0.00000000000E+00  0.00000000000E+00 -0.98025731945E+02  0.98025731978E+02  0.25500000920E-02 0. -1.
    10030    2    1    2    0    0  0.00000000000E+00  0.00000000000E+00  0.54220214481E+03  0.73825360874E+03  0.50103415550E+03 0.  0.
        4    1    3    3  502    0 -0.17798349158E+03  0.55344096361E+02  0.24473235682E+02  0.18799373511E+03  0.12699999809E+01 0. -1.
       -4    1    3    3    0  502  0.17798349158E+03 -0.55344096361E+02  0.51772890913E+03  0.55025987362E+03  0.12699999809E+01 0.  1.
</event>
<event>
 5   0  0.1967161E-01  0.5013488E+03  0.7818609E-02  0.1013427E+00
       -1   -1    0    0    0  501  0.00000000000E+00  0.00000000000E+00  0.36456369433E+02  0.36456369782E+02  0.50400001928E-02 0.  1.
        1   -1    0    0  501    0  0.00000000000E+00  0.00000000000E+00 -0.17236398701E+04  0.17236398701E+04  0.50400001928E-02 0. -1.
    10030    2    1    2    0    0  0.00000000000E+00  0.00000000000E+00 -0.16871835006E+04  0.17600962399E+04  0.50134878951E+03 0.  0.
        1    1    3    3  502    0 -0.87681493665E+02  0.22942888383E+03 -0.66763503828E+03  0.71138048991E+03  0.50400001928E-02 0.  1.
       -1    1    3    3    0  502  0.87681493665E+02 -0.22942888383E+03 -0.10195484624E+04  0.10487157500E+04  0.50400001928E-02 0. -1.
</event>
<event>
 5   0  0.3111146E-01  0.5062824E+03  0.7818609E-02  0.1012152E+00
        2   -1    0    0  501    0  0.00000000000E+00  0.00000000000E+00  0.16202246385E+04  0.16202246385E+04  0.25500000920E-02 0. -1.
       -2   -1    0    0    0  501  0.00000000000E+00  0.00000000000E+00 -0.39550360474E+02  0.39550360557E+02  0.25500000920E-02 0.  1.
    10030    2    1    2    0    0  0.00000000000E+00  0.00000000000E+00  0.15806742781E+04  0.16597749991E+04  0.50628240567E+03 0.  0.
        1    1    3    3  502    0  0.22355873668E+03  0.55238326085E+02  0.11349655085E+04  0.11580917437E+04  0.50400001928E-02 0. -1.
       -1    1    3    3    0  502 -0.22355873668E+03 -0.55238326085E+02  0.44570876957E+03  0.50168325536E+03  0.50400001928E-02 0.  1.
</event>
<event>
 5   0  0.2013450E-01  0.5045069E+03  0.7818609E-02  0.1012609E+00
        1   -1    0    0  501    0  0.00000000000E+00  0.00000000000E+00  0.77225759695E+03  0.77225759697E+03  0.50400001928E-02 0.  1.
       -1   -1    0    0    0  501  0.00000000000E+00  0.00000000000E+00 -0.82397116577E+02  0.82397116732E+02  0.50400001928E-02 0. -1.
    10030    2    1    2    0    0  0.00000000000E+00  0.00000000000E+00  0.68986048037E+03  0.85465471370E+03  0.50450688525E+03 0.  0.
        4    1    3    3  502    0  0.63454331468E+02  0.20880383293E+03  0.13061785165E+03  0.25433861071E+03  0.12699999809E+01 0. -1.
       -4    1    3    3    0  502 -0.63454331468E+02 -0.20880383293E+03  0.55924262872E+03  0.60031610299E+03  0.12699999809E+01 0.  1.
</event>
<event>
 5   0  0.1292375E-01  0.4956789E+03  0.7818609E-02  0.1014913E+00
        3   -1    0    0  501    0  0.00000000000E+00  0.00000000000E+00  0.13233278846E+03  0.13233282700E+03  0.10100000352E+00 0. -1.
       -3   -1    0    0    0  501  0.00000000000E+00  0.00000000000E+00 -0.46416601947E+03  0.46416603046E+03  0.10100000352E+00 0.  1.
    10030    2    1    2    0    0  0.00000000000E+00  0.00000000000E+00 -0.33183323101E+03  0.59649885746E+03  0.49567892203E+03 0.  0.
        2    1    3    3  502    0 -0.10013923898E+03  0.56958234077E+02 -0.42998574949E+03  0.44515149374E+03  0.25500000920E-02 0.  1.
       -2    1    3    3    0  502  0.10013923898E+03 -0.56958234077E+02  0.98152518477E+02  0.15134736371E+03  0.25500000920E-02 0. -1.
</event>
<event>
 5   0  0.3178149E-01  0.4979344E+03  0.7818609E-02  0.1014319E+00
       -2   -1    0    0    0  501  0.00000000000E+00  0.00000000000E+00  0.19750258784E+03  0.19750258785E+03  0.25500000920E-02 0.  1.
        2   -1    0    0  501    0  0.00000000000E+00  0.00000000000E+00 -0.31384230397E+03  0.31384230398E+03  0.25500000920E-02 0. -1.
    10030    2    1    2    0    0  0.00000000000E+00  0.00000000000E+00 -0.11633971613E+03  0.51134489183E+03  0.49793440216E+03 0.  0.
        3    1    3    3  502    0  0.11634055395E+02 -0.24867541132E+03 -0.61392130958E+02  0.25640556816E+03  0.10100000352E+00 0.  1.
       -3    1    3    3    0  502 -0.11634055395E+02  0.24867541132E+03 -0.54947585175E+02  0.25493932367E+03  0.10100000352E+00 0. -1.
</event>
<event>
 5   0  0.1984297E-01  0.4854291E+03  0.7818609E-02  0.1017654E+00
        1   -1    0    0  501    0  0.00000000000E+00  0.00000000000E+00  0.97185525015E+03  0.97185525016E+03  0.50400001928E-02 0.  1.
       -1   -1    0    0    0  501  0.00000000000E+00  0.00000000000E+00 -0.60616380844E+02  0.60616381054E+02  0.50400001928E-02 0. -1.
    10030    2    1    2    0    0  0.00000000000E+00  0.00000000000E+00  0.91123886930E+03  0.10324716312E+04  0.48542908064E+03 0.  0.
        3    1    3    3  502    0  0.23593760510E+03  0.52437380022E+02  0.40834109596E+03  0.47450889684E+03  0.10100000352E+00 0.  1.
       -3    1    3    3    0  502 -0.23593760510E+03 -0.52437380022E+02  0.50289777334E+03  0.55796273438E+03  0.10100000352E+00 0. -1.
</event>
<event>
 5   0  0.3111146E-01  0.5025451E+03  0.7818609E-02  0.1013117E+00
        2   -1    0    0  501    0  0.00000000000E+00  0.00000000000E+00  0.34773411608E+03  0.34773411609E+03  0.25500000920E-02 0.  1.
       -2   -1    0    0    0  501  0.00000000000E+00  0.00000000000E+00 -0.18156944071E+03  0.18156944073E+03  0.25500000920E-02 0. -1.
    10030    2    1    2    0    0  0.00000000000E+00  0.00000000000E+00  0.16616467536E+03  0.52930355682E+03  0.50254507850E+03 0.  0.
        1    1    3    3  502    0  0.13788541984E+03 -0.13741425227E+03 -0.84257271788E+02  0.21211872526E+03  0.50400001928E-02 0. -1.
       -1    1    3    3    0  502 -0.13788541984E+03  0.13741425227E+03  0.25042194715E+03  0.31718483156E+03  0.50400001928E-02 0.  1.
</event>
<event>
 5   0  0.2013450E-01  0.4885930E+03  0.7818609E-02  0.1016800E+00
        1   -1    0    0  501    0  0.00000000000E+00  0.00000000000E+00  0.42396145787E+03  0.42396145790E+03  0.50400001928E-02 0.  1.
       -1   -1    0    0    0  501  0.00000000000E+00  0.00000000000E+00 -0.14076934659E+03  0.14076934668E+03  0.50400001928E-02 0. -1.
    10030    2    1    2    0    0  0.00000000000E+00  0.00000000000E+00  0.28319211129E+03  0.56473080458E+03  0.48859298986E+03 0.  0.
        4    1    3    3  502    0 -0.12313248035E+03 -0.21240793521E+02  0.38422799032E+03  0.40403655833E+03  0.12699999809E+01 0.  1.
       -4    1    3    3    0  502  0.12313248035E+03  0.21240793521E+02 -0.10103587903E+03  0.16069424625E+03  0.12699999809E+01 0. -1.
</event>
<event>
 5   0  0.3178149E-01  0.4986690E+03  0.7818609E-02  0.1014127E+00
       -2   -1    0    0    0  501  0.00000000000E+00  0.00000000000E+00  0.39033755471E+02  0.39033755554E+02  0.25500000920E-02 0.  1.
        2   -1    0    0  501    0  0.00000000000E+00  0.00000000000E+00 -0.15926650896E+04  0.15926650896E+04  0.25500000920E-02 0. -1.
    10030    2    1    2    0    0  0.00000000000E+00  0.00000000000E+00 -0.15536313342E+04  0.16316988452E+04  0.49866902741E+03 0.  0.
        3    1    3    3  502    0  0.11429289579E+03  0.12568423010E+03 -0.17963762466E+03  0.24724295362E+03  0.10100000352E+00 0.  1.
       -3    1    3    3    0  502 -0.11429289579E+03 -0.12568423010E+03 -0.13739937095E+04  0.13844558916E+04  0.10100000352E+00 0. -1.
</event>
<event>
 5   0  0.2013450E-01  0.4563882E+03  0.7818609E-02  0.1025834E+00
        1   -1    0    0  501    0  0.00000000000E+00  0.00000000000E+00  0.49945505536E+03  0.49945505538E+03  0.50400001928E-02 0.  1.
       -1   -1    0    0    0  501  0.00000000000E+00  0.00000000000E+00 -0.10425871787E+03  0.10425871799E+03  0.50400001928E-02 0. -1.
    10030    2    1    2    0    0  0.00000000000E+00  0.00000000000E+00  0.39519633748E+03  0.60371377338E+03  0.45638818456E+03 0.  0.
        4    1    3    3  502    0  0.76477918658E+02 -0.20761010051E+03  0.12370891255E+03  0.25348833074E+03  0.12699999809E+01 0. -1.
       -4    1    3    3    0  502 -0.76477918658E+02  0.20761010051E+03  0.27148742493E+03  0.35022544264E+03  0.12699999809E+01 0.  1.
</event>
<event>
 5   0  0.1984680E-01  0.5049039E+03  0.7818609E-02  0.1012507E+00
       -1   -1    0    0    0  501  0.00000000000E+00  0.00000000000E+00  0.32245439145E+03  0.32245439149E+03  0.50400001928E-02 0. -1.
        1   -1    0    0  501    0  0.00000000000E+00  0.00000000000E+00 -0.19764655169E+03  0.19764655175E+03  0.50400001928E-02 0.  1.
    10030    2    1    2    0    0  0.00000000000E+00  0.00000000000E+00  0.12480783976E+03  0.52010094325E+03  0.50490394562E+03 0.  0.
        5    1    3    3  502    0 -0.67139545611E+02 -0.40920974119E+02 -0.18466450469E+03  0.20076183401E+03  0.46999998093E+01 0.  1.
       -5    1    3    3    0  502  0.67139545611E+02  0.40920974119E+02  0.30947234445E+03  0.31933910923E+03  0.46999998093E+01 0. -1.
</event>
<event>
 5   0  0.2013450E-01  0.4979154E+03  0.7818609E-02  0.1014324E+00
        1   -1    0    0  501    0  0.00000000000E+00  0.00000000000E+00  0.10637215370E+04  0.10637215370E+04  0.50400001928E-02 0.  1.
       -1   -1    0    0    0  501  0.00000000000E+00  0.00000000000E+00 -0.58267071744E+02  0.58267071962E+02  0.50400001928E-02 0. -1.
    10030    2    1    2    0    0  0.00000000000E+00  0.00000000000E+00  0.10054544653E+04  0.11219886090E+04  0.49791541146E+03 0.  0.
        4    1    3    3  502    0 -0.21444602665E+03 -0.68991737563E+02  0.74153541905E+03  0.77499893471E+03  0.12699999809E+01 0.  1.
       -4    1    3    3    0  502  0.21444602665E+03  0.68991737563E+02  0.26391904623E+03  0.34698967429E+03  0.12699999809E+01 0. -1.
</event>
<event>
 5   0  0.1984297E-01  0.4899878E+03  0.7818609E-02  0.1016426E+00
       -1   -1    0    0    0  501  0.00000000000E+00  0.00000000000E+00  0.10217902900E+03  0.10217902912E+03  0.50400001928E-02 0.  1.
        1   -1    0    0  501    0  0.00000000000E+00  0.00000000000E+00 -0.58742016631E+03  0.58742016633E+03  0.50400001928E-02 0. -1.
    10030    2    1    2    0    0  0.00000000000E+00  0.00000000000E+00 -0.48524113731E+03  0.68959919545E+03  0.48998784579E+03 0.  0.
        3    1    3    3  502    0  0.23784895625E+02  0.10995509507E+03  0.63678420511E+02  0.12927024264E+03  0.10100000352E+00 0.  1.
       -3    1    3    3    0  502 -0.23784895625E+02 -0.10995509507E+03 -0.54891955782E+03  0.56032895281E+03  0.10100000352E+00 0. -1.
</event>
<event>
 5   0  0.3329246E-01  0.4986378E+03  0.7818609E-02  0.1014135E+00
        2   -1    0    0  501    0  0.00000000000E+00  0.00000000000E+00  0.30463166327E+03  0.30463166328E+03  0.25500000920E-02 0.  1.
       -2   -1    0    0    0  501  0.00000000000E+00  0.00000000000E+00 -0.20404938331E+03  0.20404938332E+03  0.25500000920E-02 0. -1.
    10030    2    1    2    0    0  0.00000000000E+00  0.00000000000E+00  0.10058227996E+03  0.50868104660E+03  0.49863775642E+03 0.  0.
        2    1    3    3  502    0 -0.15479498095E+03  0.14556295108E+03  0.18333981804E+03  0.28064844154E+03  0.25500000920E-02 0.  1.
       -2    1    3    3    0  502  0.15479498095E+03 -0.14556295108E+03 -0.82757538073E+02  0.22803260506E+03  0.25500000920E-02 0. -1.
</event>
<event>
 5   0  0.3117389E-01  0.4885358E+03  0.7818609E-02  0.1016815E+00
       -2   -1    0    0    0  501  0.00000000000E+00  0.00000000000E+00  0.29913952379E+02  0.29913952487E+02  0.25500000920E-02 0.  1.
        2   -1    0    0  501    0  0.00000000000E+00  0.00000000000E+00 -0.19946143583E+04  0.19946143583E+04  0.25500000920E-02 0. -1.
    10030    2    1    2    0    0  0.00000000000E+00  0.00000000000E+00 -0.19647004059E+04  0.20245283108E+04  0.48853576753E+03 0.  0.
        4    1    3    3  502    0 -0.10292991767E+03 -0.20983034269E+03 -0.68809628490E+03  0.72670589020E+03  0.12699999809E+01 0.  1.
       -4    1    3    3    0  502  0.10292991767E+03  0.20983034269E+03 -0.12766041210E+04  0.12978224205E+04  0.12699999809E+01 0. -1.
</event>
<event>
 5   0  0.3187123E-01  0.4270776E+03  0.7818609E-02  0.1034787E+00
        2   -1    0    0  501    0  0.00000000000E+00  0.00000000000E+00  0.97997675045E+03  0.97997675045E+03  0.25500000920E-02 0. -1.
       -2   -1    0    0    0  501  0.00000000000E+00  0.00000000000E+00 -0.46530505838E+02  0.46530505908E+02  0.25500000920E-02 0.  1.
    10030    2    1    2    0    0  0.00000000000E+00  0.00000000000E+00  0.93344624461E+03  0.10265072564E+04  0.42707757584E+03 0.  0.
        5    1    3    3  502    0  0.59824406664E+02  0.14893819988E+03  0.12838243120E+03  0.20558620006E+03  0.46999998093E+01 0.  1.
       -5    1    3    3    0  502 -0.59824406664E+02 -0.14893819988E+03  0.80506381341E+03  0.82092105630E+03  0.46999998093E+01 0. -1.
</event>
<event>
 5   0  0.3187123E-01  0.5039121E+03  0.7818609E-02  0.1012763E+00
        2   -1    0    0  501    0  0.00000000000E+00  0.00000000000E+00  0.28455202640E+03  0.28455202641E+03  0.25500000920E-02 0.  1.
       -2   -1    0    0    0  501  0.00000000000E+00  0.00000000000E+00 -0.22309404193E+03  0.22309404194E+03  0.25500000920E-02 0. -1.
    10030    2    1    2    0    0  0.00000000000E+00  0.00000000000E+00  0.61457984468E+02  0.50764606835E+03  0.50391214201E+03 0.  0.
        5    1    3    3  502    0  0.57390196998E+02  0.72584609430E+01  0.27772619620E+03  0.28372565979E+03  0.46999998093E+01 0.  1.
       -5    1    3    3    0  502 -0.57390196998E+02 -0.72584609430E+01 -0.21626821174E+03  0.22392040857E+03  0.46999998093E+01 0. -1.
</event>
<event>
 5   0  0.2000612E-01  0.4906915E+03  0.7818609E-02  0.1016238E+00
       -1   -1    0    0    0  501  0.00000000000E+00  0.00000000000E+00  0.71706516698E+02  0.71706516875E+02  0.50400001928E-02 0.  1.
        1   -1    0    0  501    0  0.00000000000E+00  0.00000000000E+00 -0.83945698236E+03  0.83945698237E+03  0.50400001928E-02 0. -1.
    10030    2    1    2    0    0  0.00000000000E+00  0.00000000000E+00 -0.76775046566E+03  0.91116349925E+03  0.49069149661E+03 0.  0.
        2    1    3    3  502    0  0.19410515484E+03  0.57375473165E+02 -0.64134709121E+03  0.67252869639E+03  0.25500000920E-02 0. -1.
       -2    1    3    3    0  502 -0.19410515484E+03 -0.57375473165E+02 -0.12640337445E+03  0.23863480286E+03  0.25500000920E-02 0.  1.
</event>
<event>
 5   0  0.2013450E-01  0.4985978E+03  0.7818609E-02  0.1014146E+00
        1   -1    0    0  501    0  0.00000000000E+00  0.00000000000E+00  0.12586584975E+03  0.12586584986E+03  0.50400001928E-02 0. -1.
       -1   -1    0    0    0  501  0.00000000000E+00  0.00000000000E+00 -0.49377917523E+03  0.49377917525E+03  0.50400001928E-02 0.  1.
    10030    2    1    2    0    0  0.00000000000E+00  0.00000000000E+00 -0.36791332547E+03  0.61964502511E+03  0.49859777585E+03 0.  0.
        4    1    3    3  502    0  0.23487631632E+03 -0.19984757736E+01 -0.28776705532E+03  0.37145978100E+03  0.12699999809E+01 0.  1.
       -4    1    3    3    0  502 -0.23487631632E+03  0.19984757736E+01 -0.80146270152E+02  0.24818524411E+03  0.12699999809E+01 0. -1.
</event>
<event>
 5   0  0.3178149E-01  0.5035544E+03  0.7818609E-02  0.1012855E+00
       -2   -1    0    0    0  501  0.00000000000E+00  0.00000000000E+00  0.13500484434E+03  0.13500484437E+03  0.25500000920E-02 0.  1.
        2   -1    0    0  501    0  0.00000000000E+00  0.00000000000E+00 -0.46955181324E+03  0.46955181325E+03  0.25500000920E-02 0. -1.
    10030    2    1    2    0    0  0.00000000000E+00  0.00000000000E+00 -0.33454696890E+03  0.60455665762E+03  0.50355444380E+03 0.  0.
        3    1    3    3  502    0 -0.10993158711E+03 -0.12602883115E+03 -0.39323607746E+03  0.42732053887E+03  0.10100000352E+00 0. -1.
       -3    1    3    3    0  502  0.10993158711E+03  0.12602883115E+03  0.58689108562E+02  0.17723611875E+03  0.10100000352E+00 0.  1.
</event>
<event>
 5   0  0.3111146E-01  0.4081246E+03  0.7818609E-02  0.1041002E+00
        2   -1    0    0  501    0  0.00000000000E+00  0.00000000000E+00  0.19479327488E+03  0.19479327489E+03  0.25500000920E-02 0. -1.
       -2   -1    0    0    0  501  0.00000000000E+00  0.00000000000E+00 -0.21377240687E+03  0.21377240688E+03  0.25500000920E-02 0.  1.
    10030    2    1    2    0    0  0.00000000000E+00  0.00000000000E+00 -0.18979131989E+02  0.40856568177E+03  0.40812462419E+03 0.  0.
        1    1    3    3  502    0 -0.18914002271E+03 -0.33029432057E+02  0.59697608685E+02  0.20106888392E+03  0.50400001928E-02 0. -1.
       -1    1    3    3    0  502  0.18914002271E+03  0.33029432057E+02 -0.78676740674E+02  0.20749679786E+03  0.50400001928E-02 0.  1.
</event>
<event>
 5   0  0.1292375E-01  0.4972716E+03  0.7818609E-02  0.1014494E+00
       -3   -1    0    0    0  501  0.00000000000E+00  0.00000000000E+00  0.10381001450E+03  0.10381006363E+03  0.10100000352E+00 0. -1.
        3   -1    0    0  501    0  0.00000000000E+00  0.00000000000E+00 -0.59550853701E+03  0.59550854558E+03  0.10100000352E+00 0.  1.
    10030    2    1    2    0    0  0.00000000000E+00  0.00000000000E+00 -0.49169852251E+03  0.69931860921E+03  0.49727163617E+03 0.  0.
        2    1    3    3  502    0  0.12025366980E+03 -0.20478064757E+03 -0.14228028592E+03  0.27683883124E+03  0.25500000920E-02 0. -1.
       -2    1    3    3    0  502 -0.12025366980E+03  0.20478064757E+03 -0.34941823660E+03  0.42247977797E+03  0.25500000920E-02 0.  1.
</event>
<event>
 5   0  0.3187123E-01  0.4849952E+03  0.7818609E-02  0.1017771E+00
        2   -1    0    0  501    0  0.00000000000E+00  0.00000000000E+00  0.24565985294E+04  0.24565985294E+04  0.25500000920E-02 0.  1.
       -2   -1    0    0    0  501  0.00000000000E+00  0.00000000000E+00 -0.23937603468E+02  0.23937603603E+02  0.25500000920E-02 0. -1.
    10030    2    1    2    0    0  0.00000000000E+00  0.00000000000E+00  0.24326609259E+04  0.24805361330E+04  0.48499518202E+03 0.  0.
        5    1    3    3  502    0 -0.89538661165E+02 -0.11645163509E+03  0.22028548678E+04  0.22077522084E+04  0.46999998093E+01 0.  1.
       -5    1    3    3    0  502  0.89538661165E+02  0.11645163509E+03  0.22980605808E+03  0.27278392454E+03  0.46999998093E+01 0. -1.
</event>
<event>
 5   0  0.1984297E-01  0.5045642E+03  0.7818609E-02  0.1012594E+00
        1   -1    0    0  501    0  0.00000000000E+00  0.00000000000E+00  0.74452995882E+03  0.74452995883E+03  0.50400001928E-02 0.  1.
       -1   -1    0    0    0  501  0.00000000000E+00  0.00000000000E+00 -0.85485166767E+02  0.85485166916E+02  0.50400001928E-02 0. -1.
    10030    2    1    2    0    0  0.00000000000E+00  0.00000000000E+00  0.65904479205E+03  0.83001512575E+03  0.50456423877E+03 0.  0.
        3    1    3    3  502    0  0.65464914073E+02 -0.69465782651E+02 -0.54633610133E+02  0.10998177800E+03  0.10100000352E+00 0. -1.
       -3    1    3    3    0  502 -0.65464914073E+02  0.69465782651E+02  0.71367840218E+03  0.72003334775E+03  0.10100000352E+00 0.  1.
</event>
<event>
 5   0  0.1292375E-01  0.4845076E+03  0.7818609E-02  0.1017904E+00
       -3   -1    0    0    0  501  0.00000000000E+00  0.00000000000E+00  0.14649367562E+03  0.14649371044E+03  0.10100000352E+00 0.  1.
        3   -1    0    0  501    0  0.00000000000E+00  0.00000000000E+00 -0.40061038272E+03  0.40061039545E+03  0.10100000352E+00 0. -1.
    10030    2    1    2    0    0  0.00000000000E+00  0.00000000000E+00 -0.25411670710E+03  0.54710410589E+03  0.48450758700E+03 0.  0.
        2    1    3    3  502    0 -0.55373553502E+02  0.11895557426E+03  0.10289390186E+03  0.16674475740E+03  0.25500000920E-02 0.  1.
       -2    1    3    3    0  502  0.55373553502E+02 -0.11895557426E+03 -0.35701060895E+03  0.38035934849E+03  0.25500000920E-02 0. -1.
</event>
<event>
 5   0  0.3329246E-01  0.4983332E+03  0.7818609E-02  0.1014215E+00
       -2   -1    0    0    0  501  0.00000000000E+00  0.00000000000E+00  0.11583925005E+03  0.11583925007E+03  0.25500000920E-02 0.  1.
        2   -1    0    0  501    0  0.00000000000E+00  0.00000000000E+00 -0.53594958109E+03  0.53594958110E+03  0.25500000920E-02 0. -1.
    10030    2    1    2    0    0  0.00000000000E+00  0.00000000000E+00 -0.42011033105E+03  0.65178883117E+03  0.49833321201E+03 0.  0.
        2    1    3    3  502    0  0.20972510112E+01  0.10163825794E+03  0.87480593978E+02  0.13411781488E+03  0.25500000920E-02 0.  1.
       -2    1    3    3    0  502 -0.20972510112E+01 -0.10163825794E+03 -0.50759092503E+03  0.51767101630E+03  0.25500000920E-02 0. -1.
</event>
<event>
 5   0  0.1967161E-01  0.5216610E+03  0.7818609E-02  0.1008275E+00
       -1   -1    0    0    0  501  0.00000000000E+00  0.00000000000E+00  0.16015418592E+03  0.16015418600E+03  0.50400001928E-02 0.  1.
        1   -1    0    0  501    0  0.00000000000E+00  0.00000000000E+00 -0.42479402846E+03  0.42479402849E+03  0.50400001928E-02 0. -1.
    10030    2    1    2    0    0  0.00000000000E+00  0.00000000000E+00 -0.26463984254E+03  0.58494821450E+03  0.52166096977E+03 0.  0.
        1    1    3    3  502    0  0.43379825785E+02 -0.35390935381E+02  0.15333745874E+03  0.16323818141E+03  0.50400001928E-02 0.  1.
       -1    1    3    3    0  502 -0.43379825785E+02  0.35390935381E+02 -0.41797730128E+03  0.42171003309E+03  0.50400001928E-02 0. -1.
</event>
<event>
 5   0  0.3178149E-01  0.4960321E+03  0.7818609E-02  0.1014820E+00
        2   -1    0    0  501    0  0.00000000000E+00  0.00000000000E+00  0.60311895071E+03  0.60311895072E+03  0.25500000920E-02 0. -1.
       -2   -1    0    0    0  501  0.00000000000E+00  0.00000000000E+00 -0.10198977110E+03  0.10198977114E+03  0.25500000920E-02 0.  1.
    10030    2    1    2    0    0  0.00000000000E+00  0.00000000000E+00  0.50112917961E+03  0.70510872186E+03  0.49603211083E+03 0.  0.
        3    1    3    3  502    0 -0.14474214834E+03  0.16151581497E+03  0.42158390507E+03  0.47409982832E+03  0.10100000352E+00 0. -1.
       -3    1    3    3    0  502  0.14474214834E+03 -0.16151581497E+03  0.79545274538E+02  0.23100889354E+03  0.10100000352E+00 0.  1.
</event>
<event>
 5   0  0.3329246E-01  0.5089956E+03  0.7818609E-02  0.1011457E+00
       -2   -1    0    0    0  501  0.00000000000E+00  0.00000000000E+00  0.23314898591E+03  0.23314898593E+03  0.25500000920E-02 0. -1.
        2   -1    0    0  501    0  0.00000000000E+00  0.00000000000E+00 -0.27780144038E+03  0.27780144039E+03  0.25500000920E-02 0.  1.
    10030    2    1    2    0    0  0.00000000000E+00  0.00000000000E+00 -0.44652454463E+02  0.51095042632E+03  0.50899557607E+03 0.  0.
        2    1    3    3  502    0  0.88397382159E+02  0.22741312707E+03 -0.94980272414E+02  0.26182452079E+03  0.25500000920E-02 0. -1.
       -2    1    3    3    0  502 -0.88397382159E+02 -0.22741312707E+03  0.50327817951E+02  0.24912590552E+03  0.25500000920E-02 0.  1.
</event>
<event>
 5   0  0.1967161E-01  0.5124237E+03  0.7818609E-02  0.1010586E+00
        1   -1    0    0  501    0  0.00000000000E+00  0.00000000000E+00  0.31138901074E+03  0.31138901078E+03  0.50400001928E-02 0. -1.
       -1   -1    0    0    0  501  0.00000000000E+00  0.00000000000E+00 -0.21081188455E+03  0.21081188461E+03  0.50400001928E-02 0.  1.
    10030    2    1    2    0    0  0.00000000000E+00  0.00000000000E+00  0.10057712619E+03  0.52220089539E+03  0.51242366927E+03 0.  0.
        1    1    3    3  502    0 -0.18087260671E+03 -0.17518991791E+03  0.98499756420E+02  0.27038603743E+03  0.50400001928E-02 0.  1.
       -1    1    3    3    0  502  0.18087260671E+03  0.17518991791E+03  0.20773697742E+01  0.25181485796E+03  0.50400001928E-02 0. -1.
</event>
<event>
 5   0  0.3187123E-01  0.4867374E+03  0.7818609E-02  0.1017300E+00
        2   -1    0    0  501    0  0.00000000000E+00  0.00000000000E+00  0.21142310709E+03  0.21142310710E+03  0.25500000920E-02 0.  1.
       -2   -1    0    0    0  501  0.00000000000E+00  0.00000000000E+00 -0.28014118200E+03  0.28014118201E+03  0.25500000920E-02 0. -1.
    10030    2    1    2    0    0  0.00000000000E+00  0.00000000000E+00 -0.68718074914E+02  0.49156428911E+03  0.48673737941E+03 0.  0.
        5    1    3    3  502    0 -0.12751230879E+03  0.19128464163E+03  0.46162604662E+02  0.23452564697E+03  0.46999998093E+01 0.  1.
       -5    1    3    3    0  502  0.12751230879E+03 -0.19128464163E+03 -0.11488067958E+03  0.25703864215E+03  0.46999998093E+01 0. -1.
</event>
<event>
 5   0  0.3329246E-01  0.4949521E+03  0.7818609E-02  0.1015105E+00
       -2   -1    0    0    0  501  0.00000000000E+00  0.00000000000E+00  0.17634645463E+03  0.17634645465E+03  0.25500000920E-02 0.  1.
        2   -1    0    0  501    0  0.00000000000E+00  0.00000000000E+00 -0.34729580403E+03  0.34729580404E+03  0.25500000920E-02 0. -1.
    10030    2    1    2    0    0  0.00000000000E+00  0.00000000000E+00 -0.17094934940E+03  0.52364225869E+03  0.49495205326E+03 0.  0.
        2    1    3    3  502    0  0.19505490293E+03 -0.77772041127E+02 -0.22402163844E+03  0.30705146154E+03  0.25500000920E-02 0. -1.
       -2    1    3    3    0  502 -0.19505490293E+03  0.77772041127E+02  0.53072289042E+02  0.21659079715E+03  0.25500000920E-02 0.  1.
</event>
<event>
 5   0  0.3187123E-01  0.4870722E+03  0.7818609E-02  0.1017209E+00
       -2   -1    0    0    0  501  0.00000000000E+00  0.00000000000E+00  0.46345334611E+02  0.46345334681E+02  0.25500000920E-02 0.  1.
        2   -1    0    0  501    0  0.00000000000E+00  0.00000000000E+00 -0.12797369246E+04  0.12797369246E+04  0.25500000920E-02 0. -1.
    10030    2    1    2    0    0  0.00000000000E+00  0.00000000000E+00 -0.12333915900E+04  0.13260822593E+04  0.48707221655E+03 0.  0.
        5    1    3    3  502    0  0.22727902537E+03 -0.86643874420E+02 -0.64711417312E+03  0.69133332004E+03  0.46999998093E+01 0. -1.
       -5    1    3    3    0  502 -0.22727902537E+03  0.86643874420E+02 -0.58627741690E+03  0.63474893927E+03  0.46999998093E+01 0.  1.
</event>
<event>
 5   0  0.2013450E-01  0.5041503E+03  0.7818609E-02  0.1012701E+00
        1   -1    0    0  501    0  0.00000000000E+00  0.00000000000E+00  0.10134690644E+04  0.10134690644E+04  0.50400001928E-02 0.  1.
       -1   -1    0    0    0  501  0.00000000000E+00  0.00000000000E+00 -0.62697396997E+02  0.62697397200E+02  0.50400001928E-02 0. -1.
    10030    2    1    2    0    0  0.00000000000E+00  0.00000000000E+00  0.95077166743E+03  0.10761664616E+04  0.50415026487E+03 0.  0.
        4    1    3    3  502    0 -0.23997821932E+03  0.58826019142E+02  0.36886422402E+03  0.44397350702E+03  0.12699999809E+01 0.  1.
       -4    1    3    3    0  502  0.23997821932E+03 -0.58826019142E+02  0.58190744341E+03  0.63219295462E+03  0.12699999809E+01 0. -1.
</event>
<event>
 5   0  0.3117389E-01  0.4996410E+03  0.7818609E-02  0.1013873E+00
       -2   -1    0    0    0  501  0.00000000000E+00  0.00000000000E+00  0.14272727301E+03  0.14272727304E+03  0.25500000920E-02 0. -1.
        2   -1    0    0  501    0  0.00000000000E+00  0.00000000000E+00 -0.43726949419E+03  0.43726949420E+03  0.25500000920E-02 0.  1.
    10030    2    1    2    0    0  0.00000000000E+00  0.00000000000E+00 -0.29454222118E+03  0.57999676723E+03  0.49964100106E+03 0.  0.
        4    1    3    3  502    0  0.16716007552E+03 -0.11701942943E+03 -0.31457778451E+03  0.37496244228E+03  0.12699999809E+01 0.  1.
       -4    1    3    3    0  502 -0.16716007552E+03  0.11701942943E+03  0.20035563335E+02  0.20503432495E+03  0.12699999809E+01 0. -1.
</event>
<event>
 5   0  0.3178149E-01  0.5043162E+03  0.7818609E-02  0.1012658E+00
        2   -1    0    0  501    0  0.00000000000E+00  0.00000000000E+00  0.14460226965E+03  0.14460226968E+03  0.25500000920E-02 0. -1.
       -2   -1    0    0    0  501  0.00000000000E+00  0.00000000000E+00 -0.43971447457E+03  0.43971447458E+03  0.25500000920E-02 0.  1.
    10030    2    1    2    0    0  0.00000000000E+00  0.00000000000E+00 -0.29511220492E+03  0.58431674425E+03  0.50431621442E+03 0.  0.
        3    1    3    3  502    0  0.25150124587E+03 -0.12422131485E+01 -0.12653145239E+03  0.28153976347E+03  0.10100000352E+00 0. -1.
       -3    1    3    3    0  502 -0.25150124587E+03  0.12422131485E+01 -0.16858075253E+03  0.30277698079E+03  0.10100000352E+00 0.  1.
</event>
<event>
 5   0  0.3187123E-01  0.4746314E+03  0.7818609E-02  0.1020621E+00
       -2   -1    0    0    0  501  0.00000000000E+00  0.00000000000E+00  0.34480779222E+03  0.34480779223E+03  0.25500000920E-02 0. -1.
        2   -1    0    0  501    0  0.00000000000E+00  0.00000000000E+00 -0.16333372451E+03  0.16333372453E+03  0.25500000920E-02 0.  1.
    10030    2    1    2    0    0  0.00000000000E+00  0.00000000000E+00  0.18147406771E+03  0.50814151675E+03  0.47463139782E+03 0.  0.
        5    1    3    3  502    0 -0.41587324271E+01  0.23081333703E+03  0.32053182492E+02  0.23311282271E+03  0.46999998093E+01 0.  1.
       -5    1    3    3    0  502  0.41587324271E+01 -0.23081333703E+03  0.14942088522E+03  0.27502869404E+03  0.46999998093E+01 0. -1.
</event>
<event>
 5   0  0.3178149E-01  0.4815336E+03  0.7818609E-02  0.1018715E+00
       -2   -1    0    0    0  501  0.00000000000E+00  0.00000000000E+00  0.25081929959E+03  0.25081929961E+03  0.25500000920E-02 0.  1.
        2   -1    0    0  501    0  0.00000000000E+00  0.00000000000E+00 -0.23111714578E+03  0.23111714579E+03  0.25500000920E-02 0. -1.
    10030    2    1    2    0    0  0.00000000000E+00  0.00000000000E+00  0.19702153818E+02  0.48193644540E+03  0.48153355287E+03 0.  0.
        3    1    3    3  502    0 -0.19798096176E+03 -0.34050595149E+02  0.14267506257E+03  0.24639823037E+03  0.10100000352E+00 0.  1.
       -3    1    3    3    0  502  0.19798096176E+03  0.34050595149E+02 -0.12297290875E+03  0.23553821503E+03  0.10100000352E+00 0. -1.
</event>
<event>
 5   0  0.1984297E-01  0.4910383E+03  0.7818609E-02  0.1016145E+00
       -1   -1    0    0    0  501  0.00000000000E+00  0.00000000000E+00  0.16773082655E+03  0.16773082663E+03  0.50400001928E-02 0. -1.
        1   -1    0    0  501    0  0.00000000000E+00  0.00000000000E+00 -0.35938326636E+03  0.35938326640E+03  0.50400001928E-02 0.  1.
    10030    2    1    2    0    0  0.00000000000E+00  0.00000000000E+00 -0.19165243981E+03  0.52711409303E+03  0.49103829727E+03 0.  0.
        3    1    3    3  502    0 -0.14627346834E+03 -0.19162513768E+03 -0.45895268453E+02  0.24540274407E+03  0.10100000352E+00 0.  1.
       -3    1    3    3    0  502  0.14627346834E+03  0.19162513768E+03 -0.14575717136E+03  0.28171134896E+03  0.10100000352E+00 0. -1.
</event>
<event>
 5   0  0.1984297E-01  0.5433021E+03  0.7818609E-02  0.1003056E+00
        1   -1    0    0  501    0  0.00000000000E+00  0.00000000000E+00  0.76514681448E+03  0.76514681450E+03  0.50400001928E-02 0.  1.
       -1   -1    0    0    0  501  0.00000000000E+00  0.00000000000E+00 -0.96444625561E+02  0.96444625693E+02  0.50400001928E-02 0. -1.
    10030    2    1    2    0    0  0.00000000000E+00  0.00000000000E+00  0.66870218892E+03  0.86159144019E+03  0.54330211885E+03 0.  0.
        3    1    3    3  502    0  0.18695223206E+02  0.11153262531E+03 -0.57339896304E+02  0.12679476246E+03  0.10100000352E+00 0. -1.
       -3    1    3    3    0  502 -0.18695223206E+02 -0.11153262531E+03  0.72604208523E+03  0.73479667773E+03  0.10100000352E+00 0.  1.
</event>
<event>
 5   0  0.3117389E-01  0.5943486E+03  0.7818609E-02  0.9917201E-01
       -2   -1    0    0    0  501  0.00000000000E+00  0.00000000000E+00  0.74516644472E+02  0.74516644516E+02  0.25500000920E-02 0.  1.
        2   -1    0    0  501    0  0.00000000000E+00  0.00000000000E+00 -0.11851386837E+04  0.11851386837E+04  0.25500000920E-02 0. -1.
    10030    2    1    2    0    0  0.00000000000E+00  0.00000000000E+00 -0.11106220392E+04  0.12596553282E+04  0.59434857776E+03 0.  0.
        4    1    3    3  502    0 -0.12067954056E+03 -0.18879949886E+03 -0.96901071425E+03  0.99458140920E+03  0.12699999809E+01 0.  1.
       -4    1    3    3    0  502  0.12067954056E+03  0.18879949886E+03 -0.14161132495E+03  0.26507391900E+03  0.12699999809E+01 0. -1.
</event>
<event>
 5   0  0.1984680E-01  0.5007977E+03  0.7818609E-02  0.1013571E+00
        1   -1    0    0  501    0  0.00000000000E+00  0.00000000000E+00  0.33978179895E+03  0.33978179899E+03  0.50400001928E-02 0. -1.
       -1   -1    0    0    0  501  0.00000000000E+00  0.00000000000E+00 -0.18452898709E+03  0.18452898716E+03  0.50400001928E-02 0.  1.
    10030    2    1    2    0    0  0.00000000000E+00  0.00000000000E+00  0.15525281185E+03  0.52431078615E+03  0.50079772851E+03 0.  0.
        5    1    3    3  502    0  0.26099954193E+02 -0.72103119107E+02 -0.17188522726E+03  0.18827291027E+03  0.46999998093E+01 0.  1.
       -5    1    3    3    0  502 -0.26099954193E+02  0.72103119107E+02  0.32713803911E+03  0.33603787588E+03  0.46999998093E+01 0. -1.
</event>
<event>
 5   0  0.1984680E-01  0.4910292E+03  0.7818609E-02  0.1016147E+00
        1   -1    0    0  501    0  0.00000000000E+00  0.00000000000E+00  0.37342785996E+03  0.37342786000E+03  0.50400001928E-02 0.  1.
       -1   -1    0    0    0  501  0.00000000000E+00  0.00000000000E+00 -0.16141651745E+03  0.16141651753E+03  0.50400001928E-02 0. -1.
    10030    2    1    2    0    0  0.00000000000E+00  0.00000000000E+00  0.21201134252E+03  0.53484437752E+03  0.49102922399E+03 0.  0.
        5    1    3    3  502    0  0.16750419041E+03 -0.93790044237E+02 -0.60618617860E+02  0.20137262235E+03  0.46999998093E+01 0. -1.
       -5    1    3    3    0  502 -0.16750419041E+03  0.93790044237E+02  0.27262996038E+03  0.33347175517E+03  0.46999998093E+01 0.  1.
</event>
<event>
 5   0  0.1984297E-01  0.4946019E+03  0.7818609E-02  0.1015198E+00
        1   -1    0    0  501    0  0.00000000000E+00  0.00000000000E+00  0.52291488704E+03  0.52291488706E+03  0.50400001928E-02 0. -1.
       -1   -1    0    0    0  501  0.00000000000E+00  0.00000000000E+00 -0.11695549463E+03  0.11695549474E+03  0.50400001928E-02 0.  1.
    10030    2    1    2    0    0  0.00000000000E+00  0.00000000000E+00  0.40595939241E+03  0.63987038180E+03  0.49460193815E+03 0.  0.
        3    1    3    3  502    0 -0.29142681533E+02 -0.10459554732E+03  0.49042816084E+03  0.50230400711E+03  0.10100000352E+00 0. -1.
       -3    1    3    3    0  502  0.29142681533E+02  0.10459554732E+03 -0.84468768436E+02  0.13756637470E+03  0.10100000352E+00 0.  1.
</event>
<event>
 5   0  0.1984680E-01  0.5224551E+03  0.7818609E-02  0.1008078E+00
        1   -1    0    0  501    0  0.00000000000E+00  0.00000000000E+00  0.49042284647E+03  0.49042284650E+03  0.50400001928E-02 0.  1.
       -1   -1    0    0    0  501  0.00000000000E+00  0.00000000000E+00 -0.13914489898E+03  0.13914489907E+03  0.50400001928E-02 0. -1.
    10030    2    1    2    0    0  0.00000000000E+00  0.00000000000E+00  0.35127794749E+03  0.62956774557E+03  0.52245511756E+03 0.  0.
        5    1    3    3  502    0  0.67043131226E+02 -0.24982203648E+03  0.21928518145E+03  0.33913701090E+03  0.46999998093E+01 0. -1.
       -5    1    3    3    0  502 -0.67043131226E+02  0.24982203648E+03  0.13199276604E+03  0.29043073467E+03  0.46999998093E+01 0.  1.
</event>
<event>
 5   0  0.1967161E-01  0.4956051E+03  0.7818609E-02  0.1014932E+00
       -1   -1    0    0    0  501  0.00000000000E+00  0.00000000000E+00  0.23089730470E+03  0.23089730476E+03  0.50400001928E-02 0.  1.
        1   -1    0    0  501    0  0.00000000000E+00  0.00000000000E+00 -0.26594553993E+03  0.26594553997E+03  0.50400001928E-02 0. -1.
    10030    2    1    2    0    0  0.00000000000E+00  0.00000000000E+00 -0.35048235223E+02  0.49684284473E+03  0.49560511859E+03 0.  0.
        1    1    3    3  502    0 -0.12032434260E+03  0.15916878185E+03  0.12979000150E+03  0.23802960541E+03  0.50400001928E-02 0.  1.
       -1    1    3    3    0  502  0.12032434260E+03 -0.15916878185E+03 -0.16483823672E+03  0.25881323932E+03  0.50400001928E-02 0. -1.
</event>
<event>
 5   0  0.3111146E-01  0.5026120E+03  0.7818609E-02  0.1013099E+00
       -2   -1    0    0    0  501  0.00000000000E+00  0.00000000000E+00  0.24961720733E+03  0.24961720734E+03  0.25500000920E-02 0. -1.
        2   -1    0    0  501    0  0.00000000000E+00  0.00000000000E+00 -0.25300623162E+03  0.25300623163E+03  0.25500000920E-02 0.  1.
    10030    2    1    2    0    0  0.00000000000E+00  0.00000000000E+00 -0.33890242895E+01  0.50262343897E+03  0.50261201330E+03 0.  0.
        1    1    3    3  502    0 -0.54826476161E+01  0.43290587989E+02 -0.24918867232E+03  0.25298049108E+03  0.50400001928E-02 0.  1.
       -1    1    3    3    0  502  0.54826476161E+01 -0.43290587989E+02  0.24579964803E+03  0.24964294789E+03  0.50400001928E-02 0. -1.
</event>
<event>
 5   0  0.2000612E-01  0.5073406E+03  0.7818609E-02  0.1011880E+00
        1   -1    0    0  501    0  0.00000000000E+00  0.00000000000E+00  0.66778084453E+03  0.66778084455E+03  0.50400001928E-02 0. -1.
       -1   -1    0    0    0  501  0.00000000000E+00  0.00000000000E+00 -0.96361885640E+02  0.96361885772E+02  0.50400001928E-02 0.  1.
    10030    2    1    2    0    0  0.00000000000E+00  0.00000000000E+00  0.57141895889E+03  0.76414273032E+03  0.50734060129E+03 0.  0.
        2    1    3    3  502    0  0.12536047938E+03  0.93718171657E+02  0.58637978087E+03  0.60690987214E+03  0.25500000920E-02 0. -1.
       -2    1    3    3    0  502 -0.12536047938E+03 -0.93718171657E+02 -0.14960821977E+02  0.15723285818E+03  0.25500000920E-02 0.  1.
</event>
<event>
 5   0  0.1984297E-01  0.4848517E+03  0.7818609E-02  0.1017810E+00
       -1   -1    0    0    0  501  0.00000000000E+00  0.00000000000E+00  0.72617522887E+02  0.72617523062E+02  0.50400001928E-02 0.  1.
        1   -1    0    0  501    0  0.00000000000E+00  0.00000000000E+00 -0.80931290293E+03  0.80931290294E+03  0.50400001928E-02 0. -1.
    10030    2    1    2    0    0  0.00000000000E+00  0.00000000000E+00 -0.73669538004E+03  0.88193042600E+03  0.48485172305E+03 0.  0.
        3    1    3    3  502    0 -0.16425814503E+03 -0.17484032089E+03 -0.30480309180E+03  0.38788504868E+03  0.10100000352E+00 0. -1.
       -3    1    3    3    0  502  0.16425814503E+03  0.17484032089E+03 -0.43189228824E+03  0.49404537733E+03  0.10100000352E+00 0.  1.
</event>
<event>
 5   0  0.1292375E-01  0.4032268E+03  0.7818609E-02  0.1042668E+00
        3   -1    0    0  501    0  0.00000000000E+00  0.00000000000E+00  0.12151568811E+03  0.12151573009E+03  0.10100000352E+00 0.  1.
       -3   -1    0    0    0  501  0.00000000000E+00  0.00000000000E+00 -0.33450781259E+03  0.33450782783E+03  0.10100000352E+00 0. -1.
    10030    2    1    2    0    0  0.00000000000E+00  0.00000000000E+00 -0.21299212447E+03  0.45602355792E+03  0.40322678519E+03 0.  0.
        5    1    3    3  502    0  0.15344831826E+03  0.12176290025E+03 -0.52811987923E+02  0.20293788784E+03  0.46999998093E+01 0.  1.
       -5    1    3    3    0  502 -0.15344831826E+03 -0.12176290025E+03 -0.16018013655E+03  0.25308567008E+03  0.46999998093E+01 0. -1.
</event>
<event>
 5   0  0.2000612E-01  0.5019970E+03  0.7818609E-02  0.1013259E+00
        1   -1    0    0  501    0  0.00000000000E+00  0.00000000000E+00  0.16915375471E+03  0.16915375478E+03  0.50400001928E-02 0. -1.
       -1   -1    0    0    0  501  0.00000000000E+00  0.00000000000E+00 -0.37244371660E+03  0.37244371664E+03  0.50400001928E-02 0.  1.
    10030    2    1    2    0    0  0.00000000000E+00  0.00000000000E+00 -0.20328996189E+03  0.54159747142E+03  0.50199702434E+03 0.  0.
        2    1    3    3  502    0  0.14870450986E+03 -0.18345768800E+03 -0.19338516506E+03  0.30523364266E+03  0.25500000920E-02 0.  1.
       -2    1    3    3    0  502 -0.14870450986E+03  0.18345768800E+03 -0.99047968310E+01  0.23636382876E+03  0.25500000920E-02 0. -1.
</event>
<event>
 5   0  0.1984297E-01  0.4390464E+03  0.7818609E-02  0.1031040E+00
       -1   -1    0    0    0  501  0.00000000000E+00  0.00000000000E+00  0.65702969363E+02  0.65702969556E+02  0.50400001928E-02 0.  1.
        1   -1    0    0  501    0  0.00000000000E+00  0.00000000000E+00 -0.73345904203E+03  0.73345904205E+03  0.50400001928E-02 0. -1.
    10030    2    1    2    0    0  0.00000000000E+00  0.00000000000E+00 -0.66775607267E+03  0.79916201161E+03  0.43904640780E+03 0.  0.
        3    1    3    3  502    0 -0.15727241554E+03  0.12492513280E+03 -0.17261081555E+03  0.26483089952E+03  0.10100000352E+00 0.  1.
       -3    1    3    3    0  502  0.15727241554E+03 -0.12492513280E+03 -0.49514525712E+03  0.53433111208E+03  0.10100000352E+00 0. -1.
</event>
<event>
 5   0  0.3187123E-01  0.5003027E+03  0.7818609E-02  0.1013700E+00
        2   -1    0    0  501    0  0.00000000000E+00  0.00000000000E+00  0.26833261973E+03  0.26833261974E+03  0.25500000920E-02 0. -1.
       -2   -1    0    0    0  501  0.00000000000E+00  0.00000000000E+00 -0.23320197192E+03  0.23320197194E+03  0.25500000920E-02 0.  1.
    10030    2    1    2    0    0  0.00000000000E+00  0.00000000000E+00  0.35130647801E+02  0.50153459168E+03  0.50030269261E+03 0.  0.
        5    1    3    3  502    0  0.78882458695E+02 -0.15544885382E+03 -0.16222739518E+03  0.23817347919E+03  0.46999998093E+01 0.  1.
       -5    1    3    3    0  502 -0.78882458695E+02  0.15544885382E+03  0.19735804298E+03  0.26336111249E+03  0.46999998093E+01 0. -1.
</event>
<event>
 5   0  0.3111146E-01  0.4909065E+03  0.7818609E-02  0.1016180E+00
        2   -1    0    0  501    0  0.00000000000E+00  0.00000000000E+00  0.17716973792E+03  0.17716973794E+03  0.25500000920E-02 0. -1.
       -2   -1    0    0    0  501  0.00000000000E+00  0.00000000000E+00 -0.34005416708E+03  0.34005416709E+03  0.25500000920E-02 0.  1.
    10030    2    1    2    0    0  0.00000000000E+00  0.00000000000E+00 -0.16288442916E+03  0.51722390503E+03  0.49090653965E+03 0.  0.
        1    1    3    3  502    0  0.25390822414E+02  0.15127944572E+03 -0.28333193759E+03  0.32219117221E+03  0.50400001928E-02 0.  1.
       -1    1    3    3    0  502 -0.25390822414E+02 -0.15127944572E+03  0.12044750843E+03  0.19503273283E+03  0.50400001928E-02 0. -1.
</event>
<event>
 5   0  0.1967161E-01  0.5508981E+03  0.7818609E-02  0.1001286E+00
        1   -1    0    0  501    0  0.00000000000E+00  0.00000000000E+00  0.19809254882E+04  0.19809254883E+04  0.50400001928E-02 0.  1.
       -1   -1    0    0    0  501  0.00000000000E+00  0.00000000000E+00 -0.38301381703E+02  0.38301382034E+02  0.50400001928E-02 0. -1.
    10030    2    1    2    0    0  0.00000000000E+00  0.00000000000E+00  0.19426241065E+04  0.20192268703E+04  0.55089811614E+03 0.  0.
        1    1    3    3  502    0  0.17608147026E+03  0.15464514206E+03  0.15018671669E+04  0.15200410492E+04  0.50400001928E-02 0.  1.
       -1    1    3    3    0  502 -0.17608147026E+03 -0.15464514206E+03  0.44075693964E+03  0.49918582111E+03  0.50400001928E-02 0. -1.
</event>
<event>
 5   0  0.3329246E-01  0.5375537E+03  0.7818609E-02  0.1004417E+00
       -2   -1    0    0    0  501  0.00000000000E+00  0.00000000000E+00  0.80570468177E+02  0.80570468217E+02  0.25500000920E-02 0. -1.
        2   -1    0    0  501    0  0.00000000000E+00  0.00000000000E+00 -0.89661880373E+03  0.89661880373E+03  0.25500000920E-02 0.  1.
    10030    2    1    2    0    0  0.00000000000E+00  0.00000000000E+00 -0.81604833555E+03  0.97718927195E+03  0.53755370639E+03 0.  0.
        2    1    3    3  502    0 -0.22505498701E+03  0.14563523366E+03 -0.44353633220E+03  0.51825075634E+03  0.25500000920E-02 0. -1.
       -2    1    3    3    0  502  0.22505498701E+03 -0.14563523366E+03 -0.37251200336E+03  0.45893851561E+03  0.25500000920E-02 0.  1.
</event>
<event>
 5   0  0.3187123E-01  0.5017260E+03  0.7818609E-02  0.1013329E+00
        2   -1    0    0  501    0  0.00000000000E+00  0.00000000000E+00  0.15968460200E+04  0.15968460200E+04  0.25500000920E-02 0. -1.
       -2   -1    0    0    0  501  0.00000000000E+00  0.00000000000E+00 -0.39410341244E+02  0.39410341326E+02  0.25500000920E-02 0.  1.
    10030    2    1    2    0    0  0.00000000000E+00  0.00000000000E+00  0.15574356787E+04  0.16362563613E+04  0.50172600742E+03 0.  0.
        5    1    3    3  502    0 -0.16153622461E+03 -0.10731084119E+03  0.25997747502E+03  0.32437624144E+03  0.46999998093E+01 0.  1.
       -5    1    3    3    0  502  0.16153622461E+03  0.10731084119E+03  0.12974582037E+04  0.13118801199E+04  0.46999998093E+01 0. -1.
</event>
<event>
 5   0  0.2000612E-01  0.4158174E+03  0.7818609E-02  0.1038436E+00
       -1   -1    0    0    0  501  0.00000000000E+00  0.00000000000E+00  0.34454652752E+02  0.34454653120E+02  0.50400001928E-02 0. -1.
        1   -1    0    0  501    0  0.00000000000E+00  0.00000000000E+00 -0.12545772123E+04  0.12545772123E+04  0.50400001928E-02 0.  1.
    10030    2    1    2    0    0  0.00000000000E+00  0.00000000000E+00 -0.12201225595E+04  0.12890318654E+04  0.41581737551E+03 0.  0.
        2    1    3    3  502    0  0.45214576483E+02  0.11707441076E+03 -0.96216650039E+02  0.15814050503E+03  0.25500000920E-02 0. -1.
       -2    1    3    3    0  502 -0.45214576483E+02 -0.11707441076E+03 -0.11239059095E+04  0.11308913604E+04  0.25500000920E-02 0.  1.
</event>
<event>
 5   0  0.3329246E-01  0.4822895E+03  0.7818609E-02  0.1018508E+00
        2   -1    0    0  501    0  0.00000000000E+00  0.00000000000E+00  0.49954558569E+03  0.49954558569E+03  0.25500000920E-02 0. -1.
       -2   -1    0    0    0  501  0.00000000000E+00  0.00000000000E+00 -0.11640735115E+03  0.11640735118E+03  0.25500000920E-02 0.  1.
    10030    2    1    2    0    0  0.00000000000E+00  0.00000000000E+00  0.38313823453E+03  0.61595293687E+03  0.48228945010E+03 0.  0.
        2    1    3    3  502    0 -0.17740552833E+03  0.47053978789E+02 -0.81884888846E+01  0.18372220813E+03  0.25500000920E-02 0.  1.
       -2    1    3    3    0  502  0.17740552833E+03 -0.47053978789E+02  0.39132672342E+03  0.43223072874E+03  0.25500000920E-02 0. -1.
</event>
<event>
 5   0  0.3178149E-01  0.3893331E+03  0.7818609E-02  0.1047537E+00
       -2   -1    0    0    0  501  0.00000000000E+00  0.00000000000E+00  0.22161196890E+02  0.22161197037E+02  0.25500000920E-02 0. -1.
        2   -1    0    0  501    0  0.00000000000E+00  0.00000000000E+00 -0.17099733858E+04  0.17099733858E+04  0.25500000920E-02 0.  1.
    10030    2    1    2    0    0  0.00000000000E+00  0.00000000000E+00 -0.16878121889E+04  0.17321345829E+04  0.38933305541E+03 0.  0.
        3    1    3    3  502    0 -0.12275832686E+03 -0.13491001527E+03 -0.11464604724E+04  0.11608798146E+04  0.10100000352E+00 0. -1.
       -3    1    3    3    0  502  0.12275832686E+03  0.13491001527E+03 -0.54135171653E+03  0.57125476823E+03  0.10100000352E+00 0.  1.
</event>
<event>
 5   0  0.1984680E-01  0.4925485E+03  0.7818609E-02  0.1015742E+00
        1   -1    0    0  501    0  0.00000000000E+00  0.00000000000E+00  0.13769012187E+04  0.13769012187E+04  0.50400001928E-02 0. -1.
       -1   -1    0    0    0  501  0.00000000000E+00  0.00000000000E+00 -0.44048907835E+02  0.44048908124E+02  0.50400001928E-02 0.  1.
    10030    2    1    2    0    0  0.00000000000E+00  0.00000000000E+00  0.13328523109E+04  0.14209501269E+04  0.49254845485E+03 0.  0.
        5    1    3    3  502    0  0.16287435623E+02 -0.14788789118E+03  0.12324302907E+04  0.12413873772E+04  0.46999998093E+01 0. -1.
       -5    1    3    3    0  502 -0.16287435623E+02  0.14788789118E+03  0.10042202020E+03  0.17956274964E+03  0.46999998093E+01 0.  1.
</event>
<event>
 5   0  0.1984297E-01  0.5451860E+03  0.7818609E-02  0.1002614E+00
        1   -1    0    0  501    0  0.00000000000E+00  0.00000000000E+00  0.49886156116E+03  0.49886156118E+03  0.50400001928E-02 0. -1.
       -1   -1    0    0    0  501  0.00000000000E+00  0.00000000000E+00 -0.14895304773E+03  0.14895304782E+03  0.50400001928E-02 0.  1.
    10030    2    1    2    0    0  0.00000000000E+00  0.00000000000E+00  0.34990851343E+03  0.64781460900E+03  0.54518602317E+03 0.  0.
        3    1    3    3  502    0  0.75062868390E+02 -0.12931542919E+02 -0.13605122904E+03  0.15592179494E+03  0.10100000352E+00 0.  1.
       -3    1    3    3    0  502 -0.75062868390E+02  0.12931542919E+02  0.48595974247E+03  0.49189281405E+03  0.10100000352E+00 0. -1.
</event>
<event>
 5   0  0.3111146E-01  0.5000784E+03  0.7818609E-02  0.1013758E+00
        2   -1    0    0  501    0  0.00000000000E+00  0.00000000000E+00  0.28690318275E+03  0.28690318276E+03  0.25500000920E-02 0.  1.
       -2   -1    0    0    0  501  0.00000000000E+00  0.00000000000E+00 -0.21791182839E+03  0.21791182840E+03  0.25500000920E-02 0. -1.
    10030    2    1    2    0    0  0.00000000000E+00  0.00000000000E+00  0.68991354359E+02  0.50481501116E+03  0.50007838238E+03 0.  0.
        1    1    3    3  502    0 -0.28369354413E+02  0.11794124461E+03 -0.18621797847E+03  0.22224331931E+03  0.50400001928E-02 0. -1.
       -1    1    3    3    0  502  0.28369354413E+02 -0.11794124461E+03  0.25520933282E+03  0.28257169185E+03  0.50400001928E-02 0.  1.
</event>
<event>
 5   0  0.2000612E-01  0.4929277E+03  0.7818609E-02  0.1015642E+00
       -1   -1    0    0    0  501  0.00000000000E+00  0.00000000000E+00  0.31319983541E+03  0.31319983545E+03  0.50400001928E-02 0.  1.
        1   -1    0    0  501    0  0.00000000000E+00  0.00000000000E+00 -0.19394780303E+03  0.19394780309E+03  0.50400001928E-02 0. -1.
    10030    2    1    2    0    0  0.00000000000E+00  0.00000000000E+00  0.11925203238E+03  0.50714763854E+03  0.49292766209E+03 0.  0.
        2    1    3    3  502    0  0.13235957182E+03 -0.10677557573E+03  0.24316609806E+03  0.29673191787E+03  0.25500000920E-02 0.  1.
       -2    1    3    3    0  502 -0.13235957182E+03  0.10677557573E+03 -0.12391406568E+03  0.21041572068E+03  0.25500000920E-02 0. -1.
</event>
<event>
 5   0  0.2000612E-01  0.4837602E+03  0.7818609E-02  0.1018107E+00
       -1   -1    0    0    0  501  0.00000000000E+00  0.00000000000E+00  0.69058900959E+03  0.69058900961E+03  0.50400001928E-02 0. -1.
        1   -1    0    0  501    0  0.00000000000E+00  0.00000000000E+00 -0.84718949835E+02  0.84718949985E+02  0.50400001928E-02 0.  1.
    10030    2    1    2    0    0  0.00000000000E+00  0.00000000000E+00  0.60587005976E+03  0.77530795960E+03  0.48376017085E+03 0.  0.
        2    1    3    3  502    0 -0.23886395063E+03 -0.16086848351E+02  0.35824925870E+03  0.43087968735E+03  0.25500000920E-02 0.  1.
       -2    1    3    3    0  502  0.23886395063E+03  0.16086848351E+02  0.24762080106E+03  0.34442827225E+03  0.25500000920E-02 0. -1.
</event>
<event>
 5   0  0.3117389E-01  0.4918550E+03  0.7818609E-02  0.1015927E+00
       -2   -1    0    0    0  501  0.00000000000E+00  0.00000000000E+00  0.68823136731E+02  0.68823136779E+02  0.25500000920E-02 0. -1.
        2   -1    0    0  501    0  0.00000000000E+00  0.00000000000E+00 -0.87877926972E+03  0.87877926972E+03  0.25500000920E-02 0.  1.
    10030    2    1    2    0    0  0.00000000000E+00  0.00000000000E+00 -0.80995613299E+03  0.94760240650E+03  0.49185504312E+03 0.  0.
        4    1    3    3  502    0  0.12149314315E+03 -0.97014381620E+02 -0.77207467689E+03  0.78757430994E+03  0.12699999809E+01 0.  1.
       -4    1    3    3    0  502 -0.12149314315E+03  0.97014381620E+02 -0.37881456095E+02  0.16002809656E+03  0.12699999809E+01 0. -1.
</event>
<event>
 5   0  0.3329246E-01  0.4120668E+03  0.7818609E-02  0.1039680E+00
        2   -1    0    0  501    0  0.00000000000E+00  0.00000000000E+00  0.16149853535E+03  0.16149853537E+03  0.25500000920E-02 0.  1.
       -2   -1    0    0    0  501  0.00000000000E+00  0.00000000000E+00 -0.26284923197E+03  0.26284923198E+03  0.25500000920E-02 0. -1.
    10030    2    1    2    0    0  0.00000000000E+00  0.00000000000E+00 -0.10135069662E+03  0.42434776735E+03  0.41206681977E+03 0.  0.
        2    1    3    3  502    0 -0.21319402013E+02 -0.33852591058E+02 -0.25881092727E+03  0.26188472828E+03  0.25500000920E-02 0. -1.
       -2    1    3    3    0  502  0.21319402013E+02  0.33852591058E+02  0.15746023065E+03  0.16246303908E+03  0.25500000920E-02 0.  1.
</event>
<event>
 5   0  0.3178149E-01  0.5014427E+03  0.7818609E-02  0.1013403E+00
        2   -1    0    0  501    0  0.00000000000E+00  0.00000000000E+00  0.71424070458E+03  0.71424070458E+03  0.25500000920E-02 0.  1.
       -2   -1    0    0    0  501  0.00000000000E+00  0.00000000000E+00 -0.88011221022E+02  0.88011221059E+02  0.25500000920E-02 0. -1.
    10030    2    1    2    0    0  0.00000000000E+00  0.00000000000E+00  0.62622948356E+03  0.80225192564E+03  0.50144270473E+03 0.  0.
        3    1    3    3  502    0  0.19186099024E+03  0.14174705315E+03  0.18961917971E+03  0.30472661546E+03  0.10100000352E+00 0. -1.
       -3    1    3    3    0  502 -0.19186099024E+03 -0.14174705315E+03  0.43661030385E+03  0.49752531019E+03  0.10100000352E+00 0.  1.
</event>
<event>
 5   0  0.1292375E-01  0.5049191E+03  0.7818609E-02  0.1012503E+00
       -4   -1    0    0    0  501  0.00000000000E+00  0.00000000000E+00  0.26582015212E+03  0.26582318592E+03  0.12699999809E+01 0.  1.
        4   -1    0    0  501    0  0.00000000000E+00  0.00000000000E+00 -0.23976439473E+03  0.23976775822E+03  0.12699999809E+01 0. -1.
    10030    2    1    2    0    0  0.00000000000E+00  0.00000000000E+00  0.26055757387E+02  0.50559094413E+03  0.50491910273E+03 0.  0.
        4    1    3    3  502    0  0.13266832512E+03  0.19281892252E+03 -0.81724616828E+02  0.24791237821E+03  0.12699999809E+01 0. -1.
       -4    1    3    3    0  502 -0.13266832512E+03 -0.19281892252E+03  0.10778037422E+03  0.25767856593E+03  0.12699999809E+01 0.  1.
</event>
<event>
 5   0  0.3117389E-01  0.5410151E+03  0.7818609E-02  0.1003595E+00
        2   -1    0    0  501    0  0.00000000000E+00  0.00000000000E+00  0.23550343952E+03  0.23550343953E+03  0.25500000920E-02 0. -1.
       -2   -1    0    0    0  501  0.00000000000E+00  0.00000000000E+00 -0.31071452119E+03  0.31071452120E+03  0.25500000920E-02 0.  1.
    10030    2    1    2    0    0  0.00000000000E+00  0.00000000000E+00 -0.75211081672E+02  0.54621796074E+03  0.54101511423E+03 0.  0.
        4    1    3    3  502    0 -0.20901610130E+03 -0.26743459538E+02 -0.20885328782E+03  0.29668881335E+03  0.12699999809E+01 0.  1.
       -4    1    3    3    0  502  0.20901610130E+03  0.26743459538E+02  0.13364220615E+03  0.24952914739E+03  0.12699999809E+01 0. -1.
</event>
<event>
 5   0  0.3178149E-01  0.4677623E+03  0.7818609E-02  0.1022554E+00
       -2   -1    0    0    0  501  0.00000000000E+00  0.00000000000E+00  0.10390982735E+03  0.10390982738E+03  0.25500000920E-02 0.  1.
        2   -1    0    0  501    0  0.00000000000E+00  0.00000000000E+00 -0.52642172383E+03  0.52642172384E+03  0.25500000920E-02 0. -1.
    10030    2    1    2    0    0  0.00000000000E+00  0.00000000000E+00 -0.42251189648E+03  0.63033155122E+03  0.46776229198E+03 0.  0.
        3    1    3    3  502    0 -0.95265164603E+02  0.11055075171E+03  0.35029960458E+02  0.15008007403E+03  0.10100000352E+00 0.  1.
       -3    1    3    3    0  502  0.95265164603E+02 -0.11055075171E+03 -0.45754185694E+03  0.48025147719E+03  0.10100000352E+00 0. -1.
</event>
<event>
 5   0  0.1984297E-01  0.4485992E+03  0.7818609E-02  0.1028141E+00
       -1   -1    0    0    0  501  0.00000000000E+00  0.00000000000E+00  0.55824036404E+02  0.55824036631E+02  0.50400001928E-02 0.  1.
        1   -1    0    0  501    0  0.00000000000E+00  0.00000000000E+00 -0.90123038836E+03  0.90123038838E+03  0.50400001928E-02 0. -1.
    10030    2    1    2    0    0  0.00000000000E+00  0.00000000000E+00 -0.84540635196E+03  0.95705442501E+03  0.44859923372E+03 0.  0.
        3    1    3    3  502    0 -0.91919951984E+02  0.18529644997E+03 -0.60778663218E+03  0.64201919940E+03  0.10100000352E+00 0. -1.
       -3    1    3    3    0  502  0.91919951984E+02 -0.18529644997E+03 -0.23761971978E+03  0.31503522561E+03  0.10100000352E+00 0.  1.
</event>
<event>
 5   0  0.3178149E-01  0.4734795E+03  0.7818609E-02  0.1020943E+00
        2   -1    0    0  501    0  0.00000000000E+00  0.00000000000E+00  0.31247736318E+03  0.31247736319E+03  0.25500000920E-02 0. -1.
       -2   -1    0    0    0  501  0.00000000000E+00  0.00000000000E+00 -0.17935926758E+03  0.17935926760E+03  0.25500000920E-02 0.  1.
    10030    2    1    2    0    0  0.00000000000E+00  0.00000000000E+00  0.13311809560E+03  0.49183663079E+03  0.47347950748E+03 0.  0.
        3    1    3    3  502    0  0.76660605659E+02  0.18105919981E+03 -0.70410729058E+02  0.20884674587E+03  0.10100000352E+00 0.  1.
       -3    1    3    3    0  502 -0.76660605659E+02 -0.18105919981E+03  0.20352882466E+03  0.28298988491E+03  0.10100000352E+00 0. -1.
</event>
<event>
 5   0  0.2000612E-01  0.5042741E+03  0.7818609E-02  0.1012669E+00
       -1   -1    0    0    0  501  0.00000000000E+00  0.00000000000E+00  0.59475443194E+03  0.59475443196E+03  0.50400001928E-02 0. -1.
        1   -1    0    0  501    0  0.00000000000E+00  0.00000000000E+00 -0.10688964729E+03  0.10688964740E+03  0.50400001928E-02 0.  1.
    10030    2    1    2    0    0  0.00000000000E+00  0.00000000000E+00  0.48786478465E+03  0.70164407936E+03  0.50427409809E+03 0.  0.
        2    1    3    3  502    0  0.14551119952E+03 -0.96640611003E+02 -0.90572698388E+01  0.17491412471E+03  0.25500000920E-02 0.  1.
       -2    1    3    3    0  502 -0.14551119952E+03  0.96640611003E+02  0.49692205449E+03  0.52672995465E+03  0.25500000920E-02 0. -1.
</event>
<event>
 5   0  0.1967161E-01  0.4891382E+03  0.7818609E-02  0.1016654E+00
       -1   -1    0    0    0  501  0.00000000000E+00  0.00000000000E+00  0.12393191298E+03  0.12393191308E+03  0.50400001928E-02 0.  1.
        1   -1    0    0  501    0  0.00000000000E+00  0.00000000000E+00 -0.48263637920E+03  0.48263637923E+03  0.50400001928E-02 0. -1.
    10030    2    1    2    0    0  0.00000000000E+00  0.00000000000E+00 -0.35870446623E+03  0.60656829231E+03  0.48913822090E+03 0.  0.
        1    1    3    3  502    0  0.20764297321E+03 -0.84004860544E+02 -0.30111746755E+03  0.37529208652E+03  0.50400001928E-02 0. -1.
       -1    1    3    3    0  502 -0.20764297321E+03  0.84004860544E+02 -0.57586998679E+02  0.23127620579E+03  0.50400001928E-02 0.  1.
</event>
<event>
 5   0  0.3117389E-01  0.4419936E+03  0.7818609E-02  0.1030137E+00
       -2   -1    0    0    0  501  0.00000000000E+00  0.00000000000E+00  0.17442312123E+03  0.17442312125E+03  0.25500000920E-02 0. -1.
        2   -1    0    0  501    0  0.00000000000E+00  0.00000000000E+00 -0.28000638496E+03  0.28000638497E+03  0.25500000920E-02 0.  1.
    10030    2    1    2    0    0  0.00000000000E+00  0.00000000000E+00 -0.10558326373E+03  0.45442950622E+03  0.44199360917E+03 0.  0.
        4    1    3    3  502    0  0.21568862980E+03  0.42875564083E+02 -0.30311499013E+02  0.22199166402E+03  0.12699999809E+01 0. -1.
       -4    1    3    3    0  502 -0.21568862980E+03 -0.42875564083E+02 -0.75271764721E+02  0.23243784220E+03  0.12699999809E+01 0.  1.
</event>
<event>
 5   0  0.3117389E-01  0.4478868E+03  0.7818609E-02  0.1028354E+00
        2   -1    0    0  501    0  0.00000000000E+00  0.00000000000E+00  0.74493097171E+02  0.74493097215E+02  0.25500000920E-02 0.  1.
       -2   -1    0    0    0  501  0.00000000000E+00  0.00000000000E+00 -0.67322535589E+03  0.67322535589E+03  0.25500000920E-02 0. -1.
    10030    2    1    2    0    0  0.00000000000E+00  0.00000000000E+00 -0.59873225872E+03  0.74771845311E+03  0.44788677977E+03 0.  0.
        4    1    3    3  502    0 -0.10185853970E+03  0.62473887178E+02 -0.61555084512E+03  0.62704274537E+03  0.12699999809E+01 0. -1.
       -4    1    3    3    0  502  0.10185853970E+03 -0.62473887178E+02  0.16818586404E+02  0.12067570774E+03  0.12699999809E+01 0.  1.
</event>
<event>
 5   0  0.3117389E-01  0.5224481E+03  0.7818609E-02  0.1008080E+00
        2   -1    0    0  501    0  0.00000000000E+00  0.00000000000E+00  0.13452756911E+03  0.13452756914E+03  0.25500000920E-02 0. -1.
       -2   -1    0    0    0  501  0.00000000000E+00  0.00000000000E+00 -0.50724170599E+03  0.50724170600E+03  0.25500000920E-02 0.  1.
    10030    2    1    2    0    0  0.00000000000E+00  0.00000000000E+00 -0.37271413688E+03  0.64176927513E+03  0.52244805931E+03 0.  0.
        4    1    3    3  502    0 -0.20752993730E+03  0.25075991600E+02  0.60687538923E+01  0.20913135323E+03  0.12699999809E+01 0.  1.
       -4    1    3    3    0  502  0.20752993730E+03 -0.25075991600E+02 -0.37878289077E+03  0.43263792191E+03  0.12699999809E+01 0. -1.
</event>
<event>
 5   0  0.1292375E-01  0.3601679E+03  0.7818609E-02  0.1058517E+00
        3   -1    0    0  501    0  0.00000000000E+00  0.00000000000E+00  0.68795697668E+03  0.68795698409E+03  0.10100000352E+00 0. -1.
       -3   -1    0    0    0  501  0.00000000000E+00  0.00000000000E+00 -0.47139843459E+02  0.47139951658E+02  0.10100000352E+00 0.  1.
    10030    2    1    2    0    0  0.00000000000E+00  0.00000000000E+00  0.64081713322E+03  0.73509693575E+03  0.36016788685E+03 0.  0.
        2    1    3    3  502    0 -0.11131812600E+03 -0.14102744902E+03  0.34538541947E+03  0.38932191634E+03  0.25500000920E-02 0.  1.
       -2    1    3    3    0  502  0.11131812600E+03  0.14102744902E+03  0.29543171375E+03  0.34577501941E+03  0.25500000920E-02 0. -1.
</event>
<event>
 5   0  0.1967161E-01  0.4635197E+03  0.7818609E-02  0.1023765E+00
       -1   -1    0    0    0  501  0.00000000000E+00  0.00000000000E+00  0.16115323154E+03  0.16115323162E+03  0.50400001928E-02 0.  1.
        1   -1    0    0  501    0  0.00000000000E+00  0.00000000000E+00 -0.33330156887E+03  0.33330156890E+03  0.50400001928E-02 0. -1.
    10030    2    1    2    0    0  0.00000000000E+00  0.00000000000E+00 -0.17214833732E+03  0.49445480052E+03  0.46351968644E+03 0.  0.
        1    1    3    3  502    0 -0.22677172432E+03 -0.47275478656E+02 -0.93784199930E+02  0.24991170844E+03  0.50400001928E-02 0. -1.
       -1    1    3    3    0  502  0.22677172432E+03  0.47275478656E+02 -0.78364137393E+02  0.24454309209E+03  0.50400001928E-02 0.  1.
</event>
<event>
 5   0  0.1292375E-01  0.4967102E+03  0.7818609E-02  0.1014641E+00
       -3   -1    0    0    0  501  0.00000000000E+00  0.00000000000E+00  0.17672695794E+03  0.17672698680E+03  0.10100000352E+00 0.  1.
        3   -1    0    0  501    0  0.00000000000E+00  0.00000000000E+00 -0.34901428622E+03  0.34901430084E+03  0.10100000352E+00 0. -1.
    10030    2    1    2    0    0  0.00000000000E+00  0.00000000000E+00 -0.17228732828E+03  0.52574128764E+03  0.49671015496E+03 0.  0.
        2    1    3    3  502    0  0.12714925476E+03  0.19333089778E+02  0.13873467505E+03  0.18917719581E+03  0.25500000920E-02 0.  1.
       -2    1    3    3    0  502 -0.12714925476E+03 -0.19333089778E+02 -0.31102200333E+03  0.33656409183E+03  0.25500000920E-02 0. -1.
</event>
<event>
 5   0  0.3178149E-01  0.4855643E+03  0.7818609E-02  0.1017617E+00
        2   -1    0    0  501    0  0.00000000000E+00  0.00000000000E+00  0.42196615417E+03  0.42196615418E+03  0.25500000920E-02 0. -1.
       -2   -1    0    0    0  501  0.00000000000E+00  0.00000000000E+00 -0.13968696360E+03  0.13968696362E+03  0.25500000920E-02 0.  1.
    10030    2    1    2    0    0  0.00000000000E+00  0.00000000000E+00  0.28227919057E+03  0.56165311780E+03  0.48556429369E+03 0.  0.
        3    1    3    3  502    0  0.17541971736E+01  0.42273687931E+02  0.41766880849E+03  0.41980636690E+03  0.10100000352E+00 0. -1.
       -3    1    3    3    0  502 -0.17541971736E+01 -0.42273687931E+02 -0.13538961792E+03  0.14184675090E+03  0.10100000352E+00 0.  1.
</event>
<event>
 5   0  0.1292375E-01  0.4932360E+03  0.7818609E-02  0.1015560E+00
       -3   -1    0    0    0  501  0.00000000000E+00  0.00000000000E+00  0.30621356796E+03  0.30621358462E+03  0.10100000352E+00 0.  1.
        3   -1    0    0  501    0  0.00000000000E+00  0.00000000000E+00 -0.19862091132E+03  0.19862093700E+03  0.10100000352E+00 0. -1.
    10030    2    1    2    0    0  0.00000000000E+00  0.00000000000E+00  0.10759265664E+03  0.50483452162E+03  0.49323596225E+03 0.  0.
        4    1    3    3  502    0 -0.19951461912E+03 -0.13120302116E+02  0.20155375461E+03  0.28390800352E+03  0.12699999809E+01 0.  1.
       -4    1    3    3    0  502  0.19951461912E+03  0.13120302116E+02 -0.93961097966E+02  0.22092651810E+03  0.12699999809E+01 0. -1.
</event>
<event>
 5   0  0.3111146E-01  0.4982656E+03  0.7818609E-02  0.1014233E+00
        2   -1    0    0  501    0  0.00000000000E+00  0.00000000000E+00  0.14112392534E+04  0.14112392534E+04  0.25500000920E-02 0.  1.
       -2   -1    0    0    0  501  0.00000000000E+00  0.00000000000E+00 -0.43980606800E+02  0.43980606874E+02  0.25500000920E-02 0. -1.
    10030    2    1    2    0    0  0.00000000000E+00  0.00000000000E+00  0.13672586466E+04  0.14552198603E+04  0.49826562699E+03 0.  0.
        1    1    3    3  502    0  0.23146770874E+03  0.91402388844E+02  0.71762128291E+03  0.75954723525E+03  0.50400001928E-02 0. -1.
       -1    1    3    3    0  502 -0.23146770874E+03 -0.91402388844E+02  0.64963736369E+03  0.69567262502E+03  0.50400001928E-02 0.  1.
</event>
<event>
 5   0  0.1292375E-01  0.5016984E+03  0.7818609E-02  0.1013337E+00
       -4   -1    0    0    0  501  0.00000000000E+00  0.00000000000E+00  0.98579457081E+02  0.98587637452E+02  0.12699999809E+01 0. -1.
        4   -1    0    0  501    0  0.00000000000E+00  0.00000000000E+00 -0.63828547162E+03  0.63828673509E+03  0.12699999809E+01 0.  1.
    10030    2    1    2    0    0  0.00000000000E+00  0.00000000000E+00 -0.53970601454E+03  0.73687437254E+03  0.50169837429E+03 0.  0.
        4    1    3    3  502    0 -0.95745511488E+02 -0.11515598924E+03 -0.56541913485E+03  0.58491752905E+03  0.12699999809E+01 0.  1.
       -4    1    3    3    0  502  0.95745511488E+02  0.11515598924E+03  0.25713120309E+02  0.15195684349E+03  0.12699999809E+01 0. -1.
</event>
<event>
 5   0  0.1967161E-01  0.4971355E+03  0.7818609E-02  0.1014529E+00
       -1   -1    0    0    0  501  0.00000000000E+00  0.00000000000E+00  0.25429381346E+02  0.25429381845E+02  0.50400001928E-02 0. -1.
        1   -1    0    0  501    0  0.00000000000E+00  0.00000000000E+00 -0.24297063805E+04  0.24297063805E+04  0.50400001928E-02 0.  1.
    10030    2    1    2    0    0  0.00000000000E+00  0.00000000000E+00 -0.24042769992E+04  0.24551357624E+04  0.49713551765E+03 0.  0.
        1    1    3    3  502    0 -0.36393795014E+02  0.16333868107E+03 -0.21098393475E+04  0.21164654746E+04  0.50400001928E-02 0.  1.
       -1    1    3    3    0  502  0.36393795014E+02 -0.16333868107E+03 -0.29443765172E+03  0.33867028778E+03  0.50400001928E-02 0. -1.
</event>
<event>
 5   0  0.1292375E-01  0.4805968E+03  0.7818609E-02  0.1018971E+00
       -4   -1    0    0    0  501  0.00000000000E+00  0.00000000000E+00  0.34217412627E+02  0.34240972925E+02  0.12699999809E+01 0.  1.
        4   -1    0    0  501    0  0.00000000000E+00  0.00000000000E+00 -0.16869374236E+04  0.16869379017E+04  0.12699999809E+01 0. -1.
    10030    2    1    2    0    0  0.00000000000E+00  0.00000000000E+00 -0.16527200110E+04  0.17211788746E+04  0.48059679944E+03 0.  0.
        3    1    3    3  502    0  0.23401945881E+03  0.54128774833E+02 -0.80147568420E+03  0.83669487505E+03  0.10100000352E+00 0. -1.
       -3    1    3    3    0  502 -0.23401945881E+03 -0.54128774833E+02 -0.85124432679E+03  0.88448399955E+03  0.10100000352E+00 0.  1.
</event>
<event>
 5   0  0.3178149E-01  0.5042269E+03  0.7818609E-02  0.1012681E+00
       -2   -1    0    0    0  501  0.00000000000E+00  0.00000000000E+00  0.45075107685E+02  0.45075107757E+02  0.25500000920E-02 0.  1.
        2   -1    0    0  501    0  0.00000000000E+00  0.00000000000E+00 -0.14101171603E+04  0.14101171603E+04  0.25500000920E-02 0. -1.
    10030    2    1    2    0    0  0.00000000000E+00  0.00000000000E+00 -0.13650420526E+04  0.14551922680E+04  0.50422686522E+03 0.  0.
        3    1    3    3  502    0 -0.14285873755E+03 -0.15391001065E+03 -0.27988431234E+03  0.34990305624E+03  0.10100000352E+00 0. -1.
       -3    1    3    3    0  502  0.14285873755E+03  0.15391001065E+03 -0.10851577403E+04  0.11052892118E+04  0.10100000352E+00 0.  1.
</event>
<event>
 5   0  0.1292375E-01  0.6166740E+03  0.7818609E-02  0.9871404E-01
       -4   -1    0    0    0  501  0.00000000000E+00  0.00000000000E+00  0.15720949441E+03  0.15721462411E+03  0.12699999809E+01 0.  1.
        4   -1    0    0  501    0  0.00000000000E+00  0.00000000000E+00 -0.60472956862E+03  0.60473090219E+03  0.12699999809E+01 0. -1.
    10030    2    1    2    0    0  0.00000000000E+00  0.00000000000E+00 -0.44752007421E+03  0.76194552630E+03  0.61667395618E+03 0.  0.
        5    1    3    3  502    0 -0.11094102934E+03 -0.10389478848E+03 -0.55517824162E+03  0.57562749155E+03  0.46999998093E+01 0. -1.
       -5    1    3    3    0  502  0.11094102934E+03  0.10389478848E+03  0.10765816741E+03  0.18631803475E+03  0.46999998093E+01 0.  1.
</event>
<event>
 5   0  0.3117389E-01  0.5028355E+03  0.7818609E-02  0.1013041E+00
       -2   -1    0    0    0  501  0.00000000000E+00  0.00000000000E+00  0.27228377632E+02  0.27228377751E+02  0.25500000920E-02 0.  1.
        2   -1    0    0  501    0  0.00000000000E+00  0.00000000000E+00 -0.23215075082E+04  0.23215075082E+04  0.25500000920E-02 0. -1.
    10030    2    1    2    0    0  0.00000000000E+00  0.00000000000E+00 -0.22942791306E+04  0.23487358860E+04  0.50283549299E+03 0.  0.
        4    1    3    3  502    0 -0.12281644153E+03 -0.20526560715E+03 -0.78558551287E+03  0.82119672352E+03  0.12699999809E+01 0.  1.
       -4    1    3    3    0  502  0.12281644153E+03  0.20526560715E+03 -0.15086936177E+04  0.15275391625E+04  0.12699999809E+01 0. -1.
</event>
<event>
 5   0  0.1984297E-01  0.4639163E+03  0.7818609E-02  0.1023651E+00
       -1   -1    0    0    0  501  0.00000000000E+00  0.00000000000E+00  0.10375718069E+03  0.10375718081E+03  0.50400001928E-02 0.  1.
        1   -1    0    0  501    0  0.00000000000E+00  0.00000000000E+00 -0.51856239924E+03  0.51856239927E+03  0.50400001928E-02 0. -1.
    10030    2    1    2    0    0  0.00000000000E+00  0.00000000000E+00 -0.41480521855E+03  0.62231958008E+03  0.46391625366E+03 0.  0.
        3    1    3    3  502    0  0.56692286415E+02 -0.22236530051E+03 -0.16202635108E+03  0.28091438349E+03  0.10100000352E+00 0.  1.
       -3    1    3    3    0  502 -0.56692286415E+02  0.22236530051E+03 -0.25277886748E+03  0.34140519658E+03  0.10100000352E+00 0. -1.
</event>
<event>
 5   0  0.1967161E-01  0.5090343E+03  0.7818609E-02  0.1011447E+00
       -1   -1    0    0    0  501  0.00000000000E+00  0.00000000000E+00  0.28453298964E+02  0.28453299411E+02  0.50400001928E-02 0. -1.
        1   -1    0    0  501    0  0.00000000000E+00  0.00000000000E+00 -0.22766768882E+04  0.22766768882E+04  0.50400001928E-02 0.  1.
    10030    2    1    2    0    0  0.00000000000E+00  0.00000000000E+00 -0.22482235892E+04  0.23051301876E+04  0.50903425686E+03 0.  0.
        1    1    3    3  502    0  0.19664856411E+03  0.13818830331E+03 -0.74490264599E+03  0.78271745667E+03  0.50400001928E-02 0. -1.
       -1    1    3    3    0  502 -0.19664856411E+03 -0.13818830331E+03 -0.15033209432E+04  0.15224127309E+04  0.50400001928E-02 0.  1.
</event>
<event>
 5   0  0.3117389E-01  0.5110173E+03  0.7818609E-02  0.1010943E+00
        2   -1    0    0  501    0  0.00000000000E+00  0.00000000000E+00  0.15506169338E+04  0.15506169338E+04  0.25500000920E-02 0.  1.
       -2   -1    0    0    0  501  0.00000000000E+00  0.00000000000E+00 -0.42102388948E+02  0.42102389025E+02  0.25500000920E-02 0. -1.
    10030    2    1    2    0    0  0.00000000000E+00  0.00000000000E+00  0.15085145448E+04  0.15927193228E+04  0.51101732776E+03 0.  0.
        4    1    3    3  502    0 -0.12369970074E+03 -0.68434176232E+02  0.90905105376E+02  0.16807796858E+03  0.12699999809E+01 0. -1.
       -4    1    3    3    0  502  0.12369970074E+03  0.68434176232E+02  0.14176094395E+04  0.14246413542E+04  0.12699999809E+01 0.  1.
</event>
<event>
 5   0  0.3187123E-01  0.5013829E+03  0.7818609E-02  0.1013419E+00
       -2   -1    0    0    0  501  0.00000000000E+00  0.00000000000E+00  0.82045755309E+02  0.82045755349E+02  0.25500000920E-02 0.  1.
        2   -1    0    0  501    0  0.00000000000E+00  0.00000000000E+00 -0.76598962894E+03  0.76598962895E+03  0.25500000920E-02 0. -1.
    10030    2    1    2    0    0  0.00000000000E+00  0.00000000000E+00 -0.68394387363E+03  0.84803538430E+03  0.50138287839E+03 0.  0.
        5    1    3    3  502    0 -0.68480807597E+01 -0.24536775626E+02  0.79775958076E+02  0.83876355747E+02  0.46999998093E+01 0.  1.
       -5    1    3    3    0  502  0.68480807597E+01  0.24536775626E+02 -0.76371983171E+03  0.76415902855E+03  0.46999998093E+01 0. -1.
</event>
<event>
 5   0  0.1292375E-01  0.5356043E+03  0.7818609E-02  0.1004882E+00
       -4   -1    0    0    0  501  0.00000000000E+00  0.00000000000E+00  0.59176543571E+03  0.59176679850E+03  0.12699999809E+01 0. -1.
        4   -1    0    0  501    0  0.00000000000E+00  0.00000000000E+00 -0.12118845629E+03  0.12119511062E+03  0.12699999809E+01 0.  1.
    10030    2    1    2    0    0  0.00000000000E+00  0.00000000000E+00  0.47057697943E+03  0.71296190911E+03  0.53560432250E+03 0.  0.
        3    1    3    3  502    0  0.78492041353E+01 -0.21734404162E+03  0.44329494329E+03  0.49377166725E+03  0.10100000352E+00 0.  1.
       -3    1    3    3    0  502 -0.78492041353E+01  0.21734404162E+03  0.27282036138E+02  0.21919024186E+03  0.10100000352E+00 0. -1.
</event>
<event>
 5   0  0.2000612E-01  0.4994980E+03  0.7818609E-02  0.1013910E+00
       -1   -1    0    0    0  501  0.00000000000E+00  0.00000000000E+00  0.72340311398E+02  0.72340311574E+02  0.50400001928E-02 0. -1.
        1   -1    0    0  501    0  0.00000000000E+00  0.00000000000E+00 -0.86223780244E+03  0.86223780246E+03  0.50400001928E-02 0.  1.
    10030    2    1    2    0    0  0.00000000000E+00  0.00000000000E+00 -0.78989749104E+03  0.93457811403E+03  0.49949795282E+03 0.  0.
        2    1    3    3  502    0  0.36626604319E+02 -0.23784561335E+03 -0.51993762152E+03  0.57292859434E+03  0.25500000920E-02 0.  1.
       -2    1    3    3    0  502 -0.36626604319E+02  0.23784561335E+03 -0.26995986953E+03  0.36164951969E+03  0.25500000920E-02 0. -1.
</event>
<event>
 5   0  0.1967161E-01  0.5030263E+03  0.7818609E-02  0.1012992E+00
       -1   -1    0    0    0  501  0.00000000000E+00  0.00000000000E+00  0.19859884389E+03  0.19859884395E+03  0.50400001928E-02 0. -1.
        1   -1    0    0  501    0  0.00000000000E+00  0.00000000000E+00 -0.31852580761E+03  0.31852580765E+03  0.50400001928E-02 0.  1.
    10030    2    1    2    0    0  0.00000000000E+00  0.00000000000E+00 -0.11992696372E+03  0.51712465160E+03  0.50302627036E+03 0.  0.
        1    1    3    3  502    0  0.22509912483E+03 -0.46810176585E+02 -0.16479225290E+03  0.28287328484E+03  0.50400001928E-02 0.  1.
       -1    1    3    3    0  502 -0.22509912483E+03  0.46810176585E+02  0.44865289186E+02  0.23425136677E+03  0.50400001928E-02 0. -1.
</event>
<event>
 5   0  0.1984680E-01  0.4984828E+03  0.7818609E-02  0.1014176E+00
       -1   -1    0    0    0  501  0.00000000000E+00  0.00000000000E+00  0.76771561814E+03  0.76771561816E+03  0.50400001928E-02 0. -1.
        1   -1    0    0  501    0  0.00000000000E+00  0.00000000000E+00 -0.80917033092E+02  0.80917033249E+02  0.50400001928E-02 0.  1.
    10030    2    1    2    0    0  0.00000000000E+00  0.00000000000E+00  0.68679858505E+03  0.84863265141E+03  0.49848277865E+03 0.  0.
        5    1    3    3  502    0  0.13279881454E+03 -0.12769119217E+03  0.57722330352E+02  0.19311789953E+03  0.46999998093E+01 0.  1.
       -5    1    3    3    0  502 -0.13279881454E+03  0.12769119217E+03  0.62907625470E+03  0.65551475188E+03  0.46999998093E+01 0. -1.
</event>
<event>
 5   0  0.1984297E-01  0.4989703E+03  0.7818609E-02  0.1014048E+00
       -1   -1    0    0    0  501  0.00000000000E+00  0.00000000000E+00  0.41438824790E+02  0.41438825097E+02  0.50400001928E-02 0.  1.
        1   -1    0    0  501    0  0.00000000000E+00  0.00000000000E+00 -0.15020414745E+04  0.15020414745E+04  0.50400001928E-02 0. -1.
    10030    2    1    2    0    0  0.00000000000E+00  0.00000000000E+00 -0.14606026497E+04  0.15434802996E+04  0.49897027460E+03 0.  0.
        3    1    3    3  502    0 -0.36345364501E+02 -0.30406912625E+02  0.27389654639E+02  0.54733620731E+02  0.10100000352E+00 0.  1.
       -3    1    3    3    0  502  0.36345364501E+02  0.30406912625E+02 -0.14879923044E+04  0.14887466789E+04  0.10100000352E+00 0. -1.
</event>
<event>
 5   0  0.3111146E-01  0.5067377E+03  0.7818609E-02  0.1012035E+00
        2   -1    0    0  501    0  0.00000000000E+00  0.00000000000E+00  0.41234865460E+03  0.41234865461E+03  0.25500000920E-02 0.  1.
       -2   -1    0    0    0  501  0.00000000000E+00  0.00000000000E+00 -0.15568323999E+03  0.15568324001E+03  0.25500000920E-02 0. -1.
    10030    2    1    2    0    0  0.00000000000E+00  0.00000000000E+00  0.25666541462E+03  0.56803189462E+03  0.50673770162E+03 0.  0.
        1    1    3    3  502    0  0.20798539093E+02 -0.26406002255E+02 -0.15317278111E+03  0.15681759175E+03  0.50400001928E-02 0. -1.
       -1    1    3    3    0  502 -0.20798539093E+02  0.26406002255E+02  0.40983819573E+03  0.41121430287E+03  0.50400001928E-02 0.  1.
</event>
<event>
 5   0  0.1984297E-01  0.4820613E+03  0.7818609E-02  0.1018570E+00
       -1   -1    0    0    0  501  0.00000000000E+00  0.00000000000E+00  0.51349903417E+02  0.51349903664E+02  0.50400001928E-02 0. -1.
        1   -1    0    0  501    0  0.00000000000E+00  0.00000000000E+00 -0.11313706325E+04  0.11313706325E+04  0.50400001928E-02 0.  1.
    10030    2    1    2    0    0  0.00000000000E+00  0.00000000000E+00 -0.10800207291E+04  0.11827205362E+04  0.48206129428E+03 0.  0.
        3    1    3    3  502    0 -0.18329157922E+03 -0.15123415196E+03 -0.63900975953E+03  0.68176319548E+03  0.10100000352E+00 0. -1.
       -3    1    3    3    0  502  0.18329157922E+03  0.15123415196E+03 -0.44101096954E+03  0.50095734068E+03  0.10100000352E+00 0.  1.
</event>
<event>
 5   0  0.1967161E-01  0.4613039E+03  0.7818609E-02  0.1024404E+00
        1   -1    0    0  501    0  0.00000000000E+00  0.00000000000E+00  0.10395980092E+03  0.10395980105E+03  0.50400001928E-02 0. -1.
       -1   -1    0    0    0  501  0.00000000000E+00  0.00000000000E+00 -0.51173928711E+03  0.51173928714E+03  0.50400001928E-02 0.  1.
    10030    2    1    2    0    0  0.00000000000E+00  0.00000000000E+00 -0.40777948619E+03  0.61569908818E+03  0.46130386714E+03 0.  0.
        1    1    3    3  502    0  0.13905242046E+03 -0.72657442438E+02  0.21770647756E+02  0.15839394151E+03  0.50400001928E-02 0. -1.
       -1    1    3    3    0  502 -0.13905242046E+03  0.72657442438E+02 -0.42955013394E+03  0.45730514667E+03  0.50400001928E-02 0.  1.
</event>
<event>
 5   0  0.1967161E-01  0.4959768E+03  0.7818609E-02  0.1014834E+00
        1   -1    0    0  501    0  0.00000000000E+00  0.00000000000E+00  0.72804827730E+03  0.72804827732E+03  0.50400001928E-02 0. -1.
       -1   -1    0    0    0  501  0.00000000000E+00  0.00000000000E+00 -0.84470005088E+02  0.84470005238E+02  0.50400001928E-02 0.  1.
    10030    2    1    2    0    0  0.00000000000E+00  0.00000000000E+00  0.64357827221E+03  0.81251828255E+03  0.49597678073E+03 0.  0.
        1    1    3    3  502    0  0.62096475131E+02  0.51003003267E+02 -0.62550176454E+02  0.10183223049E+03  0.50400001928E-02 0.  1.
       -1    1    3    3    0  502 -0.62096475131E+02 -0.51003003267E+02  0.70612844866E+03  0.71068605207E+03  0.50400001928E-02 0. -1.
</event>
<event>
 5   0  0.2000612E-01  0.4889910E+03  0.7818609E-02  0.1016693E+00
       -1   -1    0    0    0  501  0.00000000000E+00  0.00000000000E+00  0.70818348212E+02  0.70818348392E+02  0.50400001928E-02 0. -1.
        1   -1    0    0  501    0  0.00000000000E+00  0.00000000000E+00 -0.84410399306E+03  0.84410399307E+03  0.50400001928E-02 0.  1.
    10030    2    1    2    0    0  0.00000000000E+00  0.00000000000E+00 -0.77328564485E+03  0.91492234147E+03  0.48899100440E+03 0.  0.
        2    1    3    3  502    0  0.17183159093E+03 -0.24776766765E+02 -0.70875585683E+03  0.72970874218E+03  0.25500000920E-02 0.  1.
       -2    1    3    3    0  502 -0.17183159093E+03  0.24776766765E+02 -0.64529788018E+02  0.18521359929E+03  0.25500000920E-02 0. -1.
</event>
<event>
 5   0  0.1984297E-01  0.4863285E+03  0.7818609E-02  0.1017410E+00
        1   -1    0    0  501    0  0.00000000000E+00  0.00000000000E+00  0.19393547618E+03  0.19393547625E+03  0.50400001928E-02 0.  1.
       -1   -1    0    0    0  501  0.00000000000E+00  0.00000000000E+00 -0.30488929923E+03  0.30488929927E+03  0.50400001928E-02 0. -1.
    10030    2    1    2    0    0  0.00000000000E+00  0.00000000000E+00 -0.11095382305E+03  0.49882477552E+03  0.48632849580E+03 0.  0.
        3    1    3    3  502    0  0.13607221580E+03  0.18343910422E+03 -0.14106739694E+03  0.26845031859E+03  0.10100000352E+00 0. -1.
       -3    1    3    3    0  502 -0.13607221580E+03 -0.18343910422E+03  0.30113573894E+02  0.23037445693E+03  0.10100000352E+00 0.  1.
</event>
<event>
 5   0  0.3111146E-01  0.5029377E+03  0.7818609E-02  0.1013015E+00
       -2   -1    0    0    0  501  0.00000000000E+00  0.00000000000E+00  0.10582992554E+03  0.10582992557E+03  0.25500000920E-02 0.  1.
        2   -1    0    0  501    0  0.00000000000E+00  0.00000000000E+00 -0.59753015708E+03  0.59753015708E+03  0.25500000920E-02 0. -1.
    10030    2    1    2    0    0  0.00000000000E+00  0.00000000000E+00 -0.49170023154E+03  0.70336008265E+03  0.50293765833E+03 0.  0.
        1    1    3    3  502    0 -0.56659851086E+02 -0.11241432774E+03 -0.55029136119E+03  0.56450677767E+03  0.50400001928E-02 0. -1.
       -1    1    3    3    0  502  0.56659851086E+02  0.11241432774E+03  0.58591129650E+02  0.13885330498E+03  0.50400001928E-02 0.  1.
</event>
<event>
 5   0  0.3178149E-01  0.4787804E+03  0.7818609E-02  0.1019471E+00
        2   -1    0    0  501    0  0.00000000000E+00  0.00000000000E+00  0.24882300058E+04  0.24882300058E+04  0.25500000920E-02 0.  1.
       -2   -1    0    0    0  501  0.00000000000E+00  0.00000000000E+00 -0.23031496908E+02  0.23031497049E+02  0.25500000920E-02 0. -1.
    10030    2    1    2    0    0  0.00000000000E+00  0.00000000000E+00  0.24651985089E+04  0.25112615029E+04  0.47878037497E+03 0.  0.
        3    1    3    3  502    0 -0.42996446441E+02  0.12261740924E+03  0.17803060708E+03  0.22040560500E+03  0.10100000352E+00 0. -1.
       -3    1    3    3    0  502  0.42996446441E+02 -0.12261740924E+03  0.22871679018E+04  0.22908558979E+04  0.10100000352E+00 0.  1.
</event>
<event>
 5   0  0.1984297E-01  0.5129252E+03  0.7818609E-02  0.1010459E+00
       -1   -1    0    0    0  501  0.00000000000E+00  0.00000000000E+00  0.11017731826E+03  0.11017731838E+03  0.50400001928E-02 0.  1.
        1   -1    0    0  501    0  0.00000000000E+00  0.00000000000E+00 -0.59697474486E+03  0.59697474488E+03  0.50400001928E-02 0. -1.
    10030    2    1    2    0    0  0.00000000000E+00  0.00000000000E+00 -0.48679742660E+03  0.70715206325E+03  0.51292524409E+03 0.  0.
        3    1    3    3  502    0  0.60768714740E+02  0.16776357201E+03  0.10573726840E+02  0.17874357803E+03  0.10100000352E+00 0.  1.
       -3    1    3    3    0  502 -0.60768714740E+02 -0.16776357201E+03 -0.49737115344E+03  0.52840848522E+03  0.10100000352E+00 0. -1.
</event>
<event>
 5   0  0.1292375E-01  0.4840633E+03  0.7818609E-02  0.1018024E+00
        4   -1    0    0  501    0  0.00000000000E+00  0.00000000000E+00  0.14240195619E+03  0.14240761927E+03  0.12699999809E+01 0. -1.
       -4   -1    0    0    0  501  0.00000000000E+00  0.00000000000E+00 -0.41135108381E+03  0.41135304430E+03  0.12699999809E+01 0.  1.
    10030    2    1    2    0    0  0.00000000000E+00  0.00000000000E+00 -0.26894912762E+03  0.55376066357E+03  0.48406325957E+03 0.  0.
        2    1    3    3  502    0  0.14864312419E+03 -0.43532841975E+02 -0.34723537665E+03  0.38021348412E+03  0.25500000920E-02 0.  1.
       -2    1    3    3    0  502 -0.14864312419E+03  0.43532841975E+02  0.78286249033E+02  0.17354717945E+03  0.25500000920E-02 0. -1.
</event>
<event>
 5   0  0.2000612E-01  0.5094214E+03  0.7818609E-02  0.1011349E+00
        1   -1    0    0  501    0  0.00000000000E+00  0.00000000000E+00  0.19030917036E+03  0.19030917043E+03  0.50400001928E-02 0. -1.
       -1   -1    0    0    0  501  0.00000000000E+00  0.00000000000E+00 -0.34090599455E+03  0.34090599459E+03  0.50400001928E-02 0.  1.
    10030    2    1    2    0    0  0.00000000000E+00  0.00000000000E+00 -0.15059682419E+03  0.53121516502E+03  0.50942138558E+03 0.  0.
        2    1    3    3  502    0  0.19895536705E+03 -0.15205452298E+03 -0.26680624692E+02  0.25182468461E+03  0.25500000920E-02 0.  1.
       -2    1    3    3    0  502 -0.19895536705E+03  0.15205452298E+03 -0.12391619950E+03  0.27939048041E+03  0.25500000920E-02 0. -1.
</event>
<event>
 5   0  0.2000612E-01  0.5295553E+03  0.7818609E-02  0.1006340E+00
       -1   -1    0    0    0  501  0.00000000000E+00  0.00000000000E+00  0.11962298409E+03  0.11962298420E+03  0.50400001928E-02 0. -1.
        1   -1    0    0  501    0  0.00000000000E+00  0.00000000000E+00 -0.58606799888E+03  0.58606799890E+03  0.50400001928E-02 0.  1.
    10030    2    1    2    0    0  0.00000000000E+00  0.00000000000E+00 -0.46644501478E+03  0.70569098310E+03  0.52955529628E+03 0.  0.
        2    1    3    3  502    0 -0.22186284847E+03  0.82605004517E+02 -0.39123940145E+03  0.45729091349E+03  0.25500000920E-02 0.  1.
       -2    1    3    3    0  502  0.22186284847E+03 -0.82605004517E+02 -0.75205613331E+02  0.24840006961E+03  0.25500000920E-02 0. -1.
</event>
<event>
 5   0  0.1967161E-01  0.6465206E+03  0.7818609E-02  0.9813330E-01
        1   -1    0    0  501    0  0.00000000000E+00  0.00000000000E+00  0.12608248633E+04  0.12608248633E+04  0.50400001928E-02 0.  1.
       -1   -1    0    0    0  501  0.00000000000E+00  0.00000000000E+00 -0.82880052961E+02  0.82880053114E+02  0.50400001928E-02 0. -1.
    10030    2    1    2    0    0  0.00000000000E+00  0.00000000000E+00  0.11779448103E+04  0.13437049164E+04  0.64652063092E+03 0.  0.
        1    1    3    3  502    0 -0.31026072266E+03  0.88216111240E+02  0.63322901920E+03  0.71064955435E+03  0.50400001928E-02 0.  1.
       -1    1    3    3    0  502  0.31026072266E+03 -0.88216111240E+02  0.54471579108E+03  0.63305536203E+03  0.50400001928E-02 0. -1.
</event>
<event>
 5   0  0.1984297E-01  0.5016451E+03  0.7818609E-02  0.1013350E+00
       -1   -1    0    0    0  501  0.00000000000E+00  0.00000000000E+00  0.80586897931E+02  0.80586898088E+02  0.50400001928E-02 0. -1.
        1   -1    0    0  501    0  0.00000000000E+00  0.00000000000E+00 -0.78067210799E+03  0.78067210800E+03  0.50400001928E-02 0.  1.
    10030    2    1    2    0    0  0.00000000000E+00  0.00000000000E+00 -0.70008521006E+03  0.86125900609E+03  0.50164506799E+03 0.  0.
        3    1    3    3  502    0  0.11638374981E+03 -0.11824372062E+03 -0.67300200236E+03  0.69315110911E+03  0.10100000352E+00 0.  1.
       -3    1    3    3    0  502 -0.11638374981E+03  0.11824372062E+03 -0.27083207698E+02  0.16810789698E+03  0.10100000352E+00 0. -1.
</event>
<event>
 5   0  0.3187123E-01  0.7211822E+03  0.7818609E-02  0.9681678E-01
        2   -1    0    0  501    0  0.00000000000E+00  0.00000000000E+00  0.71111202841E+03  0.71111202841E+03  0.25500000920E-02 0.  1.
       -2   -1    0    0    0  501  0.00000000000E+00  0.00000000000E+00 -0.18284876703E+03  0.18284876705E+03  0.25500000920E-02 0. -1.
    10030    2    1    2    0    0  0.00000000000E+00  0.00000000000E+00  0.52826326138E+03  0.89396079546E+03  0.72118224499E+03 0.  0.
        5    1    3    3  502    0  0.34616375972E+03 -0.93308935117E+02  0.31162476275E+03  0.47504524908E+03  0.46999998093E+01 0.  1.
       -5    1    3    3    0  502 -0.34616375972E+03  0.93308935117E+02  0.21663849863E+03  0.41891554638E+03  0.46999998093E+01 0. -1.
</event>
<event>
 5   0  0.3117389E-01  0.4934109E+03  0.7818609E-02  0.1015513E+00
        2   -1    0    0  501    0  0.00000000000E+00  0.00000000000E+00  0.39004105889E+03  0.39004105890E+03  0.25500000920E-02 0. -1.
       -2   -1    0    0    0  501  0.00000000000E+00  0.00000000000E+00 -0.15604405436E+03  0.15604405438E+03  0.25500000920E-02 0.  1.
    10030    2    1    2    0    0  0.00000000000E+00  0.00000000000E+00  0.23399700453E+03  0.54608511329E+03  0.49341093707E+03 0.  0.
        4    1    3    3  502    0  0.90344139879E+02 -0.64513981568E+02  0.36083115773E+03  0.37752464121E+03  0.12699999809E+01 0. -1.
       -4    1    3    3    0  502 -0.90344139879E+02  0.64513981568E+02 -0.12683415320E+03  0.16856047208E+03  0.12699999809E+01 0.  1.
</event>
<event>
 5   0  0.1984680E-01  0.4973458E+03  0.7818609E-02  0.1014474E+00
       -1   -1    0    0    0  501  0.00000000000E+00  0.00000000000E+00  0.71490447013E+02  0.71490447191E+02  0.50400001928E-02 0.  1.
        1   -1    0    0  501    0  0.00000000000E+00  0.00000000000E+00 -0.86498555946E+03  0.86498555947E+03  0.50400001928E-02 0. -1.
    10030    2    1    2    0    0  0.00000000000E+00  0.00000000000E+00 -0.79349511245E+03  0.93647600667E+03  0.49734577266E+03 0.  0.
        5    1    3    3  502    0 -0.18381952058E+03 -0.12147324621E+02 -0.82352029315E+02  0.20184429735E+03  0.46999998093E+01 0.  1.
       -5    1    3    3    0  502  0.18381952058E+03  0.12147324621E+02 -0.71114308313E+03  0.73463170931E+03  0.46999998093E+01 0. -1.
</event>
<event>
 5   0  0.1984680E-01  0.4907852E+03  0.7818609E-02  0.1016212E+00
        1   -1    0    0  501    0  0.00000000000E+00  0.00000000000E+00  0.14721846686E+04  0.14721846686E+04  0.50400001928E-02 0.  1.
       -1   -1    0    0    0  501  0.00000000000E+00  0.00000000000E+00 -0.40903513664E+02  0.40903513974E+02  0.50400001928E-02 0. -1.
    10030    2    1    2    0    0  0.00000000000E+00  0.00000000000E+00  0.14312811549E+04  0.15130881826E+04  0.49078519109E+03 0.  0.
        5    1    3    3  502    0 -0.24499392020E+03  0.18612844261E+01  0.67544908013E+03  0.71852559812E+03  0.46999998093E+01 0. -1.
       -5    1    3    3    0  502  0.24499392020E+03 -0.18612844261E+01  0.75583207480E+03  0.79456258445E+03  0.46999998093E+01 0.  1.
</event>
<event>
 5   0  0.3111146E-01  0.4885252E+03  0.7818609E-02  0.1016818E+00
        2   -1    0    0  501    0  0.00000000000E+00  0.00000000000E+00  0.64079978003E+03  0.64079978004E+03  0.25500000920E-02 0. -1.
       -2   -1    0    0    0  501  0.00000000000E+00  0.00000000000E+00 -0.93108992197E+02  0.93108992232E+02  0.25500000920E-02 0.  1.
    10030    2    1    2    0    0  0.00000000000E+00  0.00000000000E+00  0.54769078784E+03  0.73390877227E+03  0.48852521627E+03 0.  0.
        1    1    3    3  502    0 -0.20430457092E+03 -0.39622653820E+01  0.47488453966E+03  0.51698296227E+03  0.50400001928E-02 0. -1.
       -1    1    3    3    0  502  0.20430457092E+03  0.39622653820E+01  0.72806248179E+02  0.21692581000E+03  0.50400001928E-02 0.  1.
</event>
<event>
 5   0  0.3117389E-01  0.4996482E+03  0.7818609E-02  0.1013871E+00
        2   -1    0    0  501    0  0.00000000000E+00  0.00000000000E+00  0.15995649227E+03  0.15995649229E+03  0.25500000920E-02 0. -1.
       -2   -1    0    0    0  501  0.00000000000E+00  0.00000000000E+00 -0.39018158383E+03  0.39018158384E+03  0.25500000920E-02 0.  1.
    10030    2    1    2    0    0  0.00000000000E+00  0.00000000000E+00 -0.23022509156E+03  0.55013807612E+03  0.49964818625E+03 0.  0.
        4    1    3    3  502    0  0.23003667880E+03  0.97182940597E+02 -0.10739991682E+03  0.27184141070E+03  0.12699999809E+01 0.  1.
       -4    1    3    3    0  502 -0.23003667880E+03 -0.97182940597E+02 -0.12282517474E+03  0.27829666543E+03  0.12699999809E+01 0. -1.
</event>
<event>
 5   0  0.3117389E-01  0.6451833E+03  0.7818609E-02  0.9815860E-01
        2   -1    0    0  501    0  0.00000000000E+00  0.00000000000E+00  0.99412425336E+03  0.99412425336E+03  0.25500000920E-02 0.  1.
       -2   -1    0    0    0  501  0.00000000000E+00  0.00000000000E+00 -0.10468046047E+03  0.10468046050E+03  0.25500000920E-02 0. -1.
    10030    2    1    2    0    0  0.00000000000E+00  0.00000000000E+00  0.88944379289E+03  0.10988047139E+04  0.64518333713E+03 0.  0.
        4    1    3    3  502    0  0.69541255938E+02  0.18670607125E+03  0.12631614388E+02  0.19964046158E+03  0.12699999809E+01 0. -1.
       -4    1    3    3    0  502 -0.69541255938E+02 -0.18670607125E+03  0.87681217850E+03  0.89916425228E+03  0.12699999809E+01 0.  1.
</event>
<event>
 5   0  0.2013450E-01  0.5016141E+03  0.7818609E-02  0.1013358E+00
        1   -1    0    0  501    0  0.00000000000E+00  0.00000000000E+00  0.42825884065E+03  0.42825884068E+03  0.50400001928E-02 0.  1.
       -1   -1    0    0    0  501  0.00000000000E+00  0.00000000000E+00 -0.14688354357E+03  0.14688354366E+03  0.50400001928E-02 0. -1.
    10030    2    1    2    0    0  0.00000000000E+00  0.00000000000E+00  0.28137529708E+03  0.57514238434E+03  0.50161409914E+03 0.  0.
        4    1    3    3  502    0  0.21495745876E+03  0.12577286253E+03  0.17464357887E+03  0.30418335682E+03  0.12699999809E+01 0.  1.
       -4    1    3    3    0  502 -0.21495745876E+03 -0.12577286253E+03  0.10673171821E+03  0.27095902752E+03  0.12699999809E+01 0. -1.
</event>
<event>
 5   0  0.1984297E-01  0.4838021E+03  0.7818609E-02  0.1018095E+00
        1   -1    0    0  501    0  0.00000000000E+00  0.00000000000E+00  0.99691165620E+03  0.99691165621E+03  0.50400001928E-02 0.  1.
       -1   -1    0    0    0  501  0.00000000000E+00  0.00000000000E+00 -0.58697402344E+02  0.58697402560E+02  0.50400001928E-02 0. -1.
    10030    2    1    2    0    0  0.00000000000E+00  0.00000000000E+00  0.93821425385E+03  0.10556090588E+04  0.48380212776E+03 0.  0.
        3    1    3    3  502    0 -0.88080382397E+00 -0.69056214888E+02 -0.36730047739E+02  0.78221756807E+02  0.10100000352E+00 0. -1.
       -3    1    3    3    0  502  0.88080382397E+00  0.69056214888E+02  0.97494430159E+03  0.97738730196E+03  0.10100000352E+00 0.  1.
</event>
<event>
 5   0  0.1967161E-01  0.4985989E+03  0.7818609E-02  0.1014145E+00
        1   -1    0    0  501    0  0.00000000000E+00  0.00000000000E+00  0.15961910982E+03  0.15961910990E+03  0.50400001928E-02 0. -1.
       -1   -1    0    0    0  501  0.00000000000E+00  0.00000000000E+00 -0.38936582044E+03  0.38936582047E+03  0.50400001928E-02 0.  1.
    10030    2    1    2    0    0  0.00000000000E+00  0.00000000000E+00 -0.22974671062E+03  0.54898493037E+03  0.49859893977E+03 0.  0.
        1    1    3    3  502    0 -0.70324628899E+02 -0.85655822498E+02 -0.36075095759E+03  0.37739068190E+03  0.50400001928E-02 0.  1.
       -1    1    3    3    0  502  0.70324628899E+02  0.85655822498E+02  0.13100424697E+03  0.17159424847E+03  0.50400001928E-02 0. -1.
</event>
<event>
 5   0  0.3117389E-01  0.5052324E+03  0.7818609E-02  0.1012422E+00
       -2   -1    0    0    0  501  0.00000000000E+00  0.00000000000E+00  0.12656587676E+03  0.12656587679E+03  0.25500000920E-02 0. -1.
        2   -1    0    0  501    0  0.00000000000E+00  0.00000000000E+00 -0.50420329509E+03  0.50420329509E+03  0.25500000920E-02 0.  1.
    10030    2    1    2    0    0  0.00000000000E+00  0.00000000000E+00 -0.37763741833E+03  0.63076917188E+03  0.50523235098E+03 0.  0.
        4    1    3    3  502    0  0.83842459368E+02  0.20207082219E+03 -0.31139211924E+02  0.22098289208E+03  0.12699999809E+01 0. -1.
       -4    1    3    3    0  502 -0.83842459368E+02 -0.20207082219E+03 -0.34649820640E+03  0.40978627980E+03  0.12699999809E+01 0.  1.
</event>
<event>
 5   0  0.2013450E-01  0.5055088E+03  0.7818609E-02  0.1012351E+00
        1   -1    0    0  501    0  0.00000000000E+00  0.00000000000E+00  0.89749514028E+03  0.89749514030E+03  0.50400001928E-02 0.  1.
       -1   -1    0    0    0  501  0.00000000000E+00  0.00000000000E+00 -0.71181213093E+02  0.71181213271E+02  0.50400001928E-02 0. -1.
    10030    2    1    2    0    0  0.00000000000E+00  0.00000000000E+00  0.82631392719E+03  0.96867635357E+03  0.50550882455E+03 0.  0.
        4    1    3    3  502    0  0.24875048683E+03  0.28626397146E+02  0.34713964454E+03  0.42802315477E+03  0.12699999809E+01 0. -1.
       -4    1    3    3    0  502 -0.24875048683E+03 -0.28626397146E+02  0.47917428265E+03  0.54065319879E+03  0.12699999809E+01 0.  1.
</event>
<event>
 5   0  0.1292375E-01  0.4974960E+03  0.7818609E-02  0.1014435E+00
       -3   -1    0    0    0  501  0.00000000000E+00  0.00000000000E+00  0.31523727068E+02  0.31523888866E+02  0.10100000352E+00 0. -1.
        3   -1    0    0  501    0  0.00000000000E+00  0.00000000000E+00 -0.19628201829E+04  0.19628201855E+04  0.10100000352E+00 0.  1.
    10030    2    1    2    0    0  0.00000000000E+00  0.00000000000E+00 -0.19312964558E+04  0.19943440743E+04  0.49749601671E+03 0.  0.
        1    1    3    3  502    0 -0.18485564250E+02  0.17642585013E+03 -0.26660698345E+03  0.32022973055E+03  0.50400001928E-02 0.  1.
       -1    1    3    3    0  502  0.18485564250E+02 -0.17642585013E+03 -0.16646894723E+04  0.16741143438E+04  0.50400001928E-02 0. -1.
</event>
<event>
 5   0  0.3111146E-01  0.4975706E+03  0.7818609E-02  0.1014415E+00
       -2   -1    0    0    0  501  0.00000000000E+00  0.00000000000E+00  0.66732862507E+02  0.66732862555E+02  0.25500000920E-02 0. -1.
        2   -1    0    0  501    0  0.00000000000E+00  0.00000000000E+00 -0.92749099331E+03  0.92749099331E+03  0.25500000920E-02 0.  1.
    10030    2    1    2    0    0  0.00000000000E+00  0.00000000000E+00 -0.86075813080E+03  0.99422385587E+03  0.49757061392E+03 0.  0.
        1    1    3    3  502    0  0.84085681026E+02  0.99638045770E+02 -0.85376187253E+03  0.86365935237E+03  0.50400001928E-02 0.  1.
       -1    1    3    3    0  502 -0.84085681026E+02 -0.99638045770E+02 -0.69962582687E+01  0.13056450350E+03  0.50400001928E-02 0. -1.
</event>
<event>
 5   0  0.1984297E-01  0.4924981E+03  0.7818609E-02  0.1015756E+00
       -1   -1    0    0    0  501  0.00000000000E+00  0.00000000000E+00  0.23963970391E+03  0.23963970397E+03  0.50400001928E-02 0.  1.
        1   -1    0    0  501    0  0.00000000000E+00  0.00000000000E+00 -0.25304070229E+03  0.25304070234E+03  0.50400001928E-02 0. -1.
    10030    2    1    2    0    0  0.00000000000E+00  0.00000000000E+00 -0.13400998379E+02  0.49268040631E+03  0.49249811776E+03 0.  0.
        3    1    3    3  502    0 -0.20559612185E+03 -0.10106985874E+03 -0.97031801185E+02  0.24879723131E+03  0.10100000352E+00 0. -1.
       -3    1    3    3    0  502  0.20559612185E+03  0.10106985874E+03  0.83630802807E+02  0.24388317499E+03  0.10100000352E+00 0.  1.
</event>
<event>
 5   0  0.3178149E-01  0.4945598E+03  0.7818609E-02  0.1015209E+00
       -2   -1    0    0    0  501  0.00000000000E+00  0.00000000000E+00  0.75533593868E+02  0.75533593911E+02  0.25500000920E-02 0.  1.
        2   -1    0    0  501    0  0.00000000000E+00  0.00000000000E+00 -0.80953859919E+03  0.80953859920E+03  0.25500000920E-02 0. -1.
    10030    2    1    2    0    0  0.00000000000E+00  0.00000000000E+00 -0.73400500533E+03  0.88507219311E+03  0.49455984387E+03 0.  0.
        3    1    3    3  502    0 -0.15632356926E+03  0.11588047337E+03 -0.93934976913E+02  0.21607668200E+03  0.10100000352E+00 0.  1.
       -3    1    3    3    0  502  0.15632356926E+03 -0.11588047337E+03 -0.64007002841E+03  0.66899551111E+03  0.10100000352E+00 0. -1.
</event>
<event>
 5   0  0.3111146E-01  0.4392658E+03  0.7818609E-02  0.1030972E+00
        2   -1    0    0  501    0  0.00000000000E+00  0.00000000000E+00  0.45418600181E+03  0.45418600182E+03  0.25500000920E-02 0. -1.
       -2   -1    0    0    0  501  0.00000000000E+00  0.00000000000E+00 -0.10620894790E+03  0.10620894793E+03  0.25500000920E-02 0.  1.
    10030    2    1    2    0    0  0.00000000000E+00  0.00000000000E+00  0.34797705391E+03  0.56039494975E+03  0.43926583028E+03 0.  0.
        1    1    3    3  502    0  0.63551711621E+02  0.79416781831E+02 -0.74350502876E+02  0.12599143856E+03  0.50400001928E-02 0.  1.
       -1    1    3    3    0  502 -0.63551711621E+02 -0.79416781831E+02  0.42232755679E+03  0.43440351119E+03  0.50400001928E-02 0. -1.
</event>
<event>
 5   0  0.1984680E-01  0.4966340E+03  0.7818609E-02  0.1014661E+00
        1   -1    0    0  501    0  0.00000000000E+00  0.00000000000E+00  0.56058904949E+03  0.56058904951E+03  0.50400001928E-02 0.  1.
       -1   -1    0    0    0  501  0.00000000000E+00  0.00000000000E+00 -0.10999383937E+03  0.10999383948E+03  0.50400001928E-02 0. -1.
    10030    2    1    2    0    0  0.00000000000E+00  0.00000000000E+00  0.45059521012E+03  0.67058288900E+03  0.49663403793E+03 0.  0.
        5    1    3    3  502    0  0.75557837659E+02 -0.54617847497E+00 -0.94031325521E+02  0.12071978015E+03  0.46999998093E+01 0. -1.
       -5    1    3    3    0  502 -0.75557837659E+02  0.54617847497E+00  0.54462653564E+03  0.54986310884E+03  0.46999998093E+01 0.  1.
</event>
<event>
 5   0  0.2000612E-01  0.5012986E+03  0.7818609E-02  0.1013441E+00
        1   -1    0    0  501    0  0.00000000000E+00  0.00000000000E+00  0.89990122550E+03  0.89990122552E+03  0.50400001928E-02 0. -1.
       -1   -1    0    0    0  501  0.00000000000E+00  0.00000000000E+00 -0.69813296969E+02  0.69813297151E+02  0.50400001928E-02 0.  1.
    10030    2    1    2    0    0  0.00000000000E+00  0.00000000000E+00  0.83008792854E+03  0.96971452267E+03  0.50129860001E+03 0.  0.
        2    1    3    3  502    0  0.68476099180E+02  0.24018250856E+03  0.37407940367E+03  0.44979107798E+03  0.25500000920E-02 0.  1.
       -2    1    3    3    0  502 -0.68476099180E+02 -0.24018250856E+03  0.45600852487E+03  0.51992344469E+03  0.25500000920E-02 0. -1.
</event>
<event>
 5   0  0.3329246E-01  0.5052219E+03  0.7818609E-02  0.1012425E+00
        2   -1    0    0  501    0  0.00000000000E+00  0.00000000000E+00  0.59847232590E+03  0.59847232590E+03  0.25500000920E-02 0.  1.
       -2   -1    0    0    0  501  0.00000000000E+00  0.00000000000E+00 -0.10662528210E+03  0.10662528213E+03  0.25500000920E-02 0. -1.
    10030    2    1    2    0    0  0.00000000000E+00  0.00000000000E+00  0.49184704380E+03  0.70509760803E+03  0.50522185459E+03 0.  0.
        2    1    3    3  502    0 -0.22137434995E+02  0.19143421911E+03  0.47386354230E+03  0.51155037192E+03  0.25500000920E-02 0.  1.
       -2    1    3    3    0  502  0.22137434995E+02 -0.19143421911E+03  0.17983501495E+02  0.19354723611E+03  0.25500000920E-02 0. -1.
</event>
<event>
 5   0  0.3329246E-01  0.5020779E+03  0.7818609E-02  0.1013238E+00
       -2   -1    0    0    0  501  0.00000000000E+00  0.00000000000E+00  0.49102785340E+02  0.49102785407E+02  0.25500000920E-02 0.  1.
        2   -1    0    0  501    0  0.00000000000E+00  0.00000000000E+00 -0.12834414357E+04  0.12834414357E+04  0.25500000920E-02 0. -1.
    10030    2    1    2    0    0  0.00000000000E+00  0.00000000000E+00 -0.12343386504E+04  0.13325442211E+04  0.50207787986E+03 0.  0.
        2    1    3    3  502    0 -0.80022458685E+02  0.17557699470E+03 -0.10433889787E+04  0.10610803155E+04  0.25500000920E-02 0. -1.
       -2    1    3    3    0  502  0.80022458685E+02 -0.17557699470E+03 -0.19094967165E+03  0.27146390565E+03  0.25500000920E-02 0.  1.
</event>
<event>
 5   0  0.1967161E-01  0.5240857E+03  0.7818609E-02  0.1007677E+00
        1   -1    0    0  501    0  0.00000000000E+00  0.00000000000E+00  0.59569352476E+03  0.59569352478E+03  0.50400001928E-02 0. -1.
       -1   -1    0    0    0  501  0.00000000000E+00  0.00000000000E+00 -0.11527142764E+03  0.11527142775E+03  0.50400001928E-02 0.  1.
    10030    2    1    2    0    0  0.00000000000E+00  0.00000000000E+00  0.48042209712E+03  0.71096495253E+03  0.52408565362E+03 0.  0.
        1    1    3    3  502    0  0.18990149065E+03 -0.17338595332E+03  0.17182563578E+03  0.30927223299E+03  0.50400001928E-02 0.  1.
       -1    1    3    3    0  502 -0.18990149065E+03  0.17338595332E+03  0.30859646134E+03  0.40169271955E+03  0.50400001928E-02 0. -1.
</event>
<event>
 5   0  0.1292375E-01  0.3739150E+03  0.7818609E-02  0.1053206E+00
        4   -1    0    0  501    0  0.00000000000E+00  0.00000000000E+00  0.50629978981E+03  0.50630138264E+03  0.12699999809E+01 0.  1.
       -4   -1    0    0    0  501  0.00000000000E+00  0.00000000000E+00 -0.69028834610E+02  0.69040516420E+02  0.12699999809E+01 0. -1.
    10030    2    1    2    0    0  0.00000000000E+00  0.00000000000E+00  0.43727095520E+03  0.57534189906E+03  0.37391498038E+03 0.  0.
        5    1    3    3  502    0 -0.73069342277E+02 -0.12198071837E+03  0.40527245171E+03  0.42951865449E+03  0.46999998093E+01 0.  1.
       -5    1    3    3    0  502  0.73069342277E+02  0.12198071837E+03  0.31998503486E+02  0.14582324457E+03  0.46999998093E+01 0. -1.
</event>
<event>
 5   0  0.3111146E-01  0.6111158E+03  0.7818609E-02  0.9882609E-01
       -2   -1    0    0    0  501  0.00000000000E+00  0.00000000000E+00  0.23755816218E+03  0.23755816219E+03  0.25500000920E-02 0.  1.
        2   -1    0    0  501    0  0.00000000000E+00  0.00000000000E+00 -0.39302224875E+03  0.39302224876E+03  0.25500000920E-02 0. -1.
    10030    2    1    2    0    0  0.00000000000E+00  0.00000000000E+00 -0.15546408657E+03  0.63058041095E+03  0.61111584210E+03 0.  0.
        1    1    3    3  502    0  0.42777557256E+02 -0.31205314373E+02 -0.38825221708E+03  0.39184623916E+03  0.50400001928E-02 0. -1.
       -1    1    3    3    0  502 -0.42777557256E+02  0.31205314373E+02  0.23278813051E+03  0.23873417179E+03  0.50400001928E-02 0.  1.
</event>
<event>
 5   0  0.2013450E-01  0.4967687E+03  0.7818609E-02  0.1014626E+00
        1   -1    0    0  501    0  0.00000000000E+00  0.00000000000E+00  0.59131794211E+03  0.59131794213E+03  0.50400001928E-02 0. -1.
       -1   -1    0    0    0  501  0.00000000000E+00  0.00000000000E+00 -0.10433438535E+03  0.10433438547E+03  0.50400001928E-02 0.  1.
    10030    2    1    2    0    0  0.00000000000E+00  0.00000000000E+00  0.48698355676E+03  0.69565232761E+03  0.49676873528E+03 0.  0.
        4    1    3    3  502    0 -0.15313475413E+03 -0.13244457797E+03  0.44497433252E+03  0.48887175073E+03  0.12699999809E+01 0. -1.
       -4    1    3    3    0  502  0.15313475413E+03  0.13244457797E+03  0.42009224238E+02  0.20678057688E+03  0.12699999809E+01 0.  1.
</event>
<event>
 5   0  0.3111146E-01  0.5268664E+03  0.7818609E-02  0.1006995E+00
       -2   -1    0    0    0  501  0.00000000000E+00  0.00000000000E+00  0.91804485053E+02  0.91804485088E+02  0.25500000920E-02 0. -1.
        2   -1    0    0  501    0  0.00000000000E+00  0.00000000000E+00 -0.75592208486E+03  0.75592208486E+03  0.25500000920E-02 0.  1.
    10030    2    1    2    0    0  0.00000000000E+00  0.00000000000E+00 -0.66411759980E+03  0.84772656995E+03  0.52686635025E+03 0.  0.
        1    1    3    3  502    0  0.87933122583E+02 -0.53858974779E+02 -0.72210051900E+03  0.72942592686E+03  0.50400001928E-02 0.  1.
       -1    1    3    3    0  502 -0.87933122583E+02  0.53858974779E+02  0.57982919195E+02  0.11830064309E+03  0.50400001928E-02 0. -1.
</event>
<event>
 5   0  0.1967161E-01  0.5173214E+03  0.7818609E-02  0.1009354E+00
       -1   -1    0    0    0  501  0.00000000000E+00  0.00000000000E+00  0.68523776385E+02  0.68523776570E+02  0.50400001928E-02 0. -1.
        1   -1    0    0  501    0  0.00000000000E+00  0.00000000000E+00 -0.97638171513E+03  0.97638171514E+03  0.50400001928E-02 0.  1.
    10030    2    1    2    0    0  0.00000000000E+00  0.00000000000E+00 -0.90785793875E+03  0.10449054917E+04  0.51732141814E+03 0.  0.
        1    1    3    3  502    0 -0.15159936019E+03  0.87105340793E+02 -0.83894876118E+03  0.85697417133E+03  0.50400001928E-02 0.  1.
       -1    1    3    3    0  502  0.15159936019E+03 -0.87105340793E+02 -0.68909177563E+02  0.18793132039E+03  0.50400001928E-02 0. -1.
</event>
<event>
 5   0  0.3117389E-01  0.5056611E+03  0.7818609E-02  0.1012312E+00
       -2   -1    0    0    0  501  0.00000000000E+00  0.00000000000E+00  0.51153691597E+02  0.51153691661E+02  0.25500000920E-02 0.  1.
        2   -1    0    0  501    0  0.00000000000E+00  0.00000000000E+00 -0.12496319135E+04  0.12496319135E+04  0.25500000920E-02 0. -1.
    10030    2    1    2    0    0  0.00000000000E+00  0.00000000000E+00 -0.11984782219E+04  0.13007856051E+04  0.50566109423E+03 0.  0.
        4    1    3    3  502    0  0.17473766892E+03  0.57306965086E+01 -0.12942027672E+03  0.21752543471E+03  0.12699999809E+01 0.  1.
       -4    1    3    3    0  502 -0.17473766892E+03 -0.57306965086E+01 -0.10690579451E+04  0.10832601704E+04  0.12699999809E+01 0. -1.
</event>
<event>
 5   0  0.1984680E-01  0.4948216E+03  0.7818609E-02  0.1015139E+00
        1   -1    0    0  501    0  0.00000000000E+00  0.00000000000E+00  0.98830616940E+03  0.98830616941E+03  0.50400001928E-02 0.  1.
       -1   -1    0    0    0  501  0.00000000000E+00  0.00000000000E+00 -0.61936377112E+02  0.61936377317E+02  0.50400001928E-02 0. -1.
    10030    2    1    2    0    0  0.00000000000E+00  0.00000000000E+00  0.92636979228E+03  0.10502425467E+04  0.49482159906E+03 0.  0.
        5    1    3    3  502    0 -0.10136688614E+03 -0.16751654999E+03  0.14232730498E+03  0.24210781042E+03  0.46999998093E+01 0. -1.
       -5    1    3    3    0  502  0.10136688614E+03  0.16751654999E+03  0.78404248731E+03  0.80813473631E+03  0.46999998093E+01 0.  1.
</event>
<event>
 5   0  0.3178149E-01  0.4977024E+03  0.7818609E-02  0.1014380E+00
       -2   -1    0    0    0  501  0.00000000000E+00  0.00000000000E+00  0.25032410842E+03  0.25032410843E+03  0.25500000920E-02 0. -1.
        2   -1    0    0  501    0  0.00000000000E+00  0.00000000000E+00 -0.24738695859E+03  0.24738695860E+03  0.25500000920E-02 0.  1.
    10030    2    1    2    0    0  0.00000000000E+00  0.00000000000E+00  0.29371498302E+01  0.49771106703E+03  0.49770240043E+03 0.  0.
        3    1    3    3  502    0 -0.95972408146E+02 -0.14794707414E+03 -0.17411315366E+03  0.24781937041E+03  0.10100000352E+00 0. -1.
       -3    1    3    3    0  502  0.95972408146E+02  0.14794707414E+03  0.17705030349E+03  0.24989169662E+03  0.10100000352E+00 0.  1.
</event>
<event>
 5   0  0.3329246E-01  0.4981743E+03  0.7818609E-02  0.1014257E+00
        2   -1    0    0  501    0  0.00000000000E+00  0.00000000000E+00  0.55721106794E+03  0.55721106795E+03  0.25500000920E-02 0. -1.
       -2   -1    0    0    0  501  0.00000000000E+00  0.00000000000E+00 -0.11134812242E+03  0.11134812245E+03  0.25500000920E-02 0.  1.
    10030    2    1    2    0    0  0.00000000000E+00  0.00000000000E+00  0.44586294553E+03  0.66855919040E+03  0.49817429166E+03 0.  0.
        2    1    3    3  502    0  0.11233121116E+03  0.11509567755E+03  0.47819418070E+03  0.50451460876E+03  0.25500000920E-02 0. -1.
       -2    1    3    3    0  502 -0.11233121116E+03 -0.11509567755E+03 -0.32331235172E+02  0.16404458164E+03  0.25500000920E-02 0.  1.
</event>
<event>
 5   0  0.3111146E-01  0.4459279E+03  0.7818609E-02  0.1028943E+00
       -2   -1    0    0    0  501  0.00000000000E+00  0.00000000000E+00  0.46443272696E+02  0.46443272766E+02  0.25500000920E-02 0. -1.
        2   -1    0    0  501    0  0.00000000000E+00  0.00000000000E+00 -0.10704007502E+04  0.10704007502E+04  0.25500000920E-02 0.  1.
    10030    2    1    2    0    0  0.00000000000E+00  0.00000000000E+00 -0.10239574775E+04  0.11168440230E+04  0.44592785953E+03 0.  0.
        1    1    3    3  502    0  0.14066492043E+03 -0.31264576629E+02 -0.85847518152E+02  0.16773160104E+03  0.50400001928E-02 0. -1.
       -1    1    3    3    0  502 -0.14066492043E+03  0.31264576629E+02 -0.93810995936E+03  0.94911242193E+03  0.50400001928E-02 0.  1.
</event>
<event>
 5   0  0.2000612E-01  0.5068677E+03  0.7818609E-02  0.1012002E+00
        1   -1    0    0  501    0  0.00000000000E+00  0.00000000000E+00  0.64443111133E+03  0.64443111135E+03  0.50400001928E-02 0. -1.
       -1   -1    0    0    0  501  0.00000000000E+00  0.00000000000E+00 -0.99667329694E+02  0.99667329821E+02  0.50400001928E-02 0.  1.
    10030    2    1    2    0    0  0.00000000000E+00  0.00000000000E+00  0.54476378163E+03  0.74409844117E+03  0.50686774643E+03 0.  0.
        2    1    3    3  502    0  0.18851360884E+03  0.16510979467E+03  0.32789804945E+03  0.41269329514E+03  0.25500000920E-02 0. -1.
       -2    1    3    3    0  502 -0.18851360884E+03 -0.16510979467E+03  0.21686573218E+03  0.33140514603E+03  0.25500000920E-02 0.  1.
</event>
<event>
 5   0  0.3329246E-01  0.5504702E+03  0.7818609E-02  0.1001385E+00
       -2   -1    0    0    0  501  0.00000000000E+00  0.00000000000E+00  0.14935788546E+03  0.14935788549E+03  0.25500000920E-02 0.  1.
        2   -1    0    0  501    0  0.00000000000E+00  0.00000000000E+00 -0.50720024775E+03  0.50720024776E+03  0.25500000920E-02 0. -1.
    10030    2    1    2    0    0  0.00000000000E+00  0.00000000000E+00 -0.35784236229E+03  0.65655813325E+03  0.55047018637E+03 0.  0.
        2    1    3    3  502    0  0.18143414687E+03 -0.20149172434E+03 -0.12250790857E+03  0.29753227102E+03  0.25500000920E-02 0.  1.
       -2    1    3    3    0  502 -0.18143414687E+03  0.20149172434E+03 -0.23533445372E+03  0.35902586222E+03  0.25500000920E-02 0. -1.
</event>
<event>
 5   0  0.1984297E-01  0.4982111E+03  0.7818609E-02  0.1014247E+00
        1   -1    0    0  501    0  0.00000000000E+00  0.00000000000E+00  0.22530449856E+03  0.22530449861E+03  0.50400001928E-02 0.  1.
       -1   -1    0    0    0  501  0.00000000000E+00  0.00000000000E+00 -0.27542088956E+03  0.27542088960E+03  0.50400001928E-02 0. -1.
    10030    2    1    2    0    0  0.00000000000E+00  0.00000000000E+00 -0.50116391001E+02  0.50072538821E+03  0.49821106145E+03 0.  0.
        3    1    3    3  502    0 -0.35440280259E+01  0.10235943041E+03 -0.25328025378E+03  0.27320488701E+03  0.10100000352E+00 0. -1.
       -3    1    3    3    0  502  0.35440280259E+01 -0.10235943041E+03  0.20316386278E+03  0.22752050121E+03  0.10100000352E+00 0.  1.
</event>
<event>
 5   0  0.2000612E-01  0.5121550E+03  0.7818609E-02  0.1010654E+00
        1   -1    0    0  501    0  0.00000000000E+00  0.00000000000E+00  0.16057577970E+03  0.16057577978E+03  0.50400001928E-02 0.  1.
       -1   -1    0    0    0  501  0.00000000000E+00  0.00000000000E+00 -0.40837848109E+03  0.40837848112E+03  0.50400001928E-02 0. -1.
    10030    2    1    2    0    0  0.00000000000E+00  0.00000000000E+00 -0.24780270139E+03  0.56895426089E+03  0.51215502748E+03 0.  0.
        2    1    3    3  502    0 -0.20202700803E+03 -0.85082031913E+02  0.23148853406E+02  0.22043079084E+03  0.25500000920E-02 0.  1.
       -2    1    3    3    0  502  0.20202700803E+03  0.85082031913E+02 -0.27095155479E+03  0.34852347006E+03  0.25500000920E-02 0. -1.
</event>
<event>
 5   0  0.2000612E-01  0.5119581E+03  0.7818609E-02  0.1010704E+00
       -1   -1    0    0    0  501  0.00000000000E+00  0.00000000000E+00  0.10496500097E+03  0.10496500110E+03  0.50400001928E-02 0.  1.
        1   -1    0    0  501    0  0.00000000000E+00  0.00000000000E+00 -0.62425830128E+03  0.62425830130E+03  0.50400001928E-02 0. -1.
    10030    2    1    2    0    0  0.00000000000E+00  0.00000000000E+00 -0.51929330031E+03  0.72922330240E+03  0.51195809693E+03 0.  0.
        2    1    3    3  502    0  0.19138059915E+03 -0.79247297680E+02 -0.45427134315E+02  0.21206200145E+03  0.25500000920E-02 0.  1.
       -2    1    3    3    0  502 -0.19138059915E+03  0.79247297680E+02 -0.47386616599E+03  0.51716130095E+03  0.25500000920E-02 0. -1.
</event>
<event>
 5   0  0.1984680E-01  0.4916407E+03  0.7818609E-02  0.1015984E+00
       -1   -1    0    0    0  501  0.00000000000E+00  0.00000000000E+00  0.49433387980E+03  0.49433387983E+03  0.50400001928E-02 0. -1.
        1   -1    0    0  501    0  0.00000000000E+00  0.00000000000E+00 -0.12224056483E+03  0.12224056494E+03  0.50400001928E-02 0.  1.
    10030    2    1    2    0    0  0.00000000000E+00  0.00000000000E+00  0.37209331497E+03  0.61657444476E+03  0.49164073355E+03 0.  0.
        5    1    3    3  502    0  0.43297331726E+02  0.23704512629E+03  0.24671932488E+03  0.34490225586E+03  0.46999998093E+01 0. -1.
       -5    1    3    3    0  502 -0.43297331726E+02 -0.23704512629E+03  0.12537399009E+03  0.27167218890E+03  0.46999998093E+01 0.  1.
</event>
<event>
 5   0  0.3178149E-01  0.4878704E+03  0.7818609E-02  0.1016994E+00
       -2   -1    0    0    0  501  0.00000000000E+00  0.00000000000E+00  0.17519942175E+03  0.17519942177E+03  0.25500000920E-02 0. -1.
        2   -1    0    0  501    0  0.00000000000E+00  0.00000000000E+00 -0.33963797278E+03  0.33963797279E+03  0.25500000920E-02 0.  1.
    10030    2    1    2    0    0  0.00000000000E+00  0.00000000000E+00 -0.16443855102E+03  0.51483739456E+03  0.48787037804E+03 0.  0.
        3    1    3    3  502    0  0.58649312522E+02 -0.90708483059E+01 -0.33190354016E+03  0.33716760271E+03  0.10100000352E+00 0.  1.
       -3    1    3    3    0  502 -0.58649312522E+02  0.90708483059E+01  0.16746498913E+03  0.17766979184E+03  0.10100000352E+00 0. -1.
</event>
<event>
 5   0  0.3117389E-01  0.5085717E+03  0.7818609E-02  0.1011565E+00
       -2   -1    0    0    0  501  0.00000000000E+00  0.00000000000E+00  0.68180928310E+02  0.68180928357E+02  0.25500000920E-02 0.  1.
        2   -1    0    0  501    0  0.00000000000E+00  0.00000000000E+00 -0.94837816473E+03  0.94837816473E+03  0.25500000920E-02 0. -1.
    10030    2    1    2    0    0  0.00000000000E+00  0.00000000000E+00 -0.88019723642E+03  0.10165590931E+04  0.50857174002E+03 0.  0.
        4    1    3    3  502    0 -0.19558441239E+03  0.13915530007E+03 -0.27235904444E+03  0.36304066149E+03  0.12699999809E+01 0.  1.
       -4    1    3    3    0  502  0.19558441239E+03 -0.13915530007E+03 -0.60783819198E+03  0.65351843160E+03  0.12699999809E+01 0. -1.
</event>
<event>
 5   0  0.3178149E-01  0.5021757E+03  0.7818609E-02  0.1013213E+00
        2   -1    0    0  501    0  0.00000000000E+00  0.00000000000E+00  0.66856008914E+03  0.66856008915E+03  0.25500000920E-02 0.  1.
       -2   -1    0    0    0  501  0.00000000000E+00  0.00000000000E+00 -0.94299851641E+02  0.94299851675E+02  0.25500000920E-02 0. -1.
    10030    2    1    2    0    0  0.00000000000E+00  0.00000000000E+00  0.57426023750E+03  0.76285994082E+03  0.50217573511E+03 0.  0.
        3    1    3    3  502    0 -0.91986495945E+02 -0.12375643001E+03  0.58815897753E+03  0.60803631672E+03  0.10100000352E+00 0.  1.
       -3    1    3    3    0  502  0.91986495945E+02  0.12375643001E+03 -0.13898740027E+02  0.15482362410E+03  0.10100000352E+00 0. -1.
</event>
<event>
 5   0  0.1292375E-01  0.4912345E+03  0.7818609E-02  0.1016092E+00
       -4   -1    0    0    0  501  0.00000000000E+00  0.00000000000E+00  0.69469925607E+02  0.69481533257E+02  0.12699999809E+01 0.  1.
        4   -1    0    0  501    0  0.00000000000E+00  0.00000000000E+00 -0.86831749009E+03  0.86831841884E+03  0.12699999809E+01 0. -1.
    10030    2    1    2    0    0  0.00000000000E+00  0.00000000000E+00 -0.79884756448E+03  0.93779995210E+03  0.49123448461E+03 0.  0.
        5    1    3    3  502    0 -0.14710046178E+03  0.19651256040E+03 -0.38592362595E+03  0.45740011731E+03  0.46999998093E+01 0.  1.
       -5    1    3    3    0  502  0.14710046178E+03 -0.19651256040E+03 -0.41292393854E+03  0.48039983479E+03  0.46999998093E+01 0. -1.
</event>
<event>
 5   0  0.1292375E-01  0.5011393E+03  0.7818609E-02  0.1013482E+00
       -4   -1    0    0    0  501  0.00000000000E+00  0.00000000000E+00  0.73194888610E+02  0.73205905626E+02  0.12699999809E+01 0. -1.
        4   -1    0    0  501    0  0.00000000000E+00  0.00000000000E+00 -0.85770464565E+03  0.85770558589E+03  0.12699999809E+01 0.  1.
    10030    2    1    2    0    0  0.00000000000E+00  0.00000000000E+00 -0.78450975704E+03  0.93091149152E+03  0.50113934803E+03 0.  0.
        4    1    3    3  502    0 -0.16236517478E+03  0.18902518847E+03 -0.34343958855E+03  0.42431749403E+03  0.12699999809E+01 0. -1.
       -4    1    3    3    0  502  0.16236517478E+03 -0.18902518847E+03 -0.44107016849E+03  0.50659399749E+03  0.12699999809E+01 0.  1.
</event>
<event>
 5   0  0.1984680E-01  0.5106030E+03  0.7818609E-02  0.1011048E+00
       -1   -1    0    0    0  501  0.00000000000E+00  0.00000000000E+00  0.51221105162E+02  0.51221105410E+02  0.50400001928E-02 0.  1.
        1   -1    0    0  501    0  0.00000000000E+00  0.00000000000E+00 -0.12725000986E+04  0.12725000986E+04  0.50400001928E-02 0. -1.
    10030    2    1    2    0    0  0.00000000000E+00  0.00000000000E+00 -0.12212789934E+04  0.13237212040E+04  0.51060302208E+03 0.  0.
        5    1    3    3  502    0 -0.18388447938E+03  0.11082966498E+03 -0.25272835248E+03  0.33164804618E+03  0.46999998093E+01 0.  1.
       -5    1    3    3    0  502  0.18388447938E+03 -0.11082966498E+03 -0.96855064095E+03  0.99207315783E+03  0.46999998093E+01 0. -1.
</event>
<event>
 5   0  0.1984680E-01  0.4942276E+03  0.7818609E-02  0.1015297E+00
       -1   -1    0    0    0  501  0.00000000000E+00  0.00000000000E+00  0.13691308168E+03  0.13691308177E+03  0.50400001928E-02 0. -1.
        1   -1    0    0  501    0  0.00000000000E+00  0.00000000000E+00 -0.44601459098E+03  0.44601459101E+03  0.50400001928E-02 0.  1.
    10030    2    1    2    0    0  0.00000000000E+00  0.00000000000E+00 -0.30910150930E+03  0.58292767278E+03  0.49422760814E+03 0.  0.
        5    1    3    3  502    0  0.20459431297E+03  0.96470647607E+02 -0.27177463719E+03  0.35362262677E+03  0.46999998093E+01 0.  1.
       -5    1    3    3    0  502 -0.20459431297E+03 -0.96470647607E+02 -0.37326872117E+02  0.22930504601E+03  0.46999998093E+01 0. -1.
</event>
<event>
 5   0  0.2013450E-01  0.4642813E+03  0.7818609E-02  0.1023547E+00
       -1   -1    0    0    0  501  0.00000000000E+00  0.00000000000E+00  0.10056967593E+03  0.10056967606E+03  0.50400001928E-02 0. -1.
        1   -1    0    0  501    0  0.00000000000E+00  0.00000000000E+00 -0.53584015435E+03  0.53584015437E+03  0.50400001928E-02 0.  1.
    10030    2    1    2    0    0  0.00000000000E+00  0.00000000000E+00 -0.43527047842E+03  0.63640983043E+03  0.46428125408E+03 0.  0.
        4    1    3    3  502    0  0.16892974241E+03  0.15840484199E+03 -0.19560480964E+03  0.30313727302E+03  0.12699999809E+01 0.  1.
       -4    1    3    3    0  502 -0.16892974241E+03 -0.15840484199E+03 -0.23966566877E+03  0.33327255741E+03  0.12699999809E+01 0. -1.
</event>
<event>
 5   0  0.1967161E-01  0.4820984E+03  0.7818609E-02  0.1018560E+00
       -1   -1    0    0    0  501  0.00000000000E+00  0.00000000000E+00  0.42107101187E+02  0.42107101489E+02  0.50400001928E-02 0. -1.
        1   -1    0    0  501    0  0.00000000000E+00  0.00000000000E+00 -0.13799269442E+04  0.13799269442E+04  0.50400001928E-02 0.  1.
    10030    2    1    2    0    0  0.00000000000E+00  0.00000000000E+00 -0.13378198430E+04  0.14220340457E+04  0.48209842850E+03 0.  0.
        1    1    3    3  502    0 -0.17932613266E+03  0.37852351256E+02 -0.11307396786E+04  0.11454967844E+04  0.50400001928E-02 0.  1.
       -1    1    3    3    0  502  0.17932613266E+03 -0.37852351256E+02 -0.20708016439E+03  0.27653726125E+03  0.50400001928E-02 0. -1.
</event>
<event>
 5   0  0.3117389E-01  0.5165391E+03  0.7818609E-02  0.1009550E+00
       -2   -1    0    0    0  501  0.00000000000E+00  0.00000000000E+00  0.15797947927E+03  0.15797947930E+03  0.25500000920E-02 0. -1.
        2   -1    0    0  501    0  0.00000000000E+00  0.00000000000E+00 -0.42222679194E+03  0.42222679195E+03  0.25500000920E-02 0.  1.
    10030    2    1    2    0    0  0.00000000000E+00  0.00000000000E+00 -0.26424731266E+03  0.58020627124E+03  0.51653913205E+03 0.  0.
        4    1    3    3  502    0 -0.25036686533E+03  0.62075608664E+01 -0.61265315886E+02  0.25783163672E+03  0.12699999809E+01 0. -1.
       -4    1    3    3    0  502  0.25036686533E+03 -0.62075608664E+01 -0.20298199678E+03  0.32237463452E+03  0.12699999809E+01 0.  1.
</event>
<event>
 5   0  0.3187123E-01  0.4506114E+03  0.7818609E-02  0.1027540E+00
        2   -1    0    0  501    0  0.00000000000E+00  0.00000000000E+00  0.15524454040E+04  0.15524454040E+04  0.25500000920E-02 0.  1.
       -2   -1    0    0    0  501  0.00000000000E+00  0.00000000000E+00 -0.32698513289E+02  0.32698513388E+02  0.25500000920E-02 0. -1.
    10030    2    1    2    0    0  0.00000000000E+00  0.00000000000E+00  0.15197468907E+04  0.15851439174E+04  0.45061139246E+03 0.  0.
        5    1    3    3  502    0 -0.68492610681E+02  0.20617004106E+03  0.96926878553E+03  0.99332844123E+03  0.46999998093E+01 0.  1.
       -5    1    3    3    0  502  0.68492610681E+02 -0.20617004106E+03  0.55047810521E+03  0.59181547620E+03  0.46999998093E+01 0. -1.
</event>
<event>
 5   0  0.1984680E-01  0.5139280E+03  0.7818609E-02  0.1010206E+00
        1   -1    0    0  501    0  0.00000000000E+00  0.00000000000E+00  0.11770487070E+04  0.11770487070E+04  0.50400001928E-02 0. -1.
       -1   -1    0    0    0  501  0.00000000000E+00  0.00000000000E+00 -0.56098356433E+02  0.56098356659E+02  0.50400001928E-02 0.  1.
    10030    2    1    2    0    0  0.00000000000E+00  0.00000000000E+00  0.11209503506E+04  0.12331470637E+04  0.51392800294E+03 0.  0.
        5    1    3    3  502    0 -0.11274305391E+03  0.19344559103E+02  0.11124708039E+04  0.11183463630E+04  0.46999998093E+01 0. -1.
       -5    1    3    3    0  502  0.11274305391E+03 -0.19344559103E+02  0.84795467329E+01  0.11480070071E+03  0.46999998093E+01 0.  1.
</event>
<event>
 5   0  0.3111146E-01  0.4834910E+03  0.7818609E-02  0.1018180E+00
        2   -1    0    0  501    0  0.00000000000E+00  0.00000000000E+00  0.10792323272E+04  0.10792323272E+04  0.25500000920E-02 0.  1.
       -2   -1    0    0    0  501  0.00000000000E+00  0.00000000000E+00 -0.54150416124E+02  0.54150416184E+02  0.25500000920E-02 0. -1.
    10030    2    1    2    0    0  0.00000000000E+00  0.00000000000E+00  0.10250819111E+04  0.11333827434E+04  0.48349097054E+03 0.  0.
        1    1    3    3  502    0  0.35387381321E+02 -0.23022058298E+03  0.36085523834E+03  0.42950004266E+03  0.50400001928E-02 0. -1.
       -1    1    3    3    0  502 -0.35387381321E+02  0.23022058298E+03  0.66422667273E+03  0.70388270072E+03  0.50400001928E-02 0.  1.
</event>
<event>
 5   0  0.3329246E-01  0.4802814E+03  0.7818609E-02  0.1019058E+00
       -2   -1    0    0    0  501  0.00000000000E+00  0.00000000000E+00  0.55570513644E+03  0.55570513645E+03  0.25500000920E-02 0.  1.
        2   -1    0    0  501    0  0.00000000000E+00  0.00000000000E+00 -0.10377366823E+03  0.10377366827E+03  0.25500000920E-02 0. -1.
    10030    2    1    2    0    0  0.00000000000E+00  0.00000000000E+00  0.45193146821E+03  0.65947880471E+03  0.48028141949E+03 0.  0.
        2    1    3    3  502    0 -0.15013246187E+03  0.51795858015E+02  0.47329693264E+03  0.49923196359E+03  0.25500000920E-02 0.  1.
       -2    1    3    3    0  502  0.15013246187E+03 -0.51795858015E+02 -0.21365464432E+02  0.16024684113E+03  0.25500000920E-02 0. -1.
</event>
<event>
 5   0  0.3329246E-01  0.5009731E+03  0.7818609E-02  0.1013525E+00
       -2   -1    0    0    0  501  0.00000000000E+00  0.00000000000E+00  0.87537765875E+03  0.87537765876E+03  0.25500000920E-02 0. -1.
        2   -1    0    0  501    0  0.00000000000E+00  0.00000000000E+00 -0.71675937047E+02  0.71675937092E+02  0.25500000920E-02 0.  1.
    10030    2    1    2    0    0  0.00000000000E+00  0.00000000000E+00  0.80370172170E+03  0.94705359585E+03  0.50097310900E+03 0.  0.
        2    1    3    3  502    0  0.22095762704E+01 -0.23435436782E+03  0.56898717109E+03  0.61536432527E+03  0.25500000920E-02 0.  1.
       -2    1    3    3    0  502 -0.22095762704E+01  0.23435436782E+03  0.23471455062E+03  0.33168927058E+03  0.25500000920E-02 0. -1.
</event>
<event>
 5   0  0.2013450E-01  0.5054610E+03  0.7818609E-02  0.1012363E+00
       -1   -1    0    0    0  501  0.00000000000E+00  0.00000000000E+00  0.25522328297E+03  0.25522328302E+03  0.50400001928E-02 0.  1.
        1   -1    0    0  501    0  0.00000000000E+00  0.00000000000E+00 -0.25026204840E+03  0.25026204845E+03  0.50400001928E-02 0. -1.
    10030    2    1    2    0    0  0.00000000000E+00  0.00000000000E+00  0.49612345700E+01  0.50548533148E+03  0.50546098414E+03 0.  0.
        4    1    3    3  502    0  0.27871316751E+02 -0.11594112095E+03  0.22531849185E+03  0.25492977365E+03  0.12699999809E+01 0.  1.
       -4    1    3    3    0  502 -0.27871316751E+02  0.11594112095E+03 -0.22035725728E+03  0.25055555783E+03  0.12699999809E+01 0. -1.
</event>
<event>
 5   0  0.1967161E-01  0.5071212E+03  0.7818609E-02  0.1011937E+00
        1   -1    0    0  501    0  0.00000000000E+00  0.00000000000E+00  0.12228611616E+04  0.12228611616E+04  0.50400001928E-02 0.  1.
       -1   -1    0    0    0  501  0.00000000000E+00  0.00000000000E+00 -0.52575859598E+02  0.52575859839E+02  0.50400001928E-02 0. -1.
    10030    2    1    2    0    0  0.00000000000E+00  0.00000000000E+00  0.11702853020E+04  0.12754370214E+04  0.50712119617E+03 0.  0.
        1    1    3    3  502    0  0.12985645136E+03 -0.20222707321E+03  0.78845000922E+03  0.82426446252E+03  0.50400001928E-02 0.  1.
       -1    1    3    3    0  502 -0.12985645136E+03  0.20222707321E+03  0.38183529277E+03  0.45117255893E+03  0.50400001928E-02 0. -1.
</event>
<event>
 5   0  0.3187123E-01  0.5303721E+03  0.7818609E-02  0.1006142E+00
       -2   -1    0    0    0  501  0.00000000000E+00  0.00000000000E+00  0.45446536788E+02  0.45446536859E+02  0.25500000920E-02 0. -1.
        2   -1    0    0  501    0  0.00000000000E+00  0.00000000000E+00 -0.15473926766E+04  0.15473926766E+04  0.25500000920E-02 0.  1.
    10030    2    1    2    0    0  0.00000000000E+00  0.00000000000E+00 -0.15019461398E+04  0.15928392135E+04  0.53037208924E+03 0.  0.
        5    1    3    3  502    0 -0.28981412868E+02 -0.11830230975E+03 -0.14582759769E+04  0.14633612929E+04  0.46999998093E+01 0.  1.
       -5    1    3    3    0  502  0.28981412868E+02  0.11830230975E+03 -0.43670162915E+02  0.12947792055E+03  0.46999998093E+01 0. -1.
</event>
<event>
 5   0  0.1984680E-01  0.4995762E+03  0.7818609E-02  0.1013890E+00
       -1   -1    0    0    0  501  0.00000000000E+00  0.00000000000E+00  0.10827616806E+03  0.10827616818E+03  0.50400001928E-02 0.  1.
        1   -1    0    0  501    0  0.00000000000E+00  0.00000000000E+00 -0.57624958618E+03  0.57624958620E+03  0.50400001928E-02 0. -1.
    10030    2    1    2    0    0  0.00000000000E+00  0.00000000000E+00 -0.46797341811E+03  0.68452575438E+03  0.49957620875E+03 0.  0.
        5    1    3    3  502    0 -0.60418329132E+02  0.94535496562E+02  0.71741753182E+02  0.13325278141E+03  0.46999998093E+01 0.  1.
       -5    1    3    3    0  502  0.60418329132E+02 -0.94535496562E+02 -0.53971517129E+03  0.55127297297E+03  0.46999998093E+01 0. -1.
</event>
<event>
 5   0  0.3329246E-01  0.4931687E+03  0.7818609E-02  0.1015578E+00
       -2   -1    0    0    0  501  0.00000000000E+00  0.00000000000E+00  0.13781472594E+03  0.13781472597E+03  0.25500000920E-02 0.  1.
        2   -1    0    0  501    0  0.00000000000E+00  0.00000000000E+00 -0.44119989998E+03  0.44119989999E+03  0.25500000920E-02 0. -1.
    10030    2    1    2    0    0  0.00000000000E+00  0.00000000000E+00 -0.30338517403E+03  0.57901462595E+03  0.49316870668E+03 0.  0.
        2    1    3    3  502    0 -0.23929543931E+03  0.59089771374E+02 -0.15998911384E+03  0.29385442810E+03  0.25500000920E-02 0. -1.
       -2    1    3    3    0  502  0.23929543931E+03 -0.59089771374E+02 -0.14339606019E+03  0.28516019786E+03  0.25500000920E-02 0.  1.
</event>
<event>
 5   0  0.3117389E-01  0.5028985E+03  0.7818609E-02  0.1013025E+00
        2   -1    0    0  501    0  0.00000000000E+00  0.00000000000E+00  0.18144100174E+04  0.18144100174E+04  0.25500000920E-02 0.  1.
       -2   -1    0    0    0  501  0.00000000000E+00  0.00000000000E+00 -0.34846986066E+02  0.34846986159E+02  0.25500000920E-02 0. -1.
    10030    2    1    2    0    0  0.00000000000E+00  0.00000000000E+00  0.17795630313E+04  0.18492570036E+04  0.50289848153E+03 0.  0.
        4    1    3    3  502    0  0.62255749352E+02 -0.14748028481E+03  0.16028060750E+04  0.16107809099E+04  0.12699999809E+01 0.  1.
       -4    1    3    3    0  502 -0.62255749352E+02  0.14748028481E+03  0.17675695632E+03  0.23847609364E+03  0.12699999809E+01 0. -1.
</event>
<event>
 5   0  0.2013450E-01  0.5018970E+03  0.7818609E-02  0.1013285E+00
       -1   -1    0    0    0  501  0.00000000000E+00  0.00000000000E+00  0.89440385632E+03  0.89440385634E+03  0.50400001928E-02 0. -1.
        1   -1    0    0  501    0  0.00000000000E+00  0.00000000000E+00 -0.70410200537E+02  0.70410200718E+02  0.50400001928E-02 0.  1.
    10030    2    1    2    0    0  0.00000000000E+00  0.00000000000E+00  0.82399365579E+03  0.96481405706E+03  0.50189702123E+03 0.  0.
        4    1    3    3  502    0  0.89891232773E+02 -0.20700201879E+03  0.62295738418E+03  0.66257662570E+03  0.12699999809E+01 0. -1.
       -4    1    3    3    0  502 -0.89891232773E+02  0.20700201879E+03  0.20103627161E+03  0.30223743136E+03  0.12699999809E+01 0.  1.
</event>
<event>
 5   0  0.3187123E-01  0.5241594E+03  0.7818609E-02  0.1007658E+00
       -2   -1    0    0    0  501  0.00000000000E+00  0.00000000000E+00  0.35846368678E+02  0.35846368768E+02  0.25500000920E-02 0. -1.
        2   -1    0    0  501    0  0.00000000000E+00  0.00000000000E+00 -0.19161150375E+04  0.19161150375E+04  0.25500000920E-02 0.  1.
    10030    2    1    2    0    0  0.00000000000E+00  0.00000000000E+00 -0.18802686688E+04  0.19519614062E+04  0.52415938855E+03 0.  0.
        5    1    3    3  502    0  0.23901591340E+03  0.10288414971E+03 -0.82535819597E+03  0.86542012733E+03  0.46999998093E+01 0.  1.
       -5    1    3    3    0  502 -0.23901591340E+03 -0.10288414971E+03 -0.10549104728E+04  0.10865412789E+04  0.46999998093E+01 0. -1.
</event>
<event>
 5   0  0.3178149E-01  0.5030458E+03  0.7818609E-02  0.1012987E+00
       -2   -1    0    0    0  501  0.00000000000E+00  0.00000000000E+00  0.13974682751E+03  0.13974682753E+03  0.25500000920E-02 0.  1.
        2   -1    0    0  501    0  0.00000000000E+00  0.00000000000E+00 -0.45270274884E+03  0.45270274885E+03  0.25500000920E-02 0. -1.
    10030    2    1    2    0    0  0.00000000000E+00  0.00000000000E+00 -0.31295592133E+03  0.59244957638E+03  0.50304581486E+03 0.  0.
        3    1    3    3  502    0  0.72709681545E+02 -0.91594025664E+02 -0.41873695725E+03  0.43476063863E+03  0.10100000352E+00 0. -1.
       -3    1    3    3    0  502 -0.72709681545E+02  0.91594025664E+02  0.10578103592E+03  0.15768893775E+03  0.10100000352E+00 0.  1.
</event>
<event>
 5   0  0.3117389E-01  0.5161494E+03  0.7818609E-02  0.1009648E+00
        2   -1    0    0  501    0  0.00000000000E+00  0.00000000000E+00  0.18481644921E+03  0.18481644922E+03  0.25500000920E-02 0.  1.
       -2   -1    0    0    0  501  0.00000000000E+00  0.00000000000E+00 -0.36037134909E+03  0.36037134910E+03  0.25500000920E-02 0. -1.
    10030    2    1    2    0    0  0.00000000000E+00  0.00000000000E+00 -0.17555489988E+03  0.54518779832E+03  0.51614940915E+03 0.  0.
        4    1    3    3  502    0  0.19162194756E+03 -0.21633007610E+02 -0.26893131618E+03  0.33092691569E+03  0.12699999809E+01 0. -1.
       -4    1    3    3    0  502 -0.19162194756E+03  0.21633007610E+02  0.93376416295E+02  0.21426088263E+03  0.12699999809E+01 0.  1.
</event>
<event>
 5   0  0.2000612E-01  0.6393180E+03  0.7818609E-02  0.9827032E-01
        1   -1    0    0  501    0  0.00000000000E+00  0.00000000000E+00  0.47170756094E+03  0.47170756096E+03  0.50400001928E-02 0. -1.
       -1   -1    0    0    0  501  0.00000000000E+00  0.00000000000E+00 -0.21662125464E+03  0.21662125470E+03  0.50400001928E-02 0.  1.
    10030    2    1    2    0    0  0.00000000000E+00  0.00000000000E+00  0.25508630630E+03  0.68832881566E+03  0.63931802321E+03 0.  0.
        2    1    3    3  502    0 -0.14291765802E+03 -0.22839379424E+03 -0.57669779969E+02  0.27552674235E+03  0.25500000920E-02 0.  1.
       -2    1    3    3    0  502  0.14291765802E+03  0.22839379424E+03  0.31275608627E+03  0.41280207331E+03  0.25500000920E-02 0. -1.
</event>
<event>
 5   0  0.3187123E-01  0.5007229E+03  0.7818609E-02  0.1013590E+00
       -2   -1    0    0    0  501  0.00000000000E+00  0.00000000000E+00  0.76289305195E+02  0.76289305238E+02  0.25500000920E-02 0.  1.
        2   -1    0    0  501    0  0.00000000000E+00  0.00000000000E+00 -0.82162050933E+03  0.82162050933E+03  0.25500000920E-02 0. -1.
    10030    2    1    2    0    0  0.00000000000E+00  0.00000000000E+00 -0.74533120413E+03  0.89790981457E+03  0.50072290865E+03 0.  0.
        5    1    3    3  502    0  0.18326505813E+03  0.14247316088E+03 -0.54063732188E+03  0.58838379219E+03  0.46999998093E+01 0. -1.
       -5    1    3    3    0  502 -0.18326505813E+03 -0.14247316088E+03 -0.20469388226E+03  0.30952602238E+03  0.46999998093E+01 0.  1.
</event>
<event>
 5   0  0.1984297E-01  0.5084408E+03  0.7818609E-02  0.1011599E+00
        1   -1    0    0  501    0  0.00000000000E+00  0.00000000000E+00  0.26276947568E+03  0.26276947573E+03  0.50400001928E-02 0.  1.
       -1   -1    0    0    0  501  0.00000000000E+00  0.00000000000E+00 -0.24594946868E+03  0.24594946873E+03  0.50400001928E-02 0. -1.
    10030    2    1    2    0    0  0.00000000000E+00  0.00000000000E+00  0.16820007003E+02  0.50871894446E+03  0.50844080464E+03 0.  0.
        3    1    3    3  502    0  0.84975674601E+02  0.74880047442E+02  0.23613089721E+03  0.26188871223E+03  0.10100000352E+00 0.  1.
       -3    1    3    3    0  502 -0.84975674601E+02 -0.74880047442E+02 -0.21931089020E+03  0.24683023223E+03  0.10100000352E+00 0. -1.
</event>
<event>
 5   0  0.3117389E-01  0.5049267E+03  0.7818609E-02  0.1012501E+00
        2   -1    0    0  501    0  0.00000000000E+00  0.00000000000E+00  0.95597700902E+03  0.95597700903E+03  0.25500000920E-02 0.  1.
       -2   -1    0    0    0  501  0.00000000000E+00  0.00000000000E+00 -0.66672887653E+02  0.66672887702E+02  0.25500000920E-02 0. -1.
    10030    2    1    2    0    0  0.00000000000E+00  0.00000000000E+00  0.88930412137E+03  0.10226498967E+04  0.50492671844E+03 0.  0.
        4    1    3    3  502    0 -0.68757052393E+02 -0.14015433697E+03  0.42809655341E+02  0.16187973905E+03  0.12699999809E+01 0. -1.
       -4    1    3    3    0  502  0.68757052393E+02  0.14015433697E+03  0.84649446603E+03  0.86077015767E+03  0.12699999809E+01 0.  1.
</event>
<event>
 5   0  0.1967161E-01  0.4842140E+03  0.7818609E-02  0.1017983E+00
       -1   -1    0    0    0  501  0.00000000000E+00  0.00000000000E+00  0.14079560458E+03  0.14079560467E+03  0.50400001928E-02 0.  1.
        1   -1    0    0  501    0  0.00000000000E+00  0.00000000000E+00 -0.41631845091E+03  0.41631845094E+03  0.50400001928E-02 0. -1.
    10030    2    1    2    0    0  0.00000000000E+00  0.00000000000E+00 -0.27552284634E+03  0.55711405561E+03  0.48421403543E+03 0.  0.
        1    1    3    3  502    0 -0.37414432922E+02  0.18192629957E+03  0.40922096085E+02  0.19018842299E+03  0.50400001928E-02 0.  1.
       -1    1    3    3    0  502  0.37414432922E+02 -0.18192629957E+03 -0.31644494242E+03  0.36692563262E+03  0.50400001928E-02 0. -1.
</event>
<event>
 5   0  0.3187123E-01  0.5019663E+03  0.7818609E-02  0.1013267E+00
       -2   -1    0    0    0  501  0.00000000000E+00  0.00000000000E+00  0.14571891682E+03  0.14571891685E+03  0.25500000920E-02 0. -1.
        2   -1    0    0  501    0  0.00000000000E+00  0.00000000000E+00 -0.43228806362E+03  0.43228806363E+03  0.25500000920E-02 0.  1.
    10030    2    1    2    0    0  0.00000000000E+00  0.00000000000E+00 -0.28656914680E+03  0.57800698048E+03  0.50196632714E+03 0.  0.
        5    1    3    3  502    0  0.92488299359E+02 -0.12689896318E+03 -0.36867305915E+03  0.40074848337E+03  0.46999998093E+01 0.  1.
       -5    1    3    3    0  502 -0.92488299359E+02  0.12689896318E+03  0.82103912355E+02  0.17725849711E+03  0.46999998093E+01 0. -1.
</event>
<event>
 5   0  0.1984680E-01  0.5135157E+03  0.7818609E-02  0.1010310E+00
       -1   -1    0    0    0  501  0.00000000000E+00  0.00000000000E+00  0.61660822707E+02  0.61660822913E+02  0.50400001928E-02 0. -1.
        1   -1    0    0  501    0  0.00000000000E+00  0.00000000000E+00 -0.10691488739E+04  0.10691488739E+04  0.50400001928E-02 0.  1.
    10030    2    1    2    0    0  0.00000000000E+00  0.00000000000E+00 -0.10074880512E+04  0.11308096968E+04  0.51351572238E+03 0.  0.
        5    1    3    3  502    0  0.90890977222E+02 -0.23790642088E+03 -0.57482337969E+03  0.62873256848E+03  0.46999998093E+01 0.  1.
       -5    1    3    3    0  502 -0.90890977222E+02  0.23790642088E+03 -0.43266467147E+03  0.50207712831E+03  0.46999998093E+01 0. -1.
</event>
<event>
 5   0  0.1984680E-01  0.4925819E+03  0.7818609E-02  0.1015733E+00
        1   -1    0    0  501    0  0.00000000000E+00  0.00000000000E+00  0.16636959888E+04  0.16636959888E+04  0.50400001928E-02 0.  1.
       -1   -1    0    0    0  501  0.00000000000E+00  0.00000000000E+00 -0.36460522522E+02  0.36460522870E+02  0.50400001928E-02 0. -1.
    10030    2    1    2    0    0  0.00000000000E+00  0.00000000000E+00  0.16272354663E+04  0.17001565117E+04  0.49258187288E+03 0.  0.
        5    1    3    3  502    0  0.43098811696E+02 -0.95008685415E+02  0.15834923762E+04  0.15869323720E+04  0.46999998093E+01 0.  1.
       -5    1    3    3    0  502 -0.43098811696E+02  0.95008685415E+02  0.43743090078E+02  0.11322413966E+03  0.46999998093E+01 0. -1.
</event>
<event>
 5   0  0.3187123E-01  0.5025487E+03  0.7818609E-02  0.1013116E+00
        2   -1    0    0  501    0  0.00000000000E+00  0.00000000000E+00  0.19749593172E+04  0.19749593172E+04  0.25500000920E-02 0. -1.
       -2   -1    0    0    0  501  0.00000000000E+00  0.00000000000E+00 -0.31969664287E+02  0.31969664388E+02  0.25500000920E-02 0.  1.
    10030    2    1    2    0    0  0.00000000000E+00  0.00000000000E+00  0.19429896529E+04  0.20069289816E+04  0.50254865020E+03 0.  0.
        5    1    3    3  502    0 -0.16377010095E+03  0.93737515103E+02  0.30913514226E+03  0.36220711462E+03  0.46999998093E+01 0.  1.
       -5    1    3    3    0  502  0.16377010095E+03 -0.93737515103E+02  0.16338545107E+04  0.16447218670E+04  0.46999998093E+01 0. -1.
</event>
<event>
 5   0  0.2013450E-01  0.5064065E+03  0.7818609E-02  0.1012120E+00
       -1   -1    0    0    0  501  0.00000000000E+00  0.00000000000E+00  0.14738717679E+03  0.14738717687E+03  0.50400001928E-02 0. -1.
        1   -1    0    0  501    0  0.00000000000E+00  0.00000000000E+00 -0.43498951437E+03  0.43498951439E+03  0.50400001928E-02 0.  1.
    10030    2    1    2    0    0  0.00000000000E+00  0.00000000000E+00 -0.28760233758E+03  0.58237669127E+03  0.50640646318E+03 0.  0.
        4    1    3    3  502    0 -0.18486181220E+03  0.15414171667E+03 -0.53418912147E+02  0.24655374972E+03  0.12699999809E+01 0. -1.
       -4    1    3    3    0  502  0.18486181220E+03 -0.15414171667E+03 -0.23418342543E+03  0.33582294155E+03  0.12699999809E+01 0.  1.
</event>
<event>
 5   0  0.2013450E-01  0.5021772E+03  0.7818609E-02  0.1013212E+00
        1   -1    0    0  501    0  0.00000000000E+00  0.00000000000E+00  0.10530564909E+04  0.10530564909E+04  0.50400001928E-02 0.  1.
       -1   -1    0    0    0  501  0.00000000000E+00  0.00000000000E+00 -0.59869041169E+02  0.59869041382E+02  0.50400001928E-02 0. -1.
    10030    2    1    2    0    0  0.00000000000E+00  0.00000000000E+00  0.99318744971E+03  0.11129255323E+04  0.50217718997E+03 0.  0.
        4    1    3    3  502    0 -0.76373713303E+02  0.19127520427E+03  0.17831825120E+03  0.27243010014E+03  0.12699999809E+01 0. -1.
       -4    1    3    3    0  502  0.76373713303E+02 -0.19127520427E+03  0.81486919852E+03  0.84049543214E+03  0.12699999809E+01 0.  1.
</event>
<event>
 5   0  0.1984680E-01  0.4954332E+03  0.7818609E-02  0.1014978E+00
       -1   -1    0    0    0  501  0.00000000000E+00  0.00000000000E+00  0.59698024866E+02  0.59698025079E+02  0.50400001928E-02 0. -1.
        1   -1    0    0  501    0  0.00000000000E+00  0.00000000000E+00 -0.10278986620E+04  0.10278986621E+04  0.50400001928E-02 0.  1.
    10030    2    1    2    0    0  0.00000000000E+00  0.00000000000E+00 -0.96820063718E+03  0.10875966871E+04  0.49543322460E+03 0.  0.
        5    1    3    3  502    0  0.17069918146E+02  0.56433140341E+02 -0.10121709745E+04  0.10138975555E+04  0.46999998093E+01 0.  1.
       -5    1    3    3    0  502 -0.17069918146E+02 -0.56433140341E+02  0.43970337351E+02  0.73699131604E+02  0.46999998093E+01 0. -1.
</event>
<event>
 5   0  0.2000612E-01  0.5171237E+03  0.7818609E-02  0.1009404E+00
       -1   -1    0    0    0  501  0.00000000000E+00  0.00000000000E+00  0.41268321842E+02  0.41268322150E+02  0.50400001928E-02 0. -1.
        1   -1    0    0  501    0  0.00000000000E+00  0.00000000000E+00 -0.16199888900E+04  0.16199888900E+04  0.50400001928E-02 0.  1.
    10030    2    1    2    0    0  0.00000000000E+00  0.00000000000E+00 -0.15787205682E+04  0.16612572122E+04  0.51712367246E+03 0.  0.
        2    1    3    3  502    0  0.17100768579E+03  0.19384928177E+03 -0.80782877919E+03  0.84817952648E+03  0.25500000920E-02 0. -1.
       -2    1    3    3    0  502 -0.17100768579E+03 -0.19384928177E+03 -0.77089178898E+03  0.81307768569E+03  0.25500000920E-02 0.  1.
</event>
<event>
 5   0  0.2013450E-01  0.4936228E+03  0.7818609E-02  0.1015457E+00
       -1   -1    0    0    0  501  0.00000000000E+00  0.00000000000E+00  0.87957865724E+02  0.87957865868E+02  0.50400001928E-02 0.  1.
        1   -1    0    0  501    0  0.00000000000E+00  0.00000000000E+00 -0.69255732284E+03  0.69255732285E+03  0.50400001928E-02 0. -1.
    10030    2    1    2    0    0  0.00000000000E+00  0.00000000000E+00 -0.60459945711E+03  0.78051518872E+03  0.49362278745E+03 0.  0.
        4    1    3    3  502    0 -0.77662714466E+02 -0.20892020783E+03 -0.13469948570E+03  0.26043178532E+03  0.12699999809E+01 0.  1.
       -4    1    3    3    0  502  0.77662714466E+02  0.20892020783E+03 -0.46989997141E+03  0.52008340340E+03  0.12699999809E+01 0. -1.
</event>
<event>
 5   0  0.2013450E-01  0.5127281E+03  0.7818609E-02  0.1010509E+00
       -1   -1    0    0    0  501  0.00000000000E+00  0.00000000000E+00  0.95619004327E+02  0.95619004460E+02  0.50400001928E-02 0.  1.
        1   -1    0    0  501    0  0.00000000000E+00  0.00000000000E+00 -0.68733760643E+03  0.68733760645E+03  0.50400001928E-02 0. -1.
    10030    2    1    2    0    0  0.00000000000E+00  0.00000000000E+00 -0.59171860210E+03  0.78295661091E+03  0.51272814482E+03 0.  0.
        4    1    3    3  502    0 -0.49414156363E+02  0.24352962677E+03 -0.39210509670E+03  0.46421596021E+03  0.12699999809E+01 0. -1.
       -4    1    3    3    0  502  0.49414156363E+02 -0.24352962677E+03 -0.19961350541E+03  0.31874065069E+03  0.12699999809E+01 0.  1.
</event>
<event>
 5   0  0.1967161E-01  0.4932301E+03  0.7818609E-02  0.1015561E+00
       -1   -1    0    0    0  501  0.00000000000E+00  0.00000000000E+00  0.54137285398E+03  0.54137285400E+03  0.50400001928E-02 0. -1.
        1   -1    0    0  501    0  0.00000000000E+00  0.00000000000E+00 -0.11234215509E+03  0.11234215521E+03  0.50400001928E-02 0.  1.
    10030    2    1    2    0    0  0.00000000000E+00  0.00000000000E+00  0.42903069889E+03  0.65371500921E+03  0.49323014170E+03 0.  0.
        1    1    3    3  502    0  0.34611988262E+02 -0.83255480104E+02  0.51874462515E+03  0.52652203263E+03  0.50400001928E-02 0. -1.
       -1    1    3    3    0  502 -0.34611988262E+02  0.83255480104E+02 -0.89713926267E+02  0.12719297658E+03  0.50400001928E-02 0.  1.
</event>
<event>
 5   0  0.3329246E-01  0.5054938E+03  0.7818609E-02  0.1012355E+00
        2   -1    0    0  501    0  0.00000000000E+00  0.00000000000E+00  0.47787054648E+03  0.47787054649E+03  0.25500000920E-02 0. -1.
       -2   -1    0    0    0  501  0.00000000000E+00  0.00000000000E+00 -0.13367844096E+03  0.13367844099E+03  0.25500000920E-02 0.  1.
    10030    2    1    2    0    0  0.00000000000E+00  0.00000000000E+00  0.34419210552E+03  0.61154898748E+03  0.50549377699E+03 0.  0.
        2    1    3    3  502    0  0.14317472078E+03 -0.13015991255E+03 -0.24624318160E+02  0.19505630100E+03  0.25500000920E-02 0.  1.
       -2    1    3    3    0  502 -0.14317472078E+03  0.13015991255E+03  0.36881642368E+03  0.41649268648E+03  0.25500000920E-02 0. -1.
</event>
<event>
 5   0  0.1967161E-01  0.4995954E+03  0.7818609E-02  0.1013885E+00
       -1   -1    0    0    0  501  0.00000000000E+00  0.00000000000E+00  0.51597090064E+02  0.51597090310E+02  0.50400001928E-02 0.  1.
        1   -1    0    0  501    0  0.00000000000E+00  0.00000000000E+00 -0.12093488006E+04  0.12093488006E+04  0.50400001928E-02 0. -1.
    10030    2    1    2    0    0  0.00000000000E+00  0.00000000000E+00 -0.11577517105E+04  0.12609458909E+04  0.49959535284E+03 0.  0.
        1    1    3    3  502    0 -0.20791911901E+03 -0.13657468765E+03 -0.63620160996E+03  0.68310723456E+03  0.50400001928E-02 0.  1.
       -1    1    3    3    0  502  0.20791911901E+03  0.13657468765E+03 -0.52155010055E+03  0.57783865634E+03  0.50400001928E-02 0. -1.
</event>
<event>
 5   0  0.2013450E-01  0.4641016E+03  0.7818609E-02  0.1023598E+00
       -1   -1    0    0    0  501  0.00000000000E+00  0.00000000000E+00  0.13984393949E+03  0.13984393958E+03  0.50400001928E-02 0.  1.
        1   -1    0    0  501    0  0.00000000000E+00  0.00000000000E+00 -0.38505475729E+03  0.38505475733E+03  0.50400001928E-02 0. -1.
    10030    2    1    2    0    0  0.00000000000E+00  0.00000000000E+00 -0.24521081780E+03  0.52489869691E+03  0.46410160186E+03 0.  0.
        4    1    3    3  502    0  0.29782567426E+02 -0.22246098040E+03 -0.55981258773E+02  0.23132531932E+03  0.12699999809E+01 0.  1.
       -4    1    3    3    0  502 -0.29782567426E+02  0.22246098040E+03 -0.18922955903E+03  0.29357337759E+03  0.12699999809E+01 0. -1.
</event>
<event>
 5   0  0.1292375E-01  0.4781285E+03  0.7818609E-02  0.1019651E+00
       -3   -1    0    0    0  501  0.00000000000E+00  0.00000000000E+00  0.19276583950E+03  0.19276586596E+03  0.10100000352E+00 0. -1.
        3   -1    0    0  501    0  0.00000000000E+00  0.00000000000E+00 -0.29648250147E+03  0.29648251867E+03  0.10100000352E+00 0.  1.
    10030    2    1    2    0    0  0.00000000000E+00  0.00000000000E+00 -0.10371666197E+03  0.48924838463E+03  0.47812847216E+03 0.  0.
        5    1    3    3  502    0 -0.81174149238E+02  0.10501635517E+03 -0.25525740890E+03  0.28774313572E+03  0.46999998093E+01 0.  1.
       -5    1    3    3    0  502  0.81174149238E+02 -0.10501635517E+03  0.15154074693E+03  0.20150524891E+03  0.46999998093E+01 0. -1.
</event>
<event>
 5   0  0.3187123E-01  0.4949083E+03  0.7818609E-02  0.1015117E+00
       -2   -1    0    0    0  501  0.00000000000E+00  0.00000000000E+00  0.60258280951E+02  0.60258281005E+02  0.25500000920E-02 0.  1.
        2   -1    0    0  501    0  0.00000000000E+00  0.00000000000E+00 -0.10161849455E+04  0.10161849455E+04  0.25500000920E-02 0. -1.
    10030    2    1    2    0    0  0.00000000000E+00  0.00000000000E+00 -0.95592666458E+03  0.10764432265E+04  0.49490830656E+03 0.  0.
        5    1    3    3  502    0 -0.22039002066E+03  0.11209980013E+03 -0.45933639172E+03  0.52168010998E+03  0.46999998093E+01 0. -1.
       -5    1    3    3    0  502  0.22039002066E+03 -0.11209980013E+03 -0.49659027286E+03  0.55476311656E+03  0.46999998093E+01 0.  1.
</event>
<event>
 5   0  0.1292375E-01  0.4942663E+03  0.7818609E-02  0.1015286E+00
        4   -1    0    0  501    0  0.00000000000E+00  0.00000000000E+00  0.28190897672E+03  0.28191183738E+03  0.12699999809E+01 0. -1.
       -4   -1    0    0    0  501  0.00000000000E+00  0.00000000000E+00 -0.21664135499E+03  0.21664507747E+03  0.12699999809E+01 0.  1.
    10030    2    1    2    0    0  0.00000000000E+00  0.00000000000E+00  0.65267621732E+02  0.49855691486E+03  0.49426625912E+03 0.  0.
        2    1    3    3  502    0 -0.20394362290E+03  0.13913393160E+03  0.21422856147E+02  0.24781079681E+03  0.25500000920E-02 0. -1.
       -2    1    3    3    0  502  0.20394362290E+03 -0.13913393160E+03  0.43844765585E+02  0.25074611805E+03  0.25500000920E-02 0.  1.
</event>
<event>
 5   0  0.1984297E-01  0.4952328E+03  0.7818609E-02  0.1015031E+00
        1   -1    0    0  501    0  0.00000000000E+00  0.00000000000E+00  0.27756925539E+03  0.27756925543E+03  0.50400001928E-02 0.  1.
       -1   -1    0    0    0  501  0.00000000000E+00  0.00000000000E+00 -0.22089582609E+03  0.22089582615E+03  0.50400001928E-02 0. -1.
    10030    2    1    2    0    0  0.00000000000E+00  0.00000000000E+00  0.56673429292E+02  0.49846508158E+03  0.49523283410E+03 0.  0.
        3    1    3    3  502    0  0.96460520122E+02 -0.78681566828E+02  0.24378624340E+03  0.27372826594E+03  0.10100000352E+00 0.  1.
       -3    1    3    3    0  502 -0.96460520122E+02  0.78681566828E+02 -0.18711281411E+03  0.22473681564E+03  0.10100000352E+00 0. -1.
</event>
<event>
 5   0  0.2013450E-01  0.4919200E+03  0.7818609E-02  0.1015910E+00
       -1   -1    0    0    0  501  0.00000000000E+00  0.00000000000E+00  0.79318397178E+03  0.79318397180E+03  0.50400001928E-02 0. -1.
        1   -1    0    0  501    0  0.00000000000E+00  0.00000000000E+00 -0.76270242313E+02  0.76270242480E+02  0.50400001928E-02 0.  1.
    10030    2    1    2    0    0  0.00000000000E+00  0.00000000000E+00  0.71691372947E+03  0.86945421428E+03  0.49192004963E+03 0.  0.
        4    1    3    3  502    0 -0.92573661633E+02 -0.22690269400E+03  0.39553187347E+03  0.46529752977E+03  0.12699999809E+01 0. -1.
       -4    1    3    3    0  502  0.92573661633E+02  0.22690269400E+03  0.32138185599E+03  0.40415668451E+03  0.12699999809E+01 0.  1.
</event>
<event>
 5   0  0.2000612E-01  0.4891078E+03  0.7818609E-02  0.1016662E+00
       -1   -1    0    0    0  501  0.00000000000E+00  0.00000000000E+00  0.57086700388E+03  0.57086700391E+03  0.50400001928E-02 0.  1.
        1   -1    0    0  501    0  0.00000000000E+00  0.00000000000E+00 -0.10476451017E+03  0.10476451030E+03  0.50400001928E-02 0. -1.
    10030    2    1    2    0    0  0.00000000000E+00  0.00000000000E+00  0.46610249371E+03  0.67563151420E+03  0.48910776761E+03 0.  0.
        2    1    3    3  502    0 -0.47562111027E+02  0.10358738667E+03 -0.65826570171E+02  0.13162689098E+03  0.25500000920E-02 0. -1.
       -2    1    3    3    0  502  0.47562111027E+02 -0.10358738667E+03  0.53192906388E+03  0.54400462322E+03  0.25500000920E-02 0.  1.
</event>
<event>
 5   0  0.3117389E-01  0.4959928E+03  0.7818609E-02  0.1014830E+00
       -2   -1    0    0    0  501  0.00000000000E+00  0.00000000000E+00  0.27846800824E+02  0.27846800941E+02  0.25500000920E-02 0.  1.
        2   -1    0    0  501    0  0.00000000000E+00  0.00000000000E+00 -0.22085920285E+04  0.22085920285E+04  0.25500000920E-02 0. -1.
    10030    2    1    2    0    0  0.00000000000E+00  0.00000000000E+00 -0.21807452277E+04  0.22364388295E+04  0.49599283241E+03 0.  0.
        4    1    3    3  502    0  0.11179973555E+03  0.22097310576E+03 -0.11495619452E+04  0.11759347656E+04  0.12699999809E+01 0.  1.
       -4    1    3    3    0  502 -0.11179973555E+03 -0.22097310576E+03 -0.10311832825E+04  0.10605040638E+04  0.12699999809E+01 0. -1.
</event>
<event>
 5   0  0.1984680E-01  0.5354239E+03  0.7818609E-02  0.1004925E+00
       -1   -1    0    0    0  501  0.00000000000E+00  0.00000000000E+00  0.71932877595E+02  0.71932877771E+02  0.50400001928E-02 0. -1.
        1   -1    0    0  501    0  0.00000000000E+00  0.00000000000E+00 -0.99634110757E+03  0.99634110759E+03  0.50400001928E-02 0.  1.
    10030    2    1    2    0    0  0.00000000000E+00  0.00000000000E+00 -0.92440822998E+03  0.10682739854E+04  0.53542388081E+03 0.  0.
        5    1    3    3  502    0  0.26136989032E+03 -0.49865690604E+02 -0.52026342152E+03  0.58437738187E+03  0.46999998093E+01 0.  1.
       -5    1    3    3    0  502 -0.26136989032E+03  0.49865690604E+02 -0.40414480846E+03  0.48389660349E+03  0.46999998093E+01 0. -1.
</event>
<event>
 5   0  0.1984297E-01  0.4967134E+03  0.7818609E-02  0.1014640E+00
        1   -1    0    0  501    0  0.00000000000E+00  0.00000000000E+00  0.21244655439E+03  0.21244655445E+03  0.50400001928E-02 0.  1.
       -1   -1    0    0    0  501  0.00000000000E+00  0.00000000000E+00 -0.29033674408E+03  0.29033674412E+03  0.50400001928E-02 0. -1.
    10030    2    1    2    0    0  0.00000000000E+00  0.00000000000E+00 -0.77890189683E+02  0.50278329857E+03  0.49671336169E+03 0.  0.
        3    1    3    3  502    0 -0.57805035749E+02  0.24046349149E+03 -0.15931431712E+02  0.24782641832E+03  0.10100000352E+00 0.  1.
       -3    1    3    3    0  502  0.57805035749E+02 -0.24046349149E+03 -0.61958757971E+02  0.25495688026E+03  0.10100000352E+00 0. -1.
</event>
<event>
 5   0  0.3329246E-01  0.5740710E+03  0.7818609E-02  0.9960710E-01
       -2   -1    0    0    0  501  0.00000000000E+00  0.00000000000E+00  0.82593593667E+02  0.82593593706E+02  0.25500000920E-02 0. -1.
        2   -1    0    0  501    0  0.00000000000E+00  0.00000000000E+00 -0.99752749883E+03  0.99752749884E+03  0.25500000920E-02 0.  1.
    10030    2    1    2    0    0  0.00000000000E+00  0.00000000000E+00 -0.91493390517E+03  0.10801210925E+04  0.57407100931E+03 0.  0.
        2    1    3    3  502    0  0.16391212544E+02 -0.10762004888E+03  0.42245710176E+02  0.11677091592E+03  0.25500000920E-02 0. -1.
       -2    1    3    3    0  502 -0.16391212544E+02  0.10762004888E+03 -0.95717961534E+03  0.96335017663E+03  0.25500000920E-02 0.  1.
</event>
<event>
 5   0  0.3187123E-01  0.5018446E+03  0.7818609E-02  0.1013299E+00
        2   -1    0    0  501    0  0.00000000000E+00  0.00000000000E+00  0.13190088697E+04  0.13190088697E+04  0.25500000920E-02 0. -1.
       -2   -1    0    0    0  501  0.00000000000E+00  0.00000000000E+00 -0.47734332683E+02  0.47734332751E+02  0.25500000920E-02 0.  1.
    10030    2    1    2    0    0  0.00000000000E+00  0.00000000000E+00  0.12712745370E+04  0.13667432025E+04  0.50184463032E+03 0.  0.
        5    1    3    3  502    0 -0.18330474336E+03  0.30529439209E+02  0.17661666307E+03  0.25641414015E+03  0.46999998093E+01 0.  1.
       -5    1    3    3    0  502  0.18330474336E+03 -0.30529439209E+02  0.10946578740E+04  0.11103290623E+04  0.46999998093E+01 0. -1.
</event>
<event>
 5   0  0.3178149E-01  0.4894135E+03  0.7818609E-02  0.1016580E+00
        2   -1    0    0  501    0  0.00000000000E+00  0.00000000000E+00  0.35774846802E+03  0.35774846803E+03  0.25500000920E-02 0.  1.
       -2   -1    0    0    0  501  0.00000000000E+00  0.00000000000E+00 -0.16738409401E+03  0.16738409403E+03  0.25500000920E-02 0. -1.
    10030    2    1    2    0    0  0.00000000000E+00  0.00000000000E+00  0.19036437401E+03  0.52513256206E+03  0.48941353970E+03 0.  0.
        3    1    3    3  502    0 -0.57322027066E+02  0.23739747405E+03  0.78628396801E+02  0.25656541166E+03  0.10100000352E+00 0. -1.
       -3    1    3    3    0  502  0.57322027066E+02 -0.23739747405E+03  0.11173597721E+03  0.26856715041E+03  0.10100000352E+00 0.  1.
</event>
<event>
 5   0  0.1292375E-01  0.5007605E+03  0.7818609E-02  0.1013581E+00
       -4   -1    0    0    0  501  0.00000000000E+00  0.00000000000E+00  0.14562215925E+03  0.14562769710E+03  0.12699999809E+01 0.  1.
        4   -1    0    0  501    0  0.00000000000E+00  0.00000000000E+00 -0.43048482488E+03  0.43048669823E+03  0.12699999809E+01 0. -1.
    10030    2    1    2    0    0  0.00000000000E+00  0.00000000000E+00 -0.28486266564E+03  0.57611439533E+03  0.50076047991E+03 0.  0.
        1    1    3    3  502    0 -0.43662255328E+02  0.24518996439E+03 -0.17211621728E+03  0.30273503836E+03  0.50400001928E-02 0. -1.
       -1    1    3    3    0  502  0.43662255328E+02 -0.24518996439E+03 -0.11274644836E+03  0.27337935697E+03  0.50400001928E-02 0.  1.
</event>
<event>
 5   0  0.3178149E-01  0.5070977E+03  0.7818609E-02  0.1011943E+00
       -2   -1    0    0    0  501  0.00000000000E+00  0.00000000000E+00  0.69940311814E+02  0.69940311861E+02  0.25500000920E-02 0.  1.
        2   -1    0    0  501    0  0.00000000000E+00  0.00000000000E+00 -0.91916960133E+03  0.91916960133E+03  0.25500000920E-02 0. -1.
    10030    2    1    2    0    0  0.00000000000E+00  0.00000000000E+00 -0.84922928951E+03  0.98910991319E+03  0.50709765746E+03 0.  0.
        3    1    3    3  502    0  0.10027497650E+03  0.15603650088E+03 -0.87423452366E+02  0.20504958118E+03  0.10100000352E+00 0.  1.
       -3    1    3    3    0  502 -0.10027497650E+03 -0.15603650088E+03 -0.76180583715E+03  0.78406033201E+03  0.10100000352E+00 0. -1.
</event>
<event>
 5   0  0.1984680E-01  0.5069350E+03  0.7818609E-02  0.1011984E+00
       -1   -1    0    0    0  501  0.00000000000E+00  0.00000000000E+00  0.97755884677E+02  0.97755884807E+02  0.50400001928E-02 0. -1.
        1   -1    0    0  501    0  0.00000000000E+00  0.00000000000E+00 -0.65720631080E+03  0.65720631082E+03  0.50400001928E-02 0.  1.
    10030    2    1    2    0    0  0.00000000000E+00  0.00000000000E+00 -0.55945042613E+03  0.75496219563E+03  0.50693504272E+03 0.  0.
        5    1    3    3  502    0 -0.80446358059E+02  0.24008306552E+03 -0.29550017702E+03  0.38917083587E+03  0.46999998093E+01 0.  1.
       -5    1    3    3    0  502  0.80446358059E+02 -0.24008306552E+03 -0.26395024910E+03  0.36579135976E+03  0.46999998093E+01 0. -1.
</event>
<event>
 5   0  0.1984297E-01  0.5300236E+03  0.7818609E-02  0.1006226E+00
       -1   -1    0    0    0  501  0.00000000000E+00  0.00000000000E+00  0.10259831876E+04  0.10259831876E+04  0.50400001928E-02 0. -1.
        1   -1    0    0  501    0  0.00000000000E+00  0.00000000000E+00 -0.68452630715E+02  0.68452630900E+02  0.50400001928E-02 0.  1.
    10030    2    1    2    0    0  0.00000000000E+00  0.00000000000E+00  0.95753055684E+03  0.10944358185E+04  0.53002357821E+03 0.  0.
        3    1    3    3  502    0 -0.35695021915E+02 -0.22967331301E+02 -0.61388136118E+02  0.74633413118E+02  0.10100000352E+00 0.  1.
       -3    1    3    3    0  502  0.35695021915E+02  0.22967331301E+02  0.10189186930E+04  0.10198024054E+04  0.10100000352E+00 0. -1.
</event>
<event>
 5   0  0.1292375E-01  0.5003125E+03  0.7818609E-02  0.1013697E+00
       -3   -1    0    0    0  501  0.00000000000E+00  0.00000000000E+00  0.10365142380E+04  0.10365142429E+04  0.10100000352E+00 0.  1.
        3   -1    0    0  501    0  0.00000000000E+00  0.00000000000E+00 -0.60373600977E+02  0.60373685459E+02  0.10100000352E+00 0. -1.
    10030    2    1    2    0    0  0.00000000000E+00  0.00000000000E+00  0.97614063700E+03  0.10968879284E+04  0.50031248652E+03 0.  0.
        4    1    3    3  502    0  0.23445455247E+02 -0.44764786735E+02  0.10252005675E+04  0.10264460006E+04  0.12699999809E+01 0.  1.
       -4    1    3    3    0  502 -0.23445455247E+02  0.44764786735E+02 -0.49059930551E+02  0.70441927776E+02  0.12699999809E+01 0. -1.
</event>
<event>
 5   0  0.2013450E-01  0.5042518E+03  0.7818609E-02  0.1012675E+00
        1   -1    0    0  501    0  0.00000000000E+00  0.00000000000E+00  0.35719654543E+03  0.35719654547E+03  0.50400001928E-02 0. -1.
       -1   -1    0    0    0  501  0.00000000000E+00  0.00000000000E+00 -0.17796218479E+03  0.17796218486E+03  0.50400001928E-02 0.  1.
    10030    2    1    2    0    0  0.00000000000E+00  0.00000000000E+00  0.17923436064E+03  0.53515873032E+03  0.50425183253E+03 0.  0.
        4    1    3    3  502    0  0.21486759452E+03  0.12973343726E+03  0.64345558992E+02  0.25911544103E+03  0.12699999809E+01 0. -1.
       -4    1    3    3    0  502 -0.21486759452E+03 -0.12973343726E+03  0.11488880165E+03  0.27604328929E+03  0.12699999809E+01 0.  1.
</event>
<event>
 5   0  0.3117389E-01  0.4967615E+03  0.7818609E-02  0.1014628E+00
        2   -1    0    0  501    0  0.00000000000E+00  0.00000000000E+00  0.36089090068E+03  0.36089090069E+03  0.25500000920E-02 0. -1.
       -2   -1    0    0    0  501  0.00000000000E+00  0.00000000000E+00 -0.17094638686E+03  0.17094638688E+03  0.25500000920E-02 0.  1.
    10030    2    1    2    0    0  0.00000000000E+00  0.00000000000E+00  0.18994451382E+03  0.53183728756E+03  0.49676149419E+03 0.  0.
        4    1    3    3  502    0 -0.15254584973E+03  0.11167813211E+03  0.26743383369E+03  0.32751291541E+03  0.12699999809E+01 0. -1.
       -4    1    3    3    0  502  0.15254584973E+03 -0.11167813211E+03 -0.77489319864E+02  0.20432437215E+03  0.12699999809E+01 0.  1.
</event>
<event>
 5   0  0.2013450E-01  0.5101430E+03  0.7818609E-02  0.1011165E+00
       -1   -1    0    0    0  501  0.00000000000E+00  0.00000000000E+00  0.14695945033E+03  0.14695945042E+03  0.50400001928E-02 0. -1.
        1   -1    0    0  501    0  0.00000000000E+00  0.00000000000E+00 -0.44271708632E+03  0.44271708635E+03  0.50400001928E-02 0.  1.
    10030    2    1    2    0    0  0.00000000000E+00  0.00000000000E+00 -0.29575763599E+03  0.58967653677E+03  0.51014295915E+03 0.  0.
        4    1    3    3  502    0 -0.25185222123E+03  0.39929870114E+01 -0.19432204064E+03  0.31813228956E+03  0.12699999809E+01 0.  1.
       -4    1    3    3    0  502  0.25185222123E+03 -0.39929870114E+01 -0.10143559535E+03  0.27154424720E+03  0.12699999809E+01 0. -1.
</event>
<event>
 5   0  0.3187123E-01  0.5167360E+03  0.7818609E-02  0.1009501E+00
       -2   -1    0    0    0  501  0.00000000000E+00  0.00000000000E+00  0.13190295772E+03  0.13190295775E+03  0.25500000920E-02 0.  1.
        2   -1    0    0  501    0  0.00000000000E+00  0.00000000000E+00 -0.50608442152E+03  0.50608442152E+03  0.25500000920E-02 0. -1.
    10030    2    1    2    0    0  0.00000000000E+00  0.00000000000E+00 -0.37418146379E+03  0.63798737927E+03  0.51673603345E+03 0.  0.
        5    1    3    3  502    0  0.16933244402E+03 -0.18770675988E+03 -0.25270899356E+03  0.35747899201E+03  0.46999998093E+01 0. -1.
       -5    1    3    3    0  502 -0.16933244402E+03  0.18770675988E+03 -0.12147247023E+03  0.28050838726E+03  0.46999998093E+01 0.  1.
</event>
<event>
 5   0  0.1984297E-01  0.5223921E+03  0.7818609E-02  0.1008094E+00
        1   -1    0    0  501    0  0.00000000000E+00  0.00000000000E+00  0.79742505541E+03  0.79742505542E+03  0.50400001928E-02 0. -1.
       -1   -1    0    0    0  501  0.00000000000E+00  0.00000000000E+00 -0.85554589628E+02  0.85554589776E+02  0.50400001928E-02 0.  1.
    10030    2    1    2    0    0  0.00000000000E+00  0.00000000000E+00  0.71187046578E+03  0.88297964520E+03  0.52239208817E+03 0.  0.
        3    1    3    3  502    0  0.14893592776E+03  0.21120272870E+03  0.41996160211E+03  0.49310877161E+03  0.10100000352E+00 0. -1.
       -3    1    3    3    0  502 -0.14893592776E+03 -0.21120272870E+03  0.29190886367E+03  0.38987087359E+03  0.10100000352E+00 0.  1.
</event>
<event>
 5   0  0.3329246E-01  0.4947604E+03  0.7818609E-02  0.1015156E+00
       -2   -1    0    0    0  501  0.00000000000E+00  0.00000000000E+00  0.17179892273E+03  0.17179892275E+03  0.25500000920E-02 0.  1.
        2   -1    0    0  501    0  0.00000000000E+00  0.00000000000E+00 -0.35621277660E+03  0.35621277661E+03  0.25500000920E-02 0. -1.
    10030    2    1    2    0    0  0.00000000000E+00  0.00000000000E+00 -0.18441385387E+03  0.52801169936E+03  0.49476043209E+03 0.  0.
        2    1    3    3  502    0 -0.13677930068E+03 -0.41899215029E+02  0.12318081543E+03  0.18877932782E+03  0.25500000920E-02 0.  1.
       -2    1    3    3    0  502  0.13677930068E+03  0.41899215029E+02 -0.30759466930E+03  0.33923237154E+03  0.25500000920E-02 0. -1.
</event>
<event>
 5   0  0.3117389E-01  0.4547369E+03  0.7818609E-02  0.1026319E+00
       -2   -1    0    0    0  501  0.00000000000E+00  0.00000000000E+00  0.28557139809E+02  0.28557139923E+02  0.25500000920E-02 0. -1.
        2   -1    0    0  501    0  0.00000000000E+00  0.00000000000E+00 -0.18102793568E+04  0.18102793568E+04  0.25500000920E-02 0.  1.
    10030    2    1    2    0    0  0.00000000000E+00  0.00000000000E+00 -0.17817222170E+04  0.18388364967E+04  0.45473685047E+03 0.  0.
        4    1    3    3  502    0 -0.15317703341E+03 -0.16771343894E+03 -0.84966521953E+03  0.87950190411E+03  0.12699999809E+01 0. -1.
       -4    1    3    3    0  502  0.15317703341E+03  0.16771343894E+03 -0.93205699749E+03  0.95933459264E+03  0.12699999809E+01 0.  1.
</event>
<event>
 5   0  0.3329246E-01  0.5161491E+03  0.7818609E-02  0.1009648E+00
        2   -1    0    0  501    0  0.00000000000E+00  0.00000000000E+00  0.42292360981E+03  0.42292360981E+03  0.25500000920E-02 0. -1.
       -2   -1    0    0    0  501  0.00000000000E+00  0.00000000000E+00 -0.15748107203E+03  0.15748107205E+03  0.25500000920E-02 0.  1.
    10030    2    1    2    0    0  0.00000000000E+00  0.00000000000E+00  0.26544253777E+03  0.58040468187E+03  0.51614906168E+03 0.  0.
        2    1    3    3  502    0 -0.25298240888E+03  0.10714055487E+01  0.19007266604E+03  0.31643145465E+03  0.25500000920E-02 0. -1.
       -2    1    3    3    0  502  0.25298240888E+03 -0.10714055487E+01  0.75369871734E+02  0.26397322721E+03  0.25500000920E-02 0.  1.
</event>
<event>
 5   0  0.2013450E-01  0.5128767E+03  0.7818609E-02  0.1010471E+00
        1   -1    0    0  501    0  0.00000000000E+00  0.00000000000E+00  0.24825832173E+03  0.24825832178E+03  0.50400001928E-02 0. -1.
       -1   -1    0    0    0  501  0.00000000000E+00  0.00000000000E+00 -0.26488795044E+03  0.26488795049E+03  0.50400001928E-02 0.  1.
    10030    2    1    2    0    0  0.00000000000E+00  0.00000000000E+00 -0.16629628712E+02  0.51314627228E+03  0.51287674172E+03 0.  0.
        4    1    3    3  502    0  0.24354046600E+03  0.52156820833E+01 -0.88480970722E+02  0.25917109599E+03  0.12699999809E+01 0.  1.
       -4    1    3    3    0  502 -0.24354046600E+03 -0.52156820833E+01  0.71851342010E+02  0.25397517628E+03  0.12699999809E+01 0. -1.
</event>
<event>
 5   0  0.3187123E-01  0.5154570E+03  0.7818609E-02  0.1009821E+00
        2   -1    0    0  501    0  0.00000000000E+00  0.00000000000E+00  0.70734209110E+03  0.70734209110E+03  0.25500000920E-02 0.  1.
       -2   -1    0    0    0  501  0.00000000000E+00  0.00000000000E+00 -0.93906429871E+02  0.93906429906E+02  0.25500000920E-02 0. -1.
    10030    2    1    2    0    0  0.00000000000E+00  0.00000000000E+00  0.61343566123E+03  0.80124852101E+03  0.51545696421E+03 0.  0.
        5    1    3    3  502    0  0.21739462343E+03  0.67394681175E+02  0.49453814290E+03  0.54441944320E+03  0.46999998093E+01 0. -1.
       -5    1    3    3    0  502 -0.21739462343E+03 -0.67394681175E+02  0.11889751833E+03  0.25682907781E+03  0.46999998093E+01 0.  1.
</event>
<event>
 5   0  0.1292375E-01  0.4911350E+03  0.7818609E-02  0.1016119E+00
        4   -1    0    0  501    0  0.00000000000E+00  0.00000000000E+00  0.36718800262E+03  0.36719019890E+03  0.12699999809E+01 0.  1.
       -4   -1    0    0    0  501  0.00000000000E+00  0.00000000000E+00 -0.16422512996E+03  0.16423004052E+03  0.12699999809E+01 0. -1.
    10030    2    1    2    0    0  0.00000000000E+00  0.00000000000E+00  0.20296287266E+03  0.53142023943E+03  0.49113495415E+03 0.  0.
        5    1    3    3  502    0 -0.26521847522E+02  0.23060540442E+03  0.18803689950E+03  0.29876784719E+03  0.46999998093E+01 0.  1.
       -5    1    3    3    0  502  0.26521847522E+02 -0.23060540442E+03  0.14925973169E+02  0.23265239224E+03  0.46999998093E+01 0. -1.
</event>
<event>
 5   0  0.2013450E-01  0.5102991E+03  0.7818609E-02  0.1011125E+00
       -1   -1    0    0    0  501  0.00000000000E+00  0.00000000000E+00  0.10449685965E+04  0.10449685966E+04  0.50400001928E-02 0.  1.
        1   -1    0    0  501    0  0.00000000000E+00  0.00000000000E+00 -0.62299748541E+02  0.62299748745E+02  0.50400001928E-02 0. -1.
    10030    2    1    2    0    0  0.00000000000E+00  0.00000000000E+00  0.98266884801E+03  0.11072683453E+04  0.51029905318E+03 0.  0.
        4    1    3    3  502    0 -0.19027470033E+03 -0.97482068779E+02  0.79349965641E+03  0.82179713613E+03  0.12699999809E+01 0.  1.
       -4    1    3    3    0  502  0.19027470033E+03  0.97482068779E+02  0.18916919159E+03  0.28547120918E+03  0.12699999809E+01 0. -1.
</event>
<event>
 5   0  0.1984680E-01  0.4844596E+03  0.7818609E-02  0.1017917E+00
       -1   -1    0    0    0  501  0.00000000000E+00  0.00000000000E+00  0.74602430428E+02  0.74602430598E+02  0.50400001928E-02 0.  1.
        1   -1    0    0  501    0  0.00000000000E+00  0.00000000000E+00 -0.78650620264E+03  0.78650620266E+03  0.50400001928E-02 0. -1.
    10030    2    1    2    0    0  0.00000000000E+00  0.00000000000E+00 -0.71190377221E+03  0.86110863325E+03  0.48445959313E+03 0.  0.
        5    1    3    3  502    0 -0.21056178895E+03  0.51833671649E+02 -0.16426440599E+03  0.27208065266E+03  0.46999998093E+01 0.  1.
       -5    1    3    3    0  502  0.21056178895E+03 -0.51833671649E+02 -0.54763936622E+03  0.58902798059E+03  0.46999998093E+01 0. -1.
</event>
<event>
 5   0  0.2000612E-01  0.4991636E+03  0.7818609E-02  0.1013997E+00
       -1   -1    0    0    0  501  0.00000000000E+00  0.00000000000E+00  0.91338221006E+02  0.91338221145E+02  0.50400001928E-02 0.  1.
        1   -1    0    0  501    0  0.00000000000E+00  0.00000000000E+00 -0.68198263537E+03  0.68198263538E+03  0.50400001928E-02 0. -1.
    10030    2    1    2    0    0  0.00000000000E+00  0.00000000000E+00 -0.59064441436E+03  0.77332085653E+03  0.49916362340E+03 0.  0.
        2    1    3    3  502    0  0.16428114964E+03  0.42763673452E+02 -0.11875808575E+02  0.17017068705E+03  0.25500000920E-02 0.  1.
       -2    1    3    3    0  502 -0.16428114964E+03 -0.42763673452E+02 -0.57876860578E+03  0.60315016948E+03  0.25500000920E-02 0. -1.
</event>
<event>
 5   0  0.3111146E-01  0.5287360E+03  0.7818609E-02  0.1006539E+00
        2   -1    0    0  501    0  0.00000000000E+00  0.00000000000E+00  0.12160644240E+03  0.12160644242E+03  0.25500000920E-02 0.  1.
       -2   -1    0    0    0  501  0.00000000000E+00  0.00000000000E+00 -0.57472653439E+03  0.57472653440E+03  0.25500000920E-02 0. -1.
    10030    2    1    2    0    0  0.00000000000E+00  0.00000000000E+00 -0.45312009199E+03  0.69633297682E+03  0.52873603702E+03 0.  0.
        1    1    3    3  502    0 -0.22002111705E+03  0.14513061082E+03 -0.25349416634E+03  0.36569314806E+03  0.50400001928E-02 0.  1.
       -1    1    3    3    0  502  0.22002111705E+03 -0.14513061082E+03 -0.19962592566E+03  0.33063982876E+03  0.50400001928E-02 0. -1.
</event>
<event>
 5   0  0.2013450E-01  0.5142982E+03  0.7818609E-02  0.1010113E+00
        1   -1    0    0  501    0  0.00000000000E+00  0.00000000000E+00  0.55386861185E+03  0.55386861187E+03  0.50400001928E-02 0. -1.
       -1   -1    0    0    0  501  0.00000000000E+00  0.00000000000E+00 -0.11938869399E+03  0.11938869410E+03  0.50400001928E-02 0.  1.
    10030    2    1    2    0    0  0.00000000000E+00  0.00000000000E+00  0.43447991786E+03  0.67325730597E+03  0.51429816354E+03 0.  0.
        4    1    3    3  502    0  0.13112632628E+03  0.14097529221E+03  0.44038292393E+03  0.48063174994E+03  0.12699999809E+01 0. -1.
       -4    1    3    3    0  502 -0.13112632628E+03 -0.14097529221E+03 -0.59030060739E+01  0.19262555603E+03  0.12699999809E+01 0.  1.
</event>
<event>
 5   0  0.3178149E-01  0.4835320E+03  0.7818609E-02  0.1018169E+00
       -2   -1    0    0    0  501  0.00000000000E+00  0.00000000000E+00  0.18044305653E+03  0.18044305655E+03  0.25500000920E-02 0.  1.
        2   -1    0    0  501    0  0.00000000000E+00  0.00000000000E+00 -0.32392931014E+03  0.32392931015E+03  0.25500000920E-02 0. -1.
    10030    2    1    2    0    0  0.00000000000E+00  0.00000000000E+00 -0.14348625361E+03  0.50437236670E+03  0.48353198375E+03 0.  0.
        3    1    3    3  502    0 -0.72743482912E+01 -0.12340178599E+03 -0.28847183242E+03  0.31384219797E+03  0.10100000352E+00 0. -1.
       -3    1    3    3    0  502  0.72743482912E+01  0.12340178599E+03  0.14498557881E+03  0.19053016872E+03  0.10100000352E+00 0.  1.
</event>
<event>
 5   0  0.3111146E-01  0.4930520E+03  0.7818609E-02  0.1015609E+00
        2   -1    0    0  501    0  0.00000000000E+00  0.00000000000E+00  0.25202680910E+03  0.25202680911E+03  0.25500000920E-02 0. -1.
       -2   -1    0    0    0  501  0.00000000000E+00  0.00000000000E+00 -0.24114527858E+03  0.24114527859E+03  0.25500000920E-02 0.  1.
    10030    2    1    2    0    0  0.00000000000E+00  0.00000000000E+00  0.10881530523E+02  0.49317208771E+03  0.49305202604E+03 0.  0.
        1    1    3    3  502    0  0.18467814220E+03 -0.15515028338E+03  0.56418344459E+02  0.24771083193E+03  0.50400001928E-02 0. -1.
       -1    1    3    3    0  502 -0.18467814220E+03  0.15515028338E+03 -0.45536813937E+02  0.24546125578E+03  0.50400001928E-02 0.  1.
</event>
<event>
 5   0  0.3111146E-01  0.4947591E+03  0.7818609E-02  0.1015156E+00
        2   -1    0    0  501    0  0.00000000000E+00  0.00000000000E+00  0.51904698263E+03  0.51904698264E+03  0.25500000920E-02 0.  1.
       -2   -1    0    0    0  501  0.00000000000E+00  0.00000000000E+00 -0.11790191633E+03  0.11790191636E+03  0.25500000920E-02 0. -1.
    10030    2    1    2    0    0  0.00000000000E+00  0.00000000000E+00  0.40114506631E+03  0.63694889900E+03  0.49475906835E+03 0.  0.
        1    1    3    3  502    0  0.17245713311E+03  0.31000410065E+01  0.42886443229E+03  0.46225076995E+03  0.50400001928E-02 0.  1.
       -1    1    3    3    0  502 -0.17245713311E+03 -0.31000410065E+01 -0.27719365981E+02  0.17469812904E+03  0.50400001928E-02 0. -1.
</event>
<event>
 5   0  0.3187123E-01  0.5058234E+03  0.7818609E-02  0.1012270E+00
        2   -1    0    0  501    0  0.00000000000E+00  0.00000000000E+00  0.22124003445E+04  0.22124003445E+04  0.25500000920E-02 0.  1.
       -2   -1    0    0    0  501  0.00000000000E+00  0.00000000000E+00 -0.28911730290E+02  0.28911730403E+02  0.25500000920E-02 0. -1.
    10030    2    1    2    0    0  0.00000000000E+00  0.00000000000E+00  0.21834886142E+04  0.22413120749E+04  0.50582337701E+03 0.  0.
        5    1    3    3  502    0  0.80775354355E+02 -0.23797197693E+03  0.12160430279E+04  0.12417479838E+04  0.46999998093E+01 0.  1.
       -5    1    3    3    0  502 -0.80775354355E+02  0.23797197693E+03  0.96744558633E+03  0.99956409109E+03  0.46999998093E+01 0. -1.
</event>
<event>
 5   0  0.1984680E-01  0.4961993E+03  0.7818609E-02  0.1014776E+00
        1   -1    0    0  501    0  0.00000000000E+00  0.00000000000E+00  0.34772946051E+03  0.34772946055E+03  0.50400001928E-02 0.  1.
       -1   -1    0    0    0  501  0.00000000000E+00  0.00000000000E+00 -0.17701528697E+03  0.17701528705E+03  0.50400001928E-02 0. -1.
    10030    2    1    2    0    0  0.00000000000E+00  0.00000000000E+00  0.17071417354E+03  0.52474474759E+03  0.49619927557E+03 0.  0.
        5    1    3    3  502    0 -0.78732204557E+02  0.65465693566E+02 -0.15357602227E+03  0.18464073679E+03  0.46999998093E+01 0. -1.
       -5    1    3    3    0  502  0.78732204557E+02 -0.65465693566E+02  0.32429019581E+03  0.34010401080E+03  0.46999998093E+01 0.  1.
</event>
<event>
 5   0  0.3178149E-01  0.4817469E+03  0.7818609E-02  0.1018656E+00
        2   -1    0    0  501    0  0.00000000000E+00  0.00000000000E+00  0.60074672714E+03  0.60074672715E+03  0.25500000920E-02 0.  1.
       -2   -1    0    0    0  501  0.00000000000E+00  0.00000000000E+00 -0.96579815843E+02  0.96579815877E+02  0.25500000920E-02 0. -1.
    10030    2    1    2    0    0  0.00000000000E+00  0.00000000000E+00  0.50416691130E+03  0.69732654303E+03  0.48174685589E+03 0.  0.
        3    1    3    3  502    0 -0.30991478576E+02  0.13256115756E+03  0.53972044842E+03  0.55662474332E+03  0.10100000352E+00 0.  1.
       -3    1    3    3    0  502  0.30991478576E+02 -0.13256115756E+03 -0.35553537116E+02  0.14070179970E+03  0.10100000352E+00 0. -1.
</event>
<event>
 5   0  0.2000612E-01  0.4912777E+03  0.7818609E-02  0.1016081E+00
       -1   -1    0    0    0  501  0.00000000000E+00  0.00000000000E+00  0.78562584092E+02  0.78562584254E+02  0.50400001928E-02 0. -1.
        1   -1    0    0  501    0  0.00000000000E+00  0.00000000000E+00 -0.76803030725E+03  0.76803030727E+03  0.50400001928E-02 0.  1.
    10030    2    1    2    0    0  0.00000000000E+00  0.00000000000E+00 -0.68946772316E+03  0.84659289152E+03  0.49127770425E+03 0.  0.
        2    1    3    3  502    0 -0.23622738909E+03 -0.26324671859E+02 -0.45154846915E+03  0.51028657410E+03  0.25500000920E-02 0. -1.
       -2    1    3    3    0  502  0.23622738909E+03  0.26324671859E+02 -0.23791925401E+03  0.33630631742E+03  0.25500000920E-02 0.  1.
</event>
<event>
 5   0  0.1967161E-01  0.4981691E+03  0.7818609E-02  0.1014258E+00
       -1   -1    0    0    0  501  0.00000000000E+00  0.00000000000E+00  0.28758798362E+03  0.28758798367E+03  0.50400001928E-02 0.  1.
        1   -1    0    0  501    0  0.00000000000E+00  0.00000000000E+00 -0.21573611118E+03  0.21573611124E+03  0.50400001928E-02 0. -1.
    10030    2    1    2    0    0  0.00000000000E+00  0.00000000000E+00  0.71851872442E+02  0.50332409491E+03  0.49816910075E+03 0.  0.
        1    1    3    3  502    0  0.42397196769E+02 -0.30681752899E+02  0.28197047917E+03  0.28678605859E+03  0.50400001928E-02 0.  1.
       -1    1    3    3    0  502 -0.42397196769E+02  0.30681752899E+02 -0.21011860672E+03  0.21653803632E+03  0.50400001928E-02 0. -1.
</event>
<event>
 5   0  0.1967161E-01  0.5018743E+03  0.7818609E-02  0.1013291E+00
       -1   -1    0    0    0  501  0.00000000000E+00  0.00000000000E+00  0.84216081717E+02  0.84216081868E+02  0.50400001928E-02 0.  1.
        1   -1    0    0  501    0  0.00000000000E+00  0.00000000000E+00 -0.74771290032E+03  0.74771290033E+03  0.50400001928E-02 0. -1.
    10030    2    1    2    0    0  0.00000000000E+00  0.00000000000E+00 -0.66349681860E+03  0.83192898220E+03  0.50187429017E+03 0.  0.
        1    1    3    3  502    0 -0.17463257836E+03 -0.17269911308E+03 -0.41704752506E+03  0.48399396615E+03  0.50400001928E-02 0. -1.
       -1    1    3    3    0  502  0.17463257836E+03  0.17269911308E+03 -0.24644929354E+03  0.34793501605E+03  0.50400001928E-02 0.  1.
</event>
<event>
 5   0  0.1984297E-01  0.5096443E+03  0.7818609E-02  0.1011292E+00
       -1   -1    0    0    0  501  0.00000000000E+00  0.00000000000E+00  0.87074011756E+02  0.87074011902E+02  0.50400001928E-02 0. -1.
        1   -1    0    0  501    0  0.00000000000E+00  0.00000000000E+00 -0.74573726680E+03  0.74573726682E+03  0.50400001928E-02 0.  1.
    10030    2    1    2    0    0  0.00000000000E+00  0.00000000000E+00 -0.65866325505E+03  0.83281127872E+03  0.50964432933E+03 0.  0.
        3    1    3    3  502    0 -0.22577314220E+03 -0.56738026333E+02 -0.49869289401E+03  0.55035200381E+03  0.10100000352E+00 0.  1.
       -3    1    3    3    0  502  0.22577314220E+03  0.56738026333E+02 -0.15997036104E+03  0.28245927491E+03  0.10100000352E+00 0. -1.
</event>
<event>
 5   0  0.3329246E-01  0.5035215E+03  0.7818609E-02  0.1012864E+00
       -2   -1    0    0    0  501  0.00000000000E+00  0.00000000000E+00  0.24201640634E+03  0.24201640635E+03  0.25500000920E-02 0.  1.
        2   -1    0    0  501    0  0.00000000000E+00  0.00000000000E+00 -0.26189739288E+03  0.26189739289E+03  0.25500000920E-02 0. -1.
    10030    2    1    2    0    0  0.00000000000E+00  0.00000000000E+00 -0.19880986539E+02  0.50391379925E+03  0.50352146274E+03 0.  0.
        2    1    3    3  502    0  0.22851351270E+03 -0.42546036903E+02  0.86855473344E+02  0.24813799387E+03  0.25500000920E-02 0. -1.
       -2    1    3    3    0  502 -0.22851351270E+03  0.42546036903E+02 -0.10673645988E+03  0.25577580538E+03  0.25500000920E-02 0.  1.
</event>
<event>
 5   0  0.1984680E-01  0.5406379E+03  0.7818609E-02  0.1003684E+00
       -1   -1    0    0    0  501  0.00000000000E+00  0.00000000000E+00  0.38150402692E+03  0.38150402696E+03  0.50400001928E-02 0.  1.
        1   -1    0    0  501    0  0.00000000000E+00  0.00000000000E+00 -0.19153750491E+03  0.19153750497E+03  0.50400001928E-02 0. -1.
    10030    2    1    2    0    0  0.00000000000E+00  0.00000000000E+00  0.18996652202E+03  0.57304153193E+03  0.54063788050E+03 0.  0.
        5    1    3    3  502    0 -0.10016410035E+03  0.19981336267E+03  0.25605172602E+03  0.33991587679E+03  0.46999998093E+01 0.  1.
       -5    1    3    3    0  502  0.10016410035E+03 -0.19981336267E+03 -0.66085203998E+02  0.23312565514E+03  0.46999998093E+01 0. -1.
</event>
<event>
 5   0  0.3187123E-01  0.5027478E+03  0.7818609E-02  0.1013064E+00
        2   -1    0    0  501    0  0.00000000000E+00  0.00000000000E+00  0.38750511435E+03  0.38750511436E+03  0.25500000920E-02 0.  1.
       -2   -1    0    0    0  501  0.00000000000E+00  0.00000000000E+00 -0.16306583511E+03  0.16306583513E+03  0.25500000920E-02 0. -1.
    10030    2    1    2    0    0  0.00000000000E+00  0.00000000000E+00  0.22443927924E+03  0.55057094949E+03  0.50274782978E+03 0.  0.
        5    1    3    3  502    0 -0.21906568151E+03  0.96210978936E+02  0.27956098525E+02  0.24093559041E+03  0.46999998093E+01 0. -1.
       -5    1    3    3    0  502  0.21906568151E+03 -0.96210978936E+02  0.19648318072E+03  0.30963535907E+03  0.46999998093E+01 0.  1.
</event>
<event>
 5   0  0.1292375E-01  0.5027342E+03  0.7818609E-02  0.1013068E+00
       -4   -1    0    0    0  501  0.00000000000E+00  0.00000000000E+00  0.10180259246E+04  0.10180267168E+04  0.12699999809E+01 0.  1.
        4   -1    0    0  501    0  0.00000000000E+00  0.00000000000E+00 -0.62059296552E+02  0.62072290021E+02  0.12699999809E+01 0. -1.
    10030    2    1    2    0    0  0.00000000000E+00  0.00000000000E+00  0.95596662803E+03  0.10800990068E+04  0.50273419471E+03 0.  0.
        1    1    3    3  502    0 -0.20663763723E+03 -0.35176065180E+02  0.17990618751E+03  0.27622944270E+03  0.50400001928E-02 0. -1.
       -1    1    3    3    0  502  0.20663763723E+03  0.35176065180E+02  0.77606044051E+03  0.80386956407E+03  0.50400001928E-02 0.  1.
</event>
<event>
 5   0  0.1292375E-01  0.5041085E+03  0.7818609E-02  0.1012712E+00
        4   -1    0    0  501    0  0.00000000000E+00  0.00000000000E+00  0.23026634178E+03  0.23026984401E+03  0.12699999809E+01 0. -1.
       -4   -1    0    0    0  501  0.00000000000E+00  0.00000000000E+00 -0.27589665224E+03  0.27589957524E+03  0.12699999809E+01 0.  1.
    10030    2    1    2    0    0  0.00000000000E+00  0.00000000000E+00 -0.45630310454E+02  0.50616941924E+03  0.50410847617E+03 0.  0.
        2    1    3    3  502    0  0.16108406850E+03  0.13959798706E+03  0.11225492664E+03  0.24090837195E+03  0.25500000920E-02 0.  1.
       -2    1    3    3    0  502 -0.16108406850E+03 -0.13959798706E+03 -0.15788523709E+03  0.26526104729E+03  0.25500000920E-02 0. -1.
</event>
<event>
 5   0  0.1967161E-01  0.5160982E+03  0.7818609E-02  0.1009660E+00
        1   -1    0    0  501    0  0.00000000000E+00  0.00000000000E+00  0.12774611094E+03  0.12774611104E+03  0.50400001928E-02 0. -1.
       -1   -1    0    0    0  501  0.00000000000E+00  0.00000000000E+00 -0.52126312830E+03  0.52126312832E+03  0.50400001928E-02 0.  1.
    10030    2    1    2    0    0  0.00000000000E+00  0.00000000000E+00 -0.39351701736E+03  0.64900923936E+03  0.51609819785E+03 0.  0.
        1    1    3    3  502    0  0.12201842354E+03 -0.14439020640E+03 -0.41764155357E+03  0.45843374078E+03  0.50400001928E-02 0.  1.
       -1    1    3    3    0  502 -0.12201842354E+03  0.14439020640E+03  0.24124536210E+02  0.19057549858E+03  0.50400001928E-02 0. -1.
</event>
<event>
 5   0  0.2000612E-01  0.5115479E+03  0.7818609E-02  0.1010808E+00
        1   -1    0    0  501    0  0.00000000000E+00  0.00000000000E+00  0.15351212557E+04  0.15351212557E+04  0.50400001928E-02 0. -1.
       -1   -1    0    0    0  501  0.00000000000E+00  0.00000000000E+00 -0.42615737431E+02  0.42615737729E+02  0.50400001928E-02 0.  1.
    10030    2    1    2    0    0  0.00000000000E+00  0.00000000000E+00  0.14925055183E+04  0.15777369935E+04  0.51154794340E+03 0.  0.
        2    1    3    3  502    0  0.65391242123E+02 -0.82827302888E+02  0.27658111153E+02  0.10909329846E+03  0.25500000920E-02 0.  1.
       -2    1    3    3    0  502 -0.65391242123E+02  0.82827302888E+02  0.14648474072E+04  0.14686436950E+04  0.25500000920E-02 0. -1.
</event>
<event>
 5   0  0.3111146E-01  0.4970987E+03  0.7818609E-02  0.1014539E+00
       -2   -1    0    0    0  501  0.00000000000E+00  0.00000000000E+00  0.92543666802E+03  0.92543666802E+03  0.25500000920E-02 0. -1.
        2   -1    0    0  501    0  0.00000000000E+00  0.00000000000E+00 -0.66754203816E+02  0.66754203864E+02  0.25500000920E-02 0.  1.
    10030    2    1    2    0    0  0.00000000000E+00  0.00000000000E+00  0.85868246421E+03  0.99219087189E+03  0.49709873459E+03 0.  0.
        1    1    3    3  502    0 -0.16145663476E+03  0.17523024401E+03  0.28816431895E+03  0.37391517496E+03  0.50400001928E-02 0.  1.
       -1    1    3    3    0  502  0.16145663476E+03 -0.17523024401E+03  0.57051814525E+03  0.61827569693E+03  0.50400001928E-02 0. -1.
</event>
<event>
 5   0  0.3111146E-01  0.3514882E+03  0.7818609E-02  0.1062006E+00
        2   -1    0    0  501    0  0.00000000000E+00  0.00000000000E+00  0.31931854137E+03  0.31931854138E+03  0.25500000920E-02 0.  1.
       -2   -1    0    0    0  501  0.00000000000E+00  0.00000000000E+00 -0.96724701579E+02  0.96724701613E+02  0.25500000920E-02 0. -1.
    10030    2    1    2    0    0  0.00000000000E+00  0.00000000000E+00  0.22259383979E+03  0.41604324299E+03  0.35148821108E+03 0.  0.
        1    1    3    3  502    0 -0.16230682112E+02  0.12258332958E+03 -0.36522907928E+02  0.12893421021E+03  0.50400001928E-02 0. -1.
       -1    1    3    3    0  502  0.16230682112E+02 -0.12258332958E+03  0.25911674772E+03  0.28710903279E+03  0.50400001928E-02 0.  1.
</event>
<event>
 5   0  0.1984680E-01  0.5420901E+03  0.7818609E-02  0.1003342E+00
       -1   -1    0    0    0  501  0.00000000000E+00  0.00000000000E+00  0.11913905215E+03  0.11913905226E+03  0.50400001928E-02 0.  1.
        1   -1    0    0  501    0  0.00000000000E+00  0.00000000000E+00 -0.61663589501E+03  0.61663589503E+03  0.50400001928E-02 0. -1.
    10030    2    1    2    0    0  0.00000000000E+00  0.00000000000E+00 -0.49749684285E+03  0.73577494729E+03  0.54209008883E+03 0.  0.
        5    1    3    3  502    0 -0.11473451485E+03  0.23520934303E+03 -0.15319769027E+03  0.30328050753E+03  0.46999998093E+01 0.  1.
       -5    1    3    3    0  502  0.11473451485E+03 -0.23520934303E+03 -0.34429915258E+03  0.43249443975E+03  0.46999998093E+01 0. -1.
</event>
<event>
 5   0  0.2000612E-01  0.5018754E+03  0.7818609E-02  0.1013291E+00
        1   -1    0    0  501    0  0.00000000000E+00  0.00000000000E+00  0.18203287904E+04  0.18203287904E+04  0.50400001928E-02 0. -1.
       -1   -1    0    0    0  501  0.00000000000E+00  0.00000000000E+00 -0.34592503643E+02  0.34592504010E+02  0.50400001928E-02 0.  1.
    10030    2    1    2    0    0  0.00000000000E+00  0.00000000000E+00  0.17857362868E+04  0.18549212944E+04  0.50187540550E+03 0.  0.
        2    1    3    3  502    0  0.11828504460E+03  0.48577182058E+02  0.94856264971E+02  0.15921308176E+03  0.25500000920E-02 0.  1.
       -2    1    3    3    0  502 -0.11828504460E+03 -0.48577182058E+02  0.16908800218E+04  0.16957082127E+04  0.25500000920E-02 0. -1.
</event>
<event>
 5   0  0.3187123E-01  0.5158757E+03  0.7818609E-02  0.1009716E+00
       -2   -1    0    0    0  501  0.00000000000E+00  0.00000000000E+00  0.14822205677E+03  0.14822205680E+03  0.25500000920E-02 0. -1.
        2   -1    0    0  501    0  0.00000000000E+00  0.00000000000E+00 -0.44886661692E+03  0.44886661693E+03  0.25500000920E-02 0.  1.
    10030    2    1    2    0    0  0.00000000000E+00  0.00000000000E+00 -0.30064456015E+03  0.59708867372E+03  0.51587569505E+03 0.  0.
        5    1    3    3  502    0 -0.91238384512E+02 -0.61968199051E+02  0.11949821316E+03  0.16268501298E+03  0.46999998093E+01 0. -1.
       -5    1    3    3    0  502  0.91238384512E+02  0.61968199051E+02 -0.42014277331E+03  0.43440366074E+03  0.46999998093E+01 0.  1.
</event>
<event>
 5   0  0.1984680E-01  0.4495228E+03  0.7818609E-02  0.1027864E+00
       -1   -1    0    0    0  501  0.00000000000E+00  0.00000000000E+00  0.66905238384E+03  0.66905238386E+03  0.50400001928E-02 0.  1.
        1   -1    0    0  501    0  0.00000000000E+00  0.00000000000E+00 -0.75506315344E+02  0.75506315512E+02  0.50400001928E-02 0. -1.
    10030    2    1    2    0    0  0.00000000000E+00  0.00000000000E+00  0.59354606850E+03  0.74455869937E+03  0.44952277070E+03 0.  0.
        5    1    3    3  502    0 -0.35656653975E+02 -0.37073039636E+02 -0.65542732195E+02  0.83449068193E+02  0.46999998093E+01 0. -1.
       -5    1    3    3    0  502  0.35656653975E+02  0.37073039636E+02  0.65908880069E+03  0.66110963118E+03  0.46999998093E+01 0.  1.
</event>
<event>
 5   0  0.2000612E-01  0.5067709E+03  0.7818609E-02  0.1012027E+00
       -1   -1    0    0    0  501  0.00000000000E+00  0.00000000000E+00  0.11901699236E+03  0.11901699247E+03  0.50400001928E-02 0. -1.
        1   -1    0    0  501    0  0.00000000000E+00  0.00000000000E+00 -0.53945393184E+03  0.53945393186E+03  0.50400001928E-02 0.  1.
    10030    2    1    2    0    0  0.00000000000E+00  0.00000000000E+00 -0.42043693947E+03  0.65847092433E+03  0.50677089312E+03 0.  0.
        2    1    3    3  502    0 -0.20364710746E+03 -0.95871968813E+02 -0.36141575259E+03  0.42577567451E+03  0.25500000920E-02 0. -1.
       -2    1    3    3    0  502  0.20364710746E+03  0.95871968813E+02 -0.59021186888E+02  0.23269524982E+03  0.25500000920E-02 0.  1.
</event>
<event>
 5   0  0.3187123E-01  0.5068752E+03  0.7818609E-02  0.1012000E+00
        2   -1    0    0  501    0  0.00000000000E+00  0.00000000000E+00  0.10593664294E+04  0.10593664294E+04  0.25500000920E-02 0. -1.
       -2   -1    0    0    0  501  0.00000000000E+00  0.00000000000E+00 -0.60631156058E+02  0.60631156111E+02  0.25500000920E-02 0.  1.
    10030    2    1    2    0    0  0.00000000000E+00  0.00000000000E+00  0.99873527338E+03  0.11199975855E+04  0.50687517729E+03 0.  0.
        5    1    3    3  502    0  0.12553149398E+03  0.13632849304E+03  0.11751424819E+03  0.21948872983E+03  0.46999998093E+01 0.  1.
       -5    1    3    3    0  502 -0.12553149398E+03 -0.13632849304E+03  0.88122102519E+03  0.90050885572E+03  0.46999998093E+01 0. -1.
</event>
<event>
 5   0  0.3111146E-01  0.4883029E+03  0.7818609E-02  0.1016878E+00
       -2   -1    0    0    0  501  0.00000000000E+00  0.00000000000E+00  0.71471406073E+02  0.71471406119E+02  0.25500000920E-02 0. -1.
        2   -1    0    0  501    0  0.00000000000E+00  0.00000000000E+00 -0.83403888468E+03  0.83403888469E+03  0.25500000920E-02 0.  1.
    10030    2    1    2    0    0  0.00000000000E+00  0.00000000000E+00 -0.76256747861E+03  0.90551029081E+03  0.48830290530E+03 0.  0.
        1    1    3    3  502    0  0.22021444345E+03  0.33503068230E+02 -0.19590767474E+03  0.29664233301E+03  0.50400001928E-02 0. -1.
       -1    1    3    3    0  502 -0.22021444345E+03 -0.33503068230E+02 -0.56665980387E+03  0.60886795780E+03  0.50400001928E-02 0.  1.
</event>
<event>
 5   0  0.2000612E-01  0.4670893E+03  0.7818609E-02  0.1022745E+00
       -1   -1    0    0    0  501  0.00000000000E+00  0.00000000000E+00  0.90440883184E+02  0.90440883325E+02  0.50400001928E-02 0. -1.
        1   -1    0    0  501    0  0.00000000000E+00  0.00000000000E+00 -0.60308015723E+03  0.60308015725E+03  0.50400001928E-02 0.  1.
    10030    2    1    2    0    0  0.00000000000E+00  0.00000000000E+00 -0.51263927404E+03  0.69352104057E+03  0.46708929385E+03 0.  0.
        2    1    3    3  502    0 -0.20028223286E+03 -0.75030744108E+02 -0.39560767321E+03  0.44971993114E+03  0.25500000920E-02 0.  1.
       -2    1    3    3    0  502  0.20028223286E+03  0.75030744108E+02 -0.11703160084E+03  0.24380110943E+03  0.25500000920E-02 0. -1.
</event>
<event>
 5   0  0.1984680E-01  0.4811312E+03  0.7818609E-02  0.1018825E+00
        1   -1    0    0  501    0  0.00000000000E+00  0.00000000000E+00  0.24893818621E+03  0.24893818626E+03  0.50400001928E-02 0.  1.
       -1   -1    0    0    0  501  0.00000000000E+00  0.00000000000E+00 -0.23247461340E+03  0.23247461346E+03  0.50400001928E-02 0. -1.
    10030    2    1    2    0    0  0.00000000000E+00  0.00000000000E+00  0.16463572803E+02  0.48141279971E+03  0.48113120300E+03 0.  0.
        5    1    3    3  502    0  0.20955598154E+03 -0.36932109127E+02  0.12042246861E+03  0.24454314758E+03  0.46999998093E+01 0.  1.
       -5    1    3    3    0  502 -0.20955598154E+03  0.36932109127E+02 -0.10395889581E+03  0.23686965213E+03  0.46999998093E+01 0. -1.
</event>
<event>
 5   0  0.1984297E-01  0.4870998E+03  0.7818609E-02  0.1017202E+00
       -1   -1    0    0    0  501  0.00000000000E+00  0.00000000000E+00  0.12778751876E+03  0.12778751885E+03  0.50400001928E-02 0. -1.
        1   -1    0    0  501    0  0.00000000000E+00  0.00000000000E+00 -0.46418103492E+03  0.46418103495E+03  0.50400001928E-02 0.  1.
    10030    2    1    2    0    0  0.00000000000E+00  0.00000000000E+00 -0.33639351617E+03  0.59196855380E+03  0.48709975464E+03 0.  0.
        3    1    3    3  502    0  0.20247993407E+03 -0.78274605105E+02 -0.34010139445E+02  0.21973105673E+03  0.10100000352E+00 0. -1.
       -3    1    3    3    0  502 -0.20247993407E+03  0.78274605105E+02 -0.30238337672E+03  0.37223749707E+03  0.10100000352E+00 0.  1.
</event>
<event>
 5   0  0.1984297E-01  0.4350009E+03  0.7818609E-02  0.1032292E+00
        1   -1    0    0  501    0  0.00000000000E+00  0.00000000000E+00  0.67978749421E+02  0.67978749608E+02  0.50400001928E-02 0. -1.
       -1   -1    0    0    0  501  0.00000000000E+00  0.00000000000E+00 -0.69590059601E+03  0.69590059603E+03  0.50400001928E-02 0.  1.
    10030    2    1    2    0    0  0.00000000000E+00  0.00000000000E+00 -0.62792184659E+03  0.76387934563E+03  0.43500093019E+03 0.  0.
        3    1    3    3  502    0  0.38742644600E+02 -0.17078461976E+03 -0.87451660125E+02  0.19574519641E+03  0.10100000352E+00 0. -1.
       -3    1    3    3    0  502 -0.38742644600E+02  0.17078461976E+03 -0.54047018646E+03  0.56813414922E+03  0.10100000352E+00 0.  1.
</event>
<event>
 5   0  0.1984680E-01  0.5062767E+03  0.7818609E-02  0.1012153E+00
        1   -1    0    0  501    0  0.00000000000E+00  0.00000000000E+00  0.23054689099E+03  0.23054689105E+03  0.50400001928E-02 0.  1.
       -1   -1    0    0    0  501  0.00000000000E+00  0.00000000000E+00 -0.27794360891E+03  0.27794360896E+03  0.50400001928E-02 0. -1.
    10030    2    1    2    0    0  0.00000000000E+00  0.00000000000E+00 -0.47396717917E+02  0.50849050000E+03  0.50627674223E+03 0.  0.
        5    1    3    3  502    0  0.12593166145E+03 -0.69982310021E+02 -0.23269630289E+03  0.27372607923E+03  0.46999998093E+01 0. -1.
       -5    1    3    3    0  502 -0.12593166145E+03  0.69982310021E+02  0.18529958497E+03  0.23476442078E+03  0.46999998093E+01 0.  1.
</event>
<event>
 5   0  0.2013450E-01  0.5062732E+03  0.7818609E-02  0.1012154E+00
        1   -1    0    0  501    0  0.00000000000E+00  0.00000000000E+00  0.62185332929E+03  0.62185332931E+03  0.50400001928E-02 0.  1.
       -1   -1    0    0    0  501  0.00000000000E+00  0.00000000000E+00 -0.10304382315E+03  0.10304382327E+03  0.50400001928E-02 0. -1.
    10030    2    1    2    0    0  0.00000000000E+00  0.00000000000E+00  0.51880950614E+03  0.72489715259E+03  0.50627322482E+03 0.  0.
        4    1    3    3  502    0  0.82588149134E+02  0.28219922432E+02 -0.80814925464E+02  0.11895306418E+03  0.12699999809E+01 0. -1.
       -4    1    3    3    0  502 -0.82588149134E+02 -0.28219922432E+02  0.59962443161E+03  0.60594408841E+03  0.12699999809E+01 0.  1.
</event>
<event>
 5   0  0.1984297E-01  0.4660945E+03  0.7818609E-02  0.1023028E+00
       -1   -1    0    0    0  501  0.00000000000E+00  0.00000000000E+00  0.15205591668E+03  0.15205591676E+03  0.50400001928E-02 0.  1.
        1   -1    0    0  501    0  0.00000000000E+00  0.00000000000E+00 -0.35717790909E+03  0.35717790913E+03  0.50400001928E-02 0. -1.
    10030    2    1    2    0    0  0.00000000000E+00  0.00000000000E+00 -0.20512199241E+03  0.50923382589E+03  0.46609447289E+03 0.  0.
        3    1    3    3  502    0 -0.66376165157E+02  0.20161991149E+03  0.25438137477E+01  0.21228015734E+03  0.10100000352E+00 0.  1.
       -3    1    3    3    0  502  0.66376165157E+02 -0.20161991149E+03 -0.20766580616E+03  0.29695366854E+03  0.10100000352E+00 0. -1.
</event>
<event>
 5   0  0.3117389E-01  0.4960005E+03  0.7818609E-02  0.1014828E+00
        2   -1    0    0  501    0  0.00000000000E+00  0.00000000000E+00  0.52894388420E+03  0.52894388421E+03  0.25500000920E-02 0.  1.
       -2   -1    0    0    0  501  0.00000000000E+00  0.00000000000E+00 -0.11627720992E+03  0.11627720995E+03  0.25500000920E-02 0. -1.
    10030    2    1    2    0    0  0.00000000000E+00  0.00000000000E+00  0.41266667428E+03  0.64522109416E+03  0.49600048012E+03 0.  0.
        4    1    3    3  502    0 -0.23266259697E+03 -0.10967594908E+02  0.95567593545E+02  0.25176765082E+03  0.12699999809E+01 0. -1.
       -4    1    3    3    0  502  0.23266259697E+03  0.10967594908E+02  0.31709908074E+03  0.39345344333E+03  0.12699999809E+01 0.  1.
</event>
<event>
 5   0  0.1984297E-01  0.5147966E+03  0.7818609E-02  0.1009987E+00
        1   -1    0    0  501    0  0.00000000000E+00  0.00000000000E+00  0.55915705322E+03  0.55915705325E+03  0.50400001928E-02 0. -1.
       -1   -1    0    0    0  501  0.00000000000E+00  0.00000000000E+00 -0.11848886893E+03  0.11848886903E+03  0.50400001928E-02 0.  1.
    10030    2    1    2    0    0  0.00000000000E+00  0.00000000000E+00  0.44066818430E+03  0.67764592228E+03  0.51479660773E+03 0.  0.
        3    1    3    3  502    0 -0.20233706636E+03  0.37780643282E+02  0.42377617188E+03  0.47111985682E+03  0.10100000352E+00 0. -1.
       -3    1    3    3    0  502  0.20233706636E+03 -0.37780643282E+02  0.16892012419E+02  0.20652606546E+03  0.10100000352E+00 0.  1.
</event>
<event>
 5   0  0.3178149E-01  0.4955138E+03  0.7818609E-02  0.1014957E+00
       -2   -1    0    0    0  501  0.00000000000E+00  0.00000000000E+00  0.12593253272E+03  0.12593253274E+03  0.25500000920E-02 0. -1.
        2   -1    0    0  501    0  0.00000000000E+00  0.00000000000E+00 -0.48743141960E+03  0.48743141961E+03  0.25500000920E-02 0.  1.
    10030    2    1    2    0    0  0.00000000000E+00  0.00000000000E+00 -0.36149888689E+03  0.61336395235E+03  0.49551376654E+03 0.  0.
        3    1    3    3  502    0  0.20057966067E+03  0.89876616271E+02 -0.32228245197E+03  0.39009741793E+03  0.10100000352E+00 0. -1.
       -3    1    3    3    0  502 -0.20057966067E+03 -0.89876616271E+02 -0.39216434911E+02  0.22326653442E+03  0.10100000352E+00 0.  1.
</event>
<event>
 5   0  0.3178149E-01  0.6121976E+03  0.7818609E-02  0.9880418E-01
       -2   -1    0    0    0  501  0.00000000000E+00  0.00000000000E+00  0.10230806864E+03  0.10230806867E+03  0.25500000920E-02 0. -1.
        2   -1    0    0  501    0  0.00000000000E+00  0.00000000000E+00 -0.91582695000E+03  0.91582695001E+03  0.25500000920E-02 0.  1.
    10030    2    1    2    0    0  0.00000000000E+00  0.00000000000E+00 -0.81351888137E+03  0.10181350187E+04  0.61219763632E+03 0.  0.
        3    1    3    3  502    0  0.17639185544E+03 -0.24084926812E+03 -0.51923618577E+03  0.59893963255E+03  0.10100000352E+00 0. -1.
       -3    1    3    3    0  502 -0.17639185544E+03  0.24084926812E+03 -0.29428269560E+03  0.41919538613E+03  0.10100000352E+00 0.  1.
</event>
<event>
 5   0  0.1292375E-01  0.4435754E+03  0.7818609E-02  0.1029655E+00
       -4   -1    0    0    0  501  0.00000000000E+00  0.00000000000E+00  0.78096643941E+02  0.78106969567E+02  0.12699999809E+01 0.  1.
        4   -1    0    0  501    0  0.00000000000E+00  0.00000000000E+00 -0.62980525396E+03  0.62980653443E+03  0.12699999809E+01 0. -1.
    10030    2    1    2    0    0  0.00000000000E+00  0.00000000000E+00 -0.55170861002E+03  0.70791350400E+03  0.44357540371E+03 0.  0.
        2    1    3    3  502    0 -0.72120349126E+02 -0.20845909898E+03 -0.31270754894E+03  0.38267813091E+03  0.25500000920E-02 0. -1.
       -2    1    3    3    0  502  0.72120349126E+02  0.20845909898E+03 -0.23900106108E+03  0.32523537309E+03  0.25500000920E-02 0.  1.
</event>
<event>
 5   0  0.3187123E-01  0.2955783E+03  0.7818609E-02  0.1087472E+00
       -2   -1    0    0    0  501  0.00000000000E+00  0.00000000000E+00  0.56726544785E+02  0.56726544842E+02  0.25500000920E-02 0. -1.
        2   -1    0    0  501    0  0.00000000000E+00  0.00000000000E+00 -0.38503377046E+03  0.38503377047E+03  0.25500000920E-02 0.  1.
    10030    2    1    2    0    0  0.00000000000E+00  0.00000000000E+00 -0.32830722567E+03  0.44176031531E+03  0.29557831746E+03 0.  0.
        5    1    3    3  502    0  0.82517344485E+01 -0.12759130090E+02  0.55443668468E+02  0.57679952266E+02  0.46999998093E+01 0. -1.
       -5    1    3    3    0  502 -0.82517344485E+01  0.12759130090E+02 -0.38375089414E+03  0.38408036304E+03  0.46999998093E+01 0.  1.
</event>
<event>
 5   0  0.1984680E-01  0.4832234E+03  0.7818609E-02  0.1018253E+00
       -1   -1    0    0    0  501  0.00000000000E+00  0.00000000000E+00  0.90168733230E+02  0.90168733371E+02  0.50400001928E-02 0.  1.
        1   -1    0    0  501    0  0.00000000000E+00  0.00000000000E+00 -0.64741081879E+03  0.64741081881E+03  0.50400001928E-02 0. -1.
    10030    2    1    2    0    0  0.00000000000E+00  0.00000000000E+00 -0.55724208556E+03  0.73757955218E+03  0.48322339955E+03 0.  0.
        5    1    3    3  502    0  0.10867144920E+03  0.11808687845E+03 -0.30265279533E+01  0.16057784592E+03  0.46999998093E+01 0.  1.
       -5    1    3    3    0  502 -0.10867144920E+03 -0.11808687845E+03 -0.55421555760E+03  0.57700170625E+03  0.46999998093E+01 0. -1.
</event>
<event>
 5   0  0.2000612E-01  0.5056955E+03  0.7818609E-02  0.1012303E+00
        1   -1    0    0  501    0  0.00000000000E+00  0.00000000000E+00  0.11057580576E+04  0.11057580576E+04  0.50400001928E-02 0.  1.
       -1   -1    0    0    0  501  0.00000000000E+00  0.00000000000E+00 -0.57817324062E+02  0.57817324282E+02  0.50400001928E-02 0. -1.
    10030    2    1    2    0    0  0.00000000000E+00  0.00000000000E+00  0.10479407335E+04  0.11635753819E+04  0.50569545018E+03 0.  0.
        2    1    3    3  502    0  0.23642322069E+03 -0.79508449154E+01  0.31851789429E+03  0.39675282507E+03  0.25500000920E-02 0.  1.
       -2    1    3    3    0  502 -0.23642322069E+03  0.79508449154E+01  0.72942283922E+03  0.76682255679E+03  0.25500000920E-02 0. -1.
</event>
<event>
 5   0  0.3187123E-01  0.5050176E+03  0.7818609E-02  0.1012477E+00
       -2   -1    0    0    0  501  0.00000000000E+00  0.00000000000E+00  0.19340357661E+02  0.19340357829E+02  0.25500000920E-02 0.  1.
        2   -1    0    0  501    0  0.00000000000E+00  0.00000000000E+00 -0.32967692024E+04  0.32967692024E+04  0.25500000920E-02 0. -1.
    10030    2    1    2    0    0  0.00000000000E+00  0.00000000000E+00 -0.32774288447E+04  0.33161095602E+04  0.50501760675E+03 0.  0.
        5    1    3    3  502    0 -0.11823933647E+03  0.71315416502E+02 -0.25086960715E+03  0.28639846213E+03  0.46999998093E+01 0.  1.
       -5    1    3    3    0  502  0.11823933647E+03 -0.71315416502E+02 -0.30265592376E+04  0.30297110981E+04  0.46999998093E+01 0. -1.
</event>
<event>
 5   0  0.3111146E-01  0.5319592E+03  0.7818609E-02  0.1005758E+00
        2   -1    0    0  501    0  0.00000000000E+00  0.00000000000E+00  0.53852753792E+03  0.53852753793E+03  0.25500000920E-02 0. -1.
       -2   -1    0    0    0  501  0.00000000000E+00  0.00000000000E+00 -0.13136772869E+03  0.13136772871E+03  0.25500000920E-02 0.  1.
    10030    2    1    2    0    0  0.00000000000E+00  0.00000000000E+00  0.40715980924E+03  0.66989526664E+03  0.53195916950E+03 0.  0.
        1    1    3    3  502    0 -0.15818689186E+03 -0.16393761505E+02 -0.64899686645E+02  0.17176675325E+03  0.50400001928E-02 0.  1.
       -1    1    3    3    0  502  0.15818689186E+03  0.16393761505E+02  0.47205949588E+03  0.49812851339E+03  0.50400001928E-02 0. -1.
</event>
<event>
 5   0  0.2000612E-01  0.5033587E+03  0.7818609E-02  0.1012906E+00
       -1   -1    0    0    0  501  0.00000000000E+00  0.00000000000E+00  0.27500141366E+02  0.27500141828E+02  0.50400001928E-02 0.  1.
        1   -1    0    0  501    0  0.00000000000E+00  0.00000000000E+00 -0.23033520017E+04  0.23033520017E+04  0.50400001928E-02 0. -1.
    10030    2    1    2    0    0  0.00000000000E+00  0.00000000000E+00 -0.22758518603E+04  0.23308521435E+04  0.50335874367E+03 0.  0.
        2    1    3    3  502    0  0.20556911139E+03 -0.46292271299E+02 -0.17752159183E+04  0.17876781563E+04  0.25500000920E-02 0. -1.
       -2    1    3    3    0  502 -0.20556911139E+03  0.46292271299E+02 -0.50063594203E+03  0.54317398722E+03  0.25500000920E-02 0.  1.
</event>
<event>
 5   0  0.3111146E-01  0.5760242E+03  0.7818609E-02  0.9956436E-01
       -2   -1    0    0    0  501  0.00000000000E+00  0.00000000000E+00  0.27022868226E+03  0.27022868227E+03  0.25500000920E-02 0. -1.
        2   -1    0    0  501    0  0.00000000000E+00  0.00000000000E+00 -0.30696585821E+03  0.30696585822E+03  0.25500000920E-02 0.  1.
    10030    2    1    2    0    0  0.00000000000E+00  0.00000000000E+00 -0.36737175954E+02  0.57719454049E+03  0.57602423341E+03 0.  0.
        1    1    3    3  502    0  0.19136466490E+03 -0.20724926120E+03 -0.76609719225E+02  0.29230419146E+03  0.50400001928E-02 0. -1.
       -1    1    3    3    0  502 -0.19136466490E+03  0.20724926120E+03  0.39872543271E+02  0.28489034903E+03  0.50400001928E-02 0.  1.
</event>
<event>
 5   0  0.2013450E-01  0.5053985E+03  0.7818609E-02  0.1012379E+00
        1   -1    0    0  501    0  0.00000000000E+00  0.00000000000E+00  0.22268338738E+03  0.22268338744E+03  0.50400001928E-02 0.  1.
       -1   -1    0    0    0  501  0.00000000000E+00  0.00000000000E+00 -0.28676098632E+03  0.28676098636E+03  0.50400001928E-02 0. -1.
    10030    2    1    2    0    0  0.00000000000E+00  0.00000000000E+00 -0.64077598933E+02  0.50944437380E+03  0.50539848765E+03 0.  0.
        4    1    3    3  502    0  0.17855358721E+03 -0.16728044499E+03  0.31642604165E+02  0.24671237925E+03  0.12699999809E+01 0.  1.
       -4    1    3    3    0  502 -0.17855358721E+03  0.16728044499E+03 -0.95720203098E+02  0.26273199455E+03  0.12699999809E+01 0. -1.
</event>
<event>
 5   0  0.1292375E-01  0.4011775E+03  0.7818609E-02  0.1043373E+00
       -3   -1    0    0    0  501  0.00000000000E+00  0.00000000000E+00  0.19177656763E+03  0.19177659423E+03  0.10100000352E+00 0.  1.
        3   -1    0    0  501    0  0.00000000000E+00  0.00000000000E+00 -0.20980581503E+03  0.20980583934E+03  0.10100000352E+00 0. -1.
    10030    2    1    2    0    0  0.00000000000E+00  0.00000000000E+00 -0.18029247401E+02  0.40158243357E+03  0.40117751332E+03 0.  0.
        4    1    3    3  502    0 -0.25282245829E+02  0.78991703681E+02 -0.19183344728E+03  0.20899896076E+03  0.12699999809E+01 0. -1.
       -4    1    3    3    0  502  0.25282245829E+02 -0.78991703681E+02  0.17380419988E+03  0.19258347281E+03  0.12699999809E+01 0.  1.
</event>
<event>
 5   0  0.3178149E-01  0.5088644E+03  0.7818609E-02  0.1011491E+00
       -2   -1    0    0    0  501  0.00000000000E+00  0.00000000000E+00  0.87961417860E+03  0.87961417861E+03  0.25500000920E-02 0.  1.
        2   -1    0    0  501    0  0.00000000000E+00  0.00000000000E+00 -0.73595614295E+02  0.73595614340E+02  0.25500000920E-02 0. -1.
    10030    2    1    2    0    0  0.00000000000E+00  0.00000000000E+00  0.80601856431E+03  0.95320979295E+03  0.50886440567E+03 0.  0.
        3    1    3    3  502    0 -0.20979480438E+03  0.12184056423E+02  0.67169198905E+03  0.70379858591E+03  0.10100000352E+00 0.  1.
       -3    1    3    3    0  502  0.20979480438E+03 -0.12184056423E+02  0.13432657526E+03  0.24941120704E+03  0.10100000352E+00 0. -1.
</event>
<event>
 5   0  0.2013450E-01  0.5092693E+03  0.7818609E-02  0.1011387E+00
        1   -1    0    0  501    0  0.00000000000E+00  0.00000000000E+00  0.10474924121E+04  0.10474924121E+04  0.50400001928E-02 0.  1.
       -1   -1    0    0    0  501  0.00000000000E+00  0.00000000000E+00 -0.61899079420E+02  0.61899079625E+02  0.50400001928E-02 0. -1.
    10030    2    1    2    0    0  0.00000000000E+00  0.00000000000E+00  0.98559333270E+03  0.11093914918E+04  0.50926934378E+03 0.  0.
        4    1    3    3  502    0 -0.80595423827E+02  0.23982839916E+03  0.43026791176E+03  0.49914464054E+03  0.12699999809E+01 0. -1.
       -4    1    3    3    0  502  0.80595423827E+02 -0.23982839916E+03  0.55532542094E+03  0.61024685122E+03  0.12699999809E+01 0.  1.
</event>
<event>
 5   0  0.3178149E-01  0.4978716E+03  0.7818609E-02  0.1014336E+00
       -2   -1    0    0    0  501  0.00000000000E+00  0.00000000000E+00  0.10038050855E+03  0.10038050858E+03  0.25500000920E-02 0.  1.
        2   -1    0    0  501    0  0.00000000000E+00  0.00000000000E+00 -0.61734131442E+03  0.61734131443E+03  0.25500000920E-02 0. -1.
    10030    2    1    2    0    0  0.00000000000E+00  0.00000000000E+00 -0.51696080587E+03  0.71772182301E+03  0.49787161038E+03 0.  0.
        3    1    3    3  502    0  0.11758631204E+03  0.21763729298E+03 -0.29865092848E+03  0.38779494499E+03  0.10100000352E+00 0. -1.
       -3    1    3    3    0  502 -0.11758631204E+03 -0.21763729298E+03 -0.21830987739E+03  0.32992687803E+03  0.10100000352E+00 0.  1.
</event>
<event>
 5   0  0.3117389E-01  0.4979220E+03  0.7818609E-02  0.1014323E+00
       -2   -1    0    0    0  501  0.00000000000E+00  0.00000000000E+00  0.62794222787E+02  0.62794222839E+02  0.25500000920E-02 0. -1.
        2   -1    0    0  501    0  0.00000000000E+00  0.00000000000E+00 -0.98705874377E+03  0.98705874377E+03  0.25500000920E-02 0.  1.
    10030    2    1    2    0    0  0.00000000000E+00  0.00000000000E+00 -0.92426452098E+03  0.10498529666E+04  0.49792202879E+03 0.  0.
        4    1    3    3  502    0 -0.41168734652E+02  0.21007299098E+03 -0.73011893185E+03  0.76085530412E+03  0.12699999809E+01 0.  1.
       -4    1    3    3    0  502  0.41168734652E+02 -0.21007299098E+03 -0.19414558913E+03  0.28899766250E+03  0.12699999809E+01 0. -1.
</event>
<event>
 5   0  0.3329246E-01  0.4742573E+03  0.7818609E-02  0.1020725E+00
       -2   -1    0    0    0  501  0.00000000000E+00  0.00000000000E+00  0.86031343420E+03  0.86031343420E+03  0.25500000920E-02 0.  1.
        2   -1    0    0  501    0  0.00000000000E+00  0.00000000000E+00 -0.65359899877E+02  0.65359899926E+02  0.25500000920E-02 0. -1.
    10030    2    1    2    0    0  0.00000000000E+00  0.00000000000E+00  0.79495353432E+03  0.92567333413E+03  0.47425731390E+03 0.  0.
        2    1    3    3  502    0 -0.20485825407E+03  0.11394750692E+03  0.46728222874E+03  0.52278448705E+03  0.25500000920E-02 0.  1.
       -2    1    3    3    0  502  0.20485825407E+03 -0.11394750692E+03  0.32767130558E+03  0.40288884708E+03  0.25500000920E-02 0. -1.
</event>
<event>
 5   0  0.3329246E-01  0.4899314E+03  0.7818609E-02  0.1016441E+00
        2   -1    0    0  501    0  0.00000000000E+00  0.00000000000E+00  0.56423882063E+03  0.56423882064E+03  0.25500000920E-02 0. -1.
       -2   -1    0    0    0  501  0.00000000000E+00  0.00000000000E+00 -0.10635249301E+03  0.10635249304E+03  0.25500000920E-02 0.  1.
    10030    2    1    2    0    0  0.00000000000E+00  0.00000000000E+00  0.45788632762E+03  0.67059131368E+03  0.48993144516E+03 0.  0.
        2    1    3    3  502    0  0.19146077650E+03 -0.15224036305E+03  0.24699027315E+03  0.34761840014E+03  0.25500000920E-02 0.  1.
       -2    1    3    3    0  502 -0.19146077650E+03  0.15224036305E+03  0.21089605447E+03  0.32297291354E+03  0.25500000920E-02 0. -1.
</event>
<event>
 5   0  0.2000612E-01  0.5032726E+03  0.7818609E-02  0.1012928E+00
        1   -1    0    0  501    0  0.00000000000E+00  0.00000000000E+00  0.83091955877E+03  0.83091955879E+03  0.50400001928E-02 0.  1.
       -1   -1    0    0    0  501  0.00000000000E+00  0.00000000000E+00 -0.76205736054E+02  0.76205736221E+02  0.50400001928E-02 0. -1.
    10030    2    1    2    0    0  0.00000000000E+00  0.00000000000E+00  0.75471382272E+03  0.90712529501E+03  0.50327263649E+03 0.  0.
        2    1    3    3  502    0 -0.14587756829E+03 -0.56475300671E+02  0.22081061487E+02  0.15797878908E+03  0.25500000920E-02 0. -1.
       -2    1    3    3    0  502  0.14587756829E+03  0.56475300671E+02  0.73263276123E+03  0.74914650593E+03  0.25500000920E-02 0.  1.
</event>
<event>
 5   0  0.3329246E-01  0.4999369E+03  0.7818609E-02  0.1013795E+00
        2   -1    0    0  501    0  0.00000000000E+00  0.00000000000E+00  0.54312876291E+03  0.54312876291E+03  0.25500000920E-02 0.  1.
       -2   -1    0    0    0  501  0.00000000000E+00  0.00000000000E+00 -0.11504496428E+03  0.11504496431E+03  0.25500000920E-02 0. -1.
    10030    2    1    2    0    0  0.00000000000E+00  0.00000000000E+00  0.42808379863E+03  0.65817372722E+03  0.49993691258E+03 0.  0.
        2    1    3    3  502    0  0.24671866310E+03 -0.14723932294E+02  0.26325444130E+03  0.36109526966E+03  0.25500000920E-02 0.  1.
       -2    1    3    3    0  502 -0.24671866310E+03  0.14723932294E+02  0.16482935733E+03  0.29707845756E+03  0.25500000920E-02 0. -1.
</event>
<event>
 5   0  0.3187123E-01  0.5008593E+03  0.7818609E-02  0.1013555E+00
       -2   -1    0    0    0  501  0.00000000000E+00  0.00000000000E+00  0.12836053773E+03  0.12836053776E+03  0.25500000920E-02 0.  1.
        2   -1    0    0  501    0  0.00000000000E+00  0.00000000000E+00 -0.48858471776E+03  0.48858471777E+03  0.25500000920E-02 0. -1.
    10030    2    1    2    0    0  0.00000000000E+00  0.00000000000E+00 -0.36022418003E+03  0.61694525553E+03  0.50085925013E+03 0.  0.
        5    1    3    3  502    0  0.65777118634E+02 -0.80529065037E+02  0.10045488729E+03  0.14465418774E+03  0.46999998093E+01 0.  1.
       -5    1    3    3    0  502 -0.65777118634E+02  0.80529065037E+02 -0.46067906732E+03  0.47229106779E+03  0.46999998093E+01 0. -1.
</event>
<event>
 5   0  0.3187123E-01  0.5075162E+03  0.7818609E-02  0.1011835E+00
        2   -1    0    0  501    0  0.00000000000E+00  0.00000000000E+00  0.29072223163E+03  0.29072223164E+03  0.25500000920E-02 0.  1.
       -2   -1    0    0    0  501  0.00000000000E+00  0.00000000000E+00 -0.22149378179E+03  0.22149378181E+03  0.25500000920E-02 0. -1.
    10030    2    1    2    0    0  0.00000000000E+00  0.00000000000E+00  0.69228449835E+02  0.51221601344E+03  0.50751617330E+03 0.  0.
        5    1    3    3  502    0 -0.23845012382E+03  0.92400044173E+01 -0.52365276779E+02  0.24435231008E+03  0.46999998093E+01 0. -1.
       -5    1    3    3    0  502  0.23845012382E+03 -0.92400044173E+01  0.12159372661E+03  0.26786370337E+03  0.46999998093E+01 0.  1.
</event>
<event>
 5   0  0.3178149E-01  0.5008339E+03  0.7818609E-02  0.1013561E+00
       -2   -1    0    0    0  501  0.00000000000E+00  0.00000000000E+00  0.11003705699E+03  0.11003705702E+03  0.25500000920E-02 0.  1.
        2   -1    0    0  501    0  0.00000000000E+00  0.00000000000E+00 -0.56988655081E+03  0.56988655081E+03  0.25500000920E-02 0. -1.
    10030    2    1    2    0    0  0.00000000000E+00  0.00000000000E+00 -0.45984949381E+03  0.67992360784E+03  0.50083386021E+03 0.  0.
        3    1    3    3  502    0 -0.21981149615E+03 -0.10182191924E+03 -0.31604124014E+03  0.39820456144E+03  0.10100000352E+00 0. -1.
       -3    1    3    3    0  502  0.21981149615E+03  0.10182191924E+03 -0.14380825367E+03  0.28171904640E+03  0.10100000352E+00 0.  1.
</event>
<event>
 5   0  0.1984680E-01  0.4991941E+03  0.7818609E-02  0.1013989E+00
        1   -1    0    0  501    0  0.00000000000E+00  0.00000000000E+00  0.19804082359E+04  0.19804082359E+04  0.50400001928E-02 0.  1.
       -1   -1    0    0    0  501  0.00000000000E+00  0.00000000000E+00 -0.31457495038E+02  0.31457495442E+02  0.50400001928E-02 0. -1.
    10030    2    1    2    0    0  0.00000000000E+00  0.00000000000E+00  0.19489507409E+04  0.20118657313E+04  0.49919408116E+03 0.  0.
        5    1    3    3  502    0 -0.71581455156E+02 -0.18196052527E+03  0.15993953250E+04  0.16113103466E+04  0.46999998093E+01 0.  1.
       -5    1    3    3    0  502  0.71581455156E+02  0.18196052527E+03  0.34955541583E+03  0.40055538470E+03  0.46999998093E+01 0. -1.
</event>
<event>
 5   0  0.1292375E-01  0.3899817E+03  0.7818609E-02  0.1047305E+00
        3   -1    0    0  501    0  0.00000000000E+00  0.00000000000E+00  0.14163893178E+03  0.14163896779E+03  0.10100000352E+00 0. -1.
       -3   -1    0    0    0  501  0.00000000000E+00  0.00000000000E+00 -0.26843904679E+03  0.26843906579E+03  0.10100000352E+00 0.  1.
    10030    2    1    2    0    0  0.00000000000E+00  0.00000000000E+00 -0.12680011501E+03  0.41007803357E+03  0.38998169759E+03 0.  0.
        5    1    3    3  502    0 -0.87478864356E+02 -0.61036554662E+02  0.10816827974E+03  0.15198841882E+03  0.46999998093E+01 0. -1.
       -5    1    3    3    0  502  0.87478864356E+02  0.61036554662E+02 -0.23496839475E+03  0.25808961476E+03  0.46999998093E+01 0.  1.
</event>
<event>
 5   0  0.1967161E-01  0.5020904E+03  0.7818609E-02  0.1013235E+00
        1   -1    0    0  501    0  0.00000000000E+00  0.00000000000E+00  0.44702746394E+03  0.44702746397E+03  0.50400001928E-02 0.  1.
       -1   -1    0    0    0  501  0.00000000000E+00  0.00000000000E+00 -0.14098394783E+03  0.14098394792E+03  0.50400001928E-02 0. -1.
    10030    2    1    2    0    0  0.00000000000E+00  0.00000000000E+00  0.30604351610E+03  0.58801141189E+03  0.50209041692E+03 0.  0.
        1    1    3    3  502    0 -0.89684567265E+02  0.24806444023E+02  0.42608521252E+03  0.43612760704E+03  0.50400001928E-02 0.  1.
       -1    1    3    3    0  502  0.89684567265E+02 -0.24806444023E+02 -0.12004169642E+03  0.15188380485E+03  0.50400001928E-02 0. -1.
</event>
<event>
 5   0  0.3178149E-01  0.3081029E+03  0.7818609E-02  0.1081259E+00
        2   -1    0    0  501    0  0.00000000000E+00  0.00000000000E+00  0.63658909536E+02  0.63658909587E+02  0.25500000920E-02 0.  1.
       -2   -1    0    0    0  501  0.00000000000E+00  0.00000000000E+00 -0.37279689609E+03  0.37279689610E+03  0.25500000920E-02 0. -1.
    10030    2    1    2    0    0  0.00000000000E+00  0.00000000000E+00 -0.30913798655E+03  0.43645580569E+03  0.30810286527E+03 0.  0.
        3    1    3    3  502    0  0.12097353519E+03 -0.51366094482E+01 -0.28948658967E+03  0.31378890480E+03  0.10100000352E+00 0. -1.
       -3    1    3    3    0  502 -0.12097353519E+03  0.51366094482E+01 -0.19651396881E+02  0.12266690089E+03  0.10100000352E+00 0.  1.
</event>
<event>
 5   0  0.1292375E-01  0.4997920E+03  0.7818609E-02  0.1013833E+00
        4   -1    0    0  501    0  0.00000000000E+00  0.00000000000E+00  0.10169693049E+03  0.10170486011E+03  0.12699999809E+01 0.  1.
       -4   -1    0    0    0  501  0.00000000000E+00  0.00000000000E+00 -0.61402749430E+03  0.61402880768E+03  0.12699999809E+01 0. -1.
    10030    2    1    2    0    0  0.00000000000E+00  0.00000000000E+00 -0.51233056382E+03  0.71573366779E+03  0.49979203334E+03 0.  0.
        4    1    3    3  502    0  0.14393334545E+03 -0.60589189372E+02  0.23210160125E+02  0.15788661196E+03  0.12699999809E+01 0.  1.
       -4    1    3    3    0  502 -0.14393334545E+03  0.60589189372E+02 -0.53554072394E+03  0.55784705583E+03  0.12699999809E+01 0. -1.
</event>
<event>
 5   0  0.3117389E-01  0.4613599E+03  0.7818609E-02  0.1024388E+00
        2   -1    0    0  501    0  0.00000000000E+00  0.00000000000E+00  0.99337861205E+02  0.99337861238E+02  0.25500000920E-02 0.  1.
       -2   -1    0    0    0  501  0.00000000000E+00  0.00000000000E+00 -0.53567930514E+03  0.53567930515E+03  0.25500000920E-02 0. -1.
    10030    2    1    2    0    0  0.00000000000E+00  0.00000000000E+00 -0.43634144394E+03  0.63501716639E+03  0.46135988762E+03 0.  0.
        4    1    3    3  502    0 -0.11706495937E+03 -0.11631526137E+03 -0.44001589528E+03  0.46994579022E+03  0.12699999809E+01 0. -1.
       -4    1    3    3    0  502  0.11706495937E+03  0.11631526137E+03  0.36744513476E+01  0.16507137617E+03  0.12699999809E+01 0.  1.
</event>
<event>
 5   0  0.1292375E-01  0.4877114E+03  0.7818609E-02  0.1017037E+00
        3   -1    0    0  501    0  0.00000000000E+00  0.00000000000E+00  0.34332249736E+03  0.34332251221E+03  0.10100000352E+00 0. -1.
       -3   -1    0    0    0  501  0.00000000000E+00  0.00000000000E+00 -0.17320623559E+03  0.17320626504E+03  0.10100000352E+00 0.  1.
    10030    2    1    2    0    0  0.00000000000E+00  0.00000000000E+00  0.17011626176E+03  0.51652877725E+03  0.48771142617E+03 0.  0.
        2    1    3    3  502    0  0.91588236436E+02  0.13041520839E+03 -0.11042612111E+03  0.19388259298E+03  0.25500000920E-02 0.  1.
       -2    1    3    3    0  502 -0.91588236436E+02 -0.13041520839E+03  0.28054238287E+03  0.32264618427E+03  0.25500000920E-02 0. -1.
</event>
<event>
 5   0  0.2013450E-01  0.5043977E+03  0.7818609E-02  0.1012637E+00
        1   -1    0    0  501    0  0.00000000000E+00  0.00000000000E+00  0.70874677100E+03  0.70874677102E+03  0.50400001928E-02 0.  1.
       -1   -1    0    0    0  501  0.00000000000E+00  0.00000000000E+00 -0.89741866251E+02  0.89741866392E+02  0.50400001928E-02 0. -1.
    10030    2    1    2    0    0  0.00000000000E+00  0.00000000000E+00  0.61900490475E+03  0.79848863741E+03  0.50439769227E+03 0.  0.
        4    1    3    3  502    0  0.97761976267E+02  0.38139907957E+02  0.67253842855E+03  0.68067731515E+03  0.12699999809E+01 0.  1.
       -4    1    3    3    0  502 -0.97761976267E+02 -0.38139907957E+02 -0.53533523800E+02  0.11781132226E+03  0.12699999809E+01 0. -1.
</event>
<event>
 5   0  0.3117389E-01  0.4260597E+03  0.7818609E-02  0.1035112E+00
       -2   -1    0    0    0  501  0.00000000000E+00  0.00000000000E+00  0.18980169391E+02  0.18980169563E+02  0.25500000920E-02 0.  1.
        2   -1    0    0  501    0  0.00000000000E+00  0.00000000000E+00 -0.23910067235E+04  0.23910067235E+04  0.25500000920E-02 0. -1.
    10030    2    1    2    0    0  0.00000000000E+00  0.00000000000E+00 -0.23720265541E+04  0.24099868931E+04  0.42605968050E+03 0.  0.
        4    1    3    3  502    0 -0.44432111569E+02  0.11649651526E+03 -0.21630328325E+04  0.21666237094E+04  0.12699999809E+01 0. -1.
       -4    1    3    3    0  502  0.44432111569E+02 -0.11649651526E+03 -0.20899372158E+03  0.24336318367E+03  0.12699999809E+01 0.  1.
</event>
<event>
 5   0  0.3111146E-01  0.5010465E+03  0.7818609E-02  0.1013506E+00
        2   -1    0    0  501    0  0.00000000000E+00  0.00000000000E+00  0.13999872266E+04  0.13999872266E+04  0.25500000920E-02 0.  1.
       -2   -1    0    0    0  501  0.00000000000E+00  0.00000000000E+00 -0.44830342451E+02  0.44830342523E+02  0.25500000920E-02 0. -1.
    10030    2    1    2    0    0  0.00000000000E+00  0.00000000000E+00  0.13551568841E+04  0.14448175691E+04  0.50104653216E+03 0.  0.
        1    1    3    3  502    0  0.18378191937E+03  0.17019955014E+03  0.66526777911E+03  0.71086208135E+03  0.50400001928E-02 0. -1.
       -1    1    3    3    0  502 -0.18378191937E+03 -0.17019955014E+03  0.68988910500E+03  0.73395548773E+03  0.50400001928E-02 0.  1.
</event>
<event>
 5   0  0.3329246E-01  0.4715674E+03  0.7818609E-02  0.1021479E+00
        2   -1    0    0  501    0  0.00000000000E+00  0.00000000000E+00  0.27625041530E+03  0.27625041531E+03  0.25500000920E-02 0.  1.
       -2   -1    0    0    0  501  0.00000000000E+00  0.00000000000E+00 -0.20124475916E+03  0.20124475918E+03  0.25500000920E-02 0. -1.
    10030    2    1    2    0    0  0.00000000000E+00  0.00000000000E+00  0.75005656131E+02  0.47749517449E+03  0.47156737929E+03 0.  0.
        2    1    3    3  502    0 -0.22758731578E+03  0.51391438801E+02  0.30623028427E+01  0.23333761803E+03  0.25500000920E-02 0. -1.
       -2    1    3    3    0  502  0.22758731578E+03 -0.51391438801E+02  0.71943353288E+02  0.24415755645E+03  0.25500000920E-02 0.  1.
</event>
<event>
 5   0  0.1984297E-01  0.5071677E+03  0.7818609E-02  0.1011925E+00
       -1   -1    0    0    0  501  0.00000000000E+00  0.00000000000E+00  0.67177964762E+02  0.67177964951E+02  0.50400001928E-02 0. -1.
        1   -1    0    0  501    0  0.00000000000E+00  0.00000000000E+00 -0.95723016025E+03  0.95723016026E+03  0.50400001928E-02 0.  1.
    10030    2    1    2    0    0  0.00000000000E+00  0.00000000000E+00 -0.89005219548E+03  0.10244081252E+04  0.50716772010E+03 0.  0.
        3    1    3    3  502    0 -0.61613812274E+02  0.14568548934E+03 -0.44684618633E+02  0.16436924594E+03  0.10100000352E+00 0. -1.
       -3    1    3    3    0  502  0.61613812274E+02 -0.14568548934E+03 -0.84536757685E+03  0.86003887927E+03  0.10100000352E+00 0.  1.
</event>
<event>
 5   0  0.1292375E-01  0.5359715E+03  0.7818609E-02  0.1004794E+00
       -3   -1    0    0    0  501  0.00000000000E+00  0.00000000000E+00  0.31325911642E+03  0.31325913270E+03  0.10100000352E+00 0. -1.
        3   -1    0    0  501    0  0.00000000000E+00  0.00000000000E+00 -0.22925539654E+03  0.22925541879E+03  0.10100000352E+00 0.  1.
    10030    2    1    2    0    0  0.00000000000E+00  0.00000000000E+00  0.84003719881E+02  0.54251455149E+03  0.53597146718E+03 0.  0.
        2    1    3    3  502    0 -0.22349145709E+03 -0.83508656436E+02  0.16553363881E+03  0.29038511097E+03  0.25500000920E-02 0. -1.
       -2    1    3    3    0  502  0.22349145709E+03  0.83508656436E+02 -0.81529918926E+02  0.25212944052E+03  0.25500000920E-02 0.  1.
</event>
<event>
 5   0  0.2013450E-01  0.5060248E+03  0.7818609E-02  0.1012218E+00
       -1   -1    0    0    0  501  0.00000000000E+00  0.00000000000E+00  0.31827894483E+03  0.31827894487E+03  0.50400001928E-02 0. -1.
        1   -1    0    0  501    0  0.00000000000E+00  0.00000000000E+00 -0.20112944940E+03  0.20112944946E+03  0.50400001928E-02 0.  1.
    10030    2    1    2    0    0  0.00000000000E+00  0.00000000000E+00  0.11714949543E+03  0.51940839433E+03  0.50602477788E+03 0.  0.
        4    1    3    3  502    0  0.10262058790E+03 -0.19399710064E+03  0.18779233165E+03  0.28884845999E+03  0.12699999809E+01 0. -1.
       -4    1    3    3    0  502 -0.10262058790E+03  0.19399710064E+03 -0.70642836215E+02  0.23055993434E+03  0.12699999809E+01 0.  1.
</event>
<event>
 5   0  0.2000612E-01  0.4922321E+03  0.7818609E-02  0.1015827E+00
        1   -1    0    0  501    0  0.00000000000E+00  0.00000000000E+00  0.63559255615E+03  0.63559255617E+03  0.50400001928E-02 0. -1.
       -1   -1    0    0    0  501  0.00000000000E+00  0.00000000000E+00 -0.95301788720E+02  0.95301788853E+02  0.50400001928E-02 0.  1.
    10030    2    1    2    0    0  0.00000000000E+00  0.00000000000E+00  0.54029076743E+03  0.73089434503E+03  0.49223208979E+03 0.  0.
        2    1    3    3  502    0 -0.22387446320E+03 -0.10298318577E+02  0.11910338825E+03  0.25379410500E+03  0.25500000920E-02 0.  1.
       -2    1    3    3    0  502  0.22387446320E+03  0.10298318577E+02  0.42118737919E+03  0.47710024002E+03  0.25500000920E-02 0. -1.
</event>
<event>
 5   0  0.3329246E-01  0.5045509E+03  0.7818609E-02  0.1012598E+00
        2   -1    0    0  501    0  0.00000000000E+00  0.00000000000E+00  0.77940409359E+03  0.77940409359E+03  0.25500000920E-02 0. -1.
       -2   -1    0    0    0  501  0.00000000000E+00  0.00000000000E+00 -0.81655838063E+02  0.81655838103E+02  0.25500000920E-02 0.  1.
    10030    2    1    2    0    0  0.00000000000E+00  0.00000000000E+00  0.69774825552E+03  0.86105993169E+03  0.50455086749E+03 0.  0.
        2    1    3    3  502    0  0.22227181104E+03 -0.49387216458E+02  0.53424937684E+03  0.58074628866E+03  0.25500000920E-02 0. -1.
       -2    1    3    3    0  502 -0.22227181104E+03  0.49387216458E+02  0.16349887868E+03  0.28031364303E+03  0.25500000920E-02 0.  1.
</event>
<event>
 5   0  0.3187123E-01  0.4979794E+03  0.7818609E-02  0.1014308E+00
       -2   -1    0    0    0  501  0.00000000000E+00  0.00000000000E+00  0.30529458440E+03  0.30529458441E+03  0.25500000920E-02 0. -1.
        2   -1    0    0  501    0  0.00000000000E+00  0.00000000000E+00 -0.20306902853E+03  0.20306902854E+03  0.25500000920E-02 0.  1.
    10030    2    1    2    0    0  0.00000000000E+00  0.00000000000E+00  0.10222555587E+03  0.50836361296E+03  0.49797941595E+03 0.  0.
        5    1    3    3  502    0  0.24707877984E+03  0.21089158947E+01  0.82100553329E+02  0.26041306002E+03  0.46999998093E+01 0.  1.
       -5    1    3    3    0  502 -0.24707877984E+03 -0.21089158947E+01  0.20125002546E+02  0.24795055294E+03  0.46999998093E+01 0. -1.
</event>
<event>
 5   0  0.1967161E-01  0.4257714E+03  0.7818609E-02  0.1035204E+00
       -1   -1    0    0    0  501  0.00000000000E+00  0.00000000000E+00  0.48563940630E+02  0.48563940892E+02  0.50400001928E-02 0.  1.
        1   -1    0    0  501    0  0.00000000000E+00  0.00000000000E+00 -0.93320911251E+03  0.93320911253E+03  0.50400001928E-02 0. -1.
    10030    2    1    2    0    0  0.00000000000E+00  0.00000000000E+00 -0.88464517188E+03  0.98177305342E+03  0.42577135681E+03 0.  0.
        1    1    3    3  502    0 -0.18793158262E+03  0.17665407720E+02 -0.66930686844E+03  0.69541500598E+03  0.50400001928E-02 0. -1.
       -1    1    3    3    0  502  0.18793158262E+03 -0.17665407720E+02 -0.21533830344E+03  0.28635804744E+03  0.50400001928E-02 0.  1.
</event>
<event>
 5   0  0.3111146E-01  0.5082746E+03  0.7818609E-02  0.1011641E+00
        2   -1    0    0  501    0  0.00000000000E+00  0.00000000000E+00  0.19780451854E+04  0.19780451854E+04  0.25500000920E-02 0.  1.
       -2   -1    0    0    0  501  0.00000000000E+00  0.00000000000E+00 -0.32651309074E+02  0.32651309173E+02  0.25500000920E-02 0. -1.
    10030    2    1    2    0    0  0.00000000000E+00  0.00000000000E+00  0.19453938763E+04  0.20106964946E+04  0.50827459040E+03 0.  0.
        1    1    3    3  502    0  0.10709415149E+03 -0.13596960748E+03  0.17088486099E+04  0.17175914716E+04  0.50400001928E-02 0.  1.
       -1    1    3    3    0  502 -0.10709415149E+03  0.13596960748E+03  0.23654526639E+03  0.29310502302E+03  0.50400001928E-02 0. -1.
</event>
<event>
 5   0  0.2013450E-01  0.5055836E+03  0.7818609E-02  0.1012332E+00
       -1   -1    0    0    0  501  0.00000000000E+00  0.00000000000E+00  0.98035028159E+03  0.98035028160E+03  0.50400001928E-02 0.  1.
        1   -1    0    0  501    0  0.00000000000E+00  0.00000000000E+00 -0.65184552675E+02  0.65184552870E+02  0.50400001928E-02 0. -1.
    10030    2    1    2    0    0  0.00000000000E+00  0.00000000000E+00  0.91516572891E+03  0.10455348345E+04  0.50558360210E+03 0.  0.
        4    1    3    3  502    0  0.15753339533E+03 -0.10227097762E+03  0.10769768723E+03  0.21650988024E+03  0.12699999809E+01 0. -1.
       -4    1    3    3    0  502 -0.15753339533E+03  0.10227097762E+03  0.80746804168E+03  0.82902495423E+03  0.12699999809E+01 0.  1.
</event>
<event>
 5   0  0.3187123E-01  0.4691653E+03  0.7818609E-02  0.1022156E+00
        2   -1    0    0  501    0  0.00000000000E+00  0.00000000000E+00  0.10567686691E+04  0.10567686691E+04  0.25500000920E-02 0.  1.
       -2   -1    0    0    0  501  0.00000000000E+00  0.00000000000E+00 -0.52072916629E+02  0.52072916692E+02  0.25500000920E-02 0. -1.
    10030    2    1    2    0    0  0.00000000000E+00  0.00000000000E+00  0.10046957525E+04  0.11088415858E+04  0.46916533051E+03 0.  0.
        5    1    3    3  502    0  0.21224092888E+03 -0.65076468749E+02  0.32350944474E+03  0.39237942035E+03  0.46999998093E+01 0. -1.
       -5    1    3    3    0  502 -0.21224092888E+03  0.65076468749E+02  0.68118630772E+03  0.71646216544E+03  0.46999998093E+01 0.  1.
</event>
<event>
 5   0  0.3111146E-01  0.4954811E+03  0.7818609E-02  0.1014965E+00
        2   -1    0    0  501    0  0.00000000000E+00  0.00000000000E+00  0.22041253032E+03  0.22041253034E+03  0.25500000920E-02 0. -1.
       -2   -1    0    0    0  501  0.00000000000E+00  0.00000000000E+00 -0.27845689170E+03  0.27845689171E+03  0.25500000920E-02 0.  1.
    10030    2    1    2    0    0  0.00000000000E+00  0.00000000000E+00 -0.58044361382E+02  0.49886942205E+03  0.49548113220E+03 0.  0.
        1    1    3    3  502    0  0.45074830221E+02 -0.23682506981E+03 -0.86487291190E+02  0.25612088078E+03  0.50400001928E-02 0.  1.
       -1    1    3    3    0  502 -0.45074830221E+02  0.23682506981E+03  0.28442929807E+02  0.24274854127E+03  0.50400001928E-02 0. -1.
</event>
<event>
 5   0  0.3187123E-01  0.4164879E+03  0.7818609E-02  0.1038215E+00
       -2   -1    0    0    0  501  0.00000000000E+00  0.00000000000E+00  0.36074037281E+02  0.36074037371E+02  0.25500000920E-02 0.  1.
        2   -1    0    0  501    0  0.00000000000E+00  0.00000000000E+00 -0.12021261746E+04  0.12021261746E+04  0.25500000920E-02 0. -1.
    10030    2    1    2    0    0  0.00000000000E+00  0.00000000000E+00 -0.11660521373E+04  0.12382002120E+04  0.41648790857E+03 0.  0.
        5    1    3    3  502    0  0.74554217348E+02 -0.18925303044E+03 -0.71492663481E+03  0.74331502341E+03  0.46999998093E+01 0.  1.
       -5    1    3    3    0  502 -0.74554217348E+02  0.18925303044E+03 -0.45112550251E+03  0.49488518857E+03  0.46999998093E+01 0. -1.
</event>
<event>
 5   0  0.3187123E-01  0.5022072E+03  0.7818609E-02  0.1013204E+00
        2   -1    0    0  501    0  0.00000000000E+00  0.00000000000E+00  0.41449512316E+03  0.41449512317E+03  0.25500000920E-02 0. -1.
       -2   -1    0    0    0  501  0.00000000000E+00  0.00000000000E+00 -0.15212007789E+03  0.15212007791E+03  0.25500000920E-02 0.  1.
    10030    2    1    2    0    0  0.00000000000E+00  0.00000000000E+00  0.26237504527E+03  0.56661520108E+03  0.50220724977E+03 0.  0.
        5    1    3    3  502    0 -0.59998773177E+02  0.89773759791E+01  0.40605123897E+03  0.41058512482E+03  0.46999998093E+01 0. -1.
       -5    1    3    3    0  502  0.59998773177E+02 -0.89773759791E+01 -0.14367619370E+03  0.15603007626E+03  0.46999998093E+01 0.  1.
</event>
<event>
 5   0  0.1292375E-01  0.4906387E+03  0.7818609E-02  0.1016252E+00
        4   -1    0    0  501    0  0.00000000000E+00  0.00000000000E+00  0.94953090225E+02  0.94961582986E+02  0.12699999809E+01 0. -1.
       -4   -1    0    0    0  501  0.00000000000E+00  0.00000000000E+00 -0.63376580525E+03  0.63376707772E+03  0.12699999809E+01 0.  1.
    10030    2    1    2    0    0  0.00000000000E+00  0.00000000000E+00 -0.53881271503E+03  0.72872866071E+03  0.49063868484E+03 0.  0.
        2    1    3    3  502    0 -0.20306349698E+03  0.19030335891E+02 -0.47188590705E+03  0.51407513728E+03  0.25500000920E-02 0.  1.
       -2    1    3    3    0  502  0.20306349698E+03 -0.19030335891E+02 -0.66926807980E+02  0.21465352343E+03  0.25500000920E-02 0. -1.
</event>
<event>
 5   0  0.3111146E-01  0.4878583E+03  0.7818609E-02  0.1016998E+00
       -2   -1    0    0    0  501  0.00000000000E+00  0.00000000000E+00  0.35556297520E+03  0.35556297521E+03  0.25500000920E-02 0.  1.
        2   -1    0    0  501    0  0.00000000000E+00  0.00000000000E+00 -0.16734430360E+03  0.16734430362E+03  0.25500000920E-02 0. -1.
    10030    2    1    2    0    0  0.00000000000E+00  0.00000000000E+00  0.18821867160E+03  0.52290727883E+03  0.48785833386E+03 0.  0.
        1    1    3    3  502    0  0.13220086914E+03  0.17092413440E+03 -0.27199883832E+02  0.21778880418E+03  0.50400001928E-02 0. -1.
       -1    1    3    3    0  502 -0.13220086914E+03 -0.17092413440E+03  0.21541855544E+03  0.30511847465E+03  0.50400001928E-02 0.  1.
</event>
<event>
 5   0  0.2000612E-01  0.5023712E+03  0.7818609E-02  0.1013162E+00
        1   -1    0    0  501    0  0.00000000000E+00  0.00000000000E+00  0.93985528913E+03  0.93985528915E+03  0.50400001928E-02 0.  1.
       -1   -1    0    0    0  501  0.00000000000E+00  0.00000000000E+00 -0.67131839721E+02  0.67131839910E+02  0.50400001928E-02 0. -1.
    10030    2    1    2    0    0  0.00000000000E+00  0.00000000000E+00  0.87272344941E+03  0.10069871291E+04  0.50237123617E+03 0.  0.
        2    1    3    3  502    0  0.10383985556E+03 -0.15735530594E+03  0.10365137183E+03  0.21514417213E+03  0.25500000920E-02 0. -1.
       -2    1    3    3    0  502 -0.10383985556E+03  0.15735530594E+03  0.76907207758E+03  0.79184295693E+03  0.25500000920E-02 0.  1.
</event>
<event>
 5   0  0.3117389E-01  0.5074105E+03  0.7818609E-02  0.1011863E+00
       -2   -1    0    0    0  501  0.00000000000E+00  0.00000000000E+00  0.14793393621E+03  0.14793393623E+03  0.25500000920E-02 0. -1.
        2   -1    0    0  501    0  0.00000000000E+00  0.00000000000E+00 -0.43510206533E+03  0.43510206534E+03  0.25500000920E-02 0.  1.
    10030    2    1    2    0    0  0.00000000000E+00  0.00000000000E+00 -0.28716812912E+03  0.58303600157E+03  0.50741052881E+03 0.  0.
        4    1    3    3  502    0 -0.11398773949E+03  0.17526387595E+03 -0.30871909764E+03  0.37285349015E+03  0.12699999809E+01 0.  1.
       -4    1    3    3    0  502  0.11398773949E+03 -0.17526387595E+03  0.21550968517E+02  0.21018251143E+03  0.12699999809E+01 0. -1.
</event>
<event>
 5   0  0.1984297E-01  0.5012810E+03  0.7818609E-02  0.1013445E+00
        1   -1    0    0  501    0  0.00000000000E+00  0.00000000000E+00  0.47598246406E+03  0.47598246409E+03  0.50400001928E-02 0.  1.
       -1   -1    0    0    0  501  0.00000000000E+00  0.00000000000E+00 -0.13198102496E+03  0.13198102506E+03  0.50400001928E-02 0. -1.
    10030    2    1    2    0    0  0.00000000000E+00  0.00000000000E+00  0.34400143910E+03  0.60796348915E+03  0.50128097314E+03 0.  0.
        3    1    3    3  502    0 -0.86783161010E+02 -0.11962514438E+03  0.41751556466E+03  0.44290038286E+03  0.10100000352E+00 0.  1.
       -3    1    3    3    0  502  0.86783161010E+02  0.11962514438E+03 -0.73514125554E+02  0.16506310629E+03  0.10100000352E+00 0. -1.
</event>
<event>
 5   0  0.3178149E-01  0.4988987E+03  0.7818609E-02  0.1014067E+00
        2   -1    0    0  501    0  0.00000000000E+00  0.00000000000E+00  0.27445754387E+03  0.27445754388E+03  0.25500000920E-02 0.  1.
       -2   -1    0    0    0  501  0.00000000000E+00  0.00000000000E+00 -0.22671986869E+03  0.22671986870E+03  0.25500000920E-02 0. -1.
    10030    2    1    2    0    0  0.00000000000E+00  0.00000000000E+00  0.47737675181E+02  0.50117741258E+03  0.49889870039E+03 0.  0.
        3    1    3    3  502    0 -0.78596306821E+02  0.18514177654E+03  0.17208973595E+03  0.26470690261E+03  0.10100000352E+00 0.  1.
       -3    1    3    3    0  502  0.78596306821E+02 -0.18514177654E+03 -0.12435206077E+03  0.23647050997E+03  0.10100000352E+00 0. -1.
</event>
<event>
 5   0  0.2013450E-01  0.4955752E+03  0.7818609E-02  0.1014940E+00
       -1   -1    0    0    0  501  0.00000000000E+00  0.00000000000E+00  0.56402228414E+02  0.56402228639E+02  0.50400001928E-02 0. -1.
        1   -1    0    0  501    0  0.00000000000E+00  0.00000000000E+00 -0.10885864841E+04  0.10885864842E+04  0.50400001928E-02 0.  1.
    10030    2    1    2    0    0  0.00000000000E+00  0.00000000000E+00 -0.10321842557E+04  0.11449887128E+04  0.49557523612E+03 0.  0.
        4    1    3    3  502    0  0.50076593262E+02 -0.23650299332E+03 -0.39048156197E+03  0.45925896200E+03  0.12699999809E+01 0. -1.
       -4    1    3    3    0  502 -0.50076593262E+02  0.23650299332E+03 -0.64170269376E+03  0.68572975079E+03  0.12699999809E+01 0.  1.
</event>
<event>
 5   0  0.3111146E-01  0.5140940E+03  0.7818609E-02  0.1010164E+00
        2   -1    0    0  501    0  0.00000000000E+00  0.00000000000E+00  0.81049117483E+03  0.81049117484E+03  0.25500000920E-02 0.  1.
       -2   -1    0    0    0  501  0.00000000000E+00  0.00000000000E+00 -0.81522366703E+02  0.81522366743E+02  0.25500000920E-02 0. -1.
    10030    2    1    2    0    0  0.00000000000E+00  0.00000000000E+00  0.72896880813E+03  0.89201354158E+03  0.51409399445E+03 0.  0.
        1    1    3    3  502    0  0.74428260082E+02  0.82840395617E+02  0.76645937282E+03  0.77450762892E+03  0.50400001928E-02 0.  1.
       -1    1    3    3    0  502 -0.74428260082E+02 -0.82840395617E+02 -0.37490564687E+02  0.11750591266E+03  0.50400001928E-02 0. -1.
</event>
<event>
 5   0  0.1984680E-01  0.5027520E+03  0.7818609E-02  0.1013063E+00
        1   -1    0    0  501    0  0.00000000000E+00  0.00000000000E+00  0.13669007039E+04  0.13669007039E+04  0.50400001928E-02 0. -1.
       -1   -1    0    0    0  501  0.00000000000E+00  0.00000000000E+00 -0.46228588023E+02  0.46228588298E+02  0.50400001928E-02 0.  1.
    10030    2    1    2    0    0  0.00000000000E+00  0.00000000000E+00  0.13206721159E+04  0.14131292922E+04  0.50275198541E+03 0.  0.
        5    1    3    3  502    0  0.10371943987E+03  0.91430420756E+02  0.70401551022E+02  0.15522793702E+03  0.46999998093E+01 0.  1.
       -5    1    3    3    0  502 -0.10371943987E+03 -0.91430420756E+02  0.12502705648E+04  0.12579013552E+04  0.46999998093E+01 0. -1.
</event>
<event>
 5   0  0.2013450E-01  0.4997919E+03  0.7818609E-02  0.1013833E+00
        1   -1    0    0  501    0  0.00000000000E+00  0.00000000000E+00  0.15509210258E+04  0.15509210258E+04  0.50400001928E-02 0. -1.
       -1   -1    0    0    0  501  0.00000000000E+00  0.00000000000E+00 -0.40265089777E+02  0.40265090093E+02  0.50400001928E-02 0.  1.
    10030    2    1    2    0    0  0.00000000000E+00  0.00000000000E+00  0.15106559361E+04  0.15911861159E+04  0.49979185508E+03 0.  0.
        4    1    3    3  502    0  0.14422995899E+03  0.19379066983E+03  0.95891682535E+03  0.98887825116E+03  0.12699999809E+01 0. -1.
       -4    1    3    3    0  502 -0.14422995899E+03 -0.19379066983E+03  0.55173911071E+03  0.60230786478E+03  0.12699999809E+01 0.  1.
</event>
<event>
 5   0  0.3178149E-01  0.5398773E+03  0.7818609E-02  0.1003864E+00
       -2   -1    0    0    0  501  0.00000000000E+00  0.00000000000E+00  0.87155072907E+02  0.87155072944E+02  0.25500000920E-02 0. -1.
        2   -1    0    0  501    0  0.00000000000E+00  0.00000000000E+00 -0.83606009687E+03  0.83606009687E+03  0.25500000920E-02 0.  1.
    10030    2    1    2    0    0  0.00000000000E+00  0.00000000000E+00 -0.74890502396E+03  0.92321516981E+03  0.53987731464E+03 0.  0.
        3    1    3    3  502    0  0.84514517481E+01  0.25390318744E+03 -0.53051344218E+03  0.58820300761E+03  0.10100000352E+00 0. -1.
       -3    1    3    3    0  502 -0.84514517481E+01 -0.25390318744E+03 -0.21839158178E+03  0.33501216220E+03  0.10100000352E+00 0.  1.
</event>
<event>
 5   0  0.1984680E-01  0.4975559E+03  0.7818609E-02  0.1014419E+00
       -1   -1    0    0    0  501  0.00000000000E+00  0.00000000000E+00  0.91249225313E+02  0.91249225452E+02  0.50400001928E-02 0.  1.
        1   -1    0    0  501    0  0.00000000000E+00  0.00000000000E+00 -0.67825749904E+03  0.67825749906E+03  0.50400001928E-02 0. -1.
    10030    2    1    2    0    0  0.00000000000E+00  0.00000000000E+00 -0.58700827373E+03  0.76950672451E+03  0.49755591208E+03 0.  0.
        5    1    3    3  502    0  0.19962675065E+02 -0.77060321390E+02  0.70948035362E+02  0.10673572620E+03  0.46999998093E+01 0.  1.
       -5    1    3    3    0  502 -0.19962675065E+02  0.77060321390E+02 -0.65795630909E+03  0.66277099831E+03  0.46999998093E+01 0. -1.
</event>
<event>
 5   0  0.1984297E-01  0.3972808E+03  0.7818609E-02  0.1044725E+00
       -1   -1    0    0    0  501  0.00000000000E+00  0.00000000000E+00  0.86937512579E+02  0.86937512725E+02  0.50400001928E-02 0.  1.
        1   -1    0    0  501    0  0.00000000000E+00  0.00000000000E+00 -0.45386631726E+03  0.45386631729E+03  0.50400001928E-02 0. -1.
    10030    2    1    2    0    0  0.00000000000E+00  0.00000000000E+00 -0.36692880468E+03  0.54080383001E+03  0.39728080101E+03 0.  0.
        3    1    3    3  502    0 -0.15806856760E+03  0.22179853775E+02 -0.34441836639E+03  0.37960721711E+03  0.10100000352E+00 0. -1.
       -3    1    3    3    0  502  0.15806856760E+03 -0.22179853775E+02 -0.22510438289E+02  0.16119661290E+03  0.10100000352E+00 0.  1.
</event>
<event>
 5   0  0.2000612E-01  0.4765284E+03  0.7818609E-02  0.1020094E+00
       -1   -1    0    0    0  501  0.00000000000E+00  0.00000000000E+00  0.31857520893E+03  0.31857520897E+03  0.50400001928E-02 0.  1.
        1   -1    0    0  501    0  0.00000000000E+00  0.00000000000E+00 -0.17819915439E+03  0.17819915446E+03  0.50400001928E-02 0. -1.
    10030    2    1    2    0    0  0.00000000000E+00  0.00000000000E+00  0.14037605454E+03  0.49677436343E+03  0.47652841623E+03 0.  0.
        2    1    3    3  502    0  0.65681551379E+02 -0.15852419792E+03 -0.10214049942E+03  0.19969143483E+03  0.25500000920E-02 0. -1.
       -2    1    3    3    0  502 -0.65681551379E+02  0.15852419792E+03  0.24251655396E+03  0.29708292860E+03  0.25500000920E-02 0.  1.
</event>
<event>
 5   0  0.3329246E-01  0.5062164E+03  0.7818609E-02  0.1012169E+00
       -2   -1    0    0    0  501  0.00000000000E+00  0.00000000000E+00  0.73671680453E+02  0.73671680497E+02  0.25500000920E-02 0. -1.
        2   -1    0    0  501    0  0.00000000000E+00  0.00000000000E+00 -0.86958473079E+03  0.86958473079E+03  0.25500000920E-02 0.  1.
    10030    2    1    2    0    0  0.00000000000E+00  0.00000000000E+00 -0.79591305033E+03  0.94325641129E+03  0.50621642974E+03 0.  0.
        2    1    3    3  502    0  0.17901336188E+03  0.11658260238E+03 -0.14501814254E+03  0.25820059757E+03  0.25500000920E-02 0. -1.
       -2    1    3    3    0  502 -0.17901336188E+03 -0.11658260238E+03 -0.65089490779E+03  0.68505581372E+03  0.25500000920E-02 0.  1.
</event>
<event>
 5   0  0.2000612E-01  0.4953435E+03  0.7818609E-02  0.1015002E+00
       -1   -1    0    0    0  501  0.00000000000E+00  0.00000000000E+00  0.31324158542E+02  0.31324158948E+02  0.50400001928E-02 0.  1.
        1   -1    0    0  501    0  0.00000000000E+00  0.00000000000E+00 -0.19582745896E+04  0.19582745896E+04  0.50400001928E-02 0. -1.
    10030    2    1    2    0    0  0.00000000000E+00  0.00000000000E+00 -0.19269504311E+04  0.19895987486E+04  0.49534353382E+03 0.  0.
        2    1    3    3  502    0 -0.36649794892E+02 -0.51551249596E+02 -0.19252867613E+04  0.19263254793E+04  0.25500000920E-02 0. -1.
       -2    1    3    3    0  502  0.36649794892E+02  0.51551249596E+02 -0.16636697319E+01  0.63273269269E+02  0.25500000920E-02 0.  1.
</event>
<event>
 5   0  0.2000612E-01  0.5165857E+03  0.7818609E-02  0.1009538E+00
       -1   -1    0    0    0  501  0.00000000000E+00  0.00000000000E+00  0.81493810121E+02  0.81493810276E+02  0.50400001928E-02 0.  1.
        1   -1    0    0  501    0  0.00000000000E+00  0.00000000000E+00 -0.81865348508E+03  0.81865348509E+03  0.50400001928E-02 0. -1.
    10030    2    1    2    0    0  0.00000000000E+00  0.00000000000E+00 -0.73715967496E+03  0.90014729537E+03  0.51658568213E+03 0.  0.
        2    1    3    3  502    0  0.19473739135E+03 -0.13605133077E+03 -0.19188568778E+03  0.30537310519E+03  0.25500000920E-02 0.  1.
       -2    1    3    3    0  502 -0.19473739135E+03  0.13605133077E+03 -0.54527398718E+03  0.59477419017E+03  0.25500000920E-02 0. -1.
</event>
<event>
 5   0  0.1984297E-01  0.5364010E+03  0.7818609E-02  0.1004691E+00
        1   -1    0    0  501    0  0.00000000000E+00  0.00000000000E+00  0.69996544287E+03  0.69996544288E+03  0.50400001928E-02 0. -1.
       -1   -1    0    0    0  501  0.00000000000E+00  0.00000000000E+00 -0.10276436107E+03  0.10276436119E+03  0.50400001928E-02 0.  1.
    10030    2    1    2    0    0  0.00000000000E+00  0.00000000000E+00  0.59720108180E+03  0.80272980407E+03  0.53640097525E+03 0.  0.
        3    1    3    3  502    0 -0.18520593617E+03 -0.11457959476E+03  0.53284997477E+03  0.57563775775E+03  0.10100000352E+00 0. -1.
       -3    1    3    3    0  502  0.18520593617E+03  0.11457959476E+03  0.64351107028E+02  0.22709204633E+03  0.10100000352E+00 0.  1.
</event>
<event>
 5   0  0.3111146E-01  0.4907076E+03  0.7818609E-02  0.1016233E+00
        2   -1    0    0  501    0  0.00000000000E+00  0.00000000000E+00  0.65434841415E+02  0.65434841464E+02  0.25500000920E-02 0.  1.
       -2   -1    0    0    0  501  0.00000000000E+00  0.00000000000E+00 -0.91997598377E+03  0.91997598377E+03  0.25500000920E-02 0. -1.
    10030    2    1    2    0    0  0.00000000000E+00  0.00000000000E+00 -0.85454114235E+03  0.98541082524E+03  0.49070758148E+03 0.  0.
        1    1    3    3  502    0 -0.58457556294E+02 -0.65207064539E+02  0.32980810456E+02  0.93578742444E+02  0.50400001928E-02 0.  1.
       -1    1    3    3    0  502  0.58457556294E+02  0.65207064539E+02 -0.88752195281E+03  0.89183208279E+03  0.50400001928E-02 0. -1.
</event>
<event>
 5   0  0.1292375E-01  0.4953900E+03  0.7818609E-02  0.1014989E+00
        3   -1    0    0  501    0  0.00000000000E+00  0.00000000000E+00  0.82734554288E+03  0.82734554905E+03  0.10100000352E+00 0. -1.
       -3   -1    0    0    0  501  0.00000000000E+00  0.00000000000E+00 -0.74156172692E+02  0.74156241472E+02  0.10100000352E+00 0.  1.
    10030    2    1    2    0    0  0.00000000000E+00  0.00000000000E+00  0.75318937019E+03  0.90150179052E+03  0.49538999883E+03 0.  0.
        4    1    3    3  502    0 -0.61366403778E+02 -0.18906738266E+03  0.64552182363E+03  0.67543493275E+03  0.12699999809E+01 0. -1.
       -4    1    3    3    0  502  0.61366403778E+02  0.18906738266E+03  0.10766754656E+03  0.22606685777E+03  0.12699999809E+01 0.  1.
</event>
<event>
 5   0  0.3117389E-01  0.4965926E+03  0.7818609E-02  0.1014672E+00
        2   -1    0    0  501    0  0.00000000000E+00  0.00000000000E+00  0.12489410302E+04  0.12489410302E+04  0.25500000920E-02 0.  1.
       -2   -1    0    0    0  501  0.00000000000E+00  0.00000000000E+00 -0.49362654825E+02  0.49362654891E+02  0.25500000920E-02 0. -1.
    10030    2    1    2    0    0  0.00000000000E+00  0.00000000000E+00  0.11995783754E+04  0.12983036851E+04  0.49659256948E+03 0.  0.
        4    1    3    3  502    0 -0.19041394002E+03 -0.49721067975E+02  0.20398417927E+03  0.28344454739E+03  0.12699999809E+01 0. -1.
       -4    1    3    3    0  502  0.19041394002E+03  0.49721067975E+02  0.99559419613E+03  0.10148591377E+04  0.12699999809E+01 0.  1.
</event>
<event>
 5   0  0.1967161E-01  0.4944237E+03  0.7818609E-02  0.1015245E+00
        1   -1    0    0  501    0  0.00000000000E+00  0.00000000000E+00  0.57566189794E+03  0.57566189796E+03  0.50400001928E-02 0. -1.
       -1   -1    0    0    0  501  0.00000000000E+00  0.00000000000E+00 -0.10616250318E+03  0.10616250330E+03  0.50400001928E-02 0.  1.
    10030    2    1    2    0    0  0.00000000000E+00  0.00000000000E+00  0.46949939476E+03  0.68182440126E+03  0.49442373778E+03 0.  0.
        1    1    3    3  502    0 -0.14648893810E+03 -0.14445756426E+02 -0.39139445770E+02  0.15231410015E+03  0.50400001928E-02 0.  1.
       -1    1    3    3    0  502  0.14648893810E+03  0.14445756426E+02  0.50863884053E+03  0.52951030111E+03  0.50400001928E-02 0. -1.
</event>
<event>
 5   0  0.3111146E-01  0.5010578E+03  0.7818609E-02  0.1013503E+00
        2   -1    0    0  501    0  0.00000000000E+00  0.00000000000E+00  0.47200577344E+03  0.47200577345E+03  0.25500000920E-02 0.  1.
       -2   -1    0    0    0  501  0.00000000000E+00  0.00000000000E+00 -0.13297448424E+03  0.13297448427E+03  0.25500000920E-02 0. -1.
    10030    2    1    2    0    0  0.00000000000E+00  0.00000000000E+00  0.33903128920E+03  0.60498025772E+03  0.50105777828E+03 0.  0.
        1    1    3    3  502    0  0.15911573211E+03 -0.22720602568E+02 -0.62515915339E+02  0.17245950737E+03  0.50400001928E-02 0. -1.
       -1    1    3    3    0  502 -0.15911573211E+03  0.22720602568E+02  0.40154720454E+03  0.43252075035E+03  0.50400001928E-02 0.  1.
</event>
<event>
 5   0  0.1292375E-01  0.5086949E+03  0.7818609E-02  0.1011534E+00
       -3   -1    0    0    0  501  0.00000000000E+00  0.00000000000E+00  0.72616070314E+02  0.72616140553E+02  0.10100000352E+00 0.  1.
        3   -1    0    0  501    0  0.00000000000E+00  0.00000000000E+00 -0.89088533203E+03  0.89088533775E+03  0.10100000352E+00 0. -1.
    10030    2    1    2    0    0  0.00000000000E+00  0.00000000000E+00 -0.81826926171E+03  0.96350147831E+03  0.50869491253E+03 0.  0.
        3    1    3    3  502    0  0.10767705388E+03 -0.18248204999E+03 -0.14262560454E+03  0.25541362487E+03  0.10100000352E+00 0.  1.
       -3    1    3    3    0  502 -0.10767705388E+03  0.18248204999E+03 -0.67564365717E+03  0.70808785343E+03  0.10100000352E+00 0. -1.
</event>
<event>
 5   0  0.3117389E-01  0.5009064E+03  0.7818609E-02  0.1013543E+00
        2   -1    0    0  501    0  0.00000000000E+00  0.00000000000E+00  0.50814514795E+03  0.50814514796E+03  0.25500000920E-02 0.  1.
       -2   -1    0    0    0  501  0.00000000000E+00  0.00000000000E+00 -0.12344268784E+03  0.12344268787E+03  0.25500000920E-02 0. -1.
    10030    2    1    2    0    0  0.00000000000E+00  0.00000000000E+00  0.38470246011E+03  0.63158783582E+03  0.50090639001E+03 0.  0.
        4    1    3    3  502    0 -0.13331898888E+03 -0.10138445630E+03 -0.42433214742E+02  0.17278585413E+03  0.12699999809E+01 0. -1.
       -4    1    3    3    0  502  0.13331898888E+03  0.10138445630E+03  0.42713567485E+03  0.45880198169E+03  0.12699999809E+01 0.  1.
</event>
<event>
 5   0  0.3187123E-01  0.4483052E+03  0.7818609E-02  0.1028229E+00
        2   -1    0    0  501    0  0.00000000000E+00  0.00000000000E+00  0.49852999738E+03  0.49852999738E+03  0.25500000920E-02 0. -1.
       -2   -1    0    0    0  501  0.00000000000E+00  0.00000000000E+00 -0.10078510619E+03  0.10078510623E+03  0.25500000920E-02 0.  1.
    10030    2    1    2    0    0  0.00000000000E+00  0.00000000000E+00  0.39774489118E+03  0.59931510361E+03  0.44830524752E+03 0.  0.
        5    1    3    3  502    0 -0.10975730641E+03 -0.17958067177E+03  0.95957656652E+02  0.23135653406E+03  0.46999998093E+01 0. -1.
       -5    1    3    3    0  502  0.10975730641E+03  0.17958067177E+03  0.30178723453E+03  0.36795856955E+03  0.46999998093E+01 0.  1.
</event>
<event>
 5   0  0.3111146E-01  0.5017499E+03  0.7818609E-02  0.1013323E+00
       -2   -1    0    0    0  501  0.00000000000E+00  0.00000000000E+00  0.44637155462E+03  0.44637155463E+03  0.25500000920E-02 0. -1.
        2   -1    0    0  501    0  0.00000000000E+00  0.00000000000E+00 -0.14099964534E+03  0.14099964536E+03  0.25500000920E-02 0.  1.
    10030    2    1    2    0    0  0.00000000000E+00  0.00000000000E+00  0.30537190928E+03  0.58737119999E+03  0.50174986158E+03 0.  0.
        1    1    3    3  502    0 -0.62675830207E+02 -0.24271470490E+03  0.14100626755E+03  0.28761337795E+03  0.50400001928E-02 0.  1.
       -1    1    3    3    0  502  0.62675830207E+02  0.24271470490E+03  0.16436564173E+03  0.29975782204E+03  0.50400001928E-02 0. -1.
</event>
<event>
 5   0  0.3187123E-01  0.3034151E+03  0.7818609E-02  0.1083546E+00
       -2   -1    0    0    0  501  0.00000000000E+00  0.00000000000E+00  0.15455755277E+03  0.15455755279E+03  0.25500000920E-02 0. -1.
        2   -1    0    0  501    0  0.00000000000E+00  0.00000000000E+00 -0.14891009732E+03  0.14891009735E+03  0.25500000920E-02 0.  1.
    10030    2    1    2    0    0  0.00000000000E+00  0.00000000000E+00  0.56474554403E+01  0.30346765013E+03  0.30341509673E+03 0.  0.
        5    1    3    3  502    0  0.41175169460E+02  0.72541095376E+02 -0.12382950165E+03  0.14937684082E+03  0.46999998093E+01 0.  1.
       -5    1    3    3    0  502 -0.41175169460E+02 -0.72541095376E+02  0.12947695709E+03  0.15409080931E+03  0.46999998093E+01 0. -1.
</event>
<event>
 5   0  0.3111146E-01  0.6243231E+03  0.7818609E-02  0.9856190E-01
       -2   -1    0    0    0  501  0.00000000000E+00  0.00000000000E+00  0.51975751286E+02  0.51975751349E+02  0.25500000920E-02 0.  1.
        2   -1    0    0  501    0  0.00000000000E+00  0.00000000000E+00 -0.18748136405E+04  0.18748136405E+04  0.25500000920E-02 0. -1.
    10030    2    1    2    0    0  0.00000000000E+00  0.00000000000E+00 -0.18228378892E+04  0.19267893918E+04  0.62432314564E+03 0.  0.
        1    1    3    3  502    0  0.13131903188E+03 -0.14671958533E+03 -0.16589786640E+04  0.16706230971E+04  0.50400001928E-02 0.  1.
       -1    1    3    3    0  502 -0.13131903188E+03  0.14671958533E+03 -0.16385922514E+03  0.25616629470E+03  0.50400001928E-02 0. -1.
</event>
<event>
 5   0  0.2013450E-01  0.5022106E+03  0.7818609E-02  0.1013204E+00
       -1   -1    0    0    0  501  0.00000000000E+00  0.00000000000E+00  0.42206364480E+02  0.42206364781E+02  0.50400001928E-02 0.  1.
        1   -1    0    0  501    0  0.00000000000E+00  0.00000000000E+00 -0.14939421298E+04  0.14939421299E+04  0.50400001928E-02 0. -1.
    10030    2    1    2    0    0  0.00000000000E+00  0.00000000000E+00 -0.14517357654E+04  0.15361484946E+04  0.50221057847E+03 0.  0.
        4    1    3    3  502    0 -0.72376654395E+02  0.22667051000E+03 -0.48051012678E+03  0.53619911884E+03  0.12699999809E+01 0.  1.
       -4    1    3    3    0  502  0.72376654395E+02 -0.22667051000E+03 -0.97122563859E+03  0.99994937580E+03  0.12699999809E+01 0. -1.
</event>
<event>
 5   0  0.1984297E-01  0.4975818E+03  0.7818609E-02  0.1014412E+00
        1   -1    0    0  501    0  0.00000000000E+00  0.00000000000E+00  0.72870072492E+03  0.72870072494E+03  0.50400001928E-02 0. -1.
       -1   -1    0    0    0  501  0.00000000000E+00  0.00000000000E+00 -0.84941458455E+02  0.84941458605E+02  0.50400001928E-02 0.  1.
    10030    2    1    2    0    0  0.00000000000E+00  0.00000000000E+00  0.64375926647E+03  0.81364218355E+03  0.49758176181E+03 0.  0.
        3    1    3    3  502    0 -0.92618172340E+02 -0.23077718143E+03  0.30914412510E+03  0.39674467054E+03  0.10100000352E+00 0.  1.
       -3    1    3    3    0  502  0.92618172340E+02  0.23077718143E+03  0.33461514137E+03  0.41689751301E+03  0.10100000352E+00 0. -1.
</event>
<event>
 5   0  0.3111146E-01  0.4587268E+03  0.7818609E-02  0.1025151E+00
        2   -1    0    0  501    0  0.00000000000E+00  0.00000000000E+00  0.21782876084E+03  0.21782876085E+03  0.25500000920E-02 0.  1.
       -2   -1    0    0    0  501  0.00000000000E+00  0.00000000000E+00 -0.24150878512E+03  0.24150878514E+03  0.25500000920E-02 0. -1.
    10030    2    1    2    0    0  0.00000000000E+00  0.00000000000E+00 -0.23680024286E+02  0.45933754599E+03  0.45872675702E+03 0.  0.
        1    1    3    3  502    0 -0.15857237942E+03 -0.21359989949E+01 -0.17776458983E+03  0.23822260898E+03  0.50400001928E-02 0. -1.
       -1    1    3    3    0  502  0.15857237942E+03  0.21359989949E+01  0.15408456554E+03  0.22111493701E+03  0.50400001928E-02 0.  1.
</event>
<event>
 5   0  0.2000612E-01  0.5081130E+03  0.7818609E-02  0.1011683E+00
        1   -1    0    0  501    0  0.00000000000E+00  0.00000000000E+00  0.54640503928E+02  0.54640504160E+02  0.50400001928E-02 0.  1.
       -1   -1    0    0    0  501  0.00000000000E+00  0.00000000000E+00 -0.11812609583E+04  0.11812609583E+04  0.50400001928E-02 0. -1.
    10030    2    1    2    0    0  0.00000000000E+00  0.00000000000E+00 -0.11266204544E+04  0.12359014625E+04  0.50811295667E+03 0.  0.
        2    1    3    3  502    0  0.23830912825E+03  0.77560042245E+00 -0.34914235405E+03  0.42272003213E+03  0.25500000920E-02 0.  1.
       -2    1    3    3    0  502 -0.23830912825E+03 -0.77560042245E+00 -0.77747810034E+03  0.81318143036E+03  0.25500000920E-02 0. -1.
</event>
<event>
 5   0  0.3329246E-01  0.4464196E+03  0.7818609E-02  0.1028795E+00
       -2   -1    0    0    0  501  0.00000000000E+00  0.00000000000E+00  0.17119015683E+03  0.17119015685E+03  0.25500000920E-02 0.  1.
        2   -1    0    0  501    0  0.00000000000E+00  0.00000000000E+00 -0.29103665947E+03  0.29103665949E+03  0.25500000920E-02 0. -1.
    10030    2    1    2    0    0  0.00000000000E+00  0.00000000000E+00 -0.11984650265E+03  0.46222681633E+03  0.44641958463E+03 0.  0.
        2    1    3    3  502    0 -0.17297155911E+03  0.10594802009E+03  0.36533678794E+02  0.20610398569E+03  0.25500000920E-02 0.  1.
       -2    1    3    3    0  502  0.17297155911E+03 -0.10594802009E+03 -0.15638018144E+03  0.25612283064E+03  0.25500000920E-02 0. -1.
</event>
<event>
 5   0  0.2013450E-01  0.4973936E+03  0.7818609E-02  0.1014461E+00
       -1   -1    0    0    0  501  0.00000000000E+00  0.00000000000E+00  0.34941007433E+03  0.34941007437E+03  0.50400001928E-02 0. -1.
        1   -1    0    0  501    0  0.00000000000E+00  0.00000000000E+00 -0.17701290387E+03  0.17701290395E+03  0.50400001928E-02 0.  1.
    10030    2    1    2    0    0  0.00000000000E+00  0.00000000000E+00  0.17239717046E+03  0.52642297831E+03  0.49739357426E+03 0.  0.
        4    1    3    3  502    0 -0.18257229182E+03 -0.41398464704E+02  0.25946656218E+03  0.31995465993E+03  0.12699999809E+01 0. -1.
       -4    1    3    3    0  502  0.18257229182E+03  0.41398464704E+02 -0.87069391726E+02  0.20646831838E+03  0.12699999809E+01 0.  1.
</event>
<event>
 5   0  0.3187123E-01  0.5040050E+03  0.7818609E-02  0.1012739E+00
       -2   -1    0    0    0  501  0.00000000000E+00  0.00000000000E+00  0.26349293804E+03  0.26349293806E+03  0.25500000920E-02 0. -1.
        2   -1    0    0  501    0  0.00000000000E+00  0.00000000000E+00 -0.24101309929E+03  0.24101309930E+03  0.25500000920E-02 0.  1.
    10030    2    1    2    0    0  0.00000000000E+00  0.00000000000E+00  0.22479838758E+02  0.50450603736E+03  0.50400495888E+03 0.  0.
        5    1    3    3  502    0 -0.78595906011E+02 -0.19814651030E+03 -0.12322085393E+03  0.24626169988E+03  0.46999998093E+01 0.  1.
       -5    1    3    3    0  502  0.78595906011E+02  0.19814651030E+03  0.14570069269E+03  0.25824433747E+03  0.46999998093E+01 0. -1.
</event>
<event>
 5   0  0.2013450E-01  0.5117861E+03  0.7818609E-02  0.1010748E+00
        1   -1    0    0  501    0  0.00000000000E+00  0.00000000000E+00  0.77353302930E+03  0.77353302931E+03  0.50400001928E-02 0.  1.
       -1   -1    0    0    0  501  0.00000000000E+00  0.00000000000E+00 -0.84652176147E+02  0.84652176297E+02  0.50400001928E-02 0. -1.
    10030    2    1    2    0    0  0.00000000000E+00  0.00000000000E+00  0.68888085315E+03  0.85818520561E+03  0.51178610502E+03 0.  0.
        4    1    3    3  502    0 -0.49362442266E+01 -0.15229919756E+03 -0.27320482299E+00  0.15238470929E+03  0.12699999809E+01 0. -1.
       -4    1    3    3    0  502  0.49362442266E+01  0.15229919756E+03  0.68915405797E+03  0.70580049632E+03  0.12699999809E+01 0.  1.
</event>
<event>
 5   0  0.3111146E-01  0.5007242E+03  0.7818609E-02  0.1013590E+00
       -2   -1    0    0    0  501  0.00000000000E+00  0.00000000000E+00  0.39959045962E+03  0.39959045963E+03  0.25500000920E-02 0. -1.
        2   -1    0    0  501    0  0.00000000000E+00  0.00000000000E+00 -0.15686354482E+03  0.15686354484E+03  0.25500000920E-02 0.  1.
    10030    2    1    2    0    0  0.00000000000E+00  0.00000000000E+00  0.24272691481E+03  0.55645400447E+03  0.50072417949E+03 0.  0.
        1    1    3    3  502    0 -0.15519018643E+03  0.70605473755E+02  0.32510434929E+03  0.36709939368E+03  0.50400001928E-02 0. -1.
       -1    1    3    3    0  502  0.15519018643E+03 -0.70605473755E+02 -0.82377434487E+02  0.18935461079E+03  0.50400001928E-02 0.  1.
</event>
<event>
 5   0  0.2000612E-01  0.5096723E+03  0.7818609E-02  0.1011285E+00
        1   -1    0    0  501    0  0.00000000000E+00  0.00000000000E+00  0.21934772678E+03  0.21934772684E+03  0.50400001928E-02 0. -1.
       -1   -1    0    0    0  501  0.00000000000E+00  0.00000000000E+00 -0.29606627117E+03  0.29606627121E+03  0.50400001928E-02 0.  1.
    10030    2    1    2    0    0  0.00000000000E+00  0.00000000000E+00 -0.76718544385E+02  0.51541399805E+03  0.50967230093E+03 0.  0.
        2    1    3    3  502    0 -0.19489975430E+03  0.15373980626E+03 -0.96624500205E+02  0.26637968448E+03  0.25500000920E-02 0.  1.
       -2    1    3    3    0  502  0.19489975430E+03 -0.15373980626E+03  0.19905955820E+02  0.24903431358E+03  0.25500000920E-02 0. -1.
</event>
<event>
 5   0  0.1292375E-01  0.4680838E+03  0.7818609E-02  0.1022462E+00
       -4   -1    0    0    0  501  0.00000000000E+00  0.00000000000E+00  0.78474835352E+02  0.78485111222E+02  0.12699999809E+01 0. -1.
        4   -1    0    0  501    0  0.00000000000E+00  0.00000000000E+00 -0.69794556145E+03  0.69794671691E+03  0.12699999809E+01 0.  1.
    10030    2    1    2    0    0  0.00000000000E+00  0.00000000000E+00 -0.61947072610E+03  0.77643182813E+03  0.46808375666E+03 0.  0.
        3    1    3    3  502    0 -0.14368682174E+03  0.77803725127E+02 -0.58767433757E+03  0.60996758900E+03  0.10100000352E+00 0.  1.
       -3    1    3    3    0  502  0.14368682174E+03 -0.77803725127E+02 -0.31796388526E+02  0.16646423914E+03  0.10100000352E+00 0. -1.
</event>
<event>
 5   0  0.1984297E-01  0.5029776E+03  0.7818609E-02  0.1013005E+00
       -1   -1    0    0    0  501  0.00000000000E+00  0.00000000000E+00  0.38910387627E+03  0.38910387630E+03  0.50400001928E-02 0. -1.
        1   -1    0    0  501    0  0.00000000000E+00  0.00000000000E+00 -0.16254428276E+03  0.16254428284E+03  0.50400001928E-02 0.  1.
    10030    2    1    2    0    0  0.00000000000E+00  0.00000000000E+00  0.22655959351E+03  0.55164815914E+03  0.50297757611E+03 0.  0.
        3    1    3    3  502    0 -0.20081392574E+03  0.22573871561E+02  0.27746806114E+03  0.34325551358E+03  0.10100000352E+00 0. -1.
       -3    1    3    3    0  502  0.20081392574E+03 -0.22573871561E+02 -0.50908467631E+02  0.20839264556E+03  0.10100000352E+00 0.  1.
</event>
<event>
 5   0  0.1984680E-01  0.4982513E+03  0.7818609E-02  0.1014236E+00
        1   -1    0    0  501    0  0.00000000000E+00  0.00000000000E+00  0.77677464630E+03  0.77677464632E+03  0.50400001928E-02 0. -1.
       -1   -1    0    0    0  501  0.00000000000E+00  0.00000000000E+00 -0.79899086336E+02  0.79899086495E+02  0.50400001928E-02 0.  1.
    10030    2    1    2    0    0  0.00000000000E+00  0.00000000000E+00  0.69687555997E+03  0.85667373282E+03  0.49825128039E+03 0.  0.
        5    1    3    3  502    0 -0.94384546706E+02  0.22462210528E+03  0.43741302935E+03  0.50071526947E+03  0.46999998093E+01 0. -1.
       -5    1    3    3    0  502  0.94384546706E+02 -0.22462210528E+03  0.25946253062E+03  0.35595846335E+03  0.46999998093E+01 0.  1.
</event>
<event>
 5   0  0.2013450E-01  0.4677860E+03  0.7818609E-02  0.1022547E+00
        1   -1    0    0  501    0  0.00000000000E+00  0.00000000000E+00  0.19506130683E+03  0.19506130689E+03  0.50400001928E-02 0.  1.
       -1   -1    0    0    0  501  0.00000000000E+00  0.00000000000E+00 -0.28045503325E+03  0.28045503330E+03  0.50400001928E-02 0. -1.
    10030    2    1    2    0    0  0.00000000000E+00  0.00000000000E+00 -0.85393726428E+02  0.47551634019E+03  0.46778595669E+03 0.  0.
        4    1    3    3  502    0  0.39743213357E+02 -0.17633417158E+03 -0.19357831597E+03  0.26485362068E+03  0.12699999809E+01 0. -1.
       -4    1    3    3    0  502 -0.39743213357E+02  0.17633417158E+03  0.10818458954E+03  0.21066271951E+03  0.12699999809E+01 0.  1.
</event>
<event>
 5   0  0.3117389E-01  0.5533972E+03  0.7818609E-02  0.1000711E+00
       -2   -1    0    0    0  501  0.00000000000E+00  0.00000000000E+00  0.56743802241E+02  0.56743802298E+02  0.25500000920E-02 0.  1.
        2   -1    0    0  501    0  0.00000000000E+00  0.00000000000E+00 -0.13492596079E+04  0.13492596079E+04  0.25500000920E-02 0. -1.
    10030    2    1    2    0    0  0.00000000000E+00  0.00000000000E+00 -0.12925158057E+04  0.14060034102E+04  0.55339721866E+03 0.  0.
        4    1    3    3  502    0 -0.27120484711E+03 -0.46750709613E+02 -0.57337946296E+03  0.63600575421E+03  0.12699999809E+01 0.  1.
       -4    1    3    3    0  502  0.27120484711E+03  0.46750709613E+02 -0.71913634270E+03  0.76999765599E+03  0.12699999809E+01 0. -1.
</event>
<event>
 5   0  0.3111146E-01  0.3791676E+03  0.7818609E-02  0.1051242E+00
       -2   -1    0    0    0  501  0.00000000000E+00  0.00000000000E+00  0.44420529953E+03  0.44420529954E+03  0.25500000920E-02 0.  1.
        2   -1    0    0  501    0  0.00000000000E+00  0.00000000000E+00 -0.80913093034E+02  0.80913093074E+02  0.25500000920E-02 0. -1.
    10030    2    1    2    0    0  0.00000000000E+00  0.00000000000E+00  0.36329220650E+03  0.52511839261E+03  0.37916763965E+03 0.  0.
        1    1    3    3  502    0 -0.12881216635E+03  0.13908456064E+03  0.18472285036E+03  0.26468777962E+03  0.50400001928E-02 0.  1.
       -1    1    3    3    0  502  0.12881216635E+03 -0.13908456064E+03  0.17856935614E+03  0.26043061300E+03  0.50400001928E-02 0. -1.
</event>
<event>
 5   0  0.3187123E-01  0.5070326E+03  0.7818609E-02  0.1011959E+00
       -2   -1    0    0    0  501  0.00000000000E+00  0.00000000000E+00  0.11364643638E+03  0.11364643641E+03  0.25500000920E-02 0.  1.
        2   -1    0    0  501    0  0.00000000000E+00  0.00000000000E+00 -0.56553044641E+03  0.56553044641E+03  0.25500000920E-02 0. -1.
    10030    2    1    2    0    0  0.00000000000E+00  0.00000000000E+00 -0.45188401003E+03  0.67917688283E+03  0.50703262188E+03 0.  0.
        5    1    3    3  502    0  0.10675263418E+03 -0.16822527977E+03 -0.43583376342E+03  0.47923796698E+03  0.46999998093E+01 0. -1.
       -5    1    3    3    0  502 -0.10675263418E+03  0.16822527977E+03 -0.16050246607E+02  0.19993891585E+03  0.46999998093E+01 0.  1.
</event>
<event>
 5   0  0.3329246E-01  0.4960051E+03  0.7818609E-02  0.1014827E+00
       -2   -1    0    0    0  501  0.00000000000E+00  0.00000000000E+00  0.78096972855E+02  0.78096972897E+02  0.25500000920E-02 0.  1.
        2   -1    0    0  501    0  0.00000000000E+00  0.00000000000E+00 -0.78754997177E+03  0.78754997177E+03  0.25500000920E-02 0. -1.
    10030    2    1    2    0    0  0.00000000000E+00  0.00000000000E+00 -0.70945299891E+03  0.86564694467E+03  0.49600511605E+03 0.  0.
        2    1    3    3  502    0  0.21536393846E+03  0.10401790754E+03 -0.46922152638E+03  0.52665946484E+03  0.25500000920E-02 0. -1.
       -2    1    3    3    0  502 -0.21536393846E+03 -0.10401790754E+03 -0.24023147254E+03  0.33898747983E+03  0.25500000920E-02 0.  1.
</event>
<event>
 5   0  0.1292375E-01  0.4926012E+03  0.7818609E-02  0.1015728E+00
        4   -1    0    0  501    0  0.00000000000E+00  0.00000000000E+00  0.33886725450E+03  0.33886963433E+03  0.12699999809E+01 0. -1.
       -4   -1    0    0    0  501  0.00000000000E+00  0.00000000000E+00 -0.17901467378E+03  0.17901917866E+03  0.12699999809E+01 0.  1.
    10030    2    1    2    0    0  0.00000000000E+00  0.00000000000E+00  0.15985258072E+03  0.51788881299E+03  0.49260123331E+03 0.  0.
        3    1    3    3  502    0 -0.10343686536E+03  0.97840306474E+02  0.29122123462E+03  0.32416312002E+03  0.10100000352E+00 0. -1.
       -3    1    3    3    0  502  0.10343686536E+03 -0.97840306474E+02 -0.13136865391E+03  0.19372569297E+03  0.10100000352E+00 0.  1.
</event>
<event>
 5   0  0.1967161E-01  0.5113204E+03  0.7818609E-02  0.1010866E+00
        1   -1    0    0  501    0  0.00000000000E+00  0.00000000000E+00  0.58895258579E+03  0.58895258581E+03  0.50400001928E-02 0.  1.
       -1   -1    0    0    0  501  0.00000000000E+00  0.00000000000E+00 -0.11098032525E+03  0.11098032537E+03  0.50400001928E-02 0. -1.
    10030    2    1    2    0    0  0.00000000000E+00  0.00000000000E+00  0.47797226054E+03  0.69993291118E+03  0.51132044582E+03 0.  0.
        1    1    3    3  502    0 -0.16892407488E+03 -0.18912111104E+03  0.28355366524E+03  0.38040086594E+03  0.50400001928E-02 0. -1.
       -1    1    3    3    0  502  0.16892407488E+03  0.18912111104E+03  0.19441859530E+03  0.31953204524E+03  0.50400001928E-02 0.  1.
</event>
<event>
 5   0  0.3187123E-01  0.4933939E+03  0.7818609E-02  0.1015518E+00
        2   -1    0    0  501    0  0.00000000000E+00  0.00000000000E+00  0.10176915457E+04  0.10176915457E+04  0.25500000920E-02 0.  1.
       -2   -1    0    0    0  501  0.00000000000E+00  0.00000000000E+00 -0.59801397756E+02  0.59801397810E+02  0.25500000920E-02 0. -1.
    10030    2    1    2    0    0  0.00000000000E+00  0.00000000000E+00  0.95789014795E+03  0.10774929435E+04  0.49339386680E+03 0.  0.
        5    1    3    3  502    0  0.87972579143E+01  0.64937552881E+01  0.10170642125E+04  0.10171338471E+04  0.46999998093E+01 0.  1.
       -5    1    3    3    0  502 -0.87972579143E+01 -0.64937552881E+01 -0.59174064552E+02  0.60359096401E+02  0.46999998093E+01 0. -1.
</event>
<event>
 5   0  0.3111146E-01  0.4901853E+03  0.7818609E-02  0.1016373E+00
        2   -1    0    0  501    0  0.00000000000E+00  0.00000000000E+00  0.51572958807E+03  0.51572958808E+03  0.25500000920E-02 0. -1.
       -2   -1    0    0    0  501  0.00000000000E+00  0.00000000000E+00 -0.11647654876E+03  0.11647654879E+03  0.25500000920E-02 0.  1.
    10030    2    1    2    0    0  0.00000000000E+00  0.00000000000E+00  0.39925303931E+03  0.63220613687E+03  0.49018528140E+03 0.  0.
        1    1    3    3  502    0  0.20928570595E+03 -0.32820410679E+02  0.40656160129E+02  0.21570954882E+03  0.50400001928E-02 0.  1.
       -1    1    3    3    0  502 -0.20928570595E+03  0.32820410679E+02  0.35859687918E+03  0.41649658804E+03  0.50400001928E-02 0. -1.
</event>
<event>
 5   0  0.1984680E-01  0.4938319E+03  0.7818609E-02  0.1015402E+00
        1   -1    0    0  501    0  0.00000000000E+00  0.00000000000E+00  0.60446516581E+03  0.60446516583E+03  0.50400001928E-02 0.  1.
       -1   -1    0    0    0  501  0.00000000000E+00  0.00000000000E+00 -0.10086185142E+03  0.10086185155E+03  0.50400001928E-02 0. -1.
    10030    2    1    2    0    0  0.00000000000E+00  0.00000000000E+00  0.50360331439E+03  0.70532701738E+03  0.49383185720E+03 0.  0.
        5    1    3    3  502    0  0.21431208585E+03 -0.55829369810E+02  0.40760004046E+03  0.46390351546E+03  0.46999998093E+01 0.  1.
       -5    1    3    3    0  502 -0.21431208585E+03  0.55829369810E+02  0.96003273932E+02  0.24142350192E+03  0.46999998093E+01 0. -1.
</event>
<event>
 5   0  0.1967161E-01  0.4966769E+03  0.7818609E-02  0.1014650E+00
        1   -1    0    0  501    0  0.00000000000E+00  0.00000000000E+00  0.13359266169E+04  0.13359266169E+04  0.50400001928E-02 0. -1.
       -1   -1    0    0    0  501  0.00000000000E+00  0.00000000000E+00 -0.46164207240E+02  0.46164207515E+02  0.50400001928E-02 0.  1.
    10030    2    1    2    0    0  0.00000000000E+00  0.00000000000E+00  0.12897624096E+04  0.13820908244E+04  0.49667693079E+03 0.  0.
        1    1    3    3  502    0  0.19030833087E+03  0.11276787476E+03  0.95894334557E+03  0.98412712310E+03  0.50400001928E-02 0. -1.
       -1    1    3    3    0  502 -0.19030833087E+03 -0.11276787476E+03  0.33081906405E+03  0.39796370129E+03  0.50400001928E-02 0.  1.
</event>
<event>
 5   0  0.3187123E-01  0.4777476E+03  0.7818609E-02  0.1019756E+00
        2   -1    0    0  501    0  0.00000000000E+00  0.00000000000E+00  0.18486686862E+03  0.18486686864E+03  0.25500000920E-02 0. -1.
       -2   -1    0    0    0  501  0.00000000000E+00  0.00000000000E+00 -0.30865833912E+03  0.30865833913E+03  0.25500000920E-02 0.  1.
    10030    2    1    2    0    0  0.00000000000E+00  0.00000000000E+00 -0.12379147050E+03  0.49352520777E+03  0.47774763478E+03 0.  0.
        5    1    3    3  502    0 -0.14257957587E+03  0.16910699226E+03 -0.15493968940E+03  0.27010092120E+03  0.46999998093E+01 0.  1.
       -5    1    3    3    0  502  0.14257957587E+03 -0.16910699226E+03  0.31148218897E+02  0.22342428656E+03  0.46999998093E+01 0. -1.
</event>
<event>
 5   0  0.1984297E-01  0.4920691E+03  0.7818609E-02  0.1015870E+00
        1   -1    0    0  501    0  0.00000000000E+00  0.00000000000E+00  0.48630575540E+03  0.48630575543E+03  0.50400001928E-02 0.  1.
       -1   -1    0    0    0  501  0.00000000000E+00  0.00000000000E+00 -0.12447516723E+03  0.12447516733E+03  0.50400001928E-02 0. -1.
    10030    2    1    2    0    0  0.00000000000E+00  0.00000000000E+00  0.36183058817E+03  0.61078092276E+03  0.49206906128E+03 0.  0.
        3    1    3    3  502    0 -0.45570066123E+02 -0.91874721109E+02 -0.96679432141E+02  0.14094154145E+03  0.10100000352E+00 0. -1.
       -3    1    3    3    0  502  0.45570066123E+02  0.91874721109E+02  0.45851002031E+03  0.46983938131E+03  0.10100000352E+00 0.  1.
</event>
<event>
 5   0  0.3187123E-01  0.4873382E+03  0.7818609E-02  0.1017138E+00
       -2   -1    0    0    0  501  0.00000000000E+00  0.00000000000E+00  0.11441911121E+03  0.11441911124E+03  0.25500000920E-02 0. -1.
        2   -1    0    0  501    0  0.00000000000E+00  0.00000000000E+00 -0.51892230221E+03  0.51892230222E+03  0.25500000920E-02 0.  1.
    10030    2    1    2    0    0  0.00000000000E+00  0.00000000000E+00 -0.40450319100E+03  0.63334141346E+03  0.48733819312E+03 0.  0.
        5    1    3    3  502    0 -0.51146935608E+02 -0.99830406434E+02 -0.48330773140E+03  0.49617594894E+03  0.46999998093E+01 0.  1.
       -5    1    3    3    0  502  0.51146935608E+02  0.99830406434E+02  0.78804540407E+02  0.13716546452E+03  0.46999998093E+01 0. -1.
</event>
<event>
 5   0  0.2000612E-01  0.2906611E+03  0.7818609E-02  0.1090004E+00
       -1   -1    0    0    0  501  0.00000000000E+00  0.00000000000E+00  0.28583068976E+03  0.28583068981E+03  0.50400001928E-02 0.  1.
        1   -1    0    0  501    0  0.00000000000E+00  0.00000000000E+00 -0.73893303150E+02  0.73893303322E+02  0.50400001928E-02 0. -1.
    10030    2    1    2    0    0  0.00000000000E+00  0.00000000000E+00  0.21193738661E+03  0.35972399313E+03  0.29066113498E+03 0.  0.
        2    1    3    3  502    0  0.69267934047E+01  0.96800735931E+02 -0.27913809738E+02  0.10098288827E+03  0.25500000920E-02 0. -1.
       -2    1    3    3    0  502 -0.69267934047E+01 -0.96800735931E+02  0.23985119635E+03  0.25874110485E+03  0.25500000920E-02 0.  1.
</event>
<event>
 5   0  0.3111146E-01  0.4972824E+03  0.7818609E-02  0.1014491E+00
       -2   -1    0    0    0  501  0.00000000000E+00  0.00000000000E+00  0.49604999703E+02  0.49604999769E+02  0.25500000920E-02 0. -1.
        2   -1    0    0  501    0  0.00000000000E+00  0.00000000000E+00 -0.12462947848E+04  0.12462947848E+04  0.25500000920E-02 0.  1.
    10030    2    1    2    0    0  0.00000000000E+00  0.00000000000E+00 -0.11966897851E+04  0.12958997845E+04  0.49728242468E+03 0.  0.
        1    1    3    3  502    0 -0.69957079319E+02  0.23770025683E+03 -0.54449233302E+03  0.59822011483E+03  0.50400001928E-02 0. -1.
       -1    1    3    3    0  502  0.69957079319E+02 -0.23770025683E+03 -0.65219745204E+03  0.69767966970E+03  0.50400001928E-02 0.  1.
</event>
<event>
 5   0  0.1292375E-01  0.5070072E+03  0.7818609E-02  0.1011966E+00
        4   -1    0    0  501    0  0.00000000000E+00  0.00000000000E+00  0.19427616823E+03  0.19428031923E+03  0.12699999809E+01 0.  1.
       -4   -1    0    0    0  501  0.00000000000E+00  0.00000000000E+00 -0.33077827702E+03  0.33078071505E+03  0.12699999809E+01 0. -1.
    10030    2    1    2    0    0  0.00000000000E+00  0.00000000000E+00 -0.13650210879E+03  0.52506103429E+03  0.50700716368E+03 0.  0.
        5    1    3    3  502    0  0.10421749996E+03 -0.70525725245E+02 -0.29610100009E+03  0.32176553183E+03  0.46999998093E+01 0. -1.
       -5    1    3    3    0  502 -0.10421749996E+03  0.70525725245E+02  0.15959889130E+03  0.20329550246E+03  0.46999998093E+01 0.  1.
</event>
<event>
 5   0  0.1292375E-01  0.5135882E+03  0.7818609E-02  0.1010292E+00
       -3   -1    0    0    0  501  0.00000000000E+00  0.00000000000E+00  0.23332483027E+03  0.23332485213E+03  0.10100000352E+00 0. -1.
        3   -1    0    0  501    0  0.00000000000E+00  0.00000000000E+00 -0.28262406016E+03  0.28262407821E+03  0.10100000352E+00 0.  1.
    10030    2    1    2    0    0  0.00000000000E+00  0.00000000000E+00 -0.49299229893E+02  0.51594893034E+03  0.51358824427E+03 0.  0.
        3    1    3    3  502    0  0.30097443449E+02 -0.15349806765E+03  0.17994231269E+03  0.23842558372E+03  0.10100000352E+00 0. -1.
       -3    1    3    3    0  502 -0.30097443449E+02  0.15349806765E+03 -0.22924154258E+03  0.27752334662E+03  0.10100000352E+00 0.  1.
</event>
<event>
 5   0  0.3117389E-01  0.4953580E+03  0.7818609E-02  0.1014998E+00
        2   -1    0    0  501    0  0.00000000000E+00  0.00000000000E+00  0.41632971199E+03  0.41632971200E+03  0.25500000920E-02 0. -1.
       -2   -1    0    0    0  501  0.00000000000E+00  0.00000000000E+00 -0.14734689125E+03  0.14734689127E+03  0.25500000920E-02 0.  1.
    10030    2    1    2    0    0  0.00000000000E+00  0.00000000000E+00  0.26898282074E+03  0.56367660328E+03  0.49535800713E+03 0.  0.
        4    1    3    3  502    0 -0.75010483052E+02  0.22613185953E+03  0.57472917251E+02  0.24508557604E+03  0.12699999809E+01 0.  1.
       -4    1    3    3    0  502  0.75010483052E+02 -0.22613185953E+03  0.21150990349E+03  0.31859102724E+03  0.12699999809E+01 0. -1.
</event>
<event>
 5   0  0.2000612E-01  0.4963011E+03  0.7818609E-02  0.1014749E+00
        1   -1    0    0  501    0  0.00000000000E+00  0.00000000000E+00  0.42631028620E+03  0.42631028623E+03  0.50400001928E-02 0. -1.
       -1   -1    0    0    0  501  0.00000000000E+00  0.00000000000E+00 -0.14444569599E+03  0.14444569608E+03  0.50400001928E-02 0.  1.
    10030    2    1    2    0    0  0.00000000000E+00  0.00000000000E+00  0.28186459021E+03  0.57075598231E+03  0.49630106198E+03 0.  0.
        2    1    3    3  502    0 -0.14008809794E+03 -0.32334206989E+02 -0.91668983630E+02  0.17050917480E+03  0.25500000920E-02 0.  1.
       -2    1    3    3    0  502  0.14008809794E+03  0.32334206989E+02  0.37353357384E+03  0.40024680751E+03  0.25500000920E-02 0. -1.
</event>
<event>
 5   0  0.1292375E-01  0.5011706E+03  0.7818609E-02  0.1013474E+00
        4   -1    0    0  501    0  0.00000000000E+00  0.00000000000E+00  0.17449617491E+03  0.17450079644E+03  0.12699999809E+01 0.  1.
       -4   -1    0    0    0  501  0.00000000000E+00  0.00000000000E+00 -0.35984262834E+03  0.35984486945E+03  0.12699999809E+01 0. -1.
    10030    2    1    2    0    0  0.00000000000E+00  0.00000000000E+00 -0.18534645343E+03  0.53434566589E+03  0.50117061253E+03 0.  0.
        4    1    3    3  502    0 -0.15629082959E+03 -0.18132748797E+03 -0.13710686566E+02  0.23978339629E+03  0.12699999809E+01 0. -1.
       -4    1    3    3    0  502  0.15629082959E+03  0.18132748797E+03 -0.17163576687E+03  0.29456226961E+03  0.12699999809E+01 0.  1.
</event>
<event>
 5   0  0.1984297E-01  0.4889577E+03  0.7818609E-02  0.1016702E+00
       -1   -1    0    0    0  501  0.00000000000E+00  0.00000000000E+00  0.18628873371E+03  0.18628873378E+03  0.50400001928E-02 0.  1.
        1   -1    0    0  501    0  0.00000000000E+00  0.00000000000E+00 -0.32084549398E+03  0.32084549402E+03  0.50400001928E-02 0. -1.
    10030    2    1    2    0    0  0.00000000000E+00  0.00000000000E+00 -0.13455676027E+03  0.50713422780E+03  0.48895767022E+03 0.  0.
        3    1    3    3  502    0  0.16699289986E+02  0.12540058064E+03 -0.28425787425E+03  0.31113778488E+03  0.10100000352E+00 0. -1.
       -3    1    3    3    0  502 -0.16699289986E+02 -0.12540058064E+03  0.14970111397E+03  0.19599644292E+03  0.10100000352E+00 0.  1.
</event>
<event>
 5   0  0.2000612E-01  0.5192980E+03  0.7818609E-02  0.1008861E+00
       -1   -1    0    0    0  501  0.00000000000E+00  0.00000000000E+00  0.12976942133E+03  0.12976942143E+03  0.50400001928E-02 0. -1.
        1   -1    0    0  501    0  0.00000000000E+00  0.00000000000E+00 -0.51951833374E+03  0.51951833376E+03  0.50400001928E-02 0.  1.
    10030    2    1    2    0    0  0.00000000000E+00  0.00000000000E+00 -0.38974891241E+03  0.64928775519E+03  0.51929796295E+03 0.  0.
        2    1    3    3  502    0 -0.28629371549E+01  0.14544084966E+03 -0.46378405455E+03  0.48606263631E+03  0.25500000920E-02 0.  1.
       -2    1    3    3    0  502  0.28629371549E+01 -0.14544084966E+03  0.74035142138E+02  0.16322511889E+03  0.25500000920E-02 0. -1.
</event>
<event>
 5   0  0.1967161E-01  0.4795006E+03  0.7818609E-02  0.1019272E+00
        1   -1    0    0  501    0  0.00000000000E+00  0.00000000000E+00  0.68533030890E+02  0.68533031075E+02  0.50400001928E-02 0. -1.
       -1   -1    0    0    0  501  0.00000000000E+00  0.00000000000E+00 -0.83872281679E+03  0.83872281681E+03  0.50400001928E-02 0.  1.
    10030    2    1    2    0    0  0.00000000000E+00  0.00000000000E+00 -0.77018978590E+03  0.90725584788E+03  0.47950064359E+03 0.  0.
        1    1    3    3  502    0 -0.51429787045E+02  0.13544521545E+03 -0.23663186449E+02  0.14680046254E+03  0.50400001928E-02 0. -1.
       -1    1    3    3    0  502  0.51429787045E+02 -0.13544521545E+03 -0.74652659945E+03  0.76045538534E+03  0.50400001928E-02 0.  1.
</event>
<event>
 5   0  0.1984297E-01  0.4860058E+03  0.7818609E-02  0.1017498E+00
        1   -1    0    0  501    0  0.00000000000E+00  0.00000000000E+00  0.45520812734E+03  0.45520812737E+03  0.50400001928E-02 0. -1.
       -1   -1    0    0    0  501  0.00000000000E+00  0.00000000000E+00 -0.12972180476E+03  0.12972180485E+03  0.50400001928E-02 0.  1.
    10030    2    1    2    0    0  0.00000000000E+00  0.00000000000E+00  0.32548632259E+03  0.58492993222E+03  0.48600584299E+03 0.  0.
        3    1    3    3  502    0 -0.13180717645E+02  0.33267187820E+02 -0.12653352625E+03  0.13149593366E+03  0.10100000352E+00 0.  1.
       -3    1    3    3    0  502  0.13180717645E+02 -0.33267187820E+02  0.45201984884E+03  0.45343399856E+03  0.10100000352E+00 0. -1.
</event>
<event>
 5   0  0.1984680E-01  0.5056116E+03  0.7818609E-02  0.1012324E+00
       -1   -1    0    0    0  501  0.00000000000E+00  0.00000000000E+00  0.24398519109E+03  0.24398519114E+03  0.50400001928E-02 0.  1.
        1   -1    0    0  501    0  0.00000000000E+00  0.00000000000E+00 -0.26194529788E+03  0.26194529792E+03  0.50400001928E-02 0. -1.
    10030    2    1    2    0    0  0.00000000000E+00  0.00000000000E+00 -0.17960106786E+02  0.50593048907E+03  0.50561160423E+03 0.  0.
        5    1    3    3  502    0  0.14723219013E+02  0.22280349467E+03  0.10954511944E+03  0.24875770060E+03  0.46999998093E+01 0.  1.
       -5    1    3    3    0  502 -0.14723219013E+02 -0.22280349467E+03 -0.12750522622E+03  0.25717278847E+03  0.46999998093E+01 0. -1.
</event>
<event>
 5   0  0.1984680E-01  0.5016102E+03  0.7818609E-02  0.1013359E+00
        1   -1    0    0  501    0  0.00000000000E+00  0.00000000000E+00  0.15175026358E+04  0.15175026358E+04  0.50400001928E-02 0.  1.
       -1   -1    0    0    0  501  0.00000000000E+00  0.00000000000E+00 -0.41451789207E+02  0.41451789513E+02  0.50400001928E-02 0. -1.
    10030    2    1    2    0    0  0.00000000000E+00  0.00000000000E+00  0.14760508466E+04  0.15589544253E+04  0.50161020573E+03 0.  0.
        5    1    3    3  502    0 -0.15008714542E+03 -0.20080959937E+03  0.75517900732E+03  0.79571858688E+03  0.46999998093E+01 0.  1.
       -5    1    3    3    0  502  0.15008714542E+03  0.20080959937E+03  0.72087183924E+03  0.76323583841E+03  0.46999998093E+01 0. -1.
</event>
<event>
 5   0  0.3117389E-01  0.5010749E+03  0.7818609E-02  0.1013499E+00
        2   -1    0    0  501    0  0.00000000000E+00  0.00000000000E+00  0.39869940514E+03  0.39869940515E+03  0.25500000920E-02 0. -1.
       -2   -1    0    0    0  501  0.00000000000E+00  0.00000000000E+00 -0.15743440544E+03  0.15743440546E+03  0.25500000920E-02 0.  1.
    10030    2    1    2    0    0  0.00000000000E+00  0.00000000000E+00  0.24126499970E+03  0.55613381061E+03  0.50107485990E+03 0.  0.
        4    1    3    3  502    0  0.14273441176E+03 -0.19910323100E+03  0.17885827264E+03  0.30332672729E+03  0.12699999809E+01 0.  1.
       -4    1    3    3    0  502 -0.14273441176E+03  0.19910323100E+03  0.62406727059E+02  0.25280708332E+03  0.12699999809E+01 0. -1.
</event>
<event>
 5   0  0.2013450E-01  0.5165458E+03  0.7818609E-02  0.1009548E+00
       -1   -1    0    0    0  501  0.00000000000E+00  0.00000000000E+00  0.38568903048E+02  0.38568903378E+02  0.50400001928E-02 0.  1.
        1   -1    0    0  501    0  0.00000000000E+00  0.00000000000E+00 -0.17294992161E+04  0.17294992161E+04  0.50400001928E-02 0. -1.
    10030    2    1    2    0    0  0.00000000000E+00  0.00000000000E+00 -0.16909303131E+04  0.17680681195E+04  0.51654578843E+03 0.  0.
        4    1    3    3  502    0 -0.23483857632E+03  0.76133674758E+02 -0.11051925536E+04  0.11324299920E+04  0.12699999809E+01 0. -1.
       -4    1    3    3    0  502  0.23483857632E+03 -0.76133674758E+02 -0.58573775950E+03  0.63563812753E+03  0.12699999809E+01 0.  1.
</event>
<event>
 5   0  0.3178149E-01  0.5018998E+03  0.7818609E-02  0.1013284E+00
       -2   -1    0    0    0  501  0.00000000000E+00  0.00000000000E+00  0.36645334096E+03  0.36645334097E+03  0.25500000920E-02 0. -1.
        2   -1    0    0  501    0  0.00000000000E+00  0.00000000000E+00 -0.17185229176E+03  0.17185229178E+03  0.25500000920E-02 0.  1.
    10030    2    1    2    0    0  0.00000000000E+00  0.00000000000E+00  0.19460104919E+03  0.53830563275E+03  0.50189977675E+03 0.  0.
        3    1    3    3  502    0 -0.12794739478E+03  0.21002059367E+03  0.15089139521E+03  0.28852627081E+03  0.10100000352E+00 0. -1.
       -3    1    3    3    0  502  0.12794739478E+03 -0.21002059367E+03  0.43709653977E+02  0.24977936194E+03  0.10100000352E+00 0.  1.
</event>
<event>
 5   0  0.1292375E-01  0.4998697E+03  0.7818609E-02  0.1013813E+00
       -3   -1    0    0    0  501  0.00000000000E+00  0.00000000000E+00  0.99622360615E+02  0.99622411814E+02  0.10100000352E+00 0.  1.
        3   -1    0    0  501    0  0.00000000000E+00  0.00000000000E+00 -0.62704204237E+03  0.62704205051E+03  0.10100000352E+00 0. -1.
    10030    2    1    2    0    0  0.00000000000E+00  0.00000000000E+00 -0.52741968176E+03  0.72666446232E+03  0.49986970312E+03 0.  0.
        3    1    3    3  502    0 -0.18083500572E+03 -0.17007956748E+03 -0.30581874508E+03  0.39389525716E+03  0.10100000352E+00 0. -1.
       -3    1    3    3    0  502  0.18083500572E+03  0.17007956748E+03 -0.22160093667E+03  0.33276920516E+03  0.10100000352E+00 0.  1.
</event>
<event>
 5   0  0.3111146E-01  0.5079830E+03  0.7818609E-02  0.1011716E+00
        2   -1    0    0  501    0  0.00000000000E+00  0.00000000000E+00  0.14575858223E+04  0.14575858223E+04  0.25500000920E-02 0.  1.
       -2   -1    0    0    0  501  0.00000000000E+00  0.00000000000E+00 -0.44259273337E+02  0.44259273411E+02  0.25500000920E-02 0. -1.
    10030    2    1    2    0    0  0.00000000000E+00  0.00000000000E+00  0.14133265490E+04  0.15018450957E+04  0.50798302877E+03 0.  0.
        1    1    3    3  502    0  0.69067475431E+02 -0.24159690064E+03  0.59714106988E+03  0.64785556717E+03  0.50400001928E-02 0. -1.
       -1    1    3    3    0  502 -0.69067475431E+02  0.24159690064E+03  0.81618547911E+03  0.85398952857E+03  0.50400001928E-02 0.  1.
</event>
<event>
 5   0  0.2000612E-01  0.6430831E+03  0.7818609E-02  0.9819846E-01
       -1   -1    0    0    0  501  0.00000000000E+00  0.00000000000E+00  0.35025482009E+03  0.35025482013E+03  0.50400001928E-02 0. -1.
        1   -1    0    0  501    0  0.00000000000E+00  0.00000000000E+00 -0.29518211062E+03  0.29518211066E+03  0.50400001928E-02 0.  1.
    10030    2    1    2    0    0  0.00000000000E+00  0.00000000000E+00  0.55072709477E+02  0.64543693079E+03  0.64308306485E+03 0.  0.
        2    1    3    3  502    0 -0.26448227415E+03 -0.15679282788E+03 -0.66904253317E+02  0.31466020296E+03  0.25500000920E-02 0.  1.
       -2    1    3    3    0  502  0.26448227415E+03  0.15679282788E+03  0.12197696279E+03  0.33077672782E+03  0.25500000920E-02 0. -1.
</event>
<event>
 5   0  0.3111146E-01  0.5049550E+03  0.7818609E-02  0.1012494E+00
        2   -1    0    0  501    0  0.00000000000E+00  0.00000000000E+00  0.56092425361E+03  0.56092425361E+03  0.25500000920E-02 0.  1.
       -2   -1    0    0    0  501  0.00000000000E+00  0.00000000000E+00 -0.11364258231E+03  0.11364258234E+03  0.25500000920E-02 0. -1.
    10030    2    1    2    0    0  0.00000000000E+00  0.00000000000E+00  0.44728167129E+03  0.67456683595E+03  0.50495497096E+03 0.  0.
        1    1    3    3  502    0 -0.92288498107E+00 -0.10045096474E+03 -0.85795920466E+02  0.13210672969E+03  0.50400001928E-02 0. -1.
       -1    1    3    3    0  502  0.92288498107E+00  0.10045096474E+03  0.53307759176E+03  0.54246010627E+03  0.50400001928E-02 0.  1.
</event>
<event>
 5   0  0.3178149E-01  0.5043263E+03  0.7818609E-02  0.1012656E+00
       -2   -1    0    0    0  501  0.00000000000E+00  0.00000000000E+00  0.15602840126E+03  0.15602840128E+03  0.25500000920E-02 0. -1.
        2   -1    0    0  501    0  0.00000000000E+00  0.00000000000E+00 -0.40752992891E+03  0.40752992892E+03  0.25500000920E-02 0.  1.
    10030    2    1    2    0    0  0.00000000000E+00  0.00000000000E+00 -0.25150152765E+03  0.56355833020E+03  0.50432625663E+03 0.  0.
        3    1    3    3  502    0  0.52489470857E+02  0.12243453309E+03 -0.36500175037E+03  0.38855070122E+03  0.10100000352E+00 0.  1.
       -3    1    3    3    0  502 -0.52489470857E+02 -0.12243453309E+03  0.11350022272E+03  0.17500762898E+03  0.10100000352E+00 0. -1.
</event>
<event>
 5   0  0.2000612E-01  0.4765649E+03  0.7818609E-02  0.1020084E+00
       -1   -1    0    0    0  501  0.00000000000E+00  0.00000000000E+00  0.30622145426E+02  0.30622145840E+02  0.50400001928E-02 0.  1.
        1   -1    0    0  501    0  0.00000000000E+00  0.00000000000E+00 -0.18541656353E+04  0.18541656353E+04  0.50400001928E-02 0. -1.
    10030    2    1    2    0    0  0.00000000000E+00  0.00000000000E+00 -0.18235434898E+04  0.18847877811E+04  0.47656491740E+03 0.  0.
        2    1    3    3  502    0 -0.46680990727E+02  0.15689528260E+02 -0.18338189668E+04  0.18344801114E+04  0.25500000920E-02 0. -1.
       -2    1    3    3    0  502  0.46680990727E+02 -0.15689528260E+02  0.10275476996E+02  0.50307669657E+02  0.25500000920E-02 0.  1.
</event>
<event>
 5   0  0.3178149E-01  0.5390939E+03  0.7818609E-02  0.1004050E+00
       -2   -1    0    0    0  501  0.00000000000E+00  0.00000000000E+00  0.34758235677E+03  0.34758235678E+03  0.25500000920E-02 0. -1.
        2   -1    0    0  501    0  0.00000000000E+00  0.00000000000E+00 -0.20903117196E+03  0.20903117197E+03  0.25500000920E-02 0.  1.
    10030    2    1    2    0    0  0.00000000000E+00  0.00000000000E+00  0.13855118481E+03  0.55661352875E+03  0.53909385971E+03 0.  0.
        3    1    3    3  502    0  0.57586818254E+01 -0.16507404228E+03  0.28920728206E+03  0.33305174380E+03  0.10100000352E+00 0. -1.
       -3    1    3    3    0  502 -0.57586818254E+01  0.16507404228E+03 -0.15065609725E+03  0.22356178495E+03  0.10100000352E+00 0.  1.
</event>
<event>
 5   0  0.2013450E-01  0.4812959E+03  0.7818609E-02  0.1018780E+00
       -1   -1    0    0    0  501  0.00000000000E+00  0.00000000000E+00  0.48696734247E+02  0.48696734508E+02  0.50400001928E-02 0.  1.
        1   -1    0    0  501    0  0.00000000000E+00  0.00000000000E+00 -0.11892262345E+04  0.11892262345E+04  0.50400001928E-02 0. -1.
    10030    2    1    2    0    0  0.00000000000E+00  0.00000000000E+00 -0.11405295002E+04  0.12379229690E+04  0.48129589263E+03 0.  0.
        4    1    3    3  502    0 -0.33425616508E+02 -0.86676025010E+02 -0.11412383188E+04  0.11450137634E+04  0.12699999809E+01 0. -1.
       -4    1    3    3    0  502  0.33425616508E+02  0.86676025010E+02  0.70881863610E+00  0.92909205541E+02  0.12699999809E+01 0.  1.
</event>
<event>
 5   0  0.1292375E-01  0.5684701E+03  0.7818609E-02  0.9973070E-01
       -4   -1    0    0    0  501  0.00000000000E+00  0.00000000000E+00  0.21653709903E+03  0.21654082330E+03  0.12699999809E+01 0. -1.
        4   -1    0    0  501    0  0.00000000000E+00  0.00000000000E+00 -0.37309005588E+03  0.37309221742E+03  0.12699999809E+01 0.  1.
    10030    2    1    2    0    0  0.00000000000E+00  0.00000000000E+00 -0.15655295685E+03  0.58963304072E+03  0.56847013502E+03 0.  0.
        1    1    3    3  502    0  0.16511731405E+02 -0.26733530998E+03  0.20389833075E+02  0.26861971363E+03  0.50400001928E-02 0. -1.
       -1    1    3    3    0  502 -0.16511731405E+02  0.26733530998E+03 -0.17694278993E+03  0.32101332709E+03  0.50400001928E-02 0.  1.
</event>
<event>
 5   0  0.2013450E-01  0.4940294E+03  0.7818609E-02  0.1015349E+00
        1   -1    0    0  501    0  0.00000000000E+00  0.00000000000E+00  0.45428345552E+03  0.45428345555E+03  0.50400001928E-02 0.  1.
       -1   -1    0    0    0  501  0.00000000000E+00  0.00000000000E+00 -0.13431316761E+03  0.13431316771E+03  0.50400001928E-02 0. -1.
    10030    2    1    2    0    0  0.00000000000E+00  0.00000000000E+00  0.31997028791E+03  0.58859662326E+03  0.49402935112E+03 0.  0.
        4    1    3    3  502    0 -0.54759908181E+02 -0.22863135919E+03  0.69690798991E+02  0.24521289997E+03  0.12699999809E+01 0. -1.
       -4    1    3    3    0  502  0.54759908181E+02  0.22863135919E+03  0.25027948892E+03  0.34338372329E+03  0.12699999809E+01 0.  1.
</event>
<event>
 5   0  0.3111146E-01  0.4401275E+03  0.7818609E-02  0.1030708E+00
        2   -1    0    0  501    0  0.00000000000E+00  0.00000000000E+00  0.13859567290E+03  0.13859567292E+03  0.25500000920E-02 0. -1.
       -2   -1    0    0    0  501  0.00000000000E+00  0.00000000000E+00 -0.34941962710E+03  0.34941962711E+03  0.25500000920E-02 0.  1.
    10030    2    1    2    0    0  0.00000000000E+00  0.00000000000E+00 -0.21082395420E+03  0.48801530003E+03  0.44012747403E+03 0.  0.
        1    1    3    3  502    0 -0.12993432625E+03 -0.22528879259E+02  0.89931451583E+02  0.15961875061E+03  0.50400001928E-02 0. -1.
       -1    1    3    3    0  502  0.12993432625E+03  0.22528879259E+02 -0.30075540578E+03  0.32839654942E+03  0.50400001928E-02 0.  1.
</event>
<event>
 5   0  0.1967161E-01  0.5168794E+03  0.7818609E-02  0.1009465E+00
       -1   -1    0    0    0  501  0.00000000000E+00  0.00000000000E+00  0.12819194786E+03  0.12819194796E+03  0.50400001928E-02 0. -1.
        1   -1    0    0  501    0  0.00000000000E+00  0.00000000000E+00 -0.52102407183E+03  0.52102407185E+03  0.50400001928E-02 0.  1.
    10030    2    1    2    0    0  0.00000000000E+00  0.00000000000E+00 -0.39283212396E+03  0.64921601981E+03  0.51687944703E+03 0.  0.
        1    1    3    3  502    0  0.23463062321E+03  0.10765042545E+03 -0.21184771740E+03  0.33394550281E+03  0.50400001928E-02 0.  1.
       -1    1    3    3    0  502 -0.23463062321E+03 -0.10765042545E+03 -0.18098440656E+03  0.31527051700E+03  0.50400001928E-02 0. -1.
</event>
<event>
 5   0  0.2000612E-01  0.5032691E+03  0.7818609E-02  0.1012929E+00
        1   -1    0    0  501    0  0.00000000000E+00  0.00000000000E+00  0.81899332188E+03  0.81899332190E+03  0.50400001928E-02 0.  1.
       -1   -1    0    0    0  501  0.00000000000E+00  0.00000000000E+00 -0.77314366608E+02  0.77314366772E+02  0.50400001928E-02 0. -1.
    10030    2    1    2    0    0  0.00000000000E+00  0.00000000000E+00  0.74167895528E+03  0.89630768867E+03  0.50326911297E+03 0.  0.
        2    1    3    3  502    0  0.45436834729E+02  0.23086087675E+03  0.52972264982E+03  0.57962689387E+03  0.25500000920E-02 0.  1.
       -2    1    3    3    0  502 -0.45436834729E+02 -0.23086087675E+03  0.21195630546E+03  0.31668079480E+03  0.25500000920E-02 0. -1.
</event>
<event>
 5   0  0.3329246E-01  0.4053421E+03  0.7818609E-02  0.1041945E+00
        2   -1    0    0  501    0  0.00000000000E+00  0.00000000000E+00  0.16827584993E+03  0.16827584995E+03  0.25500000920E-02 0. -1.
       -2   -1    0    0    0  501  0.00000000000E+00  0.00000000000E+00 -0.24409655460E+03  0.24409655462E+03  0.25500000920E-02 0.  1.
    10030    2    1    2    0    0  0.00000000000E+00  0.00000000000E+00 -0.75820704671E+02  0.41237240457E+03  0.40534210341E+03 0.  0.
        2    1    3    3  502    0 -0.33053151588E+02  0.14739128630E+03  0.99558600815E+02  0.18091052238E+03  0.25500000920E-02 0. -1.
       -2    1    3    3    0  502  0.33053151588E+02 -0.14739128630E+03 -0.17537930549E+03  0.23146188219E+03  0.25500000920E-02 0.  1.
</event>
<event>
 5   0  0.3329246E-01  0.4726315E+03  0.7818609E-02  0.1021180E+00
       -2   -1    0    0    0  501  0.00000000000E+00  0.00000000000E+00  0.10366696451E+03  0.10366696454E+03  0.25500000920E-02 0. -1.
        2   -1    0    0  501    0  0.00000000000E+00  0.00000000000E+00 -0.53869752510E+03  0.53869752510E+03  0.25500000920E-02 0.  1.
    10030    2    1    2    0    0  0.00000000000E+00  0.00000000000E+00 -0.43503056059E+03  0.64236448965E+03  0.47263151494E+03 0.  0.
        2    1    3    3  502    0 -0.31427835722E+02 -0.13229301211E+03  0.45171947637E+02  0.14328173216E+03  0.25500000920E-02 0. -1.
       -2    1    3    3    0  502  0.31427835722E+02  0.13229301211E+03 -0.48020250822E+03  0.49908275749E+03  0.25500000920E-02 0.  1.
</event>
<event>
 5   0  0.3187123E-01  0.5117625E+03  0.7818609E-02  0.1010754E+00
        2   -1    0    0  501    0  0.00000000000E+00  0.00000000000E+00  0.39071494721E+03  0.39071494722E+03  0.25500000920E-02 0. -1.
       -2   -1    0    0    0  501  0.00000000000E+00  0.00000000000E+00 -0.16757793684E+03  0.16757793686E+03  0.25500000920E-02 0.  1.
    10030    2    1    2    0    0  0.00000000000E+00  0.00000000000E+00  0.22313701037E+03  0.55829288408E+03  0.51176246347E+03 0.  0.
        5    1    3    3  502    0  0.19355681376E+03 -0.16729722908E+03  0.11078810114E+03  0.27883453223E+03  0.46999998093E+01 0.  1.
       -5    1    3    3    0  502 -0.19355681376E+03  0.16729722908E+03  0.11234890922E+03  0.27945835184E+03  0.46999998093E+01 0. -1.
</event>
<event>
 5   0  0.3111146E-01  0.5222077E+03  0.7818609E-02  0.1008140E+00
        2   -1    0    0  501    0  0.00000000000E+00  0.00000000000E+00  0.19472125155E+04  0.19472125155E+04  0.25500000920E-02 0. -1.
       -2   -1    0    0    0  501  0.00000000000E+00  0.00000000000E+00 -0.35011696770E+02  0.35011696863E+02  0.25500000920E-02 0.  1.
    10030    2    1    2    0    0  0.00000000000E+00  0.00000000000E+00  0.19122008188E+04  0.19822242124E+04  0.52220767606E+03 0.  0.
        1    1    3    3  502    0  0.94264270875E+02 -0.24018017477E+03  0.80412656552E+03  0.84450683983E+03  0.50400001928E-02 0. -1.
       -1    1    3    3    0  502 -0.94264270875E+02  0.24018017477E+03  0.11080742532E+04  0.11377173726E+04  0.50400001928E-02 0.  1.
</event>
<event>
 5   0  0.1967161E-01  0.4833342E+03  0.7818609E-02  0.1018223E+00
        1   -1    0    0  501    0  0.00000000000E+00  0.00000000000E+00  0.49542199445E+02  0.49542199702E+02  0.50400001928E-02 0. -1.
       -1   -1    0    0    0  501  0.00000000000E+00  0.00000000000E+00 -0.11788532216E+04  0.11788532217E+04  0.50400001928E-02 0.  1.
    10030    2    1    2    0    0  0.00000000000E+00  0.00000000000E+00 -0.11293110222E+04  0.12283954214E+04  0.48333417668E+03 0.  0.
        1    1    3    3  502    0  0.26006960653E+02  0.72094382339E+02 -0.11471480023E+04  0.11497053975E+04  0.50400001928E-02 0.  1.
       -1    1    3    3    0  502 -0.26006960653E+02 -0.72094382339E+02  0.17836980069E+02  0.78690023832E+02  0.50400001928E-02 0. -1.
</event>
<event>
 5   0  0.3117389E-01  0.4893274E+03  0.7818609E-02  0.1016603E+00
       -2   -1    0    0    0  501  0.00000000000E+00  0.00000000000E+00  0.53111887105E+02  0.53111887166E+02  0.25500000920E-02 0. -1.
        2   -1    0    0  501    0  0.00000000000E+00  0.00000000000E+00 -0.11270606362E+04  0.11270606362E+04  0.25500000920E-02 0.  1.
    10030    2    1    2    0    0  0.00000000000E+00  0.00000000000E+00 -0.10739487491E+04  0.11801725233E+04  0.48932736407E+03 0.  0.
        4    1    3    3  502    0  0.65181742518E+02  0.23521246306E+03 -0.57770083289E+03  0.62714705417E+03  0.12699999809E+01 0.  1.
       -4    1    3    3    0  502 -0.65181742518E+02 -0.23521246306E+03 -0.49624791617E+03  0.55302546916E+03  0.12699999809E+01 0. -1.
</event>
<event>
 5   0  0.3187123E-01  0.5492074E+03  0.7818609E-02  0.1001678E+00
       -2   -1    0    0    0  501  0.00000000000E+00  0.00000000000E+00  0.61367436488E+02  0.61367436541E+02  0.25500000920E-02 0. -1.
        2   -1    0    0  501    0  0.00000000000E+00  0.00000000000E+00 -0.12287818267E+04  0.12287818267E+04  0.25500000920E-02 0.  1.
    10030    2    1    2    0    0  0.00000000000E+00  0.00000000000E+00 -0.11674143902E+04  0.12901492632E+04  0.54920739523E+03 0.  0.
        5    1    3    3  502    0  0.17740578543E+03 -0.51207846306E+02 -0.10636892182E+03  0.21314664848E+03  0.46999998093E+01 0. -1.
       -5    1    3    3    0  502 -0.17740578543E+03  0.51207846306E+02 -0.10610454684E+04  0.10770026148E+04  0.46999998093E+01 0.  1.
</event>
<event>
 5   0  0.3178149E-01  0.4681629E+03  0.7818609E-02  0.1022440E+00
        2   -1    0    0  501    0  0.00000000000E+00  0.00000000000E+00  0.32284505679E+03  0.32284505680E+03  0.25500000920E-02 0.  1.
       -2   -1    0    0    0  501  0.00000000000E+00  0.00000000000E+00 -0.16972269414E+03  0.16972269415E+03  0.25500000920E-02 0. -1.
    10030    2    1    2    0    0  0.00000000000E+00  0.00000000000E+00  0.15312236265E+03  0.49256775095E+03  0.46816293247E+03 0.  0.
        3    1    3    3  502    0 -0.48781209209E+02  0.67243151960E+02 -0.15369134451E+03  0.17470628905E+03  0.10100000352E+00 0. -1.
       -3    1    3    3    0  502  0.48781209209E+02 -0.67243151960E+02  0.30681370716E+03  0.31786146190E+03  0.10100000352E+00 0.  1.
</event>
<event>
 5   0  0.1967161E-01  0.4872842E+03  0.7818609E-02  0.1017152E+00
       -1   -1    0    0    0  501  0.00000000000E+00  0.00000000000E+00  0.12507670873E+03  0.12507670883E+03  0.50400001928E-02 0. -1.
        1   -1    0    0  501    0  0.00000000000E+00  0.00000000000E+00 -0.47460054755E+03  0.47460054758E+03  0.50400001928E-02 0.  1.
    10030    2    1    2    0    0  0.00000000000E+00  0.00000000000E+00 -0.34952383882E+03  0.59967725641E+03  0.48728420655E+03 0.  0.
        1    1    3    3  502    0  0.13465634044E+03  0.15323194952E+01  0.75114363437E+02  0.15419742425E+03  0.50400001928E-02 0. -1.
       -1    1    3    3    0  502 -0.13465634044E+03 -0.15323194952E+01 -0.42463820226E+03  0.44547983217E+03  0.50400001928E-02 0.  1.
</event>
<event>
 5   0  0.1292375E-01  0.5015372E+03  0.7818609E-02  0.1013378E+00
        4   -1    0    0  501    0  0.00000000000E+00  0.00000000000E+00  0.35764573819E+03  0.35764799307E+03  0.12699999809E+01 0.  1.
       -4   -1    0    0    0  501  0.00000000000E+00  0.00000000000E+00 -0.17582499800E+03  0.17582958461E+03  0.12699999809E+01 0. -1.
    10030    2    1    2    0    0  0.00000000000E+00  0.00000000000E+00  0.18182074019E+03  0.53347757768E+03  0.50153718140E+03 0.  0.
        4    1    3    3  502    0  0.16647348739E+03 -0.10488704433E+03 -0.74452657560E+02  0.21037947901E+03  0.12699999809E+01 0. -1.
       -4    1    3    3    0  502 -0.16647348739E+03  0.10488704433E+03  0.25627339775E+03  0.32309809867E+03  0.12699999809E+01 0.  1.
</event>
<event>
 5   0  0.2000612E-01  0.4659825E+03  0.7818609E-02  0.1023060E+00
        1   -1    0    0  501    0  0.00000000000E+00  0.00000000000E+00  0.17159297730E+03  0.17159297738E+03  0.50400001928E-02 0. -1.
       -1   -1    0    0    0  501  0.00000000000E+00  0.00000000000E+00 -0.31635865971E+03  0.31635865975E+03  0.50400001928E-02 0.  1.
    10030    2    1    2    0    0  0.00000000000E+00  0.00000000000E+00 -0.14476568240E+03  0.48795163713E+03  0.46598250758E+03 0.  0.
        2    1    3    3  502    0 -0.46458851965E+02  0.20293613160E+03  0.37159953377E+02  0.21147661946E+03  0.25500000920E-02 0. -1.
       -2    1    3    3    0  502  0.46458851965E+02 -0.20293613160E+03 -0.18192563578E+03  0.27647501767E+03  0.25500000920E-02 0.  1.
</event>
<event>
 5   0  0.3329246E-01  0.5008019E+03  0.7818609E-02  0.1013570E+00
       -2   -1    0    0    0  501  0.00000000000E+00  0.00000000000E+00  0.78581051059E+02  0.78581051101E+02  0.25500000920E-02 0. -1.
        2   -1    0    0  501    0  0.00000000000E+00  0.00000000000E+00 -0.79791033385E+03  0.79791033385E+03  0.25500000920E-02 0.  1.
    10030    2    1    2    0    0  0.00000000000E+00  0.00000000000E+00 -0.71932928279E+03  0.87649138496E+03  0.50080188780E+03 0.  0.
        2    1    3    3  502    0 -0.70686726351E+02  0.13318849640E+02 -0.77943923727E+03  0.78275125656E+03  0.25500000920E-02 0.  1.
       -2    1    3    3    0  502  0.70686726351E+02 -0.13318849640E+02  0.60109954480E+02  0.93740128398E+02  0.25500000920E-02 0. -1.
</event>
<event>
 5   0  0.3117389E-01  0.4979176E+03  0.7818609E-02  0.1014324E+00
       -2   -1    0    0    0  501  0.00000000000E+00  0.00000000000E+00  0.90379240777E+02  0.90379240813E+02  0.25500000920E-02 0. -1.
        2   -1    0    0  501    0  0.00000000000E+00  0.00000000000E+00 -0.68578235364E+03  0.68578235364E+03  0.25500000920E-02 0.  1.
    10030    2    1    2    0    0  0.00000000000E+00  0.00000000000E+00 -0.59540311286E+03  0.77616159446E+03  0.49791761759E+03 0.  0.
        4    1    3    3  502    0  0.10013055168E+03  0.98079726024E+02 -0.61842800286E+03  0.63411400209E+03  0.12699999809E+01 0.  1.
       -4    1    3    3    0  502 -0.10013055168E+03 -0.98079726024E+02  0.23024889994E+02  0.14204759236E+03  0.12699999809E+01 0. -1.
</event>
<event>
 5   0  0.3187123E-01  0.5364736E+03  0.7818609E-02  0.1004674E+00
        2   -1    0    0  501    0  0.00000000000E+00  0.00000000000E+00  0.35027485397E+03  0.35027485398E+03  0.25500000920E-02 0.  1.
       -2   -1    0    0    0  501  0.00000000000E+00  0.00000000000E+00 -0.20541294996E+03  0.20541294997E+03  0.25500000920E-02 0. -1.
    10030    2    1    2    0    0  0.00000000000E+00  0.00000000000E+00  0.14486190401E+03  0.55568780395E+03  0.53647363796E+03 0.  0.
        5    1    3    3  502    0  0.30420863347E+02 -0.10495599036E+03  0.32612695738E+03  0.34397975401E+03  0.46999998093E+01 0.  1.
       -5    1    3    3    0  502 -0.30420863347E+02  0.10495599036E+03 -0.18126505337E+03  0.21170804994E+03  0.46999998093E+01 0. -1.
</event>
<event>
 5   0  0.2013450E-01  0.5062021E+03  0.7818609E-02  0.1012173E+00
        1   -1    0    0  501    0  0.00000000000E+00  0.00000000000E+00  0.97147072132E+03  0.97147072133E+03  0.50400001928E-02 0.  1.
       -1   -1    0    0    0  501  0.00000000000E+00  0.00000000000E+00 -0.65941390541E+02  0.65941390733E+02  0.50400001928E-02 0. -1.
    10030    2    1    2    0    0  0.00000000000E+00  0.00000000000E+00  0.90552933078E+03  0.10374121121E+04  0.50620205586E+03 0.  0.
        4    1    3    3  502    0 -0.32853371478E+02 -0.46298042675E+02  0.95824764664E+03  0.95992865254E+03  0.12699999809E+01 0.  1.
       -4    1    3    3    0  502  0.32853371478E+02  0.46298042675E+02 -0.52718315862E+02  0.77483459527E+02  0.12699999809E+01 0. -1.
</event>
<event>
 5   0  0.2013450E-01  0.4062269E+03  0.7818609E-02  0.1041645E+00
       -1   -1    0    0    0  501  0.00000000000E+00  0.00000000000E+00  0.36729264747E+02  0.36729265093E+02  0.50400001928E-02 0. -1.
        1   -1    0    0  501    0  0.00000000000E+00  0.00000000000E+00 -0.11232207656E+04  0.11232207656E+04  0.50400001928E-02 0.  1.
    10030    2    1    2    0    0  0.00000000000E+00  0.00000000000E+00 -0.10864915009E+04  0.11599500307E+04  0.40622689757E+03 0.  0.
        4    1    3    3  502    0 -0.10671807502E+03  0.17280227341E+03 -0.53747316916E+03  0.57456800616E+03  0.12699999809E+01 0. -1.
       -4    1    3    3    0  502  0.10671807502E+03 -0.17280227341E+03 -0.54901833171E+03  0.58538202456E+03  0.12699999809E+01 0.  1.
</event>
<event>
 5   0  0.3329246E-01  0.5530969E+03  0.7818609E-02  0.1000780E+00
        2   -1    0    0  501    0  0.00000000000E+00  0.00000000000E+00  0.52475431301E+03  0.52475431302E+03  0.25500000920E-02 0. -1.
       -2   -1    0    0    0  501  0.00000000000E+00  0.00000000000E+00 -0.14574256246E+03  0.14574256248E+03  0.25500000920E-02 0.  1.
    10030    2    1    2    0    0  0.00000000000E+00  0.00000000000E+00  0.37901175055E+03  0.67049687550E+03  0.55309687487E+03 0.  0.
        2    1    3    3  502    0 -0.21131757642E+03  0.12021618152E+03  0.29726640426E+02  0.24493003401E+03  0.25500000920E-02 0.  1.
       -2    1    3    3    0  502  0.21131757642E+03 -0.12021618152E+03  0.34928511013E+03  0.42556684148E+03  0.25500000920E-02 0. -1.
</event>
<event>
 5   0  0.3111146E-01  0.5059944E+03  0.7818609E-02  0.1012226E+00
        2   -1    0    0  501    0  0.00000000000E+00  0.00000000000E+00  0.14057900048E+03  0.14057900051E+03  0.25500000920E-02 0. -1.
       -2   -1    0    0    0  501  0.00000000000E+00  0.00000000000E+00 -0.45531397089E+03  0.45531397090E+03  0.25500000920E-02 0.  1.
    10030    2    1    2    0    0  0.00000000000E+00  0.00000000000E+00 -0.31473497041E+03  0.59589297140E+03  0.50599439895E+03 0.  0.
        1    1    3    3  502    0  0.19657173376E+03 -0.18982794361E+02  0.28863322244E+02  0.19958427892E+03  0.50400001928E-02 0. -1.
       -1    1    3    3    0  502 -0.19657173376E+03  0.18982794361E+02 -0.34359829265E+03  0.39630869248E+03  0.50400001928E-02 0.  1.
</event>
<event>
 5   0  0.3111146E-01  0.5423122E+03  0.7818609E-02  0.1003289E+00
        2   -1    0    0  501    0  0.00000000000E+00  0.00000000000E+00  0.15880181512E+04  0.15880181512E+04  0.25500000920E-02 0. -1.
       -2   -1    0    0    0  501  0.00000000000E+00  0.00000000000E+00 -0.46300245101E+02  0.46300245171E+02  0.25500000920E-02 0.  1.
    10030    2    1    2    0    0  0.00000000000E+00  0.00000000000E+00  0.15417179061E+04  0.16343183963E+04  0.54231219674E+03 0.  0.
        1    1    3    3  502    0 -0.16253527177E+03 -0.18330210005E+03  0.11211160355E+04  0.11475707122E+04  0.50400001928E-02 0.  1.
       -1    1    3    3    0  502  0.16253527177E+03  0.18330210005E+03  0.42060187056E+03  0.48674768412E+03  0.50400001928E-02 0. -1.
</event>
<event>
 5   0  0.1292375E-01  0.5086305E+03  0.7818609E-02  0.1011550E+00
        4   -1    0    0  501    0  0.00000000000E+00  0.00000000000E+00  0.28617920365E+03  0.28618202162E+03  0.12699999809E+01 0. -1.
       -4   -1    0    0    0  501  0.00000000000E+00  0.00000000000E+00 -0.22599343300E+03  0.22599700144E+03  0.12699999809E+01 0.  1.
    10030    2    1    2    0    0  0.00000000000E+00  0.00000000000E+00  0.60185770645E+02  0.51217902307E+03  0.50863053849E+03 0.  0.
        3    1    3    3  502    0  0.10520535355E+03 -0.15948100541E+03 -0.13892892580E+03  0.23622788601E+03  0.10100000352E+00 0.  1.
       -3    1    3    3    0  502 -0.10520535355E+03  0.15948100541E+03  0.19911469645E+03  0.27595113706E+03  0.10100000352E+00 0. -1.
</event>
<event>
 5   0  0.3187123E-01  0.5007469E+03  0.7818609E-02  0.1013584E+00
       -2   -1    0    0    0  501  0.00000000000E+00  0.00000000000E+00  0.10575425364E+03  0.10575425368E+03  0.25500000920E-02 0.  1.
        2   -1    0    0  501    0  0.00000000000E+00  0.00000000000E+00 -0.59275984517E+03  0.59275984518E+03  0.25500000920E-02 0. -1.
    10030    2    1    2    0    0  0.00000000000E+00  0.00000000000E+00 -0.48700559153E+03  0.69851409886E+03  0.50074694220E+03 0.  0.
        5    1    3    3  502    0  0.81121150197E+01 -0.17420105612E+03 -0.49402240824E+03  0.52391988338E+03  0.46999998093E+01 0. -1.
       -5    1    3    3    0  502 -0.81121150197E+01  0.17420105612E+03  0.70168167098E+01  0.17459421547E+03  0.46999998093E+01 0.  1.
</event>
<event>
 5   0  0.2013450E-01  0.5032706E+03  0.7818609E-02  0.1012929E+00
        1   -1    0    0  501    0  0.00000000000E+00  0.00000000000E+00  0.71951895118E+02  0.71951895295E+02  0.50400001928E-02 0. -1.
       -1   -1    0    0    0  501  0.00000000000E+00  0.00000000000E+00 -0.88003705079E+03  0.88003705080E+03  0.50400001928E-02 0.  1.
    10030    2    1    2    0    0  0.00000000000E+00  0.00000000000E+00 -0.80808515567E+03  0.95198894610E+03  0.50327063761E+03 0.  0.
        4    1    3    3  502    0 -0.22684529112E+03 -0.59250172847E+02 -0.57688752566E+03  0.62271197134E+03  0.12699999809E+01 0.  1.
       -4    1    3    3    0  502  0.22684529112E+03  0.59250172847E+02 -0.23119763001E+03  0.32927697476E+03  0.12699999809E+01 0. -1.
</event>
<event>
 5   0  0.1967161E-01  0.4392053E+03  0.7818609E-02  0.1030991E+00
       -1   -1    0    0    0  501  0.00000000000E+00  0.00000000000E+00  0.11792499316E+03  0.11792499327E+03  0.50400001928E-02 0. -1.
        1   -1    0    0  501    0  0.00000000000E+00  0.00000000000E+00 -0.40894917340E+03  0.40894917343E+03  0.50400001928E-02 0.  1.
    10030    2    1    2    0    0  0.00000000000E+00  0.00000000000E+00 -0.29102418024E+03  0.52687416670E+03  0.43920532106E+03 0.  0.
        1    1    3    3  502    0  0.15183082865E+03  0.14775943505E+03 -0.21483943516E+03  0.30173073112E+03  0.50400001928E-02 0. -1.
       -1    1    3    3    0  502 -0.15183082865E+03 -0.14775943505E+03 -0.76184745078E+02  0.22514343558E+03  0.50400001928E-02 0.  1.
</event>
<event>
 5   0  0.1967161E-01  0.4826814E+03  0.7818609E-02  0.1018401E+00
        1   -1    0    0  501    0  0.00000000000E+00  0.00000000000E+00  0.13807132276E+04  0.13807132277E+04  0.50400001928E-02 0.  1.
       -1   -1    0    0    0  501  0.00000000000E+00  0.00000000000E+00 -0.42184954221E+02  0.42184954522E+02  0.50400001928E-02 0. -1.
    10030    2    1    2    0    0  0.00000000000E+00  0.00000000000E+00  0.13385282734E+04  0.14228981822E+04  0.48268136289E+03 0.  0.
        1    1    3    3  502    0 -0.81249030436E+02  0.12196873114E+03  0.12345207202E+04  0.12431891188E+04  0.50400001928E-02 0.  1.
       -1    1    3    3    0  502  0.81249030436E+02 -0.12196873114E+03  0.10400755319E+03  0.17970906340E+03  0.50400001928E-02 0. -1.
</event>
<event>
 5   0  0.1292375E-01  0.4858210E+03  0.7818609E-02  0.1017548E+00
       -4   -1    0    0    0  501  0.00000000000E+00  0.00000000000E+00  0.24233733829E+03  0.24234066607E+03  0.12699999809E+01 0. -1.
        4   -1    0    0  501    0  0.00000000000E+00  0.00000000000E+00 -0.24347838953E+03  0.24348170171E+03  0.12699999809E+01 0.  1.
    10030    2    1    2    0    0  0.00000000000E+00  0.00000000000E+00 -0.11410512367E+01  0.48582236778E+03  0.48582102778E+03 0.  0.
        1    1    3    3  502    0  0.10968007794E+03 -0.14032453285E+03 -0.16575216574E+03  0.24329914609E+03  0.50400001928E-02 0. -1.
       -1    1    3    3    0  502 -0.10968007794E+03  0.14032453285E+03  0.16461111450E+03  0.24252322169E+03  0.50400001928E-02 0.  1.
</event>
<event>
 5   0  0.1292375E-01  0.4221490E+03  0.7818609E-02  0.1036369E+00
        3   -1    0    0  501    0  0.00000000000E+00  0.00000000000E+00  0.18528213898E+03  0.18528216651E+03  0.10100000352E+00 0. -1.
       -3   -1    0    0    0  501  0.00000000000E+00  0.00000000000E+00 -0.24045725564E+03  0.24045727685E+03  0.10100000352E+00 0.  1.
    10030    2    1    2    0    0  0.00000000000E+00  0.00000000000E+00 -0.55175116659E+02  0.42573944335E+03  0.42214900228E+03 0.  0.
        4    1    3    3  502    0  0.18260243231E+02 -0.15214339446E+03  0.11880134388E+03  0.19389796587E+03  0.12699999809E+01 0. -1.
       -4    1    3    3    0  502 -0.18260243231E+02  0.15214339446E+03 -0.17397646054E+03  0.23184147749E+03  0.12699999809E+01 0.  1.
</event>
<event>
 5   0  0.1967161E-01  0.5112795E+03  0.7818609E-02  0.1010876E+00
       -1   -1    0    0    0  501  0.00000000000E+00  0.00000000000E+00  0.42830831839E+02  0.42830832136E+02  0.50400001928E-02 0.  1.
        1   -1    0    0  501    0  0.00000000000E+00  0.00000000000E+00 -0.15258095710E+04  0.15258095710E+04  0.50400001928E-02 0. -1.
    10030    2    1    2    0    0  0.00000000000E+00  0.00000000000E+00 -0.14829787391E+04  0.15686404031E+04  0.51127954542E+03 0.  0.
        1    1    3    3  502    0  0.13078356534E+03  0.11567874905E+03 -0.16860804144E+03  0.24272326961E+03  0.50400001928E-02 0.  1.
       -1    1    3    3    0  502 -0.13078356534E+03 -0.11567874905E+03 -0.13143706977E+04  0.13259171335E+04  0.50400001928E-02 0. -1.
</event>
<event>
 5   0  0.3178149E-01  0.4975404E+03  0.7818609E-02  0.1014423E+00
       -2   -1    0    0    0  501  0.00000000000E+00  0.00000000000E+00  0.39174228081E+03  0.39174228081E+03  0.25500000920E-02 0. -1.
        2   -1    0    0  501    0  0.00000000000E+00  0.00000000000E+00 -0.15797786802E+03  0.15797786804E+03  0.25500000920E-02 0.  1.
    10030    2    1    2    0    0  0.00000000000E+00  0.00000000000E+00  0.23376441279E+03  0.54972014885E+03  0.49754039170E+03 0.  0.
        3    1    3    3  502    0 -0.20278311924E+03  0.10740538882E+03  0.22302899240E+03  0.31999820726E+03  0.10100000352E+00 0. -1.
       -3    1    3    3    0  502  0.20278311924E+03 -0.10740538882E+03  0.10735420388E+02  0.22972194159E+03  0.10100000352E+00 0.  1.
</event>
<event>
 5   0  0.1967161E-01  0.4912654E+03  0.7818609E-02  0.1016084E+00
       -1   -1    0    0    0  501  0.00000000000E+00  0.00000000000E+00  0.16028438266E+03  0.16028438274E+03  0.50400001928E-02 0.  1.
        1   -1    0    0  501    0  0.00000000000E+00  0.00000000000E+00 -0.37642737387E+03  0.37642737390E+03  0.50400001928E-02 0. -1.
    10030    2    1    2    0    0  0.00000000000E+00  0.00000000000E+00 -0.21614299121E+03  0.53671175664E+03  0.49126542425E+03 0.  0.
        1    1    3    3  502    0 -0.71046493028E+02  0.14926696242E+03 -0.30655720564E+03  0.34828946380E+03  0.50400001928E-02 0. -1.
       -1    1    3    3    0  502  0.71046493028E+02 -0.14926696242E+03  0.90414214430E+02  0.18842229284E+03  0.50400001928E-02 0.  1.
</event>
<event>
 5   0  0.3117389E-01  0.5068400E+03  0.7818609E-02  0.1012009E+00
       -2   -1    0    0    0  501  0.00000000000E+00  0.00000000000E+00  0.95198843225E+02  0.95198843259E+02  0.25500000920E-02 0. -1.
        2   -1    0    0  501    0  0.00000000000E+00  0.00000000000E+00 -0.67460594644E+03  0.67460594645E+03  0.25500000920E-02 0.  1.
    10030    2    1    2    0    0  0.00000000000E+00  0.00000000000E+00 -0.57940710322E+03  0.76980478971E+03  0.50684003689E+03 0.  0.
        4    1    3    3  502    0  0.43065839029E+02 -0.91035646248E+02  0.63495683764E+02  0.11906078337E+03  0.12699999809E+01 0. -1.
       -4    1    3    3    0  502 -0.43065839029E+02  0.91035646248E+02 -0.64290278698E+03  0.65074400634E+03  0.12699999809E+01 0.  1.
</event>
<event>
 5   0  0.3178149E-01  0.5319479E+03  0.7818609E-02  0.1005761E+00
       -2   -1    0    0    0  501  0.00000000000E+00  0.00000000000E+00  0.69150401054E+02  0.69150401101E+02  0.25500000920E-02 0.  1.
        2   -1    0    0  501    0  0.00000000000E+00  0.00000000000E+00 -0.10230186141E+04  0.10230186141E+04  0.25500000920E-02 0. -1.
    10030    2    1    2    0    0  0.00000000000E+00  0.00000000000E+00 -0.95386821304E+03  0.10921690152E+04  0.53194792030E+03 0.  0.
        3    1    3    3  502    0 -0.13146356891E+03 -0.17094228119E+03 -0.79658134205E+03  0.82525497766E+03  0.10100000352E+00 0. -1.
       -3    1    3    3    0  502  0.13146356891E+03  0.17094228119E+03 -0.15728687100E+03  0.26691403755E+03  0.10100000352E+00 0.  1.
</event>
<event>
 5   0  0.3329246E-01  0.5051353E+03  0.7818609E-02  0.1012447E+00
        2   -1    0    0  501    0  0.00000000000E+00  0.00000000000E+00  0.64046532417E+03  0.64046532417E+03  0.25500000920E-02 0.  1.
       -2   -1    0    0    0  501  0.00000000000E+00  0.00000000000E+00 -0.99600107523E+02  0.99600107555E+02  0.25500000920E-02 0. -1.
    10030    2    1    2    0    0  0.00000000000E+00  0.00000000000E+00  0.54086521665E+03  0.74006543173E+03  0.50513528946E+03 0.  0.
        2    1    3    3  502    0 -0.65533307579E+02  0.12262531885E+03 -0.38484124545E+02  0.14426576542E+03  0.25500000920E-02 0. -1.
       -2    1    3    3    0  502  0.65533307579E+02 -0.12262531885E+03  0.57934934119E+03  0.59579966631E+03  0.25500000920E-02 0.  1.
</event>
<event>
 5   0  0.1984680E-01  0.5048936E+03  0.7818609E-02  0.1012509E+00
       -1   -1    0    0    0  501  0.00000000000E+00  0.00000000000E+00  0.19835502972E+03  0.19835502978E+03  0.50400001928E-02 0. -1.
        1   -1    0    0  501    0  0.00000000000E+00  0.00000000000E+00 -0.32128947314E+03  0.32128947318E+03  0.50400001928E-02 0.  1.
    10030    2    1    2    0    0  0.00000000000E+00  0.00000000000E+00 -0.12293444343E+03  0.51964450296E+03  0.50489358490E+03 0.  0.
        5    1    3    3  502    0  0.21703856616E+03  0.55514817949E+02 -0.18113834033E+03  0.28813334162E+03  0.46999998093E+01 0.  1.
       -5    1    3    3    0  502 -0.21703856616E+03 -0.55514817949E+02  0.58203896903E+02  0.23151116135E+03  0.46999998093E+01 0. -1.
</event>
<event>
 5   0  0.1967161E-01  0.5034074E+03  0.7818609E-02  0.1012893E+00
       -1   -1    0    0    0  501  0.00000000000E+00  0.00000000000E+00  0.95287268772E+02  0.95287268905E+02  0.50400001928E-02 0.  1.
        1   -1    0    0  501    0  0.00000000000E+00  0.00000000000E+00 -0.66488169107E+03  0.66488169109E+03  0.50400001928E-02 0. -1.
    10030    2    1    2    0    0  0.00000000000E+00  0.00000000000E+00 -0.56959442230E+03  0.76016896000E+03  0.50340743124E+03 0.  0.
        1    1    3    3  502    0  0.19758794360E+03 -0.10320594190E+03 -0.10829408769E+03  0.24783073125E+03  0.50400001928E-02 0.  1.
       -1    1    3    3    0  502 -0.19758794360E+03  0.10320594190E+03 -0.46130033461E+03  0.51233822874E+03  0.50400001928E-02 0. -1.
</event>
<event>
 5   0  0.3111146E-01  0.5039151E+03  0.7818609E-02  0.1012762E+00
        2   -1    0    0  501    0  0.00000000000E+00  0.00000000000E+00  0.64640544276E+03  0.64640544276E+03  0.25500000920E-02 0.  1.
       -2   -1    0    0    0  501  0.00000000000E+00  0.00000000000E+00 -0.98208642685E+02  0.98208642718E+02  0.25500000920E-02 0. -1.
    10030    2    1    2    0    0  0.00000000000E+00  0.00000000000E+00  0.54819680007E+03  0.74461408548E+03  0.50391507686E+03 0.  0.
        1    1    3    3  502    0  0.89834056545E+02  0.18894019803E+03  0.48157148597E+03  0.52505204720E+03  0.50400001928E-02 0.  1.
       -1    1    3    3    0  502 -0.89834056545E+02 -0.18894019803E+03  0.66625314102E+02  0.21956203828E+03  0.50400001928E-02 0. -1.
</event>
<event>
 5   0  0.3117389E-01  0.4798889E+03  0.7818609E-02  0.1019166E+00
       -2   -1    0    0    0  501  0.00000000000E+00  0.00000000000E+00  0.12414584215E+03  0.12414584218E+03  0.25500000920E-02 0.  1.
        2   -1    0    0  501    0  0.00000000000E+00  0.00000000000E+00 -0.46375572004E+03  0.46375572005E+03  0.25500000920E-02 0. -1.
    10030    2    1    2    0    0  0.00000000000E+00  0.00000000000E+00 -0.33960987789E+03  0.58790156222E+03  0.47988892226E+03 0.  0.
        4    1    3    3  502    0  0.27061943332E+02  0.18058094828E+03 -0.36050012728E+03  0.40410862689E+03  0.12699999809E+01 0. -1.
       -4    1    3    3    0  502 -0.27061943332E+02 -0.18058094828E+03  0.20890249391E+02  0.18379293533E+03  0.12699999809E+01 0.  1.
</event>
<event>
 5   0  0.3187123E-01  0.5245673E+03  0.7818609E-02  0.1007558E+00
       -2   -1    0    0    0  501  0.00000000000E+00  0.00000000000E+00  0.72930498513E+02  0.72930498557E+02  0.25500000920E-02 0. -1.
        2   -1    0    0  501    0  0.00000000000E+00  0.00000000000E+00 -0.94326384849E+03  0.94326384849E+03  0.25500000920E-02 0.  1.
    10030    2    1    2    0    0  0.00000000000E+00  0.00000000000E+00 -0.87033334997E+03  0.10161943470E+04  0.52456726060E+03 0.  0.
        5    1    3    3  502    0 -0.40952028627E+02 -0.18364616650E+03 -0.78903221373E+03  0.81117008538E+03  0.46999998093E+01 0.  1.
       -5    1    3    3    0  502  0.40952028627E+02  0.18364616650E+03 -0.81301136243E+02  0.20502426166E+03  0.46999998093E+01 0. -1.
</event>
<event>
 5   0  0.3178149E-01  0.5202410E+03  0.7818609E-02  0.1008627E+00
       -2   -1    0    0    0  501  0.00000000000E+00  0.00000000000E+00  0.44610124482E+02  0.44610124555E+02  0.25500000920E-02 0. -1.
        2   -1    0    0  501    0  0.00000000000E+00  0.00000000000E+00 -0.15167562332E+04  0.15167562332E+04  0.25500000920E-02 0.  1.
    10030    2    1    2    0    0  0.00000000000E+00  0.00000000000E+00 -0.14721461087E+04  0.15613663578E+04  0.52024103810E+03 0.  0.
        3    1    3    3  502    0  0.13509841333E+02 -0.27487708225E+02 -0.15113255061E+04  0.15116358310E+04  0.10100000352E+00 0.  1.
       -3    1    3    3    0  502 -0.13509841333E+02  0.27487708225E+02  0.39179397364E+02  0.49730526793E+02  0.10100000352E+00 0. -1.
</event>
<event>
 5   0  0.1292375E-01  0.5057237E+03  0.7818609E-02  0.1012296E+00
       -3   -1    0    0    0  501  0.00000000000E+00  0.00000000000E+00  0.24601816961E+03  0.24601819034E+03  0.10100000352E+00 0.  1.
        3   -1    0    0  501    0  0.00000000000E+00  0.00000000000E+00 -0.25989581731E+03  0.25989583693E+03  0.10100000352E+00 0. -1.
    10030    2    1    2    0    0  0.00000000000E+00  0.00000000000E+00 -0.13877647700E+02  0.50591402727E+03  0.50572365368E+03 0.  0.
        1    1    3    3  502    0 -0.15462235071E+03  0.25584330632E+02  0.19157093741E+03  0.24751172376E+03  0.50400001928E-02 0.  1.
       -1    1    3    3    0  502  0.15462235071E+03 -0.25584330632E+02 -0.20544858511E+03  0.25840230352E+03  0.50400001928E-02 0. -1.
</event>
<event>
 5   0  0.3117389E-01  0.4937250E+03  0.7818609E-02  0.1015430E+00
        2   -1    0    0  501    0  0.00000000000E+00  0.00000000000E+00  0.13617756578E+04  0.13617756578E+04  0.25500000920E-02 0.  1.
       -2   -1    0    0    0  501  0.00000000000E+00  0.00000000000E+00 -0.44751191066E+02  0.44751191139E+02  0.25500000920E-02 0. -1.
    10030    2    1    2    0    0  0.00000000000E+00  0.00000000000E+00  0.13170244667E+04  0.14065268489E+04  0.49372495462E+03 0.  0.
        4    1    3    3  502    0  0.23351883622E+03  0.64602472293E+01  0.88582285875E+03  0.91610945397E+03  0.12699999809E+01 0.  1.
       -4    1    3    3    0  502 -0.23351883622E+03 -0.64602472293E+01  0.43120160795E+03  0.49041739494E+03  0.12699999809E+01 0. -1.
</event>
<event>
 5   0  0.1292375E-01  0.4805365E+03  0.7818609E-02  0.1018988E+00
       -3   -1    0    0    0  501  0.00000000000E+00  0.00000000000E+00  0.66484980431E+02  0.66485057147E+02  0.10100000352E+00 0.  1.
        3   -1    0    0  501    0  0.00000000000E+00  0.00000000000E+00 -0.86829813563E+03  0.86829814150E+03  0.10100000352E+00 0. -1.
    10030    2    1    2    0    0  0.00000000000E+00  0.00000000000E+00 -0.80181315519E+03  0.93478319865E+03  0.48053646337E+03 0.  0.
        4    1    3    3  502    0 -0.11593607425E+03  0.20473114619E+03 -0.30618080409E+03  0.38614027662E+03  0.12699999809E+01 0.  1.
       -4    1    3    3    0  502  0.11593607425E+03 -0.20473114619E+03 -0.49563235110E+03  0.54864292203E+03  0.12699999809E+01 0. -1.
</event>
<event>
 5   0  0.1984680E-01  0.5429502E+03  0.7818609E-02  0.1003139E+00
        1   -1    0    0  501    0  0.00000000000E+00  0.00000000000E+00  0.58759279303E+03  0.58759279306E+03  0.50400001928E-02 0. -1.
       -1   -1    0    0    0  501  0.00000000000E+00  0.00000000000E+00 -0.12542483856E+03  0.12542483866E+03  0.50400001928E-02 0.  1.
    10030    2    1    2    0    0  0.00000000000E+00  0.00000000000E+00  0.46216795447E+03  0.71301763172E+03  0.54295020490E+03 0.  0.
        5    1    3    3  502    0  0.14011901169E+03 -0.22025926456E+03  0.13343451539E+03  0.29321381440E+03  0.46999998093E+01 0.  1.
       -5    1    3    3    0  502 -0.14011901169E+03  0.22025926456E+03  0.32873343908E+03  0.41980381732E+03  0.46999998093E+01 0. -1.
</event>
<event>
 5   0  0.2000612E-01  0.4999539E+03  0.7818609E-02  0.1013791E+00
       -1   -1    0    0    0  501  0.00000000000E+00  0.00000000000E+00  0.13096560206E+03  0.13096560216E+03  0.50400001928E-02 0. -1.
        1   -1    0    0  501    0  0.00000000000E+00  0.00000000000E+00 -0.47713661662E+03  0.47713661665E+03  0.50400001928E-02 0.  1.
    10030    2    1    2    0    0  0.00000000000E+00  0.00000000000E+00 -0.34617101456E+03  0.60810221881E+03  0.49995393507E+03 0.  0.
        2    1    3    3  502    0 -0.13203308126E+03  0.29589386409E+02  0.82573162009E+02  0.15851370107E+03  0.25500000920E-02 0. -1.
       -2    1    3    3    0  502  0.13203308126E+03 -0.29589386409E+02 -0.42874417657E+03  0.44958851774E+03  0.25500000920E-02 0.  1.
</event>
<event>
 5   0  0.1292375E-01  0.5346758E+03  0.7818609E-02  0.1005104E+00
        3   -1    0    0  501    0  0.00000000000E+00  0.00000000000E+00  0.13910270650E+03  0.13910274317E+03  0.10100000352E+00 0. -1.
       -3   -1    0    0    0  501  0.00000000000E+00  0.00000000000E+00 -0.51378968890E+03  0.51378969883E+03  0.10100000352E+00 0.  1.
    10030    2    1    2    0    0  0.00000000000E+00  0.00000000000E+00 -0.37468698240E+03  0.65289244200E+03  0.53467579526E+03 0.  0.
        4    1    3    3  502    0 -0.96350543440E+02  0.24305660610E+03 -0.25541908774E+03  0.36551397274E+03  0.12699999809E+01 0.  1.
       -4    1    3    3    0  502  0.96350543440E+02 -0.24305660610E+03 -0.11926789467E+03  0.28737846925E+03  0.12699999809E+01 0. -1.
</event>
<event>
 5   0  0.3117389E-01  0.5870469E+03  0.7818609E-02  0.9932650E-01
        2   -1    0    0  501    0  0.00000000000E+00  0.00000000000E+00  0.75272103730E+03  0.75272103730E+03  0.25500000920E-02 0. -1.
       -2   -1    0    0    0  501  0.00000000000E+00  0.00000000000E+00 -0.11445942066E+03  0.11445942069E+03  0.25500000920E-02 0.  1.
    10030    2    1    2    0    0  0.00000000000E+00  0.00000000000E+00  0.63826161664E+03  0.86718045799E+03  0.58704689374E+03 0.  0.
        4    1    3    3  502    0 -0.41412331555E+02  0.53421041501E+02  0.74106379138E+03  0.74414107848E+03  0.12699999809E+01 0. -1.
       -4    1    3    3    0  502  0.41412331555E+02 -0.53421041501E+02 -0.10280217474E+03  0.12303937952E+03  0.12699999809E+01 0.  1.
</event>
<event>
 5   0  0.3178149E-01  0.4856329E+03  0.7818609E-02  0.1017598E+00
        2   -1    0    0  501    0  0.00000000000E+00  0.00000000000E+00  0.22898850236E+03  0.22898850238E+03  0.25500000920E-02 0. -1.
       -2   -1    0    0    0  501  0.00000000000E+00  0.00000000000E+00 -0.25747940521E+03  0.25747940522E+03  0.25500000920E-02 0.  1.
    10030    2    1    2    0    0  0.00000000000E+00  0.00000000000E+00 -0.28490902847E+02  0.48646790760E+03  0.48563287943E+03 0.  0.
        3    1    3    3  502    0  0.92130882667E+02 -0.16848786716E+03  0.13461542760E+03  0.23451563801E+03  0.10100000352E+00 0. -1.
       -3    1    3    3    0  502 -0.92130882667E+02  0.16848786716E+03 -0.16310633044E+03  0.25195226959E+03  0.10100000352E+00 0.  1.
</event>
<event>
 5   0  0.1984680E-01  0.4546817E+03  0.7818609E-02  0.1026335E+00
       -1   -1    0    0    0  501  0.00000000000E+00  0.00000000000E+00  0.14522251454E+03  0.14522251463E+03  0.50400001928E-02 0. -1.
        1   -1    0    0  501    0  0.00000000000E+00  0.00000000000E+00 -0.35589432809E+03  0.35589432812E+03  0.50400001928E-02 0.  1.
    10030    2    1    2    0    0  0.00000000000E+00  0.00000000000E+00 -0.21067181354E+03  0.50111684275E+03  0.45468173162E+03 0.  0.
        5    1    3    3  502    0  0.17334142828E+03  0.13281407944E+03 -0.35849914347E+02  0.22134619223E+03  0.46999998093E+01 0.  1.
       -5    1    3    3    0  502 -0.17334142828E+03 -0.13281407944E+03 -0.17482189920E+03  0.27977065052E+03  0.46999998093E+01 0. -1.
</event>
<event>
 5   0  0.3329246E-01  0.4122027E+03  0.7818609E-02  0.1039634E+00
        2   -1    0    0  501    0  0.00000000000E+00  0.00000000000E+00  0.21009107538E+03  0.21009107539E+03  0.25500000920E-02 0.  1.
       -2   -1    0    0    0  501  0.00000000000E+00  0.00000000000E+00 -0.20218743503E+03  0.20218743504E+03  0.25500000920E-02 0. -1.
    10030    2    1    2    0    0  0.00000000000E+00  0.00000000000E+00  0.79036403493E+01  0.41227851044E+03  0.41220274458E+03 0.  0.
        2    1    3    3  502    0 -0.30884741027E+02 -0.19879479207E+03  0.48732128738E+02  0.20699772212E+03  0.25500000920E-02 0. -1.
       -2    1    3    3    0  502  0.30884741027E+02  0.19879479207E+03 -0.40828488389E+02  0.20528078832E+03  0.25500000920E-02 0.  1.
</event>
<event>
 5   0  0.1292375E-01  0.5054300E+03  0.7818609E-02  0.1012371E+00
       -3   -1    0    0    0  501  0.00000000000E+00  0.00000000000E+00  0.23815328705E+03  0.23815330846E+03  0.10100000352E+00 0. -1.
        3   -1    0    0  501    0  0.00000000000E+00  0.00000000000E+00 -0.26816701904E+03  0.26816703806E+03  0.10100000352E+00 0.  1.
    10030    2    1    2    0    0  0.00000000000E+00  0.00000000000E+00 -0.30013731993E+02  0.50632034652E+03  0.50542998446E+03 0.  0.
        1    1    3    3  502    0 -0.13537577537E+03 -0.21244524687E+03 -0.35173991381E+02  0.25435564309E+03  0.50400001928E-02 0.  1.
       -1    1    3    3    0  502  0.13537577537E+03  0.21244524687E+03  0.51602593881E+01  0.25196470343E+03  0.50400001928E-02 0. -1.
</event>
<event>
 5   0  0.3117389E-01  0.2925051E+03  0.7818609E-02  0.1089048E+00
       -2   -1    0    0    0  501  0.00000000000E+00  0.00000000000E+00  0.67227960557E+02  0.67227960605E+02  0.25500000920E-02 0.  1.
        2   -1    0    0  501    0  0.00000000000E+00  0.00000000000E+00 -0.31816826686E+03  0.31816826687E+03  0.25500000920E-02 0. -1.
    10030    2    1    2    0    0  0.00000000000E+00  0.00000000000E+00 -0.25094030630E+03  0.38539622748E+03  0.29250506803E+03 0.  0.
        4    1    3    3  502    0  0.13709580421E+03  0.23348883220E+02 -0.65847171578E+02  0.15387622553E+03  0.12699999809E+01 0.  1.
       -4    1    3    3    0  502 -0.13709580421E+03 -0.23348883220E+02 -0.18509313473E+03  0.23152000195E+03  0.12699999809E+01 0. -1.
</event>
<event>
 5   0  0.1967161E-01  0.4568607E+03  0.7818609E-02  0.1025696E+00
       -1   -1    0    0    0  501  0.00000000000E+00  0.00000000000E+00  0.73462485128E+02  0.73462485301E+02  0.50400001928E-02 0.  1.
        1   -1    0    0  501    0  0.00000000000E+00  0.00000000000E+00 -0.71030032468E+03  0.71030032470E+03  0.50400001928E-02 0. -1.
    10030    2    1    2    0    0  0.00000000000E+00  0.00000000000E+00 -0.63683783955E+03  0.78376281000E+03  0.45686071012E+03 0.  0.
        1    1    3    3  502    0  0.16478305845E+03 -0.15174557827E+03 -0.24169284084E+03  0.32953847456E+03  0.50400001928E-02 0.  1.
       -1    1    3    3    0  502 -0.16478305845E+03  0.15174557827E+03 -0.39514499871E+03  0.45422433544E+03  0.50400001928E-02 0. -1.
</event>
<event>
 5   0  0.3329246E-01  0.4980313E+03  0.7818609E-02  0.1014294E+00
        2   -1    0    0  501    0  0.00000000000E+00  0.00000000000E+00  0.12296191853E+04  0.12296191853E+04  0.25500000920E-02 0.  1.
       -2   -1    0    0    0  501  0.00000000000E+00  0.00000000000E+00 -0.50429265454E+02  0.50429265518E+02  0.25500000920E-02 0. -1.
    10030    2    1    2    0    0  0.00000000000E+00  0.00000000000E+00  0.11791899199E+04  0.12800484508E+04  0.49803129358E+03 0.  0.
        2    1    3    3  502    0 -0.20930261809E+03  0.68152757315E+02  0.29033949321E+03  0.36434791833E+03  0.25500000920E-02 0. -1.
       -2    1    3    3    0  502  0.20930261809E+03 -0.68152757315E+02  0.88885042665E+03  0.91570053251E+03  0.25500000920E-02 0.  1.
</event>
<event>
 5   0  0.1984680E-01  0.4961632E+03  0.7818609E-02  0.1014785E+00
       -1   -1    0    0    0  501  0.00000000000E+00  0.00000000000E+00  0.37532812143E+02  0.37532812482E+02  0.50400001928E-02 0.  1.
        1   -1    0    0  501    0  0.00000000000E+00  0.00000000000E+00 -0.16397513711E+04  0.16397513711E+04  0.50400001928E-02 0. -1.
    10030    2    1    2    0    0  0.00000000000E+00  0.00000000000E+00 -0.16022185589E+04  0.16772841836E+04  0.49616320083E+03 0.  0.
        5    1    3    3  502    0 -0.32498384405E+02 -0.20548581747E+03 -0.34452996128E+03  0.40249664643E+03  0.46999998093E+01 0.  1.
       -5    1    3    3    0  502  0.32498384405E+02  0.20548581747E+03 -0.12576885977E+04  0.12747875371E+04  0.46999998093E+01 0. -1.
</event>
<event>
 5   0  0.1292375E-01  0.5027089E+03  0.7818609E-02  0.1013074E+00
        3   -1    0    0  501    0  0.00000000000E+00  0.00000000000E+00  0.51028451346E+03  0.51028452345E+03  0.10100000352E+00 0.  1.
       -3   -1    0    0    0  501  0.00000000000E+00  0.00000000000E+00 -0.12381141780E+03  0.12381145900E+03  0.10100000352E+00 0. -1.
    10030    2    1    2    0    0  0.00000000000E+00  0.00000000000E+00  0.38647309565E+03  0.63409598245E+03  0.50270892303E+03 0.  0.
        2    1    3    3  502    0  0.33524082562E+02  0.23874679553E+03  0.28291874501E+03  0.37170810157E+03  0.25500000920E-02 0.  1.
       -2    1    3    3    0  502 -0.33524082562E+02 -0.23874679553E+03  0.10355435064E+03  0.26238788088E+03  0.25500000920E-02 0. -1.
</event>
<event>
 5   0  0.1967161E-01  0.5070227E+03  0.7818609E-02  0.1011962E+00
       -1   -1    0    0    0  501  0.00000000000E+00  0.00000000000E+00  0.10218848861E+03  0.10218848874E+03  0.50400001928E-02 0. -1.
        1   -1    0    0  501    0  0.00000000000E+00  0.00000000000E+00 -0.62891620983E+03  0.62891620985E+03  0.50400001928E-02 0.  1.
    10030    2    1    2    0    0  0.00000000000E+00  0.00000000000E+00 -0.52672772121E+03  0.73110469859E+03  0.50702267011E+03 0.  0.
        1    1    3    3  502    0  0.20667775861E+03 -0.53496458079E+02 -0.66229719966E+02  0.22352615677E+03  0.50400001928E-02 0. -1.
       -1    1    3    3    0  502 -0.20667775861E+03  0.53496458079E+02 -0.46049800125E+03  0.50757854181E+03  0.50400001928E-02 0.  1.
</event>
<event>
 5   0  0.3187123E-01  0.5164649E+03  0.7818609E-02  0.1009568E+00
       -2   -1    0    0    0  501  0.00000000000E+00  0.00000000000E+00  0.47364529288E+02  0.47364529357E+02  0.25500000920E-02 0. -1.
        2   -1    0    0  501    0  0.00000000000E+00  0.00000000000E+00 -0.14078889337E+04  0.14078889337E+04  0.25500000920E-02 0.  1.
    10030    2    1    2    0    0  0.00000000000E+00  0.00000000000E+00 -0.13605244044E+04  0.14552534631E+04  0.51646489401E+03 0.  0.
        5    1    3    3  502    0  0.21162086127E+03  0.98244676766E+02 -0.36869700944E+03  0.43634273249E+03  0.46999998093E+01 0.  1.
       -5    1    3    3    0  502 -0.21162086127E+03 -0.98244676766E+02 -0.99182739497E+03  0.10189107306E+04  0.46999998093E+01 0. -1.
</event>
<event>
 5   0  0.1984680E-01  0.4962163E+03  0.7818609E-02  0.1014771E+00
        1   -1    0    0  501    0  0.00000000000E+00  0.00000000000E+00  0.19925157603E+03  0.19925157610E+03  0.50400001928E-02 0.  1.
       -1   -1    0    0    0  501  0.00000000000E+00  0.00000000000E+00 -0.30894440292E+03  0.30894440296E+03  0.50400001928E-02 0. -1.
    10030    2    1    2    0    0  0.00000000000E+00  0.00000000000E+00 -0.10969282688E+03  0.50819597905E+03  0.49621632063E+03 0.  0.
        5    1    3    3  502    0  0.35938363247E+02  0.22917627762E+03 -0.14484418264E+03  0.27352378218E+03  0.46999998093E+01 0. -1.
       -5    1    3    3    0  502 -0.35938363247E+02 -0.22917627762E+03  0.35151355754E+02  0.23467219687E+03  0.46999998093E+01 0.  1.
</event>
<event>
 5   0  0.3178149E-01  0.5065210E+03  0.7818609E-02  0.1012091E+00
       -2   -1    0    0    0  501  0.00000000000E+00  0.00000000000E+00  0.30288345249E+02  0.30288345356E+02  0.25500000920E-02 0. -1.
        2   -1    0    0  501    0  0.00000000000E+00  0.00000000000E+00 -0.21176750359E+04  0.21176750359E+04  0.25500000920E-02 0.  1.
    10030    2    1    2    0    0  0.00000000000E+00  0.00000000000E+00 -0.20873866906E+04  0.21479633812E+04  0.50652096789E+03 0.  0.
        3    1    3    3  502    0  0.13293727978E+03  0.17453568245E+03 -0.15801920155E+04  0.15953500685E+04  0.10100000352E+00 0.  1.
       -3    1    3    3    0  502 -0.13293727978E+03 -0.17453568245E+03 -0.50719467511E+03  0.55261331279E+03  0.10100000352E+00 0. -1.
</event>
<event>
 5   0  0.1967161E-01  0.4812439E+03  0.7818609E-02  0.1018794E+00
        1   -1    0    0  501    0  0.00000000000E+00  0.00000000000E+00  0.64547337275E+03  0.64547337277E+03  0.50400001928E-02 0.  1.
       -1   -1    0    0    0  501  0.00000000000E+00  0.00000000000E+00 -0.89699940371E+02  0.89699940513E+02  0.50400001928E-02 0. -1.
    10030    2    1    2    0    0  0.00000000000E+00  0.00000000000E+00  0.55577343238E+03  0.73517331328E+03  0.48124390118E+03 0.  0.
        1    1    3    3  502    0 -0.29347247763E+02 -0.23504205277E+03  0.34257147914E+03  0.41648678954E+03  0.50400001928E-02 0. -1.
       -1    1    3    3    0  502  0.29347247763E+02  0.23504205277E+03  0.21320195324E+03  0.31868652374E+03  0.50400001928E-02 0.  1.
</event>
<event>
 5   0  0.1984297E-01  0.5082904E+03  0.7818609E-02  0.1011637E+00
       -1   -1    0    0    0  501  0.00000000000E+00  0.00000000000E+00  0.99130291615E+02  0.99130291743E+02  0.50400001928E-02 0. -1.
        1   -1    0    0  501    0  0.00000000000E+00  0.00000000000E+00 -0.65156465136E+03  0.65156465138E+03  0.50400001928E-02 0.  1.
    10030    2    1    2    0    0  0.00000000000E+00  0.00000000000E+00 -0.55243435974E+03  0.75069494312E+03  0.50829044434E+03 0.  0.
        3    1    3    3  502    0 -0.18680739014E+03  0.16726293589E+03 -0.21503898644E+03  0.33032660599E+03  0.10100000352E+00 0. -1.
       -3    1    3    3    0  502  0.18680739014E+03 -0.16726293589E+03 -0.33739537330E+03  0.42036833713E+03  0.10100000352E+00 0.  1.
</event>
<event>
 5   0  0.3178149E-01  0.5073859E+03  0.7818609E-02  0.1011869E+00
        2   -1    0    0  501    0  0.00000000000E+00  0.00000000000E+00  0.14306455157E+04  0.14306455157E+04  0.25500000920E-02 0.  1.
       -2   -1    0    0    0  501  0.00000000000E+00  0.00000000000E+00 -0.44986772168E+02  0.44986772240E+02  0.25500000920E-02 0. -1.
    10030    2    1    2    0    0  0.00000000000E+00  0.00000000000E+00  0.13856587435E+04  0.14756322879E+04  0.50738594352E+03 0.  0.
        3    1    3    3  502    0 -0.19813672382E+03 -0.11296792812E+03  0.36975626332E+03  0.43444173208E+03  0.10100000352E+00 0. -1.
       -3    1    3    3    0  502  0.19813672382E+03  0.11296792812E+03  0.10159024802E+04  0.10411905558E+04  0.10100000352E+00 0.  1.
</event>
<event>
 5   0  0.3187123E-01  0.4771618E+03  0.7818609E-02  0.1019918E+00
        2   -1    0    0  501    0  0.00000000000E+00  0.00000000000E+00  0.34321414674E+03  0.34321414675E+03  0.25500000920E-02 0. -1.
       -2   -1    0    0    0  501  0.00000000000E+00  0.00000000000E+00 -0.16584643118E+03  0.16584643120E+03  0.25500000920E-02 0.  1.
    10030    2    1    2    0    0  0.00000000000E+00  0.00000000000E+00  0.17736771556E+03  0.50906057795E+03  0.47716178126E+03 0.  0.
        5    1    3    3  502    0 -0.59878682516E+02  0.11245142381E+02  0.33472396945E+03  0.34025598535E+03  0.46999998093E+01 0. -1.
       -5    1    3    3    0  502  0.59878682516E+02 -0.11245142381E+02 -0.15735625389E+03  0.16880459260E+03  0.46999998093E+01 0.  1.
</event>
<event>
 5   0  0.3187123E-01  0.5010575E+03  0.7818609E-02  0.1013503E+00
       -2   -1    0    0    0  501  0.00000000000E+00  0.00000000000E+00  0.16515448174E+03  0.16515448176E+03  0.25500000920E-02 0.  1.
        2   -1    0    0  501    0  0.00000000000E+00  0.00000000000E+00 -0.38003599209E+03  0.38003599210E+03  0.25500000920E-02 0. -1.
    10030    2    1    2    0    0  0.00000000000E+00  0.00000000000E+00 -0.21488151035E+03  0.54519047386E+03  0.50105747106E+03 0.  0.
        5    1    3    3  502    0 -0.22952292374E+03 -0.20889989659E+02 -0.69024602310E+00  0.23052056443E+03  0.46999998093E+01 0.  1.
       -5    1    3    3    0  502  0.22952292374E+03  0.20889989659E+02 -0.21419126432E+03  0.31466990943E+03  0.46999998093E+01 0. -1.
</event>
<event>
 5   0  0.2013450E-01  0.4916461E+03  0.7818609E-02  0.1015983E+00
       -1   -1    0    0    0  501  0.00000000000E+00  0.00000000000E+00  0.14382524527E+03  0.14382524536E+03  0.50400001928E-02 0.  1.
        1   -1    0    0  501    0  0.00000000000E+00  0.00000000000E+00 -0.42015556651E+03  0.42015556654E+03  0.50400001928E-02 0. -1.
    10030    2    1    2    0    0  0.00000000000E+00  0.00000000000E+00 -0.27633032124E+03  0.56398081190E+03  0.49164612248E+03 0.  0.
        4    1    3    3  502    0 -0.79436733736E+02  0.27559931090E+02 -0.40314323228E+03  0.41182013441E+03  0.12699999809E+01 0. -1.
       -4    1    3    3    0  502  0.79436733736E+02 -0.27559931090E+02  0.12681291104E+03  0.15216067749E+03  0.12699999809E+01 0.  1.
</event>
<event>
 5   0  0.1984680E-01  0.4871409E+03  0.7818609E-02  0.1017191E+00
       -1   -1    0    0    0  501  0.00000000000E+00  0.00000000000E+00  0.11637105231E+04  0.11637105232E+04  0.50400001928E-02 0.  1.
        1   -1    0    0  501    0  0.00000000000E+00  0.00000000000E+00 -0.50980509749E+02  0.50980509998E+02  0.50400001928E-02 0. -1.
    10030    2    1    2    0    0  0.00000000000E+00  0.00000000000E+00  0.11127300134E+04  0.12146910332E+04  0.48714086599E+03 0.  0.
        5    1    3    3  502    0  0.17216687318E+03 -0.14999995248E+03  0.34532723706E+03  0.41402223203E+03  0.46999998093E+01 0. -1.
       -5    1    3    3    0  502 -0.17216687318E+03  0.14999995248E+03  0.76740277634E+03  0.80066880113E+03  0.46999998093E+01 0.  1.
</event>
<event>
 5   0  0.2000612E-01  0.5008688E+03  0.7818609E-02  0.1013552E+00
        1   -1    0    0  501    0  0.00000000000E+00  0.00000000000E+00  0.43732192118E+02  0.43732192409E+02  0.50400001928E-02 0. -1.
       -1   -1    0    0    0  501  0.00000000000E+00  0.00000000000E+00 -0.14341240565E+04  0.14341240566E+04  0.50400001928E-02 0.  1.
    10030    2    1    2    0    0  0.00000000000E+00  0.00000000000E+00 -0.13903918644E+04  0.14778562490E+04  0.50086880112E+03 0.  0.
        2    1    3    3  502    0  0.18281903180E+03 -0.11394539275E+03 -0.10720290055E+04  0.10934589794E+04  0.25500000920E-02 0.  1.
       -2    1    3    3    0  502 -0.18281903180E+03  0.11394539275E+03 -0.31836285888E+03  0.38439726955E+03  0.25500000920E-02 0. -1.
</event>
<event>
 5   0  0.1967161E-01  0.4805490E+03  0.7818609E-02  0.1018984E+00
        1   -1    0    0  501    0  0.00000000000E+00  0.00000000000E+00  0.44395988525E+03  0.44395988528E+03  0.50400001928E-02 0.  1.
       -1   -1    0    0    0  501  0.00000000000E+00  0.00000000000E+00 -0.13003842830E+03  0.13003842840E+03  0.50400001928E-02 0. -1.
    10030    2    1    2    0    0  0.00000000000E+00  0.00000000000E+00  0.31392145695E+03  0.57399831368E+03  0.48054904326E+03 0.  0.
        1    1    3    3  502    0  0.12096375478E+02 -0.23967440410E+03  0.14274192370E+03  0.27922284844E+03  0.50400001928E-02 0.  1.
       -1    1    3    3    0  502 -0.12096375478E+02  0.23967440410E+03  0.17117953324E+03  0.29477546524E+03  0.50400001928E-02 0. -1.
</event>
<event>
 5   0  0.1292375E-01  0.4890448E+03  0.7818609E-02  0.1016679E+00
       -3   -1    0    0    0  501  0.00000000000E+00  0.00000000000E+00  0.10119383981E+03  0.10119389022E+03  0.10100000352E+00 0. -1.
        3   -1    0    0  501    0  0.00000000000E+00  0.00000000000E+00 -0.59085784762E+03  0.59085785625E+03  0.10100000352E+00 0.  1.
    10030    2    1    2    0    0  0.00000000000E+00  0.00000000000E+00 -0.48966400781E+03  0.69205174647E+03  0.48904476201E+03 0.  0.
        4    1    3    3  502    0  0.15808089434E+02  0.97839311841E+02 -0.56115609568E+03  0.56984226173E+03  0.12699999809E+01 0.  1.
       -4    1    3    3    0  502 -0.15808089434E+02 -0.97839311841E+02  0.71492087869E+02  0.12220948474E+03  0.12699999809E+01 0. -1.
</event>
<event>
 5   0  0.2013450E-01  0.4898547E+03  0.7818609E-02  0.1016461E+00
        1   -1    0    0  501    0  0.00000000000E+00  0.00000000000E+00  0.57044949743E+03  0.57044949745E+03  0.50400001928E-02 0. -1.
       -1   -1    0    0    0  501  0.00000000000E+00  0.00000000000E+00 -0.10516164652E+03  0.10516164664E+03  0.50400001928E-02 0.  1.
    10030    2    1    2    0    0  0.00000000000E+00  0.00000000000E+00  0.46528785091E+03  0.67561114409E+03  0.48985470684E+03 0.  0.
        4    1    3    3  502    0 -0.18940239612E+03 -0.10160240421E+02  0.44636007092E+03  0.48499012768E+03  0.12699999809E+01 0. -1.
       -4    1    3    3    0  502  0.18940239612E+03  0.10160240421E+02  0.18927779993E+02  0.19062101641E+03  0.12699999809E+01 0.  1.
</event>
<event>
 5   0  0.3178149E-01  0.5023671E+03  0.7818609E-02  0.1013163E+00
        2   -1    0    0  501    0  0.00000000000E+00  0.00000000000E+00  0.61629213258E+03  0.61629213258E+03  0.25500000920E-02 0. -1.
       -2   -1    0    0    0  501  0.00000000000E+00  0.00000000000E+00 -0.10237545561E+03  0.10237545564E+03  0.25500000920E-02 0.  1.
    10030    2    1    2    0    0  0.00000000000E+00  0.00000000000E+00  0.51391667697E+03  0.71866758822E+03  0.50236714810E+03 0.  0.
        3    1    3    3  502    0  0.13622734835E+03 -0.20100925999E+03  0.34889982867E+03  0.42508083194E+03  0.10100000352E+00 0. -1.
       -3    1    3    3    0  502 -0.13622734835E+03  0.20100925999E+03  0.16501684830E+03  0.29358675628E+03  0.10100000352E+00 0.  1.
</event>
<event>
 5   0  0.1292375E-01  0.5164797E+03  0.7818609E-02  0.1009565E+00
        3   -1    0    0  501    0  0.00000000000E+00  0.00000000000E+00  0.48688381852E+02  0.48688486610E+02  0.10100000352E+00 0.  1.
       -3   -1    0    0    0  501  0.00000000000E+00  0.00000000000E+00 -0.13696846970E+04  0.13696847008E+04  0.10100000352E+00 0. -1.
    10030    2    1    2    0    0  0.00000000000E+00  0.00000000000E+00 -0.13209963152E+04  0.14183731874E+04  0.51647965490E+03 0.  0.
        5    1    3    3  502    0  0.81515254887E+01  0.15899834425E+03 -0.10227078022E+03  0.18928371120E+03  0.46999998093E+01 0.  1.
       -5    1    3    3    0  502 -0.81515254887E+01 -0.15899834425E+03 -0.12187255350E+04  0.12290894762E+04  0.46999998093E+01 0. -1.
</event>
<event>
 5   0  0.3187123E-01  0.5177409E+03  0.7818609E-02  0.1009249E+00
       -2   -1    0    0    0  501  0.00000000000E+00  0.00000000000E+00  0.45210502747E+02  0.45210502819E+02  0.25500000920E-02 0. -1.
        2   -1    0    0  501    0  0.00000000000E+00  0.00000000000E+00 -0.14822644079E+04  0.14822644079E+04  0.25500000920E-02 0.  1.
    10030    2    1    2    0    0  0.00000000000E+00  0.00000000000E+00 -0.14370539051E+04  0.15274749107E+04  0.51774093576E+03 0.  0.
        5    1    3    3  502    0 -0.10685925225E+03  0.17970555169E+03 -0.26839246663E+03  0.34024930748E+03  0.46999998093E+01 0. -1.
       -5    1    3    3    0  502  0.10685925225E+03 -0.17970555169E+03 -0.11686614385E+04  0.11872256032E+04  0.46999998093E+01 0.  1.
</event>
<event>
 5   0  0.3187123E-01  0.4803972E+03  0.7818609E-02  0.1019026E+00
        2   -1    0    0  501    0  0.00000000000E+00  0.00000000000E+00  0.63874848911E+03  0.63874848912E+03  0.25500000920E-02 0.  1.
       -2   -1    0    0    0  501  0.00000000000E+00  0.00000000000E+00 -0.90325636038E+02  0.90325636074E+02  0.25500000920E-02 0. -1.
    10030    2    1    2    0    0  0.00000000000E+00  0.00000000000E+00  0.54842285308E+03  0.72907412519E+03  0.48039718385E+03 0.  0.
        5    1    3    3  502    0  0.26014243157E+02  0.16980138299E+03  0.52890534679E+03  0.55612247426E+03  0.46999998093E+01 0.  1.
       -5    1    3    3    0  502 -0.26014243157E+02 -0.16980138299E+03  0.19517506287E+02  0.17295165094E+03  0.46999998093E+01 0. -1.
</event>
<event>
 5   0  0.1967161E-01  0.5026037E+03  0.7818609E-02  0.1013102E+00
        1   -1    0    0  501    0  0.00000000000E+00  0.00000000000E+00  0.18948571337E+03  0.18948571344E+03  0.50400001928E-02 0. -1.
       -1   -1    0    0    0  501  0.00000000000E+00  0.00000000000E+00 -0.33328429054E+03  0.33328429058E+03  0.50400001928E-02 0.  1.
    10030    2    1    2    0    0  0.00000000000E+00  0.00000000000E+00 -0.14379857717E+03  0.52277000402E+03  0.50260366722E+03 0.  0.
        1    1    3    3  502    0 -0.13585745903E+03  0.38031391141E+02 -0.28820745708E+03  0.32088498598E+03  0.50400001928E-02 0.  1.
       -1    1    3    3    0  502  0.13585745903E+03 -0.38031391141E+02  0.14440887991E+03  0.20188501804E+03  0.50400001928E-02 0. -1.
</event>
<event>
 5   0  0.3111146E-01  0.5066481E+03  0.7818609E-02  0.1012058E+00
       -2   -1    0    0    0  501  0.00000000000E+00  0.00000000000E+00  0.36330848008E+02  0.36330848097E+02  0.25500000920E-02 0.  1.
        2   -1    0    0  501    0  0.00000000000E+00  0.00000000000E+00 -0.17663520798E+04  0.17663520798E+04  0.25500000920E-02 0. -1.
    10030    2    1    2    0    0  0.00000000000E+00  0.00000000000E+00 -0.17300212318E+04  0.18026829279E+04  0.50664807913E+03 0.  0.
        1    1    3    3  502    0 -0.66238494007E+02  0.15619814146E+03 -0.19568269946E+03  0.25899250255E+03  0.50400001928E-02 0.  1.
       -1    1    3    3    0  502  0.66238494007E+02 -0.15619814146E+03 -0.15343385324E+04  0.15436904254E+04  0.50400001928E-02 0. -1.
</event>
<event>
 5   0  0.3111146E-01  0.4702728E+03  0.7818609E-02  0.1021843E+00
       -2   -1    0    0    0  501  0.00000000000E+00  0.00000000000E+00  0.36971085571E+02  0.36971085659E+02  0.25500000920E-02 0.  1.
        2   -1    0    0  501    0  0.00000000000E+00  0.00000000000E+00 -0.14954695956E+04  0.14954695956E+04  0.25500000920E-02 0. -1.
    10030    2    1    2    0    0  0.00000000000E+00  0.00000000000E+00 -0.14584985101E+04  0.15324406813E+04  0.47027283340E+03 0.  0.
        1    1    3    3  502    0 -0.46824105782E+02  0.12317669614E+03 -0.94661560098E+02  0.16225229225E+03  0.50400001928E-02 0.  1.
       -1    1    3    3    0  502  0.46824105782E+02 -0.12317669614E+03 -0.13638369500E+04  0.13701883890E+04  0.50400001928E-02 0. -1.
</event>
<event>
 5   0  0.1967161E-01  0.4520265E+03  0.7818609E-02  0.1027119E+00
        1   -1    0    0  501    0  0.00000000000E+00  0.00000000000E+00  0.25924627252E+03  0.25924627257E+03  0.50400001928E-02 0.  1.
       -1   -1    0    0    0  501  0.00000000000E+00  0.00000000000E+00 -0.19704043055E+03  0.19704043061E+03  0.50400001928E-02 0. -1.
    10030    2    1    2    0    0  0.00000000000E+00  0.00000000000E+00  0.62205841976E+02  0.45628670318E+03  0.45202653542E+03 0.  0.
        1    1    3    3  502    0 -0.16218345512E+03 -0.44648977631E+02 -0.12126668032E+03  0.20737071177E+03  0.50400001928E-02 0. -1.
       -1    1    3    3    0  502  0.16218345512E+03  0.44648977631E+02  0.18347252229E+03  0.24891599141E+03  0.50400001928E-02 0.  1.
</event>
<event>
 5   0  0.3117389E-01  0.4555597E+03  0.7818609E-02  0.1026077E+00
       -2   -1    0    0    0  501  0.00000000000E+00  0.00000000000E+00  0.49940465243E+02  0.49940465308E+02  0.25500000920E-02 0. -1.
        2   -1    0    0  501    0  0.00000000000E+00  0.00000000000E+00 -0.10389100225E+04  0.10389100225E+04  0.25500000920E-02 0.  1.
    10030    2    1    2    0    0  0.00000000000E+00  0.00000000000E+00 -0.98896955723E+03  0.10888504878E+04  0.45555965539E+03 0.  0.
        4    1    3    3  502    0  0.47898748116E+02  0.14456912479E+03 -0.89931176910E+03  0.91211720347E+03  0.12699999809E+01 0.  1.
       -4    1    3    3    0  502 -0.47898748116E+02 -0.14456912479E+03 -0.89657788126E+02  0.17673328432E+03  0.12699999809E+01 0. -1.
</event>
<event>
 5   0  0.2000612E-01  0.4922462E+03  0.7818609E-02  0.1015823E+00
        1   -1    0    0  501    0  0.00000000000E+00  0.00000000000E+00  0.92897636472E+03  0.92897636473E+03  0.50400001928E-02 0.  1.
       -1   -1    0    0    0  501  0.00000000000E+00  0.00000000000E+00 -0.65207868704E+02  0.65207868899E+02  0.50400001928E-02 0. -1.
    10030    2    1    2    0    0  0.00000000000E+00  0.00000000000E+00  0.86376849601E+03  0.99418423363E+03  0.49224615356E+03 0.  0.
        2    1    3    3  502    0 -0.72965424398E+02 -0.93062641543E+02  0.86783761172E+03  0.87585771032E+03  0.25500000920E-02 0.  1.
       -2    1    3    3    0  502  0.72965424398E+02  0.93062641543E+02 -0.40691157079E+01  0.11832652331E+03  0.25500000920E-02 0. -1.
</event>
<event>
 5   0  0.3329246E-01  0.5101244E+03  0.7818609E-02  0.1011170E+00
       -2   -1    0    0    0  501  0.00000000000E+00  0.00000000000E+00  0.10423050563E+03  0.10423050566E+03  0.25500000920E-02 0.  1.
        2   -1    0    0  501    0  0.00000000000E+00  0.00000000000E+00 -0.62416197697E+03  0.62416197698E+03  0.25500000920E-02 0. -1.
    10030    2    1    2    0    0  0.00000000000E+00  0.00000000000E+00 -0.51993147135E+03  0.72839248264E+03  0.51012437098E+03 0.  0.
        2    1    3    3  502    0 -0.76410703029E+02  0.23095503436E+03 -0.36943704073E+03  0.44233759789E+03  0.25500000920E-02 0.  1.
       -2    1    3    3    0  502  0.76410703029E+02 -0.23095503436E+03 -0.15049443061E+03  0.28605488475E+03  0.25500000920E-02 0. -1.
</event>
<event>
 5   0  0.1967161E-01  0.4932599E+03  0.7818609E-02  0.1015553E+00
        1   -1    0    0  501    0  0.00000000000E+00  0.00000000000E+00  0.96563022299E+03  0.96563022301E+03  0.50400001928E-02 0.  1.
       -1   -1    0    0    0  501  0.00000000000E+00  0.00000000000E+00 -0.62991332716E+02  0.62991332917E+02  0.50400001928E-02 0. -1.
    10030    2    1    2    0    0  0.00000000000E+00  0.00000000000E+00  0.90263889028E+03  0.10286215559E+04  0.49325991026E+03 0.  0.
        1    1    3    3  502    0 -0.17907535628E+03 -0.42848074254E+02  0.10915361291E+03  0.21405245136E+03  0.50400001928E-02 0. -1.
       -1    1    3    3    0  502  0.17907535628E+03  0.42848074254E+02  0.79348527736E+03  0.81456910456E+03  0.50400001928E-02 0.  1.
</event>
<event>
 5   0  0.3329246E-01  0.5022429E+03  0.7818609E-02  0.1013195E+00
        2   -1    0    0  501    0  0.00000000000E+00  0.00000000000E+00  0.11080809708E+04  0.11080809708E+04  0.25500000920E-02 0. -1.
       -2   -1    0    0    0  501  0.00000000000E+00  0.00000000000E+00 -0.56910979195E+02  0.56910979252E+02  0.25500000920E-02 0.  1.
    10030    2    1    2    0    0  0.00000000000E+00  0.00000000000E+00  0.10511699916E+04  0.11649919501E+04  0.50224286202E+03 0.  0.
        2    1    3    3  502    0  0.23425087740E+03 -0.85693072169E+02  0.59302042187E+03  0.64334283002E+03  0.25500000920E-02 0. -1.
       -2    1    3    3    0  502 -0.23425087740E+03  0.85693072169E+02  0.45814956977E+03  0.52164912007E+03  0.25500000920E-02 0.  1.
</event>
<event>
 5   0  0.3187123E-01  0.4919539E+03  0.7818609E-02  0.1015901E+00
       -2   -1    0    0    0  501  0.00000000000E+00  0.00000000000E+00  0.13434554925E+03  0.13434554927E+03  0.25500000920E-02 0.  1.
        2   -1    0    0  501    0  0.00000000000E+00  0.00000000000E+00 -0.45036588438E+03  0.45036588439E+03  0.25500000920E-02 0. -1.
    10030    2    1    2    0    0  0.00000000000E+00  0.00000000000E+00 -0.31602033514E+03  0.58471143366E+03  0.49195386820E+03 0.  0.
        5    1    3    3  502    0  0.12033817104E+03  0.20298675621E+03 -0.75685099432E+02  0.24786129766E+03  0.46999998093E+01 0.  1.
       -5    1    3    3    0  502 -0.12033817104E+03 -0.20298675621E+03 -0.24033523570E+03  0.33685013600E+03  0.46999998093E+01 0. -1.
</event>
<event>
 5   0  0.3187123E-01  0.4925751E+03  0.7818609E-02  0.1015735E+00
       -2   -1    0    0    0  501  0.00000000000E+00  0.00000000000E+00  0.21425248183E+03  0.21425248184E+03  0.25500000920E-02 0.  1.
        2   -1    0    0  501    0  0.00000000000E+00  0.00000000000E+00 -0.28311249134E+03  0.28311249135E+03  0.25500000920E-02 0. -1.
    10030    2    1    2    0    0  0.00000000000E+00  0.00000000000E+00 -0.68860009511E+02  0.49736497319E+03  0.49257508631E+03 0.  0.
        5    1    3    3  502    0  0.13971702994E+03 -0.19800048776E+03 -0.78563410688E+02  0.25479274147E+03  0.46999998093E+01 0. -1.
       -5    1    3    3    0  502 -0.13971702994E+03  0.19800048776E+03  0.97034011778E+01  0.24257223172E+03  0.46999998093E+01 0.  1.
</event>
<event>
 5   0  0.3187123E-01  0.5060324E+03  0.7818609E-02  0.1012216E+00
       -2   -1    0    0    0  501  0.00000000000E+00  0.00000000000E+00  0.11241810348E+03  0.11241810351E+03  0.25500000920E-02 0.  1.
        2   -1    0    0  501    0  0.00000000000E+00  0.00000000000E+00 -0.56945621321E+03  0.56945621322E+03  0.25500000920E-02 0. -1.
    10030    2    1    2    0    0  0.00000000000E+00  0.00000000000E+00 -0.45703810973E+03  0.68187431673E+03  0.50603236070E+03 0.  0.
        5    1    3    3  502    0 -0.20378386581E+03  0.61721072567E+02 -0.41257743367E+03  0.46430548515E+03  0.46999998093E+01 0. -1.
       -5    1    3    3    0  502  0.20378386581E+03 -0.61721072567E+02 -0.44460676058E+02  0.21756883159E+03  0.46999998093E+01 0.  1.
</event>
<event>
 5   0  0.1967161E-01  0.5302013E+03  0.7818609E-02  0.1006183E+00
        1   -1    0    0  501    0  0.00000000000E+00  0.00000000000E+00  0.63772865831E+03  0.63772865833E+03  0.50400001928E-02 0.  1.
       -1   -1    0    0    0  501  0.00000000000E+00  0.00000000000E+00 -0.11020104850E+03  0.11020104862E+03  0.50400001928E-02 0. -1.
    10030    2    1    2    0    0  0.00000000000E+00  0.00000000000E+00  0.52752760981E+03  0.74792970695E+03  0.53020134612E+03 0.  0.
        1    1    3    3  502    0  0.11790971611E+03  0.12781656446E+03 -0.18502704725E+02  0.17487745827E+03  0.50400001928E-02 0. -1.
       -1    1    3    3    0  502 -0.11790971611E+03 -0.12781656446E+03  0.54603031453E+03  0.57305224868E+03  0.50400001928E-02 0.  1.
</event>
<event>
 5   0  0.1292375E-01  0.5043961E+03  0.7818609E-02  0.1012638E+00
        3   -1    0    0  501    0  0.00000000000E+00  0.00000000000E+00  0.69553727168E+03  0.69553727901E+03  0.10100000352E+00 0. -1.
       -3   -1    0    0    0  501  0.00000000000E+00  0.00000000000E+00 -0.91445603982E+02  0.91445659758E+02  0.10100000352E+00 0.  1.
    10030    2    1    2    0    0  0.00000000000E+00  0.00000000000E+00  0.60409166770E+03  0.78698293877E+03  0.50439607744E+03 0.  0.
        3    1    3    3  502    0  0.47475288125E+02 -0.46223783043E+02  0.68171318062E+03  0.68492584411E+03  0.10100000352E+00 0. -1.
       -3    1    3    3    0  502 -0.47475288125E+02  0.46223783043E+02 -0.77621512921E+02  0.10205709466E+03  0.10100000352E+00 0.  1.
</event>
<event>
 5   0  0.1967161E-01  0.4282216E+03  0.7818609E-02  0.1034423E+00
        1   -1    0    0  501    0  0.00000000000E+00  0.00000000000E+00  0.73066263415E+03  0.73066263417E+03  0.50400001928E-02 0.  1.
       -1   -1    0    0    0  501  0.00000000000E+00  0.00000000000E+00 -0.62742281235E+02  0.62742281438E+02  0.50400001928E-02 0. -1.
    10030    2    1    2    0    0  0.00000000000E+00  0.00000000000E+00  0.66792035291E+03  0.79340491560E+03  0.42822162751E+03 0.  0.
        1    1    3    3  502    0  0.16060286179E+03 -0.13704959101E+03  0.26799534997E+03  0.34117059844E+03  0.50400001928E-02 0.  1.
       -1    1    3    3    0  502 -0.16060286179E+03  0.13704959101E+03  0.39992500295E+03  0.45223431716E+03  0.50400001928E-02 0. -1.
</event>
<event>
 5   0  0.1984297E-01  0.3301887E+03  0.7818609E-02  0.1071053E+00
       -1   -1    0    0    0  501  0.00000000000E+00  0.00000000000E+00  0.65734521787E+02  0.65734521980E+02  0.50400001928E-02 0.  1.
        1   -1    0    0  501    0  0.00000000000E+00  0.00000000000E+00 -0.41463985138E+03  0.41463985141E+03  0.50400001928E-02 0. -1.
    10030    2    1    2    0    0  0.00000000000E+00  0.00000000000E+00 -0.34890532959E+03  0.48037437339E+03  0.33018874843E+03 0.  0.
        3    1    3    3  502    0 -0.80582738720E+02 -0.13959141090E+03 -0.22643782772E+03  0.27794503018E+03  0.10100000352E+00 0. -1.
       -3    1    3    3    0  502  0.80582738720E+02  0.13959141090E+03 -0.12246750188E+03  0.20242934322E+03  0.10100000352E+00 0.  1.
</event>
<event>
 5   0  0.3111146E-01  0.5137529E+03  0.7818609E-02  0.1010250E+00
        2   -1    0    0  501    0  0.00000000000E+00  0.00000000000E+00  0.27496276631E+03  0.27496276632E+03  0.25500000920E-02 0.  1.
       -2   -1    0    0    0  501  0.00000000000E+00  0.00000000000E+00 -0.23997983664E+03  0.23997983665E+03  0.25500000920E-02 0. -1.
    10030    2    1    2    0    0  0.00000000000E+00  0.00000000000E+00  0.34982929672E+02  0.51494260297E+03  0.51375293575E+03 0.  0.
        1    1    3    3  502    0 -0.38516828568E+02  0.25037839837E+03 -0.25182131141E+02  0.25457224556E+03  0.50400001928E-02 0.  1.
       -1    1    3    3    0  502  0.38516828568E+02 -0.25037839837E+03  0.60165060813E+02  0.26037035742E+03  0.50400001928E-02 0. -1.
</event>
<event>
 5   0  0.1984297E-01  0.5389975E+03  0.7818609E-02  0.1004073E+00
        1   -1    0    0  501    0  0.00000000000E+00  0.00000000000E+00  0.91164497189E+02  0.91164497329E+02  0.50400001928E-02 0.  1.
       -1   -1    0    0    0  501  0.00000000000E+00  0.00000000000E+00 -0.79668703974E+03  0.79668703975E+03  0.50400001928E-02 0. -1.
    10030    2    1    2    0    0  0.00000000000E+00  0.00000000000E+00 -0.70552254255E+03  0.88785153708E+03  0.53899748966E+03 0.  0.
        3    1    3    3  502    0  0.18250528274E+03  0.17121905619E+03 -0.18799387963E+03  0.31299497187E+03  0.10100000352E+00 0.  1.
       -3    1    3    3    0  502 -0.18250528274E+03 -0.17121905619E+03 -0.51752866292E+03  0.57485656522E+03  0.10100000352E+00 0. -1.
</event>
<event>
 5   0  0.3111146E-01  0.4944442E+03  0.7818609E-02  0.1015239E+00
       -2   -1    0    0    0  501  0.00000000000E+00  0.00000000000E+00  0.26599917708E+03  0.26599917709E+03  0.25500000920E-02 0.  1.
        2   -1    0    0  501    0  0.00000000000E+00  0.00000000000E+00 -0.22977047703E+03  0.22977047704E+03  0.25500000920E-02 0. -1.
    10030    2    1    2    0    0  0.00000000000E+00  0.00000000000E+00  0.36228700048E+02  0.49576965413E+03  0.49444416394E+03 0.  0.
        1    1    3    3  502    0 -0.80419471325E+02  0.14745872748E+03  0.20000459377E+03  0.26117657864E+03  0.50400001928E-02 0.  1.
       -1    1    3    3    0  502  0.80419471325E+02 -0.14745872748E+03 -0.16377589372E+03  0.23459307549E+03  0.50400001928E-02 0. -1.
</event>
<event>
 5   0  0.3178149E-01  0.5012667E+03  0.7818609E-02  0.1013449E+00
        2   -1    0    0  501    0  0.00000000000E+00  0.00000000000E+00  0.97225158420E+03  0.97225158420E+03  0.25500000920E-02 0.  1.
       -2   -1    0    0    0  501  0.00000000000E+00  0.00000000000E+00 -0.64609891776E+02  0.64609891827E+02  0.25500000920E-02 0. -1.
    10030    2    1    2    0    0  0.00000000000E+00  0.00000000000E+00  0.90764169243E+03  0.10368614760E+04  0.50126667419E+03 0.  0.
        3    1    3    3  502    0  0.30579708356E+02 -0.24185334077E+03  0.57423608216E+03  0.62383911809E+03  0.10100000352E+00 0.  1.
       -3    1    3    3    0  502 -0.30579708356E+02  0.24185334077E+03  0.33340561026E+03  0.41302235794E+03  0.10100000352E+00 0. -1.
</event>
<event>
 5   0  0.3329246E-01  0.5006521E+03  0.7818609E-02  0.1013609E+00
       -2   -1    0    0    0  501  0.00000000000E+00  0.00000000000E+00  0.11351510642E+03  0.11351510645E+03  0.25500000920E-02 0.  1.
        2   -1    0    0  501    0  0.00000000000E+00  0.00000000000E+00 -0.55202457704E+03  0.55202457704E+03  0.25500000920E-02 0. -1.
    10030    2    1    2    0    0  0.00000000000E+00  0.00000000000E+00 -0.43850947062E+03  0.66553968349E+03  0.50065208926E+03 0.  0.
        2    1    3    3  502    0  0.18837809264E+03  0.56819017360E+02 -0.13534801928E+02  0.19722549883E+03  0.25500000920E-02 0.  1.
       -2    1    3    3    0  502 -0.18837809264E+03 -0.56819017360E+02 -0.42497466869E+03  0.46831418466E+03  0.25500000920E-02 0. -1.
</event>
<event>
 5   0  0.2000612E-01  0.4992206E+03  0.7818609E-02  0.1013983E+00
       -1   -1    0    0    0  501  0.00000000000E+00  0.00000000000E+00  0.21411097638E+03  0.21411097644E+03  0.50400001928E-02 0. -1.
        1   -1    0    0  501    0  0.00000000000E+00  0.00000000000E+00 -0.29099530798E+03  0.29099530802E+03  0.50400001928E-02 0.  1.
    10030    2    1    2    0    0  0.00000000000E+00  0.00000000000E+00 -0.76884331598E+02  0.50510628446E+03  0.49922055061E+03 0.  0.
        2    1    3    3  502    0 -0.13746246359E+03  0.19727283533E+03 -0.10626068957E+03  0.26287608223E+03  0.25500000920E-02 0.  1.
       -2    1    3    3    0  502  0.13746246359E+03 -0.19727283533E+03  0.29376357971E+02  0.24223020222E+03  0.25500000920E-02 0. -1.
</event>
<event>
 5   0  0.3187123E-01  0.4768490E+03  0.7818609E-02  0.1020005E+00
        2   -1    0    0  501    0  0.00000000000E+00  0.00000000000E+00  0.94719481652E+03  0.94719481653E+03  0.25500000920E-02 0. -1.
       -2   -1    0    0    0  501  0.00000000000E+00  0.00000000000E+00 -0.60015363597E+02  0.60015363651E+02  0.25500000920E-02 0.  1.
    10030    2    1    2    0    0  0.00000000000E+00  0.00000000000E+00  0.88717945292E+03  0.10072101802E+04  0.47684899639E+03 0.  0.
        5    1    3    3  502    0 -0.19017828264E+03 -0.42842084317E+02  0.73336394946E+03  0.75884649023E+03  0.46999998093E+01 0. -1.
       -5    1    3    3    0  502  0.19017828264E+03  0.42842084317E+02  0.15381550347E+03  0.24836368994E+03  0.46999998093E+01 0.  1.
</event>
<event>
 5   0  0.1984680E-01  0.4973174E+03  0.7818609E-02  0.1014481E+00
       -1   -1    0    0    0  501  0.00000000000E+00  0.00000000000E+00  0.25488761894E+03  0.25488761899E+03  0.50400001928E-02 0. -1.
        1   -1    0    0  501    0  0.00000000000E+00  0.00000000000E+00 -0.24258202174E+03  0.24258202180E+03  0.50400001928E-02 0.  1.
    10030    2    1    2    0    0  0.00000000000E+00  0.00000000000E+00  0.12305597197E+02  0.49746964079E+03  0.49731741954E+03 0.  0.
        5    1    3    3  502    0 -0.14392426997E+03  0.16764169811E+03 -0.10786072475E+03  0.24591453875E+03  0.46999998093E+01 0.  1.
       -5    1    3    3    0  502  0.14392426997E+03 -0.16764169811E+03  0.12016632195E+03  0.25155510203E+03  0.46999998093E+01 0. -1.
</event>
<event>
 5   0  0.3187123E-01  0.5045544E+03  0.7818609E-02  0.1012597E+00
        2   -1    0    0  501    0  0.00000000000E+00  0.00000000000E+00  0.17145683336E+04  0.17145683336E+04  0.25500000920E-02 0. -1.
       -2   -1    0    0    0  501  0.00000000000E+00  0.00000000000E+00 -0.37119417219E+02  0.37119417307E+02  0.25500000920E-02 0.  1.
    10030    2    1    2    0    0  0.00000000000E+00  0.00000000000E+00  0.16774489164E+04  0.17516877509E+04  0.50455436736E+03 0.  0.
        5    1    3    3  502    0  0.20304143532E+02 -0.61757233651E+01  0.17113111695E+04  0.17114492124E+04  0.46999998093E+01 0. -1.
       -5    1    3    3    0  502 -0.20304143532E+02  0.61757233651E+01 -0.33862253068E+02  0.40238538550E+02  0.46999998093E+01 0.  1.
</event>
<event>
 5   0  0.3111146E-01  0.4948853E+03  0.7818609E-02  0.1015123E+00
       -2   -1    0    0    0  501  0.00000000000E+00  0.00000000000E+00  0.85009826775E+02  0.85009826813E+02  0.25500000920E-02 0. -1.
        2   -1    0    0  501    0  0.00000000000E+00  0.00000000000E+00 -0.72024466883E+03  0.72024466883E+03  0.25500000920E-02 0.  1.
    10030    2    1    2    0    0  0.00000000000E+00  0.00000000000E+00 -0.63523484205E+03  0.80525449565E+03  0.49488533844E+03 0.  0.
        1    1    3    3  502    0 -0.10392210531E+03  0.12135028424E+02  0.47245482911E+02  0.11480069062E+03  0.50400001928E-02 0. -1.
       -1    1    3    3    0  502  0.10392210531E+03 -0.12135028424E+02 -0.68248032496E+03  0.69045380503E+03  0.50400001928E-02 0.  1.
</event>
<event>
 5   0  0.3117389E-01  0.5422204E+03  0.7818609E-02  0.1003311E+00
       -2   -1    0    0    0  501  0.00000000000E+00  0.00000000000E+00  0.74362766221E+02  0.74362766265E+02  0.25500000920E-02 0. -1.
        2   -1    0    0  501    0  0.00000000000E+00  0.00000000000E+00 -0.98840771563E+03  0.98840771563E+03  0.25500000920E-02 0.  1.
    10030    2    1    2    0    0  0.00000000000E+00  0.00000000000E+00 -0.91404494941E+03  0.10627704819E+04  0.54222036817E+03 0.  0.
        4    1    3    3  502    0  0.22323379813E+03 -0.15338378160E+03 -0.48014804881E+03  0.55127459107E+03  0.12699999809E+01 0.  1.
       -4    1    3    3    0  502 -0.22323379813E+03  0.15338378160E+03 -0.43389690060E+03  0.51149589083E+03  0.12699999809E+01 0. -1.
</event>
<event>
 5   0  0.1292375E-01  0.5144372E+03  0.7818609E-02  0.1010078E+00
        3   -1    0    0  501    0  0.00000000000E+00  0.00000000000E+00  0.62125150314E+03  0.62125151135E+03  0.10100000352E+00 0.  1.
       -3   -1    0    0    0  501  0.00000000000E+00  0.00000000000E+00 -0.10649695377E+03  0.10649700167E+03  0.10100000352E+00 0. -1.
    10030    2    1    2    0    0  0.00000000000E+00  0.00000000000E+00  0.51475454936E+03  0.72774851301E+03  0.51443721882E+03 0.  0.
        5    1    3    3  502    0  0.22067367560E+03  0.11238729117E+03  0.15924962691E+03  0.29446614065E+03  0.46999998093E+01 0. -1.
       -5    1    3    3    0  502 -0.22067367560E+03 -0.11238729117E+03  0.35550492245E+03  0.43328237237E+03  0.46999998093E+01 0.  1.
</event>
<event>
 5   0  0.2000612E-01  0.5003842E+03  0.7818609E-02  0.1013679E+00
        1   -1    0    0  501    0  0.00000000000E+00  0.00000000000E+00  0.31101566700E+03  0.31101566704E+03  0.50400001928E-02 0.  1.
       -1   -1    0    0    0  501  0.00000000000E+00  0.00000000000E+00 -0.20126341877E+03  0.20126341883E+03  0.50400001928E-02 0. -1.
    10030    2    1    2    0    0  0.00000000000E+00  0.00000000000E+00  0.10975224823E+03  0.51227908588E+03  0.50038415826E+03 0.  0.
        2    1    3    3  502    0  0.16241515487E+03  0.89985462744E+02 -0.11680036086E+03  0.21935904435E+03  0.25500000920E-02 0. -1.
       -2    1    3    3    0  502 -0.16241515487E+03 -0.89985462744E+02  0.22655260909E+03  0.29292004153E+03  0.25500000920E-02 0.  1.
</event>
<event>
 5   0  0.2000612E-01  0.5301554E+03  0.7818609E-02  0.1006194E+00
        1   -1    0    0  501    0  0.00000000000E+00  0.00000000000E+00  0.16452857818E+03  0.16452857826E+03  0.50400001928E-02 0.  1.
       -1   -1    0    0    0  501  0.00000000000E+00  0.00000000000E+00 -0.42707589777E+03  0.42707589780E+03  0.50400001928E-02 0. -1.
    10030    2    1    2    0    0  0.00000000000E+00  0.00000000000E+00 -0.26254731958E+03  0.59160447606E+03  0.53015541218E+03 0.  0.
        2    1    3    3  502    0 -0.16292093541E+03  0.64954743085E+02  0.90519378851E+02  0.19737301689E+03  0.25500000920E-02 0.  1.
       -2    1    3    3    0  502  0.16292093541E+03 -0.64954743085E+02 -0.35306669844E+03  0.39423145916E+03  0.25500000920E-02 0. -1.
</event>
<event>
 5   0  0.3187123E-01  0.3813761E+03  0.7818609E-02  0.1050426E+00
        2   -1    0    0  501    0  0.00000000000E+00  0.00000000000E+00  0.67967474440E+03  0.67967474440E+03  0.25500000920E-02 0.  1.
       -2   -1    0    0    0  501  0.00000000000E+00  0.00000000000E+00 -0.53499017011E+02  0.53499017072E+02  0.25500000920E-02 0. -1.
    10030    2    1    2    0    0  0.00000000000E+00  0.00000000000E+00  0.62617572738E+03  0.73317376147E+03  0.38137609121E+03 0.  0.
        5    1    3    3  502    0 -0.77787597001E+02  0.77486204323E+02  0.61267342820E+03  0.62245147740E+03  0.46999998093E+01 0.  1.
       -5    1    3    3    0  502  0.77787597001E+02 -0.77486204323E+02  0.13502299188E+02  0.11072228407E+03  0.46999998093E+01 0. -1.
</event>
<event>
 5   0  0.3178149E-01  0.5186871E+03  0.7818609E-02  0.1009013E+00
       -2   -1    0    0    0  501  0.00000000000E+00  0.00000000000E+00  0.58324362477E+02  0.58324362533E+02  0.25500000920E-02 0.  1.
        2   -1    0    0  501    0  0.00000000000E+00  0.00000000000E+00 -0.11531901318E+04  0.11531901318E+04  0.25500000920E-02 0. -1.
    10030    2    1    2    0    0  0.00000000000E+00  0.00000000000E+00 -0.10948657693E+04  0.12115144943E+04  0.51868710909E+03 0.  0.
        3    1    3    3  502    0  0.99140099873E+02 -0.14372163648E+03 -0.99534825201E+03  0.10105458036E+04  0.10100000352E+00 0. -1.
       -3    1    3    3    0  502 -0.99140099873E+02  0.14372163648E+03 -0.99517517275E+02  0.20096869070E+03  0.10100000352E+00 0.  1.
</event>
<event>
 5   0  0.1292375E-01  0.5023504E+03  0.7818609E-02  0.1013167E+00
        4   -1    0    0  501    0  0.00000000000E+00  0.00000000000E+00  0.26776207433E+03  0.26776508613E+03  0.12699999809E+01 0. -1.
       -4   -1    0    0    0  501  0.00000000000E+00  0.00000000000E+00 -0.23560976253E+03  0.23561318533E+03  0.12699999809E+01 0.  1.
    10030    2    1    2    0    0  0.00000000000E+00  0.00000000000E+00  0.32152311801E+02  0.50337827146E+03  0.50235038870E+03 0.  0.
        5    1    3    3  502    0  0.13100160380E+03  0.10604697444E+03  0.20262772861E+03  0.26360475600E+03  0.46999998093E+01 0. -1.
       -5    1    3    3    0  502 -0.13100160380E+03 -0.10604697444E+03 -0.17047541681E+03  0.23977351547E+03  0.46999998093E+01 0.  1.
</event>
<event>
 5   0  0.3117389E-01  0.5152251E+03  0.7818609E-02  0.1009880E+00
       -2   -1    0    0    0  501  0.00000000000E+00  0.00000000000E+00  0.95955015627E+02  0.95955015661E+02  0.25500000920E-02 0. -1.
        2   -1    0    0  501    0  0.00000000000E+00  0.00000000000E+00 -0.69161812013E+03  0.69161812014E+03  0.25500000920E-02 0.  1.
    10030    2    1    2    0    0  0.00000000000E+00  0.00000000000E+00 -0.59566310451E+03  0.78757313580E+03  0.51522510630E+03 0.  0.
        4    1    3    3  502    0  0.31624567568E+02 -0.94489955824E+02 -0.66096384272E+03  0.66843345166E+03  0.12699999809E+01 0.  1.
       -4    1    3    3    0  502 -0.31624567568E+02  0.94489955824E+02  0.65300738209E+02  0.11913968414E+03  0.12699999809E+01 0. -1.
</event>
<event>
 5   0  0.2000612E-01  0.4952953E+03  0.7818609E-02  0.1015014E+00
        1   -1    0    0  501    0  0.00000000000E+00  0.00000000000E+00  0.58425299759E+03  0.58425299761E+03  0.50400001928E-02 0. -1.
       -1   -1    0    0    0  501  0.00000000000E+00  0.00000000000E+00 -0.10497056137E+03  0.10497056149E+03  0.50400001928E-02 0.  1.
    10030    2    1    2    0    0  0.00000000000E+00  0.00000000000E+00  0.47928243622E+03  0.68922355910E+03  0.49529532680E+03 0.  0.
        2    1    3    3  502    0 -0.85663472642E+02  0.52044053955E+02  0.55476464772E+03  0.56374695428E+03  0.25500000920E-02 0. -1.
       -2    1    3    3    0  502  0.85663472642E+02 -0.52044053955E+02 -0.75482211502E+02  0.12547660482E+03  0.25500000920E-02 0.  1.
</event>
<event>
 5   0  0.1292375E-01  0.4923622E+03  0.7818609E-02  0.1015792E+00
        3   -1    0    0  501    0  0.00000000000E+00  0.00000000000E+00  0.18173162908E+03  0.18173165715E+03  0.10100000352E+00 0.  1.
       -3   -1    0    0    0  501  0.00000000000E+00  0.00000000000E+00 -0.33348688517E+03  0.33348690047E+03  0.10100000352E+00 0. -1.
    10030    2    1    2    0    0  0.00000000000E+00  0.00000000000E+00 -0.15175525609E+03  0.51521855762E+03  0.49236216788E+03 0.  0.
        1    1    3    3  502    0 -0.13375930596E+03 -0.17418778412E+03 -0.19227149919E+03  0.29189255813E+03  0.50400001928E-02 0. -1.
       -1    1    3    3    0  502  0.13375930596E+03  0.17418778412E+03  0.40516243097E+02  0.22332599949E+03  0.50400001928E-02 0.  1.
</event>
<event>
 5   0  0.1984297E-01  0.5659870E+03  0.7818609E-02  0.9978598E-01
       -1   -1    0    0    0  501  0.00000000000E+00  0.00000000000E+00  0.72450880080E+02  0.72450880256E+02  0.50400001928E-02 0.  1.
        1   -1    0    0  501    0  0.00000000000E+00  0.00000000000E+00 -0.11053740191E+04  0.11053740191E+04  0.50400001928E-02 0. -1.
    10030    2    1    2    0    0  0.00000000000E+00  0.00000000000E+00 -0.10329231390E+04  0.11778248993E+04  0.56598699847E+03 0.  0.
        3    1    3    3  502    0 -0.20091378669E+03 -0.18474193444E+01 -0.10174197560E+03  0.22521368174E+03  0.10100000352E+00 0.  1.
       -3    1    3    3    0  502  0.20091378669E+03  0.18474193444E+01 -0.93118116338E+03  0.95261121759E+03  0.10100000352E+00 0. -1.
</event>
<event>
 5   0  0.3111146E-01  0.4335830E+03  0.7818609E-02  0.1032734E+00
        2   -1    0    0  501    0  0.00000000000E+00  0.00000000000E+00  0.40836669515E+03  0.40836669516E+03  0.25500000920E-02 0. -1.
       -2   -1    0    0    0  501  0.00000000000E+00  0.00000000000E+00 -0.11508908391E+03  0.11508908393E+03  0.25500000920E-02 0.  1.
    10030    2    1    2    0    0  0.00000000000E+00  0.00000000000E+00  0.29327761125E+03  0.52345577909E+03  0.43358297407E+03 0.  0.
        1    1    3    3  502    0  0.53579211164E+00 -0.19180509949E+03  0.24655394052E+02  0.19338400075E+03  0.50400001928E-02 0.  1.
       -1    1    3    3    0  502 -0.53579211164E+00  0.19180509949E+03  0.26862221719E+03  0.33007177834E+03  0.50400001928E-02 0. -1.
</event>
<event>
 5   0  0.2000612E-01  0.5032098E+03  0.7818609E-02  0.1012944E+00
        1   -1    0    0  501    0  0.00000000000E+00  0.00000000000E+00  0.33368407718E+03  0.33368407722E+03  0.50400001928E-02 0.  1.
       -1   -1    0    0    0  501  0.00000000000E+00  0.00000000000E+00 -0.18971545218E+03  0.18971545224E+03  0.50400001928E-02 0. -1.
    10030    2    1    2    0    0  0.00000000000E+00  0.00000000000E+00  0.14396862501E+03  0.52339952947E+03  0.50320979965E+03 0.  0.
        2    1    3    3  502    0  0.64121744477E+02 -0.14407803487E+03 -0.13192984676E+03  0.20561022037E+03  0.25500000920E-02 0. -1.
       -2    1    3    3    0  502 -0.64121744477E+02  0.14407803487E+03  0.27589847177E+03  0.31778930910E+03  0.25500000920E-02 0.  1.
</event>
<event>
 5   0  0.3111146E-01  0.4999008E+03  0.7818609E-02  0.1013805E+00
        2   -1    0    0  501    0  0.00000000000E+00  0.00000000000E+00  0.51835081861E+03  0.51835081862E+03  0.25500000920E-02 0. -1.
       -2   -1    0    0    0  501  0.00000000000E+00  0.00000000000E+00 -0.12052688553E+03  0.12052688555E+03  0.25500000920E-02 0.  1.
    10030    2    1    2    0    0  0.00000000000E+00  0.00000000000E+00  0.39782393309E+03  0.63887770418E+03  0.49990082932E+03 0.  0.
        1    1    3    3  502    0 -0.12562466416E+03  0.21111215701E+03  0.13999436116E+03  0.28275133999E+03  0.50400001928E-02 0.  1.
       -1    1    3    3    0  502  0.12562466416E+03 -0.21111215701E+03  0.25782957193E+03  0.35612636419E+03  0.50400001928E-02 0. -1.
</event>
<event>
 5   0  0.1292375E-01  0.3188053E+03  0.7818609E-02  0.1076200E+00
       -3   -1    0    0    0  501  0.00000000000E+00  0.00000000000E+00  0.53636447424E+03  0.53636448375E+03  0.10100000352E+00 0. -1.
        3   -1    0    0  501    0  0.00000000000E+00  0.00000000000E+00 -0.47372962563E+02  0.47373070230E+02  0.10100000352E+00 0.  1.
    10030    2    1    2    0    0  0.00000000000E+00  0.00000000000E+00  0.48899151167E+03  0.58373755398E+03  0.31880532215E+03 0.  0.
        3    1    3    3  502    0  0.10581972284E+02  0.14565735067E+03  0.12752328049E+03  0.19388202394E+03  0.10100000352E+00 0.  1.
       -3    1    3    3    0  502 -0.10581972284E+02 -0.14565735067E+03  0.36146823119E+03  0.38985553004E+03  0.10100000352E+00 0. -1.
</event>
<event>
 5   0  0.3178149E-01  0.4914113E+03  0.7818609E-02  0.1016045E+00
       -2   -1    0    0    0  501  0.00000000000E+00  0.00000000000E+00  0.18272236306E+03  0.18272236307E+03  0.25500000920E-02 0. -1.
        2   -1    0    0  501    0  0.00000000000E+00  0.00000000000E+00 -0.33039888939E+03  0.33039888940E+03  0.25500000920E-02 0.  1.
    10030    2    1    2    0    0  0.00000000000E+00  0.00000000000E+00 -0.14767652633E+03  0.51312125248E+03  0.49141129750E+03 0.  0.
        3    1    3    3  502    0  0.21021366556E+03 -0.11406800363E+01 -0.20665915640E+03  0.29478653881E+03  0.10100000352E+00 0.  1.
       -3    1    3    3    0  502 -0.21021366556E+03  0.11406800363E+01  0.58982630064E+02  0.21833471366E+03  0.10100000352E+00 0. -1.
</event>
<event>
 5   0  0.1967161E-01  0.5296991E+03  0.7818609E-02  0.1006305E+00
        1   -1    0    0  501    0  0.00000000000E+00  0.00000000000E+00  0.87330888120E+03  0.87330888121E+03  0.50400001928E-02 0. -1.
       -1   -1    0    0    0  501  0.00000000000E+00  0.00000000000E+00 -0.80321283008E+02  0.80321283166E+02  0.50400001928E-02 0.  1.
    10030    2    1    2    0    0  0.00000000000E+00  0.00000000000E+00  0.79298759819E+03  0.95363016438E+03  0.52969912170E+03 0.  0.
        1    1    3    3  502    0 -0.19531253651E+03  0.11857722112E+03  0.63761458853E+03  0.67731817325E+03  0.50400001928E-02 0. -1.
       -1    1    3    3    0  502  0.19531253651E+03 -0.11857722112E+03  0.15537300966E+03  0.27631199113E+03  0.50400001928E-02 0.  1.
</event>
<event>
 5   0  0.1967161E-01  0.4999802E+03  0.7818609E-02  0.1013784E+00
        1   -1    0    0  501    0  0.00000000000E+00  0.00000000000E+00  0.17905394760E+03  0.17905394767E+03  0.50400001928E-02 0. -1.
       -1   -1    0    0    0  501  0.00000000000E+00  0.00000000000E+00 -0.34902910825E+03  0.34902910829E+03  0.50400001928E-02 0.  1.
    10030    2    1    2    0    0  0.00000000000E+00  0.00000000000E+00 -0.16997516065E+03  0.52808305595E+03  0.49998015835E+03 0.  0.
        1    1    3    3  502    0  0.69613627157E+02 -0.59031259236E+01  0.16853344856E+03  0.18244020196E+03  0.50400001928E-02 0. -1.
       -1    1    3    3    0  502 -0.69613627157E+02  0.59031259236E+01 -0.33850860921E+03  0.34564285399E+03  0.50400001928E-02 0.  1.
</event>
<event>
 5   0  0.3111146E-01  0.5004891E+03  0.7818609E-02  0.1013651E+00
       -2   -1    0    0    0  501  0.00000000000E+00  0.00000000000E+00  0.11213717617E+03  0.11213717620E+03  0.25500000920E-02 0. -1.
        2   -1    0    0  501    0  0.00000000000E+00  0.00000000000E+00 -0.55844398148E+03  0.55844398148E+03  0.25500000920E-02 0.  1.
    10030    2    1    2    0    0  0.00000000000E+00  0.00000000000E+00 -0.44630680531E+03  0.67058115768E+03  0.50048908537E+03 0.  0.
        1    1    3    3  502    0 -0.24496441622E+03  0.37410001055E+02 -0.26986136603E+03  0.36637716944E+03  0.50400001928E-02 0. -1.
       -1    1    3    3    0  502  0.24496441622E+03 -0.37410001055E+02 -0.17644543928E+03  0.30420398824E+03  0.50400001928E-02 0.  1.
</event>
<event>
 5   0  0.1292375E-01  0.4985272E+03  0.7818609E-02  0.1014164E+00
       -4   -1    0    0    0  501  0.00000000000E+00  0.00000000000E+00  0.73780202904E+03  0.73780312209E+03  0.12699999809E+01 0.  1.
        4   -1    0    0  501    0  0.00000000000E+00  0.00000000000E+00 -0.84206798435E+02  0.84216374908E+02  0.12699999809E+01 0. -1.
    10030    2    1    2    0    0  0.00000000000E+00  0.00000000000E+00  0.65359523061E+03  0.82201949700E+03  0.49852715870E+03 0.  0.
        3    1    3    3  502    0 -0.15271422943E+03 -0.19134314531E+03  0.40411109374E+03  0.47248240329E+03  0.10100000352E+00 0.  1.
       -3    1    3    3    0  502  0.15271422943E+03  0.19134314531E+03  0.24948413686E+03  0.34953709371E+03  0.10100000352E+00 0. -1.
</event>
<event>
 5   0  0.1967161E-01  0.4959790E+03  0.7818609E-02  0.1014834E+00
       -1   -1    0    0    0  501  0.00000000000E+00  0.00000000000E+00  0.11465910497E+03  0.11465910508E+03  0.50400001928E-02 0. -1.
        1   -1    0    0  501    0  0.00000000000E+00  0.00000000000E+00 -0.53636205728E+03  0.53636205731E+03  0.50400001928E-02 0.  1.
    10030    2    1    2    0    0  0.00000000000E+00  0.00000000000E+00 -0.42170295232E+03  0.65102116238E+03  0.49597900548E+03 0.  0.
        1    1    3    3  502    0  0.17315022665E+03 -0.16722723452E+03 -0.13261308488E+03  0.27483118320E+03  0.50400001928E-02 0.  1.
       -1    1    3    3    0  502 -0.17315022665E+03  0.16722723452E+03 -0.28908986744E+03  0.37618997918E+03  0.50400001928E-02 0. -1.
</event>
<event>
 5   0  0.3178149E-01  0.4923217E+03  0.7818609E-02  0.1015803E+00
        2   -1    0    0  501    0  0.00000000000E+00  0.00000000000E+00  0.10515419853E+04  0.10515419853E+04  0.25500000920E-02 0. -1.
       -2   -1    0    0    0  501  0.00000000000E+00  0.00000000000E+00 -0.57625047558E+02  0.57625047614E+02  0.25500000920E-02 0.  1.
    10030    2    1    2    0    0  0.00000000000E+00  0.00000000000E+00  0.99391693777E+03  0.11091670329E+04  0.49232167105E+03 0.  0.
        3    1    3    3  502    0  0.16099041498E+03  0.94381604962E+02  0.13529912052E+03  0.23050306567E+03  0.10100000352E+00 0.  1.
       -3    1    3    3    0  502 -0.16099041498E+03 -0.94381604962E+02  0.85861781726E+03  0.87866396727E+03  0.10100000352E+00 0. -1.
</event>
<event>
 5   0  0.2013450E-01  0.3895138E+03  0.7818609E-02  0.1047472E+00
       -1   -1    0    0    0  501  0.00000000000E+00  0.00000000000E+00  0.64820378047E+02  0.64820378243E+02  0.50400001928E-02 0. -1.
        1   -1    0    0  501    0  0.00000000000E+00  0.00000000000E+00 -0.58515946343E+03  0.58515946345E+03  0.50400001928E-02 0.  1.
    10030    2    1    2    0    0  0.00000000000E+00  0.00000000000E+00 -0.52033908539E+03  0.64997984170E+03  0.38951383908E+03 0.  0.
        4    1    3    3  502    0  0.53521737089E+02  0.48775655134E+02  0.41513754638E+02  0.83478413969E+02  0.12699999809E+01 0. -1.
       -4    1    3    3    0  502 -0.53521737089E+02 -0.48775655134E+02 -0.56185284002E+03  0.56650142773E+03  0.12699999809E+01 0.  1.
</event>
<event>
 5   0  0.2013450E-01  0.4977063E+03  0.7818609E-02  0.1014379E+00
       -1   -1    0    0    0  501  0.00000000000E+00  0.00000000000E+00  0.18941951088E+03  0.18941951094E+03  0.50400001928E-02 0.  1.
        1   -1    0    0  501    0  0.00000000000E+00  0.00000000000E+00 -0.32693507500E+03  0.32693507504E+03  0.50400001928E-02 0. -1.
    10030    2    1    2    0    0  0.00000000000E+00  0.00000000000E+00 -0.13751556412E+03  0.51635458598E+03  0.49770626687E+03 0.  0.
        4    1    3    3  502    0  0.14281254352E+03  0.12903895404E+02 -0.27976045557E+03  0.31437152941E+03  0.12699999809E+01 0. -1.
       -4    1    3    3    0  502 -0.14281254352E+03 -0.12903895404E+02  0.14224489144E+03  0.20198305657E+03  0.12699999809E+01 0.  1.
</event>
<event>
 5   0  0.2013450E-01  0.5064787E+03  0.7818609E-02  0.1012102E+00
        1   -1    0    0  501    0  0.00000000000E+00  0.00000000000E+00  0.75302024642E+03  0.75302024644E+03  0.50400001928E-02 0.  1.
       -1   -1    0    0    0  501  0.00000000000E+00  0.00000000000E+00 -0.85163934161E+02  0.85163934310E+02  0.50400001928E-02 0. -1.
    10030    2    1    2    0    0  0.00000000000E+00  0.00000000000E+00  0.66785631226E+03  0.83818418075E+03  0.50647869356E+03 0.  0.
        4    1    3    3  502    0  0.23882317155E+03 -0.19875612039E+02  0.19849698176E+03  0.31118195946E+03  0.12699999809E+01 0. -1.
       -4    1    3    3    0  502 -0.23882317155E+03  0.19875612039E+02  0.46935933050E+03  0.52700222129E+03  0.12699999809E+01 0.  1.
</event>
<event>
 5   0  0.3329246E-01  0.4852345E+03  0.7818609E-02  0.1017706E+00
       -2   -1    0    0    0  501  0.00000000000E+00  0.00000000000E+00  0.99262135910E+02  0.99262135943E+02  0.25500000920E-02 0.  1.
        2   -1    0    0  501    0  0.00000000000E+00  0.00000000000E+00 -0.59300694202E+03  0.59300694203E+03  0.25500000920E-02 0. -1.
    10030    2    1    2    0    0  0.00000000000E+00  0.00000000000E+00 -0.49374480611E+03  0.69226907797E+03  0.48523452345E+03 0.  0.
        2    1    3    3  502    0 -0.84974009847E+02  0.19550361515E+03 -0.81594841897E+02  0.22825416561E+03  0.25500000920E-02 0.  1.
       -2    1    3    3    0  502  0.84974009847E+02 -0.19550361515E+03 -0.41214996422E+03  0.46401491236E+03  0.25500000920E-02 0. -1.
</event>
<event>
 5   0  0.3117389E-01  0.5111504E+03  0.7818609E-02  0.1010909E+00
        2   -1    0    0  501    0  0.00000000000E+00  0.00000000000E+00  0.11252981043E+04  0.11252981043E+04  0.25500000920E-02 0.  1.
       -2   -1    0    0    0  501  0.00000000000E+00  0.00000000000E+00 -0.58045673055E+02  0.58045673111E+02  0.25500000920E-02 0. -1.
    10030    2    1    2    0    0  0.00000000000E+00  0.00000000000E+00  0.10672524313E+04  0.11833437774E+04  0.51115041186E+03 0.  0.
        4    1    3    3  502    0  0.33138503784E+02  0.90213893809E+01 -0.52671661746E+02  0.62892469744E+02  0.12699999809E+01 0. -1.
       -4    1    3    3    0  502 -0.33138503784E+02 -0.90213893809E+01  0.11199240930E+04  0.11204513077E+04  0.12699999809E+01 0.  1.
</event>
<event>
 5   0  0.3178149E-01  0.5422654E+03  0.7818609E-02  0.1003300E+00
       -2   -1    0    0    0  501  0.00000000000E+00  0.00000000000E+00  0.11680079876E+03  0.11680079879E+03  0.25500000920E-02 0. -1.
        2   -1    0    0  501    0  0.00000000000E+00  0.00000000000E+00 -0.62938741927E+03  0.62938741927E+03  0.25500000920E-02 0.  1.
    10030    2    1    2    0    0  0.00000000000E+00  0.00000000000E+00 -0.51258662051E+03  0.74618821806E+03  0.54226544537E+03 0.  0.
        3    1    3    3  502    0 -0.14360668500E+03  0.21434052309E+03 -0.14159085479E+03  0.29430039106E+03  0.10100000352E+00 0.  1.
       -3    1    3    3    0  502  0.14360668500E+03 -0.21434052309E+03 -0.37099576571E+03  0.45188782700E+03  0.10100000352E+00 0. -1.
</event>
<event>
 5   0  0.1984297E-01  0.5139091E+03  0.7818609E-02  0.1010211E+00
       -1   -1    0    0    0  501  0.00000000000E+00  0.00000000000E+00  0.31464602120E+03  0.31464602124E+03  0.50400001928E-02 0.  1.
        1   -1    0    0  501    0  0.00000000000E+00  0.00000000000E+00 -0.20984105578E+03  0.20984105584E+03  0.50400001928E-02 0. -1.
    10030    2    1    2    0    0  0.00000000000E+00  0.00000000000E+00  0.10480496542E+03  0.52448707708E+03  0.51390914882E+03 0.  0.
        3    1    3    3  502    0  0.17295036908E+03  0.11710024037E+03 -0.10034902517E+03  0.23172016208E+03  0.10100000352E+00 0. -1.
       -3    1    3    3    0  502 -0.17295036908E+03 -0.11710024037E+03  0.20515399059E+03  0.29276691500E+03  0.10100000352E+00 0.  1.
</event>
<event>
 5   0  0.3187123E-01  0.5049010E+03  0.7818609E-02  0.1012508E+00
        2   -1    0    0  501    0  0.00000000000E+00  0.00000000000E+00  0.28463572520E+03  0.28463572521E+03  0.25500000920E-02 0. -1.
       -2   -1    0    0    0  501  0.00000000000E+00  0.00000000000E+00 -0.22390464957E+03  0.22390464958E+03  0.25500000920E-02 0.  1.
    10030    2    1    2    0    0  0.00000000000E+00  0.00000000000E+00  0.60731075631E+02  0.50854037479E+03  0.50490102916E+03 0.  0.
        5    1    3    3  502    0  0.21923501836E+03 -0.29044753525E+02  0.15290422995E+03  0.26890404333E+03  0.46999998093E+01 0. -1.
       -5    1    3    3    0  502 -0.21923501836E+03  0.29044753525E+02 -0.92173154315E+02  0.23963633147E+03  0.46999998093E+01 0.  1.
</event>
<event>
 5   0  0.1292375E-01  0.5053651E+03  0.7818609E-02  0.1012388E+00
       -3   -1    0    0    0  501  0.00000000000E+00  0.00000000000E+00  0.10605984461E+03  0.10605989270E+03  0.10100000352E+00 0. -1.
        3   -1    0    0  501    0  0.00000000000E+00  0.00000000000E+00 -0.60200403852E+03  0.60200404699E+03  0.10100000352E+00 0.  1.
    10030    2    1    2    0    0  0.00000000000E+00  0.00000000000E+00 -0.49594419391E+03  0.70806393969E+03  0.50536511476E+03 0.  0.
        4    1    3    3  502    0 -0.71075118062E+02 -0.15063131583E+03  0.18255624538E+02  0.16755997864E+03  0.12699999809E+01 0. -1.
       -4    1    3    3    0  502  0.71075118062E+02  0.15063131583E+03 -0.51419981845E+03  0.54050396105E+03  0.12699999809E+01 0.  1.
</event>
<event>
 5   0  0.3329246E-01  0.5275649E+03  0.7818609E-02  0.1006824E+00
        2   -1    0    0  501    0  0.00000000000E+00  0.00000000000E+00  0.88975241435E+03  0.88975241435E+03  0.25500000920E-02 0.  1.
       -2   -1    0    0    0  501  0.00000000000E+00  0.00000000000E+00 -0.78202848639E+02  0.78202848681E+02  0.25500000920E-02 0. -1.
    10030    2    1    2    0    0  0.00000000000E+00  0.00000000000E+00  0.81154956571E+03  0.96795526304E+03  0.52756487149E+03 0.  0.
        2    1    3    3  502    0 -0.88726028749E+02  0.24840448453E+03  0.40947958713E+03  0.48708380017E+03  0.25500000920E-02 0. -1.
       -2    1    3    3    0  502  0.88726028749E+02 -0.24840448453E+03  0.40206997858E+03  0.48087146286E+03  0.25500000920E-02 0.  1.
</event>
<event>
 5   0  0.1984297E-01  0.5121672E+03  0.7818609E-02  0.1010651E+00
       -1   -1    0    0    0  501  0.00000000000E+00  0.00000000000E+00  0.10771046401E+03  0.10771046413E+03  0.50400001928E-02 0.  1.
        1   -1    0    0  501    0  0.00000000000E+00  0.00000000000E+00 -0.60884353025E+03  0.60884353027E+03  0.50400001928E-02 0. -1.
    10030    2    1    2    0    0  0.00000000000E+00  0.00000000000E+00 -0.50113306624E+03  0.71655399440E+03  0.51216723519E+03 0.  0.
        3    1    3    3  502    0  0.17931768748E+03  0.17172379080E+03 -0.16280487059E+03  0.29689952755E+03  0.10100000352E+00 0.  1.
       -3    1    3    3    0  502 -0.17931768748E+03 -0.17172379080E+03 -0.33832819565E+03  0.41965446684E+03  0.10100000352E+00 0. -1.
</event>
<event>
 5   0  0.3187123E-01  0.5065972E+03  0.7818609E-02  0.1012071E+00
        2   -1    0    0  501    0  0.00000000000E+00  0.00000000000E+00  0.24214132735E+04  0.24214132735E+04  0.25500000920E-02 0.  1.
       -2   -1    0    0    0  501  0.00000000000E+00  0.00000000000E+00 -0.26496995070E+02  0.26496995193E+02  0.25500000920E-02 0. -1.
    10030    2    1    2    0    0  0.00000000000E+00  0.00000000000E+00  0.23949162784E+04  0.24479102687E+04  0.50659718010E+03 0.  0.
        5    1    3    3  502    0  0.38864326686E+02 -0.84525066216E+02  0.59271896636E+02  0.11040910486E+03  0.46999998093E+01 0. -1.
       -5    1    3    3    0  502 -0.38864326686E+02  0.84525066216E+02  0.23356443818E+04  0.23375011638E+04  0.46999998093E+01 0.  1.
</event>
<event>
 5   0  0.1984680E-01  0.5000441E+03  0.7818609E-02  0.1013767E+00
        1   -1    0    0  501    0  0.00000000000E+00  0.00000000000E+00  0.21532131186E+03  0.21532131192E+03  0.50400001928E-02 0. -1.
       -1   -1    0    0    0  501  0.00000000000E+00  0.00000000000E+00 -0.29031509342E+03  0.29031509346E+03  0.50400001928E-02 0.  1.
    10030    2    1    2    0    0  0.00000000000E+00  0.00000000000E+00 -0.74993781558E+02  0.50563640538E+03  0.50004410523E+03 0.  0.
        5    1    3    3  502    0  0.22026825687E+03  0.11238456803E+03 -0.74519755643E+02  0.25830927218E+03  0.46999998093E+01 0. -1.
       -5    1    3    3    0  502 -0.22026825687E+03 -0.11238456803E+03 -0.47402591517E+00  0.24732713320E+03  0.46999998093E+01 0.  1.
</event>
<event>
 5   0  0.3187123E-01  0.4981056E+03  0.7818609E-02  0.1014275E+00
       -2   -1    0    0    0  501  0.00000000000E+00  0.00000000000E+00  0.15852332493E+03  0.15852332495E+03  0.25500000920E-02 0. -1.
        2   -1    0    0  501    0  0.00000000000E+00  0.00000000000E+00 -0.39128179492E+03  0.39128179492E+03  0.25500000920E-02 0.  1.
    10030    2    1    2    0    0  0.00000000000E+00  0.00000000000E+00 -0.23275846999E+03  0.54980511987E+03  0.49810557564E+03 0.  0.
        5    1    3    3  502    0 -0.32203778377E+02  0.22532315370E+03 -0.49148204463E+01  0.22771440971E+03  0.46999998093E+01 0. -1.
       -5    1    3    3    0  502  0.32203778377E+02 -0.22532315370E+03 -0.22784364954E+03  0.32209071016E+03  0.46999998093E+01 0.  1.
</event>
<event>
 5   0  0.3111146E-01  0.5034275E+03  0.7818609E-02  0.1012888E+00
        2   -1    0    0  501    0  0.00000000000E+00  0.00000000000E+00  0.65372802081E+03  0.65372802081E+03  0.25500000920E-02 0. -1.
       -2   -1    0    0    0  501  0.00000000000E+00  0.00000000000E+00 -0.96920763025E+02  0.96920763058E+02  0.25500000920E-02 0.  1.
    10030    2    1    2    0    0  0.00000000000E+00  0.00000000000E+00  0.55680725778E+03  0.75064878387E+03  0.50342752647E+03 0.  0.
        1    1    3    3  502    0  0.13763113843E+03  0.20854432802E+03  0.32379585588E+03  0.40899489401E+03  0.50400001928E-02 0. -1.
       -1    1    3    3    0  502 -0.13763113843E+03 -0.20854432802E+03  0.23301140190E+03  0.34165388986E+03  0.50400001928E-02 0.  1.
</event>
<event>
 5   0  0.3117389E-01  0.5133614E+03  0.7818609E-02  0.1010349E+00
        2   -1    0    0  501    0  0.00000000000E+00  0.00000000000E+00  0.13745102940E+04  0.13745102940E+04  0.25500000920E-02 0. -1.
       -2   -1    0    0    0  501  0.00000000000E+00  0.00000000000E+00 -0.47933430012E+02  0.47933430080E+02  0.25500000920E-02 0.  1.
    10030    2    1    2    0    0  0.00000000000E+00  0.00000000000E+00  0.13265768640E+04  0.14224437241E+04  0.51336144393E+03 0.  0.
        4    1    3    3  502    0  0.13064812095E+03 -0.21768777410E+03  0.55863705743E+03  0.61362355996E+03  0.12699999809E+01 0. -1.
       -4    1    3    3    0  502 -0.13064812095E+03  0.21768777410E+03  0.76793980658E+03  0.80882016415E+03  0.12699999809E+01 0.  1.
</event>
<event>
 5   0  0.1984297E-01  0.4675425E+03  0.7818609E-02  0.1022616E+00
       -1   -1    0    0    0  501  0.00000000000E+00  0.00000000000E+00  0.38572797361E+02  0.38572797690E+02  0.50400001928E-02 0. -1.
        1   -1    0    0  501    0  0.00000000000E+00  0.00000000000E+00 -0.14167754770E+04  0.14167754770E+04  0.50400001928E-02 0.  1.
    10030    2    1    2    0    0  0.00000000000E+00  0.00000000000E+00 -0.13782026796E+04  0.14553482747E+04  0.46754248417E+03 0.  0.
        3    1    3    3  502    0 -0.83573935586E+02  0.14573353682E+03 -0.11951153387E+04  0.12068651745E+04  0.10100000352E+00 0.  1.
       -3    1    3    3    0  502  0.83573935586E+02 -0.14573353682E+03 -0.18308734093E+03  0.24848310018E+03  0.10100000352E+00 0. -1.
</event>
<event>
 5   0  0.2013450E-01  0.5025754E+03  0.7818609E-02  0.1013109E+00
        1   -1    0    0  501    0  0.00000000000E+00  0.00000000000E+00  0.18513294050E+03  0.18513294057E+03  0.50400001928E-02 0. -1.
       -1   -1    0    0    0  501  0.00000000000E+00  0.00000000000E+00 -0.34108192309E+03  0.34108192312E+03  0.50400001928E-02 0.  1.
    10030    2    1    2    0    0  0.00000000000E+00  0.00000000000E+00 -0.15594898259E+03  0.52621486369E+03  0.50257536509E+03 0.  0.
        4    1    3    3  502    0  0.89990518193E+02 -0.23447765877E+03 -0.69479888447E+02  0.26058997222E+03  0.12699999809E+01 0. -1.
       -4    1    3    3    0  502 -0.89990518193E+02  0.23447765877E+03 -0.86469094142E+02  0.26562489147E+03  0.12699999809E+01 0.  1.
</event>
<event>
 5   0  0.3111146E-01  0.5043406E+03  0.7818609E-02  0.1012652E+00
       -2   -1    0    0    0  501  0.00000000000E+00  0.00000000000E+00  0.72050805665E+02  0.72050805710E+02  0.25500000920E-02 0.  1.
        2   -1    0    0  501    0  0.00000000000E+00  0.00000000000E+00 -0.88256969355E+03  0.88256969355E+03  0.25500000920E-02 0. -1.
    10030    2    1    2    0    0  0.00000000000E+00  0.00000000000E+00 -0.81051888789E+03  0.95462049926E+03  0.50434058928E+03 0.  0.
        1    1    3    3  502    0  0.17500739049E+02 -0.13529595623E+03 -0.80668935839E+03  0.81814362591E+03  0.50400001928E-02 0. -1.
       -1    1    3    3    0  502 -0.17500739049E+02  0.13529595623E+03 -0.38295294908E+01  0.13647687336E+03  0.50400001928E-02 0.  1.
</event>
<event>
 5   0  0.2013450E-01  0.4997446E+03  0.7818609E-02  0.1013846E+00
        1   -1    0    0  501    0  0.00000000000E+00  0.00000000000E+00  0.55797875953E+03  0.55797875955E+03  0.50400001928E-02 0. -1.
       -1   -1    0    0    0  501  0.00000000000E+00  0.00000000000E+00 -0.11189701929E+03  0.11189701941E+03  0.50400001928E-02 0.  1.
    10030    2    1    2    0    0  0.00000000000E+00  0.00000000000E+00  0.44608174023E+03  0.66987577896E+03  0.49974457502E+03 0.  0.
        4    1    3    3  502    0  0.32822922756E+02 -0.19674906106E+03  0.21319633668E+02  0.20060826744E+03  0.12699999809E+01 0.  1.
       -4    1    3    3    0  502 -0.32822922756E+02  0.19674906106E+03  0.42476210656E+03  0.46926751151E+03  0.12699999809E+01 0. -1.
</event>
<event>
 5   0  0.3117389E-01  0.5005324E+03  0.7818609E-02  0.1013640E+00
       -2   -1    0    0    0  501  0.00000000000E+00  0.00000000000E+00  0.51861627870E+02  0.51861627933E+02  0.25500000920E-02 0. -1.
        2   -1    0    0  501    0  0.00000000000E+00  0.00000000000E+00 -0.12076975079E+04  0.12076975079E+04  0.25500000920E-02 0.  1.
    10030    2    1    2    0    0  0.00000000000E+00  0.00000000000E+00 -0.11558358800E+04  0.12595591358E+04  0.50053235170E+03 0.  0.
        4    1    3    3  502    0  0.10940550569E+03 -0.36525317979E+01 -0.11442489001E+04  0.11494738204E+04  0.12699999809E+01 0.  1.
       -4    1    3    3    0  502 -0.10940550569E+03  0.36525317979E+01 -0.11586979976E+02  0.11008531541E+03  0.12699999809E+01 0. -1.
</event>
<event>
 5   0  0.3187123E-01  0.5022313E+03  0.7818609E-02  0.1013198E+00
       -2   -1    0    0    0  501  0.00000000000E+00  0.00000000000E+00  0.22736268403E+03  0.22736268404E+03  0.25500000920E-02 0. -1.
        2   -1    0    0  501    0  0.00000000000E+00  0.00000000000E+00 -0.27735008982E+03  0.27735008983E+03  0.25500000920E-02 0.  1.
    10030    2    1    2    0    0  0.00000000000E+00  0.00000000000E+00 -0.49987405786E+02  0.50471277387E+03  0.50223126483E+03 0.  0.
        5    1    3    3  502    0 -0.22428781611E+02 -0.32083810822E+02  0.22423277109E+03  0.22767267467E+03  0.46999998093E+01 0. -1.
       -5    1    3    3    0  502  0.22428781611E+02  0.32083810822E+02 -0.27422017688E+03  0.27704009920E+03  0.46999998093E+01 0.  1.
</event>
<event>
 5   0  0.3187123E-01  0.4674529E+03  0.7818609E-02  0.1022642E+00
        2   -1    0    0  501    0  0.00000000000E+00  0.00000000000E+00  0.80086005375E+03  0.80086005375E+03  0.25500000920E-02 0. -1.
       -2   -1    0    0    0  501  0.00000000000E+00  0.00000000000E+00 -0.68211737427E+02  0.68211737475E+02  0.25500000920E-02 0.  1.
    10030    2    1    2    0    0  0.00000000000E+00  0.00000000000E+00  0.73264831632E+03  0.86907179123E+03  0.46745290982E+03 0.  0.
        5    1    3    3  502    0  0.15952377073E+03  0.20773122149E+02  0.51215763687E+02  0.16889197874E+03  0.46999998093E+01 0.  1.
       -5    1    3    3    0  502 -0.15952377073E+03 -0.20773122149E+02  0.68143255263E+03  0.70017981249E+03  0.46999998093E+01 0. -1.
</event>
<event>
 5   0  0.2000612E-01  0.5062288E+03  0.7818609E-02  0.1012166E+00
       -1   -1    0    0    0  501  0.00000000000E+00  0.00000000000E+00  0.11599967983E+03  0.11599967994E+03  0.50400001928E-02 0.  1.
        1   -1    0    0  501    0  0.00000000000E+00  0.00000000000E+00 -0.55230231589E+03  0.55230231592E+03  0.50400001928E-02 0. -1.
    10030    2    1    2    0    0  0.00000000000E+00  0.00000000000E+00 -0.43630263607E+03  0.66830199586E+03  0.50622876985E+03 0.  0.
        2    1    3    3  502    0  0.42692570980E+01 -0.17410773674E+03 -0.46062652037E+03  0.49245154262E+03  0.25500000920E-02 0. -1.
       -2    1    3    3    0  502 -0.42692570980E+01  0.17410773674E+03  0.24323884303E+02  0.17585045324E+03  0.25500000920E-02 0.  1.
</event>
<event>
 5   0  0.2000612E-01  0.4951350E+03  0.7818609E-02  0.1015057E+00
       -1   -1    0    0    0  501  0.00000000000E+00  0.00000000000E+00  0.34542302891E+02  0.34542303259E+02  0.50400001928E-02 0. -1.
        1   -1    0    0  501    0  0.00000000000E+00  0.00000000000E+00 -0.17743367875E+04  0.17743367876E+04  0.50400001928E-02 0.  1.
    10030    2    1    2    0    0  0.00000000000E+00  0.00000000000E+00 -0.17397944847E+04  0.18088790908E+04  0.49513504859E+03 0.  0.
        2    1    3    3  502    0 -0.91550878447E+02  0.17761343147E+03 -0.14038497163E+04  0.14179993372E+04  0.25500000920E-02 0.  1.
       -2    1    3    3    0  502  0.91550878447E+02 -0.17761343147E+03 -0.33594476839E+03  0.39087975363E+03  0.25500000920E-02 0. -1.
</event>
<event>
 5   0  0.1292375E-01  0.4995999E+03  0.7818609E-02  0.1013883E+00
       -3   -1    0    0    0  501  0.00000000000E+00  0.00000000000E+00  0.12917675587E+03  0.12917679535E+03  0.10100000352E+00 0.  1.
        3   -1    0    0  501    0  0.00000000000E+00  0.00000000000E+00 -0.48305908648E+03  0.48305909704E+03  0.10100000352E+00 0. -1.
    10030    2    1    2    0    0  0.00000000000E+00  0.00000000000E+00 -0.35388233062E+03  0.61223589239E+03  0.49959992395E+03 0.  0.
        4    1    3    3  502    0  0.56289169081E+02  0.29257643925E+02  0.11913665942E+03  0.13498013484E+03  0.12699999809E+01 0.  1.
       -4    1    3    3    0  502 -0.56289169081E+02 -0.29257643925E+02 -0.47301899004E+03  0.47725575755E+03  0.12699999809E+01 0. -1.
</event>
<event>
 5   0  0.1967161E-01  0.5055103E+03  0.7818609E-02  0.1012351E+00
        1   -1    0    0  501    0  0.00000000000E+00  0.00000000000E+00  0.70346386922E+03  0.70346386924E+03  0.50400001928E-02 0.  1.
       -1   -1    0    0    0  501  0.00000000000E+00  0.00000000000E+00 -0.90815151617E+02  0.90815151757E+02  0.50400001928E-02 0. -1.
    10030    2    1    2    0    0  0.00000000000E+00  0.00000000000E+00  0.61264871760E+03  0.79427902100E+03  0.50551034808E+03 0.  0.
        1    1    3    3  502    0 -0.10290591239E+03 -0.22867937868E+03  0.25660521759E+03  0.35878980303E+03  0.50400001928E-02 0. -1.
       -1    1    3    3    0  502  0.10290591239E+03  0.22867937868E+03  0.35604350002E+03  0.43548921797E+03  0.50400001928E-02 0.  1.
</event>
<event>
 5   0  0.3187123E-01  0.4954026E+03  0.7818609E-02  0.1014986E+00
        2   -1    0    0  501    0  0.00000000000E+00  0.00000000000E+00  0.10658000521E+04  0.10658000521E+04  0.25500000920E-02 0. -1.
       -2   -1    0    0    0  501  0.00000000000E+00  0.00000000000E+00 -0.57567962914E+02  0.57567962971E+02  0.25500000920E-02 0.  1.
    10030    2    1    2    0    0  0.00000000000E+00  0.00000000000E+00  0.10082320892E+04  0.11233680151E+04  0.49540261569E+03 0.  0.
        5    1    3    3  502    0 -0.11472826449E+03 -0.16982807840E+03  0.81938142460E+03  0.84463729486E+03  0.46999998093E+01 0. -1.
       -5    1    3    3    0  502  0.11472826449E+03  0.16982807840E+03  0.18885066462E+03  0.27873072025E+03  0.46999998093E+01 0.  1.
</event>
<event>
 5   0  0.3111146E-01  0.5049486E+03  0.7818609E-02  0.1012495E+00
        2   -1    0    0  501    0  0.00000000000E+00  0.00000000000E+00  0.26282543803E+03  0.26282543804E+03  0.25500000920E-02 0.  1.
       -2   -1    0    0    0  501  0.00000000000E+00  0.00000000000E+00 -0.24253082310E+03  0.24253082311E+03  0.25500000920E-02 0. -1.
    10030    2    1    2    0    0  0.00000000000E+00  0.00000000000E+00  0.20294614929E+02  0.50535626115E+03  0.50494859074E+03 0.  0.
        1    1    3    3  502    0  0.90994053299E+02 -0.22031835168E+03 -0.73125493267E+02  0.24933397606E+03  0.50400001928E-02 0. -1.
       -1    1    3    3    0  502 -0.90994053299E+02  0.22031835168E+03  0.93420108196E+02  0.25602228510E+03  0.50400001928E-02 0.  1.
</event>
<event>
 5   0  0.3111146E-01  0.4955606E+03  0.7818609E-02  0.1014944E+00
        2   -1    0    0  501    0  0.00000000000E+00  0.00000000000E+00  0.60157597692E+03  0.60157597693E+03  0.25500000920E-02 0. -1.
       -2   -1    0    0    0  501  0.00000000000E+00  0.00000000000E+00 -0.10205704704E+03  0.10205704708E+03  0.25500000920E-02 0.  1.
    10030    2    1    2    0    0  0.00000000000E+00  0.00000000000E+00  0.49951892988E+03  0.70363302400E+03  0.49556056256E+03 0.  0.
        1    1    3    3  502    0 -0.11139487165E+03 -0.58569997295E+02 -0.53295457973E+02  0.13667358149E+03  0.50400001928E-02 0.  1.
       -1    1    3    3    0  502  0.11139487165E+03  0.58569997295E+02  0.55281438785E+03  0.56695944251E+03  0.50400001928E-02 0. -1.
</event>
<event>
 5   0  0.3111146E-01  0.4987505E+03  0.7818609E-02  0.1014106E+00
        2   -1    0    0  501    0  0.00000000000E+00  0.00000000000E+00  0.23710795598E+03  0.23710795600E+03  0.25500000920E-02 0. -1.
       -2   -1    0    0    0  501  0.00000000000E+00  0.00000000000E+00 -0.26227723245E+03  0.26227723246E+03  0.25500000920E-02 0.  1.
    10030    2    1    2    0    0  0.00000000000E+00  0.00000000000E+00 -0.25169276465E+02  0.49938518846E+03  0.49875051275E+03 0.  0.
        1    1    3    3  502    0  0.28482036203E+02 -0.15194500295E+03  0.18334141763E+03  0.23981781784E+03  0.50400001928E-02 0. -1.
       -1    1    3    3    0  502 -0.28482036203E+02  0.15194500295E+03 -0.20851069410E+03  0.25956737061E+03  0.50400001928E-02 0.  1.
</event>
<event>
 5   0  0.2000612E-01  0.4952940E+03  0.7818609E-02  0.1015015E+00
        1   -1    0    0  501    0  0.00000000000E+00  0.00000000000E+00  0.24051637258E+03  0.24051637263E+03  0.50400001928E-02 0.  1.
       -1   -1    0    0    0  501  0.00000000000E+00  0.00000000000E+00 -0.25498902348E+03  0.25498902353E+03  0.50400001928E-02 0. -1.
    10030    2    1    2    0    0  0.00000000000E+00  0.00000000000E+00 -0.14472650901E+02  0.49550539615E+03  0.49529399350E+03 0.  0.
        2    1    3    3  502    0 -0.22259553882E+03 -0.10539271076E+03 -0.33182653224E+02  0.24851053472E+03  0.25500000920E-02 0. -1.
       -2    1    3    3    0  502  0.22259553882E+03  0.10539271076E+03  0.18710002323E+02  0.24699486144E+03  0.25500000920E-02 0.  1.
</event>
<event>
 5   0  0.1984680E-01  0.5033758E+03  0.7818609E-02  0.1012902E+00
        1   -1    0    0  501    0  0.00000000000E+00  0.00000000000E+00  0.23505284897E+03  0.23505284902E+03  0.50400001928E-02 0.  1.
       -1   -1    0    0    0  501  0.00000000000E+00  0.00000000000E+00 -0.26950024874E+03  0.26950024879E+03  0.50400001928E-02 0. -1.
    10030    2    1    2    0    0  0.00000000000E+00  0.00000000000E+00 -0.34447399769E+02  0.50455309781E+03  0.50337580907E+03 0.  0.
        5    1    3    3  502    0 -0.12408461859E+02 -0.11191618167E+03 -0.24279560589E+03  0.26767704026E+03  0.46999998093E+01 0. -1.
       -5    1    3    3    0  502  0.12408461859E+02  0.11191618167E+03  0.20834820612E+03  0.23687605755E+03  0.46999998093E+01 0.  1.
</event>
<event>
 5   0  0.3187123E-01  0.4848017E+03  0.7818609E-02  0.1017824E+00
        2   -1    0    0  501    0  0.00000000000E+00  0.00000000000E+00  0.85016442831E+03  0.85016442831E+03  0.25500000920E-02 0. -1.
       -2   -1    0    0    0  501  0.00000000000E+00  0.00000000000E+00 -0.69113889010E+02  0.69113889057E+02  0.25500000920E-02 0.  1.
    10030    2    1    2    0    0  0.00000000000E+00  0.00000000000E+00  0.78105053930E+03  0.91927831737E+03  0.48480169126E+03 0.  0.
        5    1    3    3  502    0 -0.15259173449E+03  0.18388193656E+03  0.46729834229E+03  0.52486820701E+03  0.46999998093E+01 0. -1.
       -5    1    3    3    0  502  0.15259173449E+03 -0.18388193656E+03  0.31375219701E+03  0.39441011036E+03  0.46999998093E+01 0.  1.
</event>
<event>
 5   0  0.2000612E-01  0.4843174E+03  0.7818609E-02  0.1017955E+00
       -1   -1    0    0    0  501  0.00000000000E+00  0.00000000000E+00  0.77056223735E+02  0.77056223899E+02  0.50400001928E-02 0. -1.
        1   -1    0    0  501    0  0.00000000000E+00  0.00000000000E+00 -0.76101373342E+03  0.76101373344E+03  0.50400001928E-02 0.  1.
    10030    2    1    2    0    0  0.00000000000E+00  0.00000000000E+00 -0.68395750968E+03  0.83806995734E+03  0.48431743551E+03 0.  0.
        2    1    3    3  502    0  0.27822892374E+02 -0.22970692239E+03 -0.46557277415E+03  0.51990132869E+03  0.25500000920E-02 0.  1.
       -2    1    3    3    0  502 -0.27822892374E+02  0.22970692239E+03 -0.21838473553E+03  0.31816862864E+03  0.25500000920E-02 0. -1.
</event>
<event>
 5   0  0.3329246E-01  0.4972089E+03  0.7818609E-02  0.1014510E+00
       -2   -1    0    0    0  501  0.00000000000E+00  0.00000000000E+00  0.54852130616E+02  0.54852130675E+02  0.25500000920E-02 0.  1.
        2   -1    0    0  501    0  0.00000000000E+00  0.00000000000E+00 -0.11267414289E+04  0.11267414289E+04  0.25500000920E-02 0. -1.
    10030    2    1    2    0    0  0.00000000000E+00  0.00000000000E+00 -0.10718892982E+04  0.11815935595E+04  0.49720888191E+03 0.  0.
        2    1    3    3  502    0  0.82884375335E+02 -0.68038887300E+02 -0.29350076664E+01  0.10727406087E+03  0.25500000920E-02 0.  1.
       -2    1    3    3    0  502 -0.82884375335E+02  0.68038887300E+02 -0.10689542906E+04  0.10743194987E+04  0.25500000920E-02 0. -1.
</event>
<event>
 5   0  0.1967161E-01  0.4899604E+03  0.7818609E-02  0.1016433E+00
        1   -1    0    0  501    0  0.00000000000E+00  0.00000000000E+00  0.79587464250E+03  0.79587464252E+03  0.50400001928E-02 0.  1.
       -1   -1    0    0    0  501  0.00000000000E+00  0.00000000000E+00 -0.75407979985E+02  0.75407980153E+02  0.50400001928E-02 0. -1.
    10030    2    1    2    0    0  0.00000000000E+00  0.00000000000E+00  0.72046666252E+03  0.87128262267E+03  0.48996040327E+03 0.  0.
        1    1    3    3  502    0 -0.33108292149E+02 -0.15971656208E+03  0.35194875095E+02  0.16686586970E+03  0.50400001928E-02 0. -1.
       -1    1    3    3    0  502  0.33108292149E+02  0.15971656208E+03  0.68527178742E+03  0.70441675298E+03  0.50400001928E-02 0.  1.
</event>
<event>
 5   0  0.3178149E-01  0.4927329E+03  0.7818609E-02  0.1015693E+00
        2   -1    0    0  501    0  0.00000000000E+00  0.00000000000E+00  0.63620527703E+03  0.63620527703E+03  0.25500000920E-02 0. -1.
       -2   -1    0    0    0  501  0.00000000000E+00  0.00000000000E+00 -0.95403843062E+02  0.95403843096E+02  0.25500000920E-02 0.  1.
    10030    2    1    2    0    0  0.00000000000E+00  0.00000000000E+00  0.54080143396E+03  0.73160912013E+03  0.49273290298E+03 0.  0.
        3    1    3    3  502    0  0.44550456327E+02 -0.75369188843E+02 -0.71526059536E+02  0.11305416923E+03  0.10100000352E+00 0.  1.
       -3    1    3    3    0  502 -0.44550456327E+02  0.75369188843E+02  0.61232749350E+03  0.61855495090E+03  0.10100000352E+00 0. -1.
</event>
<event>
 5   0  0.3187123E-01  0.4898104E+03  0.7818609E-02  0.1016473E+00
       -2   -1    0    0    0  501  0.00000000000E+00  0.00000000000E+00  0.39491492239E+02  0.39491492321E+02  0.25500000920E-02 0.  1.
        2   -1    0    0  501    0  0.00000000000E+00  0.00000000000E+00 -0.15187717025E+04  0.15187717025E+04  0.25500000920E-02 0. -1.
    10030    2    1    2    0    0  0.00000000000E+00  0.00000000000E+00 -0.14792802103E+04  0.15582631948E+04  0.48981041625E+03 0.  0.
        5    1    3    3  502    0  0.18203320951E+03  0.13627251630E+03 -0.10286046671E+04  0.10534495428E+04  0.46999998093E+01 0. -1.
       -5    1    3    3    0  502 -0.18203320951E+03 -0.13627251630E+03 -0.45067554320E+03  0.50481365206E+03  0.46999998093E+01 0.  1.
</event>
<event>
 5   0  0.1967161E-01  0.5018954E+03  0.7818609E-02  0.1013285E+00
        1   -1    0    0  501    0  0.00000000000E+00  0.00000000000E+00  0.11593588811E+03  0.11593588822E+03  0.50400001928E-02 0.  1.
       -1   -1    0    0    0  501  0.00000000000E+00  0.00000000000E+00 -0.54318598430E+03  0.54318598432E+03  0.50400001928E-02 0. -1.
    10030    2    1    2    0    0  0.00000000000E+00  0.00000000000E+00 -0.42725009619E+03  0.65912187254E+03  0.50189540561E+03 0.  0.
        1    1    3    3  502    0  0.21605666555E+03  0.71143985362E+02 -0.74438738721E+02  0.23933882934E+03  0.50400001928E-02 0.  1.
       -1    1    3    3    0  502 -0.21605666555E+03 -0.71143985362E+02 -0.35281135747E+03  0.41978304321E+03  0.50400001928E-02 0. -1.
</event>
<event>
 5   0  0.2013450E-01  0.5242093E+03  0.7818609E-02  0.1007646E+00
        1   -1    0    0  501    0  0.00000000000E+00  0.00000000000E+00  0.17702181299E+03  0.17702181307E+03  0.50400001928E-02 0. -1.
       -1   -1    0    0    0  501  0.00000000000E+00  0.00000000000E+00 -0.38808123192E+03  0.38808123196E+03  0.50400001928E-02 0.  1.
    10030    2    1    2    0    0  0.00000000000E+00  0.00000000000E+00 -0.21105941893E+03  0.56510304502E+03  0.52420928376E+03 0.  0.
        4    1    3    3  502    0 -0.22016249150E+03 -0.12394767984E+03 -0.18070252252E+03  0.31062769443E+03  0.12699999809E+01 0.  1.
       -4    1    3    3    0  502  0.22016249150E+03  0.12394767984E+03 -0.30356896414E+02  0.25447535060E+03  0.12699999809E+01 0. -1.
</event>
<event>
 5   0  0.1984680E-01  0.5029188E+03  0.7818609E-02  0.1013020E+00
       -1   -1    0    0    0  501  0.00000000000E+00  0.00000000000E+00  0.14252169016E+03  0.14252169025E+03  0.50400001928E-02 0. -1.
        1   -1    0    0  501    0  0.00000000000E+00  0.00000000000E+00 -0.44366466222E+03  0.44366466225E+03  0.50400001928E-02 0.  1.
    10030    2    1    2    0    0  0.00000000000E+00  0.00000000000E+00 -0.30114297205E+03  0.58618635250E+03  0.50291883067E+03 0.  0.
        5    1    3    3  502    0  0.19332842659E+03  0.14523071794E+03 -0.70308694931E+02  0.25185957306E+03  0.46999998093E+01 0. -1.
       -5    1    3    3    0  502 -0.19332842659E+03 -0.14523071794E+03 -0.23083427712E+03  0.33432677944E+03  0.46999998093E+01 0.  1.
</event>
<event>
 5   0  0.1984680E-01  0.4838437E+03  0.7818609E-02  0.1018084E+00
       -1   -1    0    0    0  501  0.00000000000E+00  0.00000000000E+00  0.33996080546E+03  0.33996080550E+03  0.50400001928E-02 0.  1.
        1   -1    0    0  501    0  0.00000000000E+00  0.00000000000E+00 -0.17215569156E+03  0.17215569163E+03  0.50400001928E-02 0. -1.
    10030    2    1    2    0    0  0.00000000000E+00  0.00000000000E+00  0.16780511391E+03  0.51211649713E+03  0.48384372517E+03 0.  0.
        5    1    3    3  502    0 -0.18393686388E+03  0.14722321534E+03  0.25962108831E+02  0.23707291310E+03  0.46999998093E+01 0. -1.
       -5    1    3    3    0  502  0.18393686388E+03 -0.14722321534E+03  0.14184300507E+03  0.27504358403E+03  0.46999998093E+01 0.  1.
</event>
<event>
 5   0  0.3187123E-01  0.4986673E+03  0.7818609E-02  0.1014127E+00
       -2   -1    0    0    0  501  0.00000000000E+00  0.00000000000E+00  0.54483854922E+03  0.54483854922E+03  0.25500000920E-02 0.  1.
        2   -1    0    0  501    0  0.00000000000E+00  0.00000000000E+00 -0.11410217410E+03  0.11410217413E+03  0.25500000920E-02 0. -1.
    10030    2    1    2    0    0  0.00000000000E+00  0.00000000000E+00  0.43073637511E+03  0.65894072335E+03  0.49866727589E+03 0.  0.
        5    1    3    3  502    0  0.51241154600E+01  0.14403825948E+03 -0.53406392784E+02  0.15377779275E+03  0.46999998093E+01 0. -1.
       -5    1    3    3    0  502 -0.51241154600E+01 -0.14403825948E+03  0.48414276790E+03  0.50516293061E+03  0.46999998093E+01 0.  1.
</event>
<event>
 5   0  0.3187123E-01  0.5037620E+03  0.7818609E-02  0.1012802E+00
        2   -1    0    0  501    0  0.00000000000E+00  0.00000000000E+00  0.22224365202E+03  0.22224365204E+03  0.25500000920E-02 0. -1.
       -2   -1    0    0    0  501  0.00000000000E+00  0.00000000000E+00 -0.28547069391E+03  0.28547069392E+03  0.25500000920E-02 0.  1.
    10030    2    1    2    0    0  0.00000000000E+00  0.00000000000E+00 -0.63227041882E+02  0.50771434596E+03  0.50376204528E+03 0.  0.
        5    1    3    3  502    0 -0.14784841859E+03 -0.20126020757E+03  0.11551568027E+01  0.24977640083E+03  0.46999998093E+01 0. -1.
       -5    1    3    3    0  502  0.14784841859E+03  0.20126020757E+03 -0.64382198685E+02  0.25793794512E+03  0.46999998093E+01 0.  1.
</event>
<event>
 5   0  0.3178149E-01  0.5234653E+03  0.7818609E-02  0.1007829E+00
       -2   -1    0    0    0  501  0.00000000000E+00  0.00000000000E+00  0.57080923877E+03  0.57080923877E+03  0.25500000920E-02 0.  1.
        2   -1    0    0  501    0  0.00000000000E+00  0.00000000000E+00 -0.12001205574E+03  0.12001205577E+03  0.25500000920E-02 0. -1.
    10030    2    1    2    0    0  0.00000000000E+00  0.00000000000E+00  0.45079718303E+03  0.69082129454E+03  0.52346533864E+03 0.  0.
        3    1    3    3  502    0 -0.12361244865E+03  0.22888704596E+03  0.26352564945E+03  0.37029055536E+03  0.10100000352E+00 0.  1.
       -3    1    3    3    0  502  0.12361244865E+03 -0.22888704596E+03  0.18727153358E+03  0.32053073918E+03  0.10100000352E+00 0. -1.
</event>
<event>
 5   0  0.3187123E-01  0.5020132E+03  0.7818609E-02  0.1013255E+00
        2   -1    0    0  501    0  0.00000000000E+00  0.00000000000E+00  0.12399812994E+04  0.12399812994E+04  0.25500000920E-02 0. -1.
       -2   -1    0    0    0  501  0.00000000000E+00  0.00000000000E+00 -0.50810695196E+02  0.50810695260E+02  0.25500000920E-02 0.  1.
    10030    2    1    2    0    0  0.00000000000E+00  0.00000000000E+00  0.11891706042E+04  0.12907919947E+04  0.50201319463E+03 0.  0.
        5    1    3    3  502    0  0.16337679516E+03 -0.16923401880E+02  0.10824681631E+04  0.10948688473E+04  0.46999998093E+01 0. -1.
       -5    1    3    3    0  502 -0.16337679516E+03  0.16923401880E+02  0.10670244111E+03  0.19592314734E+03  0.46999998093E+01 0.  1.
</event>
<event>
 5   0  0.2000612E-01  0.4969787E+03  0.7818609E-02  0.1014571E+00
        1   -1    0    0  501    0  0.00000000000E+00  0.00000000000E+00  0.72964856143E+02  0.72964856318E+02  0.50400001928E-02 0. -1.
       -1   -1    0    0    0  501  0.00000000000E+00  0.00000000000E+00 -0.84625619459E+03  0.84625619461E+03  0.50400001928E-02 0.  1.
    10030    2    1    2    0    0  0.00000000000E+00  0.00000000000E+00 -0.77329133845E+03  0.91922105093E+03  0.49697871820E+03 0.  0.
        2    1    3    3  502    0  0.17527894575E+03  0.15490760164E+03 -0.23158752685E+03  0.32916843177E+03  0.25500000920E-02 0. -1.
       -2    1    3    3    0  502 -0.17527894575E+03 -0.15490760164E+03 -0.54170381160E+03  0.59005261916E+03  0.25500000920E-02 0.  1.
</event>
<event>
 5   0  0.3178149E-01  0.4612232E+03  0.7818609E-02  0.1024427E+00
        2   -1    0    0  501    0  0.00000000000E+00  0.00000000000E+00  0.25049640306E+03  0.25049640307E+03  0.25500000920E-02 0. -1.
       -2   -1    0    0    0  501  0.00000000000E+00  0.00000000000E+00 -0.21230529376E+03  0.21230529378E+03  0.25500000920E-02 0.  1.
    10030    2    1    2    0    0  0.00000000000E+00  0.00000000000E+00  0.38191109301E+02  0.46280169685E+03  0.46122321036E+03 0.  0.
        3    1    3    3  502    0 -0.63246474402E+01 -0.79436614976E+02  0.23624210759E+03  0.24932011664E+03  0.10100000352E+00 0. -1.
       -3    1    3    3    0  502  0.63246474402E+01  0.79436614976E+02 -0.19805099829E+03  0.21348158021E+03  0.10100000352E+00 0.  1.
</event>
<event>
 5   0  0.3117389E-01  0.5057464E+03  0.7818609E-02  0.1012290E+00
       -2   -1    0    0    0  501  0.00000000000E+00  0.00000000000E+00  0.77731676869E+03  0.77731676870E+03  0.25500000920E-02 0. -1.
        2   -1    0    0  501    0  0.00000000000E+00  0.00000000000E+00 -0.82263574145E+02  0.82263574185E+02  0.25500000920E-02 0.  1.
    10030    2    1    2    0    0  0.00000000000E+00  0.00000000000E+00  0.69505319455E+03  0.85958034288E+03  0.50574640149E+03 0.  0.
        4    1    3    3  502    0 -0.36670180570E+02  0.22355574530E+03  0.53847099119E+03  0.58418703739E+03  0.12699999809E+01 0. -1.
       -4    1    3    3    0  502  0.36670180570E+02 -0.22355574530E+03  0.15658220336E+03  0.27539330549E+03  0.12699999809E+01 0.  1.
</event>
<event>
 5   0  0.3178149E-01  0.4866744E+03  0.7818609E-02  0.1017317E+00
        2   -1    0    0  501    0  0.00000000000E+00  0.00000000000E+00  0.96474725807E+03  0.96474725807E+03  0.25500000920E-02 0. -1.
       -2   -1    0    0    0  501  0.00000000000E+00  0.00000000000E+00 -0.61376696938E+02  0.61376696991E+02  0.25500000920E-02 0.  1.
    10030    2    1    2    0    0  0.00000000000E+00  0.00000000000E+00  0.90337056113E+03  0.10261239551E+04  0.48667442961E+03 0.  0.
        3    1    3    3  502    0 -0.15062593906E+02  0.23938338856E+03  0.53814936519E+03  0.58918251664E+03  0.10100000352E+00 0.  1.
       -3    1    3    3    0  502  0.15062593906E+02 -0.23938338856E+03  0.36522119594E+03  0.43694143843E+03  0.10100000352E+00 0. -1.
</event>
<event>
 5   0  0.1292375E-01  0.5392438E+03  0.7818609E-02  0.1004015E+00
       -4   -1    0    0    0  501  0.00000000000E+00  0.00000000000E+00  0.34312099981E+03  0.34312335014E+03  0.12699999809E+01 0.  1.
        4   -1    0    0  501    0  0.00000000000E+00  0.00000000000E+00 -0.21186190812E+03  0.21186571457E+03  0.12699999809E+01 0. -1.
    10030    2    1    2    0    0  0.00000000000E+00  0.00000000000E+00  0.13125909170E+03  0.55498906472E+03  0.53924383427E+03 0.  0.
        1    1    3    3  502    0 -0.23424122819E+03  0.12106575922E+03  0.12357724646E+03  0.29119959978E+03  0.50400001928E-02 0. -1.
       -1    1    3    3    0  502  0.23424122819E+03 -0.12106575922E+03  0.76818452382E+01  0.26378946494E+03  0.50400001928E-02 0.  1.
</event>
<event>
 5   0  0.3329246E-01  0.5044829E+03  0.7818609E-02  0.1012615E+00
        2   -1    0    0  501    0  0.00000000000E+00  0.00000000000E+00  0.15315177130E+04  0.15315177130E+04  0.25500000920E-02 0.  1.
       -2   -1    0    0    0  501  0.00000000000E+00  0.00000000000E+00 -0.41544248137E+02  0.41544248215E+02  0.25500000920E-02 0. -1.
    10030    2    1    2    0    0  0.00000000000E+00  0.00000000000E+00  0.14899734649E+04  0.15730619612E+04  0.50448291134E+03 0.  0.
        2    1    3    3  502    0  0.84746812869E+02 -0.21528312740E+03  0.10583106144E+04  0.10833052219E+04  0.25500000920E-02 0. -1.
       -2    1    3    3    0  502 -0.84746812869E+02  0.21528312740E+03  0.43166285048E+03  0.48975673933E+03  0.25500000920E-02 0.  1.
</event>
<event>
 5   0  0.2000612E-01  0.4977019E+03  0.7818609E-02  0.1014380E+00
        1   -1    0    0  501    0  0.00000000000E+00  0.00000000000E+00  0.25661076341E+03  0.25661076346E+03  0.50400001928E-02 0.  1.
       -1   -1    0    0    0  501  0.00000000000E+00  0.00000000000E+00 -0.24132580250E+03  0.24132580255E+03  0.50400001928E-02 0. -1.
    10030    2    1    2    0    0  0.00000000000E+00  0.00000000000E+00  0.15284960916E+02  0.49793656601E+03  0.49770191253E+03 0.  0.
        2    1    3    3  502    0  0.13637750861E+03 -0.23855783587E+02 -0.19923720452E+03  0.24261777952E+03  0.25500000920E-02 0. -1.
       -2    1    3    3    0  502 -0.13637750861E+03  0.23855783587E+02  0.21452216544E+03  0.25531878649E+03  0.25500000920E-02 0.  1.
</event>
<event>
 5   0  0.2000612E-01  0.5042616E+03  0.7818609E-02  0.1012673E+00
        1   -1    0    0  501    0  0.00000000000E+00  0.00000000000E+00  0.11973571578E+04  0.11973571578E+04  0.50400001928E-02 0.  1.
       -1   -1    0    0    0  501  0.00000000000E+00  0.00000000000E+00 -0.53091883675E+02  0.53091883914E+02  0.50400001928E-02 0. -1.
    10030    2    1    2    0    0  0.00000000000E+00  0.00000000000E+00  0.11442652741E+04  0.12504490417E+04  0.50426162692E+03 0.  0.
        2    1    3    3  502    0 -0.25045939342E+03 -0.29549626589E+01  0.50063512406E+03  0.55979832708E+03  0.25500000920E-02 0. -1.
       -2    1    3    3    0  502  0.25045939342E+03  0.29549626589E+01  0.64363015006E+03  0.69065071464E+03  0.25500000920E-02 0.  1.
</event>
<event>
 5   0  0.1292375E-01  0.5086299E+03  0.7818609E-02  0.1011551E+00
       -3   -1    0    0    0  501  0.00000000000E+00  0.00000000000E+00  0.90277179082E+03  0.90277179647E+03  0.10100000352E+00 0. -1.
        3   -1    0    0  501    0  0.00000000000E+00  0.00000000000E+00 -0.71641635357E+02  0.71641706551E+02  0.10100000352E+00 0.  1.
    10030    2    1    2    0    0  0.00000000000E+00  0.00000000000E+00  0.83113015546E+03  0.97441350302E+03  0.50862986498E+03 0.  0.
        5    1    3    3  502    0  0.83491300478E+02  0.76989855061E+02 -0.20268595262E+02  0.11546056032E+03  0.46999998093E+01 0.  1.
       -5    1    3    3    0  502 -0.83491300478E+02 -0.76989855061E+02  0.85139875073E+03  0.85895294270E+03  0.46999998093E+01 0. -1.
</event>
<event>
 5   0  0.3117389E-01  0.4972781E+03  0.7818609E-02  0.1014492E+00
       -2   -1    0    0    0  501  0.00000000000E+00  0.00000000000E+00  0.10432163905E+03  0.10432163908E+03  0.25500000920E-02 0.  1.
        2   -1    0    0  501    0  0.00000000000E+00  0.00000000000E+00 -0.59260369406E+03  0.59260369406E+03  0.25500000920E-02 0. -1.
    10030    2    1    2    0    0  0.00000000000E+00  0.00000000000E+00 -0.48828205501E+03  0.69692533314E+03  0.49727814624E+03 0.  0.
        4    1    3    3  502    0 -0.24364227113E+03 -0.15281882041E+02 -0.17803805300E+03  0.30214938924E+03  0.12699999809E+01 0. -1.
       -4    1    3    3    0  502  0.24364227113E+03  0.15281882041E+02 -0.31024400201E+03  0.39477594390E+03  0.12699999809E+01 0.  1.
</event>
<event>
 5   0  0.1292375E-01  0.4605280E+03  0.7818609E-02  0.1024628E+00
       -3   -1    0    0    0  501  0.00000000000E+00  0.00000000000E+00  0.48966852778E+03  0.48966853819E+03  0.10100000352E+00 0. -1.
        3   -1    0    0  501    0  0.00000000000E+00  0.00000000000E+00 -0.10828037078E+03  0.10828041788E+03  0.10100000352E+00 0.  1.
    10030    2    1    2    0    0  0.00000000000E+00  0.00000000000E+00  0.38138815700E+03  0.59794895608E+03  0.46052798804E+03 0.  0.
        3    1    3    3  502    0  0.18006446118E+03 -0.13493318752E+03  0.25418725639E+03  0.33947215907E+03  0.10100000352E+00 0.  1.
       -3    1    3    3    0  502 -0.18006446118E+03  0.13493318752E+03  0.12720090061E+03  0.25847679700E+03  0.10100000352E+00 0. -1.
</event>
<event>
 5   0  0.1984297E-01  0.5156078E+03  0.7818609E-02  0.1009783E+00
       -1   -1    0    0    0  501  0.00000000000E+00  0.00000000000E+00  0.12591225753E+03  0.12591225763E+03  0.50400001928E-02 0. -1.
        1   -1    0    0  501    0  0.00000000000E+00  0.00000000000E+00 -0.52785055170E+03  0.52785055173E+03  0.50400001928E-02 0.  1.
    10030    2    1    2    0    0  0.00000000000E+00  0.00000000000E+00 -0.40193829417E+03  0.65376280936E+03  0.51560781470E+03 0.  0.
        3    1    3    3  502    0  0.88962146442E+02 -0.59247170520E+02  0.96494184508E+02  0.14399871027E+03  0.10100000352E+00 0. -1.
       -3    1    3    3    0  502 -0.88962146442E+02  0.59247170520E+02 -0.49843247868E+03  0.50976409909E+03  0.10100000352E+00 0.  1.
</event>
<event>
 5   0  0.1292375E-01  0.4195651E+03  0.7818609E-02  0.1037208E+00
        4   -1    0    0  501    0  0.00000000000E+00  0.00000000000E+00  0.11120703824E+04  0.11120711075E+04  0.12699999809E+01 0. -1.
       -4   -1    0    0    0  501  0.00000000000E+00  0.00000000000E+00 -0.39562759045E+02  0.39583137865E+02  0.12699999809E+01 0.  1.
    10030    2    1    2    0    0  0.00000000000E+00  0.00000000000E+00  0.10725076233E+04  0.11516542454E+04  0.41956513069E+03 0.  0.
        4    1    3    3  502    0 -0.11233400502E+03 -0.17438966401E+03  0.62202528847E+03  0.65570401554E+03  0.12699999809E+01 0. -1.
       -4    1    3    3    0  502  0.11233400502E+03  0.17438966401E+03  0.45048233483E+03  0.49595022985E+03  0.12699999809E+01 0.  1.
</event>
<event>
 5   0  0.3178149E-01  0.5014053E+03  0.7818609E-02  0.1013413E+00
       -2   -1    0    0    0  501  0.00000000000E+00  0.00000000000E+00  0.56585435261E+02  0.56585435318E+02  0.25500000920E-02 0.  1.
        2   -1    0    0  501    0  0.00000000000E+00  0.00000000000E+00 -0.11107419674E+04  0.11107419674E+04  0.25500000920E-02 0. -1.
    10030    2    1    2    0    0  0.00000000000E+00  0.00000000000E+00 -0.10541565322E+04  0.11673274028E+04  0.50140529604E+03 0.  0.
        3    1    3    3  502    0  0.44334595981E+02 -0.18149436351E+03 -0.13788621877E+03  0.23220331590E+03  0.10100000352E+00 0.  1.
       -3    1    3    3    0  502 -0.44334595981E+02  0.18149436351E+03 -0.91627031341E+03  0.93512408686E+03  0.10100000352E+00 0. -1.
</event>
<event>
 5   0  0.3178149E-01  0.4997197E+03  0.7818609E-02  0.1013852E+00
        2   -1    0    0  501    0  0.00000000000E+00  0.00000000000E+00  0.26811733540E+03  0.26811733541E+03  0.25500000920E-02 0. -1.
       -2   -1    0    0    0  501  0.00000000000E+00  0.00000000000E+00 -0.23284560681E+03  0.23284560682E+03  0.25500000920E-02 0.  1.
    10030    2    1    2    0    0  0.00000000000E+00  0.00000000000E+00  0.35271728591E+02  0.50096294223E+03  0.49971969608E+03 0.  0.
        3    1    3    3  502    0  0.11347264247E+03 -0.95148796040E+02 -0.18411242442E+03  0.23627680589E+03  0.10100000352E+00 0.  1.
       -3    1    3    3    0  502 -0.11347264247E+03  0.95148796040E+02  0.21938415301E+03  0.26468613634E+03  0.10100000352E+00 0. -1.
</event>
<event>
 5   0  0.3117389E-01  0.5187407E+03  0.7818609E-02  0.1009000E+00
        2   -1    0    0  501    0  0.00000000000E+00  0.00000000000E+00  0.86525070933E+03  0.86525070934E+03  0.25500000920E-02 0. -1.
       -2   -1    0    0    0  501  0.00000000000E+00  0.00000000000E+00 -0.77749683638E+02  0.77749683679E+02  0.25500000920E-02 0.  1.
    10030    2    1    2    0    0  0.00000000000E+00  0.00000000000E+00  0.78750102570E+03  0.94300039302E+03  0.51874066330E+03 0.  0.
        4    1    3    3  502    0  0.15297533272E+03 -0.18749559177E+03  0.56345874830E+03  0.61322379544E+03  0.12699999809E+01 0. -1.
       -4    1    3    3    0  502 -0.15297533272E+03  0.18749559177E+03  0.22404227740E+03  0.32977659758E+03  0.12699999809E+01 0.  1.
</event>
<event>
 5   0  0.1967161E-01  0.4922688E+03  0.7818609E-02  0.1015817E+00
       -1   -1    0    0    0  501  0.00000000000E+00  0.00000000000E+00  0.13812422461E+04  0.13812422461E+04  0.50400001928E-02 0.  1.
        1   -1    0    0  501    0  0.00000000000E+00  0.00000000000E+00 -0.43860621541E+02  0.43860621831E+02  0.50400001928E-02 0. -1.
    10030    2    1    2    0    0  0.00000000000E+00  0.00000000000E+00  0.13373816246E+04  0.14251028680E+04  0.49226880310E+03 0.  0.
        1    1    3    3  502    0  0.19748037432E+03 -0.97133875874E+02  0.34960462180E+03  0.41310637818E+03  0.50400001928E-02 0.  1.
       -1    1    3    3    0  502 -0.19748037432E+03  0.97133875874E+02  0.98777700279E+03  0.10119964898E+04  0.50400001928E-02 0. -1.
</event>
<event>
 5   0  0.3117389E-01  0.5083397E+03  0.7818609E-02  0.1011625E+00
        2   -1    0    0  501    0  0.00000000000E+00  0.00000000000E+00  0.10371857999E+03  0.10371858003E+03  0.25500000920E-02 0.  1.
       -2   -1    0    0    0  501  0.00000000000E+00  0.00000000000E+00 -0.62286146036E+03  0.62286146037E+03  0.25500000920E-02 0. -1.
    10030    2    1    2    0    0  0.00000000000E+00  0.00000000000E+00 -0.51914288037E+03  0.72658004039E+03  0.50833967469E+03 0.  0.
        4    1    3    3  502    0 -0.22004403447E+02  0.19808770776E+02 -0.62038375613E+03  0.62109113578E+03  0.12699999809E+01 0. -1.
       -4    1    3    3    0  502  0.22004403447E+02 -0.19808770776E+02  0.10124087577E+03  0.10548890461E+03  0.12699999809E+01 0.  1.
</event>
<event>
 5   0  0.1967161E-01  0.5002832E+03  0.7818609E-02  0.1013705E+00
       -1   -1    0    0    0  501  0.00000000000E+00  0.00000000000E+00  0.25377677215E+03  0.25377677220E+03  0.50400001928E-02 0.  1.
        1   -1    0    0  501    0  0.00000000000E+00  0.00000000000E+00 -0.24655854429E+03  0.24655854434E+03  0.50400001928E-02 0. -1.
    10030    2    1    2    0    0  0.00000000000E+00  0.00000000000E+00  0.72182278564E+01  0.50033531654E+03  0.50028324593E+03 0.  0.
        1    1    3    3  502    0 -0.12660771783E+03  0.19613211943E+03 -0.86252945551E+02  0.24887123805E+03  0.50400001928E-02 0. -1.
       -1    1    3    3    0  502  0.12660771783E+03 -0.19613211943E+03  0.93471173407E+02  0.25146407849E+03  0.50400001928E-02 0.  1.
</event>
<event>
 5   0  0.3178149E-01  0.5015181E+03  0.7818609E-02  0.1013383E+00
       -2   -1    0    0    0  501  0.00000000000E+00  0.00000000000E+00  0.51541186189E+02  0.51541186252E+02  0.25500000920E-02 0.  1.
        2   -1    0    0  501    0  0.00000000000E+00  0.00000000000E+00 -0.12199973390E+04  0.12199973390E+04  0.25500000920E-02 0. -1.
    10030    2    1    2    0    0  0.00000000000E+00  0.00000000000E+00 -0.11684561528E+04  0.12715385252E+04  0.50151813543E+03 0.  0.
        3    1    3    3  502    0 -0.21003003484E+03  0.11586146333E+03 -0.39889195088E+03  0.46545815376E+03  0.10100000352E+00 0.  1.
       -3    1    3    3    0  502  0.21003003484E+03 -0.11586146333E+03 -0.76956420191E+03  0.80608037148E+03  0.10100000352E+00 0. -1.
</event>
<event>
 5   0  0.3178149E-01  0.4986315E+03  0.7818609E-02  0.1014137E+00
        2   -1    0    0  501    0  0.00000000000E+00  0.00000000000E+00  0.10887672371E+03  0.10887672374E+03  0.25500000920E-02 0. -1.
       -2   -1    0    0    0  501  0.00000000000E+00  0.00000000000E+00 -0.57090566401E+03  0.57090566401E+03  0.25500000920E-02 0.  1.
    10030    2    1    2    0    0  0.00000000000E+00  0.00000000000E+00 -0.46202894030E+03  0.67978238775E+03  0.49863148018E+03 0.  0.
        3    1    3    3  502    0 -0.10310800782E+03  0.83141994455E+02 -0.51897178222E+03  0.53560766748E+03  0.10100000352E+00 0.  1.
       -3    1    3    3    0  502  0.10310800782E+03 -0.83141994455E+02  0.56942841924E+02  0.14417472028E+03  0.10100000352E+00 0. -1.
</event>
<event>
 5   0  0.2013450E-01  0.4825008E+03  0.7818609E-02  0.1018450E+00
       -1   -1    0    0    0  501  0.00000000000E+00  0.00000000000E+00  0.51881496006E+02  0.51881496251E+02  0.50400001928E-02 0.  1.
        1   -1    0    0  501    0  0.00000000000E+00  0.00000000000E+00 -0.11218211137E+04  0.11218211137E+04  0.50400001928E-02 0. -1.
    10030    2    1    2    0    0  0.00000000000E+00  0.00000000000E+00 -0.10699396177E+04  0.11737026099E+04  0.48250080945E+03 0.  0.
        4    1    3    3  502    0 -0.13793757194E+02  0.15408259661E+03 -0.98527518449E+03  0.99734673830E+03  0.12699999809E+01 0. -1.
       -4    1    3    3    0  502  0.13793757194E+02 -0.15408259661E+03 -0.84664433173E+02  0.17635587164E+03  0.12699999809E+01 0.  1.
</event>
<event>
 5   0  0.1967161E-01  0.4978090E+03  0.7818609E-02  0.1014352E+00
        1   -1    0    0  501    0  0.00000000000E+00  0.00000000000E+00  0.13991207284E+04  0.13991207284E+04  0.50400001928E-02 0. -1.
       -1   -1    0    0    0  501  0.00000000000E+00  0.00000000000E+00 -0.44280279197E+02  0.44280279484E+02  0.50400001928E-02 0.  1.
    10030    2    1    2    0    0  0.00000000000E+00  0.00000000000E+00  0.13548404492E+04  0.14434010079E+04  0.49780902643E+03 0.  0.
        1    1    3    3  502    0 -0.52041557868E+02  0.15982092710E+03  0.12097180335E+04  0.12213389264E+04  0.50400001928E-02 0. -1.
       -1    1    3    3    0  502  0.52041557868E+02 -0.15982092710E+03  0.14512241571E+03  0.22206208152E+03  0.50400001928E-02 0.  1.
</event>
<event>
 5   0  0.3111146E-01  0.5001955E+03  0.7818609E-02  0.1013728E+00
       -2   -1    0    0    0  501  0.00000000000E+00  0.00000000000E+00  0.28258015773E+03  0.28258015774E+03  0.25500000920E-02 0.  1.
        2   -1    0    0  501    0  0.00000000000E+00  0.00000000000E+00 -0.22134916256E+03  0.22134916257E+03  0.25500000920E-02 0. -1.
    10030    2    1    2    0    0  0.00000000000E+00  0.00000000000E+00  0.61230995173E+02  0.50392932032E+03  0.50019548689E+03 0.  0.
        1    1    3    3  502    0  0.11021409365E+03 -0.19642659750E+03 -0.78908138298E+02  0.23865675972E+03  0.50400001928E-02 0. -1.
       -1    1    3    3    0  502 -0.11021409365E+03  0.19642659750E+03  0.14013913347E+03  0.26527256059E+03  0.50400001928E-02 0.  1.
</event>
<event>
 5   0  0.2000612E-01  0.4318049E+03  0.7818609E-02  0.1033291E+00
       -1   -1    0    0    0  501  0.00000000000E+00  0.00000000000E+00  0.43313775565E+02  0.43313775858E+02  0.50400001928E-02 0. -1.
        1   -1    0    0  501    0  0.00000000000E+00  0.00000000000E+00 -0.10761901623E+04  0.10761901623E+04  0.50400001928E-02 0.  1.
    10030    2    1    2    0    0  0.00000000000E+00  0.00000000000E+00 -0.10328763867E+04  0.11195039382E+04  0.43180486021E+03 0.  0.
        2    1    3    3  502    0  0.81904682021E+02 -0.57859422066E+02 -0.10121484963E+04  0.10171040597E+04  0.25500000920E-02 0.  1.
       -2    1    3    3    0  502 -0.81904682021E+02  0.57859422066E+02 -0.20727890395E+02  0.10239987844E+03  0.25500000920E-02 0. -1.
</event>
<event>
 5   0  0.3187123E-01  0.5182547E+03  0.7818609E-02  0.1009121E+00
       -2   -1    0    0    0  501  0.00000000000E+00  0.00000000000E+00  0.55005888310E+02  0.55005888369E+02  0.25500000920E-02 0.  1.
        2   -1    0    0  501    0  0.00000000000E+00  0.00000000000E+00 -0.12207233600E+04  0.12207233600E+04  0.25500000920E-02 0. -1.
    10030    2    1    2    0    0  0.00000000000E+00  0.00000000000E+00 -0.11657174717E+04  0.12757292483E+04  0.51825465877E+03 0.  0.
        5    1    3    3  502    0  0.11811085708E+03 -0.95699299348E+02 -0.10993016496E+04  0.11097723808E+04  0.46999998093E+01 0. -1.
       -5    1    3    3    0  502 -0.11811085708E+03  0.95699299348E+02 -0.66415822075E+02  0.16595686752E+03  0.46999998093E+01 0.  1.
</event>
<event>
 5   0  0.2000612E-01  0.5076332E+03  0.7818609E-02  0.1011806E+00
       -1   -1    0    0    0  501  0.00000000000E+00  0.00000000000E+00  0.11465175554E+03  0.11465175565E+03  0.50400001928E-02 0. -1.
        1   -1    0    0  501    0  0.00000000000E+00  0.00000000000E+00 -0.56190031875E+03  0.56190031878E+03  0.50400001928E-02 0.  1.
    10030    2    1    2    0    0  0.00000000000E+00  0.00000000000E+00 -0.44724856322E+03  0.67655207442E+03  0.50763316687E+03 0.  0.
        2    1    3    3  502    0 -0.64381790259E+02 -0.20339721011E+02 -0.54971212627E+03  0.55384306527E+03  0.25500000920E-02 0.  1.
       -2    1    3    3    0  502  0.64381790259E+02  0.20339721011E+02  0.10246356306E+03  0.12270900916E+03  0.25500000920E-02 0. -1.
</event>
<event>
 5   0  0.1984680E-01  0.5527759E+03  0.7818609E-02  0.1000853E+00
       -1   -1    0    0    0  501  0.00000000000E+00  0.00000000000E+00  0.86502997969E+02  0.86502998116E+02  0.50400001928E-02 0.  1.
        1   -1    0    0  501    0  0.00000000000E+00  0.00000000000E+00 -0.88309435517E+03  0.88309435518E+03  0.50400001928E-02 0. -1.
    10030    2    1    2    0    0  0.00000000000E+00  0.00000000000E+00 -0.79659135720E+03  0.96959735330E+03  0.55277593757E+03 0.  0.
        5    1    3    3  502    0 -0.13589688372E+03  0.21128435648E+03 -0.19631930264E+03  0.31886109968E+03  0.46999998093E+01 0.  1.
       -5    1    3    3    0  502  0.13589688372E+03 -0.21128435648E+03 -0.60027205456E+03  0.65073625362E+03  0.46999998093E+01 0. -1.
</event>
<event>
 5   0  0.1967161E-01  0.5087631E+03  0.7818609E-02  0.1011517E+00
       -1   -1    0    0    0  501  0.00000000000E+00  0.00000000000E+00  0.18840087422E+03  0.18840087429E+03  0.50400001928E-02 0. -1.
        1   -1    0    0  501    0  0.00000000000E+00  0.00000000000E+00 -0.34346959050E+03  0.34346959054E+03  0.50400001928E-02 0.  1.
    10030    2    1    2    0    0  0.00000000000E+00  0.00000000000E+00 -0.15506871628E+03  0.53187046483E+03  0.50876309280E+03 0.  0.
        1    1    3    3  502    0  0.24661231731E+03  0.11211560492E+02 -0.13373943986E+02  0.24722903661E+03  0.50400001928E-02 0. -1.
       -1    1    3    3    0  502 -0.24661231731E+03 -0.11211560492E+02 -0.14169477229E+03  0.28464142822E+03  0.50400001928E-02 0.  1.
</event>
<event>
 5   0  0.3187123E-01  0.5004127E+03  0.7818609E-02  0.1013671E+00
        2   -1    0    0  501    0  0.00000000000E+00  0.00000000000E+00  0.31058385509E+03  0.31058385510E+03  0.25500000920E-02 0. -1.
       -2   -1    0    0    0  501  0.00000000000E+00  0.00000000000E+00 -0.20156621552E+03  0.20156621554E+03  0.25500000920E-02 0.  1.
    10030    2    1    2    0    0  0.00000000000E+00  0.00000000000E+00  0.10901763957E+03  0.51215007064E+03  0.50041267881E+03 0.  0.
        5    1    3    3  502    0  0.38071524496E+02  0.14872462719E+03  0.25665789096E+03  0.29910502954E+03  0.46999998093E+01 0. -1.
       -5    1    3    3    0  502 -0.38071524496E+02 -0.14872462719E+03 -0.14764025138E+03  0.21304504110E+03  0.46999998093E+01 0.  1.
</event>
<event>
 5   0  0.2000612E-01  0.5007158E+03  0.7818609E-02  0.1013592E+00
        1   -1    0    0  501    0  0.00000000000E+00  0.00000000000E+00  0.36301540972E+03  0.36301540975E+03  0.50400001928E-02 0. -1.
       -1   -1    0    0    0  501  0.00000000000E+00  0.00000000000E+00 -0.17266228033E+03  0.17266228041E+03  0.50400001928E-02 0.  1.
    10030    2    1    2    0    0  0.00000000000E+00  0.00000000000E+00  0.19035312939E+03  0.53567769016E+03  0.50071576156E+03 0.  0.
        2    1    3    3  502    0  0.17450037602E+03 -0.59091341712E+02 -0.86179573599E+02  0.20339392029E+03  0.25500000920E-02 0.  1.
       -2    1    3    3    0  502 -0.17450037602E+03  0.59091341712E+02  0.27653270298E+03  0.33228376988E+03  0.25500000920E-02 0. -1.
</event>
<event>
 5   0  0.1984297E-01  0.5197425E+03  0.7818609E-02  0.1008751E+00
       -1   -1    0    0    0  501  0.00000000000E+00  0.00000000000E+00  0.13731655363E+03  0.13731655373E+03  0.50400001928E-02 0. -1.
        1   -1    0    0  501    0  0.00000000000E+00  0.00000000000E+00 -0.49180570801E+03  0.49180570804E+03  0.50400001928E-02 0.  1.
    10030    2    1    2    0    0  0.00000000000E+00  0.00000000000E+00 -0.35448915438E+03  0.62912226177E+03  0.51974249362E+03 0.  0.
        3    1    3    3  502    0  0.25217846634E+03  0.62761111025E+02 -0.17682741051E+03  0.31432607154E+03  0.10100000352E+00 0.  1.
       -3    1    3    3    0  502 -0.25217846634E+03 -0.62761111025E+02 -0.17766174387E+03  0.31479619023E+03  0.10100000352E+00 0. -1.
</event>
<event>
 5   0  0.3178149E-01  0.4855435E+03  0.7818609E-02  0.1017623E+00
       -2   -1    0    0    0  501  0.00000000000E+00  0.00000000000E+00  0.34933853279E+03  0.34933853280E+03  0.25500000920E-02 0.  1.
        2   -1    0    0  501    0  0.00000000000E+00  0.00000000000E+00 -0.16871348479E+03  0.16871348481E+03  0.25500000920E-02 0. -1.
    10030    2    1    2    0    0  0.00000000000E+00  0.00000000000E+00  0.18062504800E+03  0.51805201761E+03  0.48554349443E+03 0.  0.
        3    1    3    3  502    0  0.21242369547E+03 -0.72429527581E+02 -0.84497881252E+01  0.22459134441E+03  0.10100000352E+00 0. -1.
       -3    1    3    3    0  502 -0.21242369547E+03  0.72429527581E+02  0.18907483613E+03  0.29346067321E+03  0.10100000352E+00 0.  1.
</event>
<event>
 5   0  0.3187123E-01  0.4930512E+03  0.7818609E-02  0.1015609E+00
       -2   -1    0    0    0  501  0.00000000000E+00  0.00000000000E+00  0.11562480676E+03  0.11562480679E+03  0.25500000920E-02 0. -1.
        2   -1    0    0  501    0  0.00000000000E+00  0.00000000000E+00 -0.52562128718E+03  0.52562128719E+03  0.25500000920E-02 0.  1.
    10030    2    1    2    0    0  0.00000000000E+00  0.00000000000E+00 -0.40999648042E+03  0.64124609398E+03  0.49305115261E+03 0.  0.
        5    1    3    3  502    0 -0.24368565950E+03  0.34862230011E+02 -0.18882229911E+03  0.31028056073E+03  0.46999998093E+01 0. -1.
       -5    1    3    3    0  502  0.24368565950E+03 -0.34862230011E+02 -0.22117418131E+03  0.33096553325E+03  0.46999998093E+01 0.  1.
</event>
<event>
 5   0  0.3111146E-01  0.5247401E+03  0.7818609E-02  0.1007516E+00
        2   -1    0    0  501    0  0.00000000000E+00  0.00000000000E+00  0.46247419818E+02  0.46247419888E+02  0.25500000920E-02 0.  1.
       -2   -1    0    0    0  501  0.00000000000E+00  0.00000000000E+00 -0.14884733328E+04  0.14884733328E+04  0.25500000920E-02 0. -1.
    10030    2    1    2    0    0  0.00000000000E+00  0.00000000000E+00 -0.14422259130E+04  0.15347207527E+04  0.52474013059E+03 0.  0.
        1    1    3    3  502    0  0.61205834990E+01  0.16888641660E+03 -0.13080869534E+04  0.13189585137E+04  0.50400001928E-02 0. -1.
       -1    1    3    3    0  502 -0.61205834990E+01 -0.16888641660E+03 -0.13413895956E+03  0.21576223894E+03  0.50400001928E-02 0.  1.
</event>
<event>
 5   0  0.2013450E-01  0.5111622E+03  0.7818609E-02  0.1010906E+00
       -1   -1    0    0    0  501  0.00000000000E+00  0.00000000000E+00  0.16919543935E+03  0.16919543942E+03  0.50400001928E-02 0. -1.
        1   -1    0    0  501    0  0.00000000000E+00  0.00000000000E+00 -0.38607251357E+03  0.38607251360E+03  0.50400001928E-02 0.  1.
    10030    2    1    2    0    0  0.00000000000E+00  0.00000000000E+00 -0.21687707423E+03  0.55526795302E+03  0.51116223876E+03 0.  0.
        4    1    3    3  502    0 -0.12466536127E+03 -0.20809355967E+03 -0.19585388071E+03  0.31177674283E+03  0.12699999809E+01 0.  1.
       -4    1    3    3    0  502  0.12466536127E+03  0.20809355967E+03 -0.21023193517E+02  0.24349121020E+03  0.12699999809E+01 0. -1.
</event>
<event>
 5   0  0.1984297E-01  0.4993236E+03  0.7818609E-02  0.1013956E+00
        1   -1    0    0  501    0  0.00000000000E+00  0.00000000000E+00  0.10825186741E+03  0.10825186753E+03  0.50400001928E-02 0. -1.
       -1   -1    0    0    0  501  0.00000000000E+00  0.00000000000E+00 -0.57579610695E+03  0.57579610697E+03  0.50400001928E-02 0.  1.
    10030    2    1    2    0    0  0.00000000000E+00  0.00000000000E+00 -0.46754423954E+03  0.68404797450E+03  0.49932355792E+03 0.  0.
        3    1    3    3  502    0 -0.10084702659E+03 -0.57971638479E+02 -0.53640431487E+03  0.54887196399E+03  0.10100000352E+00 0.  1.
       -3    1    3    3    0  502  0.10084702659E+03  0.57971638479E+02  0.68860075333E+02  0.13517601051E+03  0.10100000352E+00 0. -1.
</event>
<event>
 5   0  0.1967161E-01  0.5023025E+03  0.7818609E-02  0.1013180E+00
        1   -1    0    0  501    0  0.00000000000E+00  0.00000000000E+00  0.18483504940E+03  0.18483504947E+03  0.50400001928E-02 0. -1.
       -1   -1    0    0    0  501  0.00000000000E+00  0.00000000000E+00 -0.34126074808E+03  0.34126074811E+03  0.50400001928E-02 0.  1.
    10030    2    1    2    0    0  0.00000000000E+00  0.00000000000E+00 -0.15642569868E+03  0.52609579758E+03  0.50230248758E+03 0.  0.
        1    1    3    3  502    0 -0.17741281248E+03  0.75467487773E+02 -0.24679135302E+03  0.31317186926E+03  0.50400001928E-02 0.  1.
       -1    1    3    3    0  502  0.17741281248E+03 -0.75467487773E+02  0.90365654338E+02  0.21292392832E+03  0.50400001928E-02 0. -1.
</event>
<event>
 5   0  0.3329246E-01  0.5843266E+03  0.7818609E-02  0.9938468E-01
       -2   -1    0    0    0  501  0.00000000000E+00  0.00000000000E+00  0.29390907643E+03  0.29390907644E+03  0.25500000920E-02 0.  1.
        2   -1    0    0  501    0  0.00000000000E+00  0.00000000000E+00 -0.29042785354E+03  0.29042785355E+03  0.25500000920E-02 0. -1.
    10030    2    1    2    0    0  0.00000000000E+00  0.00000000000E+00  0.34812228906E+01  0.58433692999E+03  0.58432656010E+03 0.  0.
        2    1    3    3  502    0 -0.41876780173E+02 -0.28738632984E+03  0.33597336411E+02  0.29235825338E+03  0.25500000920E-02 0. -1.
       -2    1    3    3    0  502  0.41876780173E+02  0.28738632984E+03 -0.30116113520E+02  0.29197867661E+03  0.25500000920E-02 0.  1.
</event>
<event>
 5   0  0.1967161E-01  0.4979144E+03  0.7818609E-02  0.1014325E+00
       -1   -1    0    0    0  501  0.00000000000E+00  0.00000000000E+00  0.97080999213E+02  0.97080999344E+02  0.50400001928E-02 0. -1.
        1   -1    0    0  501    0  0.00000000000E+00  0.00000000000E+00 -0.63843268003E+03  0.63843268005E+03  0.50400001928E-02 0.  1.
    10030    2    1    2    0    0  0.00000000000E+00  0.00000000000E+00 -0.54135168082E+03  0.73551367940E+03  0.49791438044E+03 0.  0.
        1    1    3    3  502    0 -0.13362347606E+03 -0.18657904985E+03 -0.12812359504E+03  0.26283574877E+03  0.50400001928E-02 0. -1.
       -1    1    3    3    0  502  0.13362347606E+03  0.18657904985E+03 -0.41322808578E+03  0.47267793063E+03  0.50400001928E-02 0.  1.
</event>
<event>
 5   0  0.1292375E-01  0.4735940E+03  0.7818609E-02  0.1020911E+00
       -4   -1    0    0    0  501  0.00000000000E+00  0.00000000000E+00  0.47452935410E+02  0.47469927101E+02  0.12699999809E+01 0. -1.
        4   -1    0    0  501    0  0.00000000000E+00  0.00000000000E+00 -0.11814221234E+04  0.11814228061E+04  0.12699999809E+01 0.  1.
    10030    2    1    2    0    0  0.00000000000E+00  0.00000000000E+00 -0.11339691880E+04  0.12288927332E+04  0.47359395075E+03 0.  0.
        4    1    3    3  502    0  0.81910864838E+02 -0.23814325517E+01 -0.11434568296E+04  0.11463900711E+04  0.12699999809E+01 0.  1.
       -4    1    3    3    0  502 -0.81910864838E+02  0.23814325517E+01  0.94876416111E+01  0.82502662034E+02  0.12699999809E+01 0. -1.
</event>
<event>
 5   0  0.2013450E-01  0.5036603E+03  0.7818609E-02  0.1012828E+00
        1   -1    0    0  501    0  0.00000000000E+00  0.00000000000E+00  0.80979789527E+03  0.80979789528E+03  0.50400001928E-02 0. -1.
       -1   -1    0    0    0  501  0.00000000000E+00  0.00000000000E+00 -0.78313875851E+02  0.78313876013E+02  0.50400001928E-02 0.  1.
    10030    2    1    2    0    0  0.00000000000E+00  0.00000000000E+00  0.73148401941E+03  0.88811177129E+03  0.50366025022E+03 0.  0.
        4    1    3    3  502    0  0.10661062418E+02 -0.24491134801E+02  0.80728727811E+03  0.80773005158E+03  0.12699999809E+01 0. -1.
       -4    1    3    3    0  502 -0.10661062418E+02  0.24491134801E+02 -0.75803258691E+02  0.80381719712E+02  0.12699999809E+01 0.  1.
</event>
<event>
 5   0  0.3111146E-01  0.5022959E+03  0.7818609E-02  0.1013181E+00
       -2   -1    0    0    0  501  0.00000000000E+00  0.00000000000E+00  0.46726413525E+02  0.46726413594E+02  0.25500000920E-02 0.  1.
        2   -1    0    0  501    0  0.00000000000E+00  0.00000000000E+00 -0.13498851849E+04  0.13498851849E+04  0.25500000920E-02 0. -1.
    10030    2    1    2    0    0  0.00000000000E+00  0.00000000000E+00 -0.13031587714E+04  0.13966115985E+04  0.50229590247E+03 0.  0.
        1    1    3    3  502    0  0.21455658508E+03 -0.12746660282E+03 -0.57327953872E+03  0.62524530592E+03  0.50400001928E-02 0.  1.
       -1    1    3    3    0  502 -0.21455658508E+03  0.12746660282E+03 -0.72987923265E+03  0.77136629257E+03  0.50400001928E-02 0. -1.
</event>
<event>
 5   0  0.3178149E-01  0.4966113E+03  0.7818609E-02  0.1014667E+00
        2   -1    0    0  501    0  0.00000000000E+00  0.00000000000E+00  0.39523477011E+03  0.39523477012E+03  0.25500000920E-02 0. -1.
       -2   -1    0    0    0  501  0.00000000000E+00  0.00000000000E+00 -0.15599766869E+03  0.15599766871E+03  0.25500000920E-02 0.  1.
    10030    2    1    2    0    0  0.00000000000E+00  0.00000000000E+00  0.23923710142E+03  0.55123243882E+03  0.49661132782E+03 0.  0.
        3    1    3    3  502    0 -0.16269769837E+03  0.28113672151E+02  0.32547494827E+03  0.36495872612E+03  0.10100000352E+00 0. -1.
       -3    1    3    3    0  502  0.16269769837E+03 -0.28113672151E+02 -0.86237846846E+02  0.18627371271E+03  0.10100000352E+00 0.  1.
</event>
<event>
 5   0  0.1292375E-01  0.4339303E+03  0.7818609E-02  0.1032626E+00
       -4   -1    0    0    0  501  0.00000000000E+00  0.00000000000E+00  0.39788844979E+03  0.39789047661E+03  0.12699999809E+01 0. -1.
        4   -1    0    0  501    0  0.00000000000E+00  0.00000000000E+00 -0.11830349744E+03  0.11831031403E+03  0.12699999809E+01 0.  1.
    10030    2    1    2    0    0  0.00000000000E+00  0.00000000000E+00  0.27958495235E+03  0.51620079064E+03  0.43393030624E+03 0.  0.
        3    1    3    3  502    0 -0.77083197497E+02 -0.82666081688E+02 -0.80518129535E+02  0.13877564550E+03  0.10100000352E+00 0.  1.
       -3    1    3    3    0  502  0.77083197497E+02  0.82666081688E+02  0.36010308189E+03  0.37742514514E+03  0.10100000352E+00 0. -1.
</event>
<event>
 5   0  0.1292375E-01  0.5448828E+03  0.7818609E-02  0.1002685E+00
       -3   -1    0    0    0  501  0.00000000000E+00  0.00000000000E+00  0.53188308296E+03  0.53188309255E+03  0.10100000352E+00 0.  1.
        3   -1    0    0  501    0  0.00000000000E+00  0.00000000000E+00 -0.13955004939E+03  0.13955008594E+03  0.10100000352E+00 0. -1.
    10030    2    1    2    0    0  0.00000000000E+00  0.00000000000E+00  0.39233303357E+03  0.67143317848E+03  0.54488283506E+03 0.  0.
        2    1    3    3  502    0  0.12056159182E+02  0.23383505836E+03  0.24532997225E+02  0.23542738467E+03  0.25500000920E-02 0. -1.
       -2    1    3    3    0  502 -0.12056159182E+02 -0.23383505836E+03  0.36780003635E+03  0.43600579381E+03  0.25500000920E-02 0.  1.
</event>
<event>
 5   0  0.1984680E-01  0.4618654E+03  0.7818609E-02  0.1024242E+00
       -1   -1    0    0    0  501  0.00000000000E+00  0.00000000000E+00  0.82463982788E+02  0.82463982942E+02  0.50400001928E-02 0. -1.
        1   -1    0    0  501    0  0.00000000000E+00  0.00000000000E+00 -0.64670542890E+03  0.64670542892E+03  0.50400001928E-02 0.  1.
    10030    2    1    2    0    0  0.00000000000E+00  0.00000000000E+00 -0.56424144611E+03  0.72916941186E+03  0.46186537182E+03 0.  0.
        5    1    3    3  502    0 -0.71024916355E+01 -0.15086970657E+03 -0.64235234057E+01  0.15124637318E+03  0.46999998093E+01 0. -1.
       -5    1    3    3    0  502  0.71024916355E+01  0.15086970657E+03 -0.55781792271E+03  0.57792303868E+03  0.46999998093E+01 0.  1.
</event>
<event>
 5   0  0.3187123E-01  0.4901768E+03  0.7818609E-02  0.1016375E+00
       -2   -1    0    0    0  501  0.00000000000E+00  0.00000000000E+00  0.15779303183E+03  0.15779303185E+03  0.25500000920E-02 0.  1.
        2   -1    0    0  501    0  0.00000000000E+00  0.00000000000E+00 -0.38067792981E+03  0.38067792982E+03  0.25500000920E-02 0. -1.
    10030    2    1    2    0    0  0.00000000000E+00  0.00000000000E+00 -0.22288489798E+03  0.53847096167E+03  0.49017680363E+03 0.  0.
        5    1    3    3  502    0 -0.11344547574E+03  0.20195297008E+03 -0.19926500193E+03  0.30558715464E+03  0.46999998093E+01 0. -1.
       -5    1    3    3    0  502  0.11344547574E+03 -0.20195297008E+03 -0.23619896052E+02  0.23288380703E+03  0.46999998093E+01 0.  1.
</event>
<event>
 5   0  0.3111146E-01  0.5174674E+03  0.7818609E-02  0.1009318E+00
        2   -1    0    0  501    0  0.00000000000E+00  0.00000000000E+00  0.15662144974E+04  0.15662144974E+04  0.25500000920E-02 0. -1.
       -2   -1    0    0    0  501  0.00000000000E+00  0.00000000000E+00 -0.42741992405E+02  0.42741992481E+02  0.25500000920E-02 0.  1.
    10030    2    1    2    0    0  0.00000000000E+00  0.00000000000E+00  0.15234725050E+04  0.16089564899E+04  0.51746740270E+03 0.  0.
        1    1    3    3  502    0  0.16602206319E+03  0.54129253339E+02  0.13553569521E+04  0.13665598301E+04  0.50400001928E-02 0. -1.
       -1    1    3    3    0  502 -0.16602206319E+03 -0.54129253339E+02  0.16811555288E+03  0.24239665979E+03  0.50400001928E-02 0.  1.
</event>
<event>
 5   0  0.1984680E-01  0.4966097E+03  0.7818609E-02  0.1014668E+00
       -1   -1    0    0    0  501  0.00000000000E+00  0.00000000000E+00  0.22677787194E+03  0.22677787199E+03  0.50400001928E-02 0. -1.
        1   -1    0    0  501    0  0.00000000000E+00  0.00000000000E+00 -0.27187529993E+03  0.27187529998E+03  0.50400001928E-02 0.  1.
    10030    2    1    2    0    0  0.00000000000E+00  0.00000000000E+00 -0.45097427997E+02  0.49865317197E+03  0.49660971387E+03 0.  0.
        5    1    3    3  502    0  0.24500348229E+03  0.20985781729E+02 -0.56837472357E+02  0.25242760870E+03  0.46999998093E+01 0.  1.
       -5    1    3    3    0  502 -0.24500348229E+03 -0.20985781729E+02  0.11740044359E+02  0.24622556328E+03  0.46999998093E+01 0. -1.
</event>
<event>
 5   0  0.2000612E-01  0.4980944E+03  0.7818609E-02  0.1014277E+00
        1   -1    0    0  501    0  0.00000000000E+00  0.00000000000E+00  0.34558841900E+03  0.34558841904E+03  0.50400001928E-02 0. -1.
       -1   -1    0    0    0  501  0.00000000000E+00  0.00000000000E+00 -0.17947511196E+03  0.17947511203E+03  0.50400001928E-02 0.  1.
    10030    2    1    2    0    0  0.00000000000E+00  0.00000000000E+00  0.16611330705E+03  0.52506353107E+03  0.49809444976E+03 0.  0.
        2    1    3    3  502    0 -0.18640187632E+02  0.19404590866E+03  0.24644309851E+03  0.31422201081E+03  0.25500000920E-02 0. -1.
       -2    1    3    3    0  502  0.18640187632E+02 -0.19404590866E+03 -0.80329791468E+02  0.21084152026E+03  0.25500000920E-02 0.  1.
</event>
<event>
 5   0  0.3117389E-01  0.4652815E+03  0.7818609E-02  0.1023260E+00
        2   -1    0    0  501    0  0.00000000000E+00  0.00000000000E+00  0.76660528585E+03  0.76660528585E+03  0.25500000920E-02 0. -1.
       -2   -1    0    0    0  501  0.00000000000E+00  0.00000000000E+00 -0.70599203837E+02  0.70599203884E+02  0.25500000920E-02 0.  1.
    10030    2    1    2    0    0  0.00000000000E+00  0.00000000000E+00  0.69600608201E+03  0.83720448974E+03  0.46528151848E+03 0.  0.
        4    1    3    3  502    0 -0.17500304981E+02 -0.41262910913E+02 -0.62750553839E+02  0.77124142774E+02  0.12699999809E+01 0.  1.
       -4    1    3    3    0  502  0.17500304981E+02  0.41262910913E+02  0.75875663585E+03  0.76008034696E+03  0.12699999809E+01 0. -1.
</event>
<event>
 5   0  0.3178149E-01  0.4961033E+03  0.7818609E-02  0.1014801E+00
       -2   -1    0    0    0  501  0.00000000000E+00  0.00000000000E+00  0.51758870958E+03  0.51758870958E+03  0.25500000920E-02 0. -1.
        2   -1    0    0  501    0  0.00000000000E+00  0.00000000000E+00 -0.11887743453E+03  0.11887743456E+03  0.25500000920E-02 0.  1.
    10030    2    1    2    0    0  0.00000000000E+00  0.00000000000E+00  0.39871127504E+03  0.63646614414E+03  0.49610328743E+03 0.  0.
        3    1    3    3  502    0  0.15925820769E+03  0.40656114731E+02 -0.38984823546E+02  0.16892579155E+03  0.10100000352E+00 0.  1.
       -3    1    3    3    0  502 -0.15925820769E+03 -0.40656114731E+02  0.43769609859E+03  0.46754035259E+03  0.10100000352E+00 0. -1.
</event>
<event>
 5   0  0.3187123E-01  0.5038993E+03  0.7818609E-02  0.1012766E+00
        2   -1    0    0  501    0  0.00000000000E+00  0.00000000000E+00  0.49165728997E+03  0.49165728997E+03  0.25500000920E-02 0. -1.
       -2   -1    0    0    0  501  0.00000000000E+00  0.00000000000E+00 -0.12911153368E+03  0.12911153371E+03  0.25500000920E-02 0.  1.
    10030    2    1    2    0    0  0.00000000000E+00  0.00000000000E+00  0.36254575628E+03  0.62076882368E+03  0.50389930249E+03 0.  0.
        5    1    3    3  502    0 -0.10422313346E+03  0.28445321848E+02 -0.99068932778E+02  0.14665722391E+03  0.46999998093E+01 0.  1.
       -5    1    3    3    0  502  0.10422313346E+03 -0.28445321848E+02  0.46161468906E+03  0.47411159977E+03  0.46999998093E+01 0. -1.
</event>
<event>
 5   0  0.3187123E-01  0.4943724E+03  0.7818609E-02  0.1015258E+00
       -2   -1    0    0    0  501  0.00000000000E+00  0.00000000000E+00  0.37921941058E+02  0.37921941144E+02  0.25500000920E-02 0. -1.
        2   -1    0    0  501    0  0.00000000000E+00  0.00000000000E+00 -0.16112312471E+04  0.16112312471E+04  0.25500000920E-02 0.  1.
    10030    2    1    2    0    0  0.00000000000E+00  0.00000000000E+00 -0.15733093060E+04  0.16491531882E+04  0.49437239589E+03 0.  0.
        5    1    3    3  502    0  0.10908380617E+03 -0.59815295186E+02 -0.14990116325E+04  0.15041725668E+04  0.46999998093E+01 0.  1.
       -5    1    3    3    0  502 -0.10908380617E+03  0.59815295186E+02 -0.74297673537E+02  0.14498062145E+03  0.46999998093E+01 0. -1.
</event>
<event>
 5   0  0.3187123E-01  0.5192820E+03  0.7818609E-02  0.1008865E+00
        2   -1    0    0  501    0  0.00000000000E+00  0.00000000000E+00  0.65061690764E+03  0.65061690765E+03  0.25500000920E-02 0. -1.
       -2   -1    0    0    0  501  0.00000000000E+00  0.00000000000E+00 -0.10361467602E+03  0.10361467605E+03  0.25500000920E-02 0.  1.
    10030    2    1    2    0    0  0.00000000000E+00  0.00000000000E+00  0.54700223163E+03  0.75423158370E+03  0.51928204325E+03 0.  0.
        5    1    3    3  502    0  0.25732570728E+03  0.18043226537E+02  0.23117289212E+03  0.34641748470E+03  0.46999998093E+01 0.  1.
       -5    1    3    3    0  502 -0.25732570728E+03 -0.18043226537E+02  0.31582933950E+03  0.40781409900E+03  0.46999998093E+01 0. -1.
</event>
<event>
 5   0  0.1984680E-01  0.4739401E+03  0.7818609E-02  0.1020814E+00
       -1   -1    0    0    0  501  0.00000000000E+00  0.00000000000E+00  0.31558407391E+03  0.31558407395E+03  0.50400001928E-02 0. -1.
        1   -1    0    0  501    0  0.00000000000E+00  0.00000000000E+00 -0.17793931912E+03  0.17793931919E+03  0.50400001928E-02 0.  1.
    10030    2    1    2    0    0  0.00000000000E+00  0.00000000000E+00  0.13764475479E+03  0.49352339315E+03  0.47394014502E+03 0.  0.
        5    1    3    3  502    0 -0.87138377359E+02  0.15369097759E+03  0.23320164468E+03  0.29260743409E+03  0.46999998093E+01 0. -1.
       -5    1    3    3    0  502  0.87138377359E+02 -0.15369097759E+03 -0.95556889890E+02  0.20091595906E+03  0.46999998093E+01 0.  1.
</event>
<event>
 5   0  0.3111146E-01  0.4998587E+03  0.7818609E-02  0.1013816E+00
        2   -1    0    0  501    0  0.00000000000E+00  0.00000000000E+00  0.81749585111E+03  0.81749585111E+03  0.25500000920E-02 0.  1.
       -2   -1    0    0    0  501  0.00000000000E+00  0.00000000000E+00 -0.76409769151E+02  0.76409769194E+02  0.25500000920E-02 0. -1.
    10030    2    1    2    0    0  0.00000000000E+00  0.00000000000E+00  0.74108608196E+03  0.89390562031E+03  0.49985865717E+03 0.  0.
        1    1    3    3  502    0 -0.15634826512E+03  0.17229664313E+03  0.53379742048E+03  0.58229768966E+03  0.50400001928E-02 0.  1.
       -1    1    3    3    0  502  0.15634826512E+03 -0.17229664313E+03  0.20728866148E+03  0.31160793065E+03  0.50400001928E-02 0. -1.
</event>
<event>
 5   0  0.1292375E-01  0.5007270E+03  0.7818609E-02  0.1013589E+00
       -4   -1    0    0    0  501  0.00000000000E+00  0.00000000000E+00  0.15471219098E+03  0.15471740348E+03  0.12699999809E+01 0.  1.
        4   -1    0    0  501    0  0.00000000000E+00  0.00000000000E+00 -0.40513852194E+03  0.40514051249E+03  0.12699999809E+01 0. -1.
    10030    2    1    2    0    0  0.00000000000E+00  0.00000000000E+00 -0.25042633096E+03  0.55985791597E+03  0.50072701029E+03 0.  0.
        3    1    3    3  502    0 -0.17220231021E+03 -0.27828713390E+02 -0.32601480725E+03  0.36974820849E+03  0.10100000352E+00 0.  1.
       -3    1    3    3    0  502  0.17220231021E+03  0.27828713390E+02  0.75588476297E+02  0.19010970748E+03  0.10100000352E+00 0. -1.
</event>
<event>
 5   0  0.2000612E-01  0.4971058E+03  0.7818609E-02  0.1014537E+00
        1   -1    0    0  501    0  0.00000000000E+00  0.00000000000E+00  0.11078651384E+04  0.11078651384E+04  0.50400001928E-02 0.  1.
       -1   -1    0    0    0  501  0.00000000000E+00  0.00000000000E+00 -0.55763585025E+02  0.55763585253E+02  0.50400001928E-02 0. -1.
    10030    2    1    2    0    0  0.00000000000E+00  0.00000000000E+00  0.10521015534E+04  0.11636287236E+04  0.49710575124E+03 0.  0.
        2    1    3    3  502    0 -0.21697727223E+03 -0.21718952871E+02  0.24683964668E+03  0.32936402468E+03  0.25500000920E-02 0. -1.
       -2    1    3    3    0  502  0.21697727223E+03  0.21718952871E+02  0.80526190668E+03  0.83426469896E+03  0.25500000920E-02 0.  1.
</event>
<event>
 5   0  0.1984297E-01  0.4959833E+03  0.7818609E-02  0.1014833E+00
        1   -1    0    0  501    0  0.00000000000E+00  0.00000000000E+00  0.13806277330E+03  0.13806277339E+03  0.50400001928E-02 0. -1.
       -1   -1    0    0    0  501  0.00000000000E+00  0.00000000000E+00 -0.44544854369E+03  0.44544854372E+03  0.50400001928E-02 0.  1.
    10030    2    1    2    0    0  0.00000000000E+00  0.00000000000E+00 -0.30738577039E+03  0.58351131711E+03  0.49598331157E+03 0.  0.
        3    1    3    3  502    0  0.16653826947E+03 -0.40682636143E+02 -0.36450757912E+03  0.40280995211E+03  0.10100000352E+00 0.  1.
       -3    1    3    3    0  502 -0.16653826947E+03  0.40682636143E+02  0.57121808727E+02  0.18070136500E+03  0.10100000352E+00 0. -1.
</event>
<event>
 5   0  0.3111146E-01  0.5003300E+03  0.7818609E-02  0.1013693E+00
       -2   -1    0    0    0  501  0.00000000000E+00  0.00000000000E+00  0.16738055466E+03  0.16738055468E+03  0.25500000920E-02 0.  1.
        2   -1    0    0  501    0  0.00000000000E+00  0.00000000000E+00 -0.37389366574E+03  0.37389366575E+03  0.25500000920E-02 0. -1.
    10030    2    1    2    0    0  0.00000000000E+00  0.00000000000E+00 -0.20651311107E+03  0.54127422043E+03  0.50033000775E+03 0.  0.
        1    1    3    3  502    0  0.40242733325E+02 -0.12411770523E+03  0.12765325623E+03  0.18253776647E+03  0.50400001928E-02 0.  1.
       -1    1    3    3    0  502 -0.40242733325E+02  0.12411770523E+03 -0.33416636730E+03  0.35873645396E+03  0.50400001928E-02 0. -1.
</event>
<event>
 5   0  0.2013450E-01  0.5031763E+03  0.7818609E-02  0.1012953E+00
        1   -1    0    0  501    0  0.00000000000E+00  0.00000000000E+00  0.35319425500E+03  0.35319425504E+03  0.50400001928E-02 0. -1.
       -1   -1    0    0    0  501  0.00000000000E+00  0.00000000000E+00 -0.17921183543E+03  0.17921183550E+03  0.50400001928E-02 0.  1.
    10030    2    1    2    0    0  0.00000000000E+00  0.00000000000E+00  0.17398241957E+03  0.53240609053E+03  0.50317627420E+03 0.  0.
        4    1    3    3  502    0  0.14122049646E+03 -0.11054462313E+02  0.30698641102E+03  0.33809421647E+03  0.12699999809E+01 0. -1.
       -4    1    3    3    0  502 -0.14122049646E+03  0.11054462313E+02 -0.13300399145E+03  0.19431187406E+03  0.12699999809E+01 0.  1.
</event>
<event>
 5   0  0.2013450E-01  0.5036576E+03  0.7818609E-02  0.1012829E+00
       -1   -1    0    0    0  501  0.00000000000E+00  0.00000000000E+00  0.69451878417E+02  0.69451878600E+02  0.50400001928E-02 0.  1.
        1   -1    0    0  501    0  0.00000000000E+00  0.00000000000E+00 -0.91311792169E+03  0.91311792171E+03  0.50400001928E-02 0. -1.
    10030    2    1    2    0    0  0.00000000000E+00  0.00000000000E+00 -0.84366604328E+03  0.98256980031E+03  0.50365764156E+03 0.  0.
        4    1    3    3  502    0  0.56096677681E+02 -0.10194120712E+03 -0.85752486642E+03  0.86538393583E+03  0.12699999809E+01 0. -1.
       -4    1    3    3    0  502 -0.56096677681E+02  0.10194120712E+03  0.13858823146E+02  0.11718586448E+03  0.12699999809E+01 0.  1.
</event>
<event>
 5   0  0.1984297E-01  0.5209790E+03  0.7818609E-02  0.1008444E+00
       -1   -1    0    0    0  501  0.00000000000E+00  0.00000000000E+00  0.29588836106E+03  0.29588836110E+03  0.50400001928E-02 0. -1.
        1   -1    0    0  501    0  0.00000000000E+00  0.00000000000E+00 -0.22932564001E+03  0.22932564007E+03  0.50400001928E-02 0.  1.
    10030    2    1    2    0    0  0.00000000000E+00  0.00000000000E+00  0.66562721049E+02  0.52521400117E+03  0.52097903143E+03 0.  0.
        3    1    3    3  502    0 -0.10248855470E+03 -0.13365261659E+03 -0.16704947632E+03  0.23721817702E+03  0.10100000352E+00 0.  1.
       -3    1    3    3    0  502  0.10248855470E+03  0.13365261659E+03  0.23361219737E+03  0.28799582415E+03  0.10100000352E+00 0. -1.
</event>
<event>
 5   0  0.3329246E-01  0.5035585E+03  0.7818609E-02  0.1012854E+00
       -2   -1    0    0    0  501  0.00000000000E+00  0.00000000000E+00  0.29283949986E+03  0.29283949987E+03  0.25500000920E-02 0. -1.
        2   -1    0    0  501    0  0.00000000000E+00  0.00000000000E+00 -0.21647623724E+03  0.21647623725E+03  0.25500000920E-02 0.  1.
    10030    2    1    2    0    0  0.00000000000E+00  0.00000000000E+00  0.76363262620E+02  0.50931573712E+03  0.50355850921E+03 0.  0.
        2    1    3    3  502    0  0.12395394063E+03 -0.53096202123E+02 -0.17687341615E+03  0.22241400906E+03  0.25500000920E-02 0.  1.
       -2    1    3    3    0  502 -0.12395394063E+03  0.53096202123E+02  0.25323667877E+03  0.28690172806E+03  0.25500000920E-02 0. -1.
</event>
<event>
 5   0  0.3117389E-01  0.5298929E+03  0.7818609E-02  0.1006258E+00
        2   -1    0    0  501    0  0.00000000000E+00  0.00000000000E+00  0.18455547508E+03  0.18455547509E+03  0.25500000920E-02 0. -1.
       -2   -1    0    0    0  501  0.00000000000E+00  0.00000000000E+00 -0.38035510058E+03  0.38035510058E+03  0.25500000920E-02 0.  1.
    10030    2    1    2    0    0  0.00000000000E+00  0.00000000000E+00 -0.19579962550E+03  0.56491057568E+03  0.52989288084E+03 0.  0.
        4    1    3    3  502    0  0.12505027503E+02  0.23331190379E+03 -0.23107157327E+03  0.32861300193E+03  0.12699999809E+01 0.  1.
       -4    1    3    3    0  502 -0.12505027503E+02 -0.23331190379E+03  0.35271947774E+02  0.23629757375E+03  0.12699999809E+01 0. -1.
</event>
<event>
 5   0  0.3187123E-01  0.5011399E+03  0.7818609E-02  0.1013482E+00
        2   -1    0    0  501    0  0.00000000000E+00  0.00000000000E+00  0.14868390721E+04  0.14868390721E+04  0.25500000920E-02 0.  1.
       -2   -1    0    0    0  501  0.00000000000E+00  0.00000000000E+00 -0.42227362808E+02  0.42227362885E+02  0.25500000920E-02 0. -1.
    10030    2    1    2    0    0  0.00000000000E+00  0.00000000000E+00  0.14446117093E+04  0.15290664350E+04  0.50113987267E+03 0.  0.
        5    1    3    3  502    0 -0.68706639836E+02  0.21513726229E+03  0.10531659940E+04  0.10771190022E+04  0.46999998093E+01 0.  1.
       -5    1    3    3    0  502  0.68706639836E+02 -0.21513726229E+03  0.39144571525E+03  0.45194743275E+03  0.46999998093E+01 0. -1.
</event>
<event>
 5   0  0.3178149E-01  0.4928782E+03  0.7818609E-02  0.1015655E+00
        2   -1    0    0  501    0  0.00000000000E+00  0.00000000000E+00  0.24739791037E+04  0.24739791037E+04  0.25500000920E-02 0.  1.
       -2   -1    0    0    0  501  0.00000000000E+00  0.00000000000E+00 -0.24548400148E+02  0.24548400280E+02  0.25500000920E-02 0. -1.
    10030    2    1    2    0    0  0.00000000000E+00  0.00000000000E+00  0.24494307036E+04  0.24985275040E+04  0.49287819657E+03 0.  0.
        3    1    3    3  502    0  0.92014142609E+02  0.22810676314E+03  0.13020811431E+04  0.13251092828E+04  0.10100000352E+00 0. -1.
       -3    1    3    3    0  502 -0.92014142609E+02 -0.22810676314E+03  0.11473495605E+04  0.11734182212E+04  0.10100000352E+00 0.  1.
</event>
<event>
 5   0  0.3187123E-01  0.4956664E+03  0.7818609E-02  0.1014916E+00
        2   -1    0    0  501    0  0.00000000000E+00  0.00000000000E+00  0.91558194255E+03  0.91558194255E+03  0.25500000920E-02 0.  1.
       -2   -1    0    0    0  501  0.00000000000E+00  0.00000000000E+00 -0.67084436297E+02  0.67084436346E+02  0.25500000920E-02 0. -1.
    10030    2    1    2    0    0  0.00000000000E+00  0.00000000000E+00  0.84849750625E+03  0.98266637889E+03  0.49566641413E+03 0.  0.
        5    1    3    3  502    0 -0.12861092338E+03 -0.73833258265E+02  0.81780225533E+03  0.83115265653E+03  0.46999998093E+01 0.  1.
       -5    1    3    3    0  502  0.12861092338E+03  0.73833258265E+02  0.30695250921E+02  0.15151372237E+03  0.46999998093E+01 0. -1.
</event>
<event>
 5   0  0.3329246E-01  0.4960250E+03  0.7818609E-02  0.1014822E+00
       -2   -1    0    0    0  501  0.00000000000E+00  0.00000000000E+00  0.95258024770E+02  0.95258024804E+02  0.25500000920E-02 0.  1.
        2   -1    0    0  501    0  0.00000000000E+00  0.00000000000E+00 -0.64572206420E+03  0.64572206420E+03  0.25500000920E-02 0. -1.
    10030    2    1    2    0    0  0.00000000000E+00  0.00000000000E+00 -0.55046403943E+03  0.74098008901E+03  0.49602503324E+03 0.  0.
        2    1    3    3  502    0  0.10158335240E+03  0.90537180409E+02 -0.58497902857E+03  0.60059688843E+03  0.25500000920E-02 0. -1.
       -2    1    3    3    0  502 -0.10158335240E+03 -0.90537180409E+02  0.34514989140E+02  0.14038320058E+03  0.25500000920E-02 0.  1.
</event>
<event>
 5   0  0.1967161E-01  0.4891423E+03  0.7818609E-02  0.1016652E+00
        1   -1    0    0  501    0  0.00000000000E+00  0.00000000000E+00  0.68065930787E+03  0.68065930789E+03  0.50400001928E-02 0. -1.
       -1   -1    0    0    0  501  0.00000000000E+00  0.00000000000E+00 -0.87878106876E+02  0.87878107021E+02  0.50400001928E-02 0.  1.
    10030    2    1    2    0    0  0.00000000000E+00  0.00000000000E+00  0.59278120099E+03  0.76853741491E+03  0.48914231657E+03 0.  0.
        1    1    3    3  502    0  0.16202306845E+03  0.18714626464E+02  0.10047942849E+02  0.16340952584E+03  0.50400001928E-02 0. -1.
       -1    1    3    3    0  502 -0.16202306845E+03 -0.18714626464E+02  0.58273325814E+03  0.60512788907E+03  0.50400001928E-02 0.  1.
</event>
<event>
 5   0  0.2013450E-01  0.4311518E+03  0.7818609E-02  0.1033497E+00
       -1   -1    0    0    0  501  0.00000000000E+00  0.00000000000E+00  0.85372051420E+02  0.85372051569E+02  0.50400001928E-02 0.  1.
        1   -1    0    0  501    0  0.00000000000E+00  0.00000000000E+00 -0.54435802446E+03  0.54435802448E+03  0.50400001928E-02 0. -1.
    10030    2    1    2    0    0  0.00000000000E+00  0.00000000000E+00 -0.45898597304E+03  0.62973007605E+03  0.43115176590E+03 0.  0.
        4    1    3    3  502    0 -0.77954468852E+02  0.67119777461E+01  0.63895319335E+02  0.10102561355E+03  0.12699999809E+01 0.  1.
       -4    1    3    3    0  502  0.77954468852E+02 -0.67119777461E+01 -0.52288129237E+03  0.52870446250E+03  0.12699999809E+01 0. -1.
</event>
<event>
 5   0  0.3117389E-01  0.4701078E+03  0.7818609E-02  0.1021890E+00
        2   -1    0    0  501    0  0.00000000000E+00  0.00000000000E+00  0.54486318050E+03  0.54486318051E+03  0.25500000920E-02 0.  1.
       -2   -1    0    0    0  501  0.00000000000E+00  0.00000000000E+00 -0.10140220860E+03  0.10140220863E+03  0.25500000920E-02 0. -1.
    10030    2    1    2    0    0  0.00000000000E+00  0.00000000000E+00  0.44346097190E+03  0.64626538914E+03  0.47010777446E+03 0.  0.
        4    1    3    3  502    0  0.14200034647E+03  0.61127818805E+02 -0.21668318912E+02  0.15611482176E+03  0.12699999809E+01 0. -1.
       -4    1    3    3    0  502 -0.14200034647E+03 -0.61127818805E+02  0.46512929081E+03  0.49015056738E+03  0.12699999809E+01 0.  1.
</event>
<event>
 5   0  0.3117389E-01  0.5061150E+03  0.7818609E-02  0.1012195E+00
       -2   -1    0    0    0  501  0.00000000000E+00  0.00000000000E+00  0.71747692764E+02  0.71747692809E+02  0.25500000920E-02 0. -1.
        2   -1    0    0  501    0  0.00000000000E+00  0.00000000000E+00 -0.89254567599E+03  0.89254567599E+03  0.25500000920E-02 0.  1.
    10030    2    1    2    0    0  0.00000000000E+00  0.00000000000E+00 -0.82079798322E+03  0.96429336880E+03  0.50611497888E+03 0.  0.
        4    1    3    3  502    0 -0.14308435598E+02  0.24128586194E+03 -0.55314136992E+03  0.60364773380E+03  0.12699999809E+01 0.  1.
       -4    1    3    3    0  502  0.14308435598E+02 -0.24128586194E+03 -0.26765661330E+03  0.36064563500E+03  0.12699999809E+01 0. -1.
</event>
<event>
 5   0  0.2000612E-01  0.4161198E+03  0.7818609E-02  0.1038337E+00
       -1   -1    0    0    0  501  0.00000000000E+00  0.00000000000E+00  0.48937453865E+02  0.48937454124E+02  0.50400001928E-02 0. -1.
        1   -1    0    0  501    0  0.00000000000E+00  0.00000000000E+00 -0.88457635182E+03  0.88457635184E+03  0.50400001928E-02 0.  1.
    10030    2    1    2    0    0  0.00000000000E+00  0.00000000000E+00 -0.83563889796E+03  0.93351380596E+03  0.41611976418E+03 0.  0.
        2    1    3    3  502    0  0.15660136204E+03  0.94237733597E+02 -0.19478462925E+03  0.26710632495E+03  0.25500000920E-02 0. -1.
       -2    1    3    3    0  502 -0.15660136204E+03 -0.94237733597E+02 -0.64085426870E+03  0.66640748101E+03  0.25500000920E-02 0.  1.
</event>
<event>
 5   0  0.1292375E-01  0.4880366E+03  0.7818609E-02  0.1016950E+00
        4   -1    0    0  501    0  0.00000000000E+00  0.00000000000E+00  0.35497615116E+03  0.35497842300E+03  0.12699999809E+01 0.  1.
       -4   -1    0    0    0  501  0.00000000000E+00  0.00000000000E+00 -0.16773822684E+03  0.16774303456E+03  0.12699999809E+01 0. -1.
    10030    2    1    2    0    0  0.00000000000E+00  0.00000000000E+00  0.18723792432E+03  0.52272145756E+03  0.48803655794E+03 0.  0.
        1    1    3    3  502    0  0.24313032014E+02 -0.12761470197E+03  0.31486248501E+03  0.34060977699E+03  0.50400001928E-02 0.  1.
       -1    1    3    3    0  502 -0.24313032014E+02  0.12761470197E+03 -0.12762456069E+03  0.18211168057E+03  0.50400001928E-02 0. -1.
</event>
<event>
 5   0  0.3329246E-01  0.4988674E+03  0.7818609E-02  0.1014075E+00
        2   -1    0    0  501    0  0.00000000000E+00  0.00000000000E+00  0.66185913190E+03  0.66185913190E+03  0.25500000920E-02 0.  1.
       -2   -1    0    0    0  501  0.00000000000E+00  0.00000000000E+00 -0.94003660613E+02  0.94003660648E+02  0.25500000920E-02 0. -1.
    10030    2    1    2    0    0  0.00000000000E+00  0.00000000000E+00  0.56785547129E+03  0.75586279255E+03  0.49886744221E+03 0.  0.
        2    1    3    3  502    0  0.24185402731E+03 -0.33799721167E+02  0.36090891840E+03  0.43576488966E+03  0.25500000920E-02 0.  1.
       -2    1    3    3    0  502 -0.24185402731E+03  0.33799721167E+02  0.20694655289E+03  0.32009790289E+03  0.25500000920E-02 0. -1.
</event>
<event>
 5   0  0.3178149E-01  0.4980474E+03  0.7818609E-02  0.1014290E+00
        2   -1    0    0  501    0  0.00000000000E+00  0.00000000000E+00  0.10525786663E+04  0.10525786663E+04  0.25500000920E-02 0.  1.
       -2   -1    0    0    0  501  0.00000000000E+00  0.00000000000E+00 -0.58915130036E+02  0.58915130091E+02  0.25500000920E-02 0. -1.
    10030    2    1    2    0    0  0.00000000000E+00  0.00000000000E+00  0.99366353627E+03  0.11114937964E+04  0.49804742357E+03 0.  0.
        3    1    3    3  502    0 -0.31279735414E+02 -0.12297262116E+03  0.18642331493E+02  0.12825066911E+03  0.10100000352E+00 0. -1.
       -3    1    3    3    0  502  0.31279735414E+02  0.12297262116E+03  0.97502120478E+03  0.98324312730E+03  0.10100000352E+00 0.  1.
</event>
<event>
 5   0  0.1292375E-01  0.4976235E+03  0.7818609E-02  0.1014401E+00
        3   -1    0    0  501    0  0.00000000000E+00  0.00000000000E+00  0.52670385282E+03  0.52670386250E+03  0.10100000352E+00 0. -1.
       -3   -1    0    0    0  501  0.00000000000E+00  0.00000000000E+00 -0.11753712765E+03  0.11753717104E+03  0.10100000352E+00 0.  1.
    10030    2    1    2    0    0  0.00000000000E+00  0.00000000000E+00  0.40916672517E+03  0.64424103354E+03  0.49762345233E+03 0.  0.
        3    1    3    3  502    0  0.58361464960E+02 -0.52740944830E+02  0.51018207941E+03  0.51621064712E+03  0.10100000352E+00 0. -1.
       -3    1    3    3    0  502 -0.58361464960E+02  0.52740944830E+02 -0.10101535424E+03  0.12803038642E+03  0.10100000352E+00 0.  1.
</event>
<event>
 5   0  0.1292375E-01  0.4577972E+03  0.7818609E-02  0.1025422E+00
       -3   -1    0    0    0  501  0.00000000000E+00  0.00000000000E+00  0.23393992057E+03  0.23393994237E+03  0.10100000352E+00 0.  1.
        3   -1    0    0  501    0  0.00000000000E+00  0.00000000000E+00 -0.22396587935E+03  0.22396590212E+03  0.10100000352E+00 0. -1.
    10030    2    1    2    0    0  0.00000000000E+00  0.00000000000E+00  0.99740412239E+01  0.45790584449E+03  0.45779720502E+03 0.  0.
        4    1    3    3  502    0 -0.12170636124E+03 -0.41713102767E+02  0.19434791577E+03  0.23307755485E+03  0.12699999809E+01 0.  1.
       -4    1    3    3    0  502  0.12170636124E+03  0.41713102767E+02 -0.18437387455E+03  0.22482828964E+03  0.12699999809E+01 0. -1.
</event>
<event>
 5   0  0.3329246E-01  0.5037438E+03  0.7818609E-02  0.1012806E+00
        2   -1    0    0  501    0  0.00000000000E+00  0.00000000000E+00  0.37083506241E+03  0.37083506241E+03  0.25500000920E-02 0.  1.
       -2   -1    0    0    0  501  0.00000000000E+00  0.00000000000E+00 -0.17107190517E+03  0.17107190519E+03  0.25500000920E-02 0. -1.
    10030    2    1    2    0    0  0.00000000000E+00  0.00000000000E+00  0.19976315724E+03  0.54190696760E+03  0.50374382631E+03 0.  0.
        2    1    3    3  502    0 -0.62890650461E+02 -0.68131567856E+02 -0.15204436416E+03  0.17808602734E+03  0.25500000920E-02 0. -1.
       -2    1    3    3    0  502  0.62890650461E+02  0.68131567856E+02  0.35180752140E+03  0.36382094026E+03  0.25500000920E-02 0.  1.
</event>
<event>
 5   0  0.3111146E-01  0.4977209E+03  0.7818609E-02  0.1014376E+00
       -2   -1    0    0    0  501  0.00000000000E+00  0.00000000000E+00  0.80813611316E+02  0.80813611356E+02  0.25500000920E-02 0.  1.
        2   -1    0    0  501    0  0.00000000000E+00  0.00000000000E+00 -0.76635014450E+03  0.76635014450E+03  0.25500000920E-02 0. -1.
    10030    2    1    2    0    0  0.00000000000E+00  0.00000000000E+00 -0.68553653318E+03  0.84716375586E+03  0.49772089660E+03 0.  0.
        1    1    3    3  502    0 -0.20887842232E+02 -0.18281136312E+03 -0.57572467030E+02  0.19279752442E+03  0.50400001928E-02 0.  1.
       -1    1    3    3    0  502  0.20887842232E+02  0.18281136312E+03 -0.62796406615E+03  0.65436623143E+03  0.50400001928E-02 0. -1.
</event>
<event>
 5   0  0.1984297E-01  0.4985812E+03  0.7818609E-02  0.1014150E+00
        1   -1    0    0  501    0  0.00000000000E+00  0.00000000000E+00  0.73831387105E+02  0.73831387277E+02  0.50400001928E-02 0.  1.
       -1   -1    0    0    0  501  0.00000000000E+00  0.00000000000E+00 -0.84172615278E+03  0.84172615279E+03  0.50400001928E-02 0. -1.
    10030    2    1    2    0    0  0.00000000000E+00  0.00000000000E+00 -0.76789476567E+03  0.91555754007E+03  0.49858122511E+03 0.  0.
        3    1    3    3  502    0 -0.24794442218E+03 -0.11220676366E+02 -0.34113856727E+03  0.42187423759E+03  0.10100000352E+00 0.  1.
       -3    1    3    3    0  502  0.24794442218E+03  0.11220676366E+02 -0.42675619841E+03  0.49368330248E+03  0.10100000352E+00 0. -1.
</event>
<event>
 5   0  0.3187123E-01  0.5058507E+03  0.7818609E-02  0.1012263E+00
        2   -1    0    0  501    0  0.00000000000E+00  0.00000000000E+00  0.12285733881E+04  0.12285733881E+04  0.25500000920E-02 0. -1.
       -2   -1    0    0    0  501  0.00000000000E+00  0.00000000000E+00 -0.52069518495E+02  0.52069518558E+02  0.25500000920E-02 0.  1.
    10030    2    1    2    0    0  0.00000000000E+00  0.00000000000E+00  0.11765038696E+04  0.12806429066E+04  0.50585066885E+03 0.  0.
        5    1    3    3  502    0 -0.14573583879E+03  0.18962482098E+03  0.38021420226E+03  0.44920088717E+03  0.46999998093E+01 0.  1.
       -5    1    3    3    0  502  0.14573583879E+03 -0.18962482098E+03  0.79628966730E+03  0.83144201944E+03  0.46999998093E+01 0. -1.
</event>
<event>
 5   0  0.3117389E-01  0.4779920E+03  0.7818609E-02  0.1019688E+00
       -2   -1    0    0    0  501  0.00000000000E+00  0.00000000000E+00  0.17271205943E+03  0.17271205945E+03  0.25500000920E-02 0.  1.
        2   -1    0    0  501    0  0.00000000000E+00  0.00000000000E+00 -0.33071860806E+03  0.33071860807E+03  0.25500000920E-02 0. -1.
    10030    2    1    2    0    0  0.00000000000E+00  0.00000000000E+00 -0.15800654863E+03  0.50343066752E+03  0.47799201624E+03 0.  0.
        4    1    3    3  502    0  0.12870624546E+03  0.12324966378E+03 -0.24673229865E+03  0.30435869848E+03  0.12699999809E+01 0.  1.
       -4    1    3    3    0  502 -0.12870624546E+03 -0.12324966378E+03  0.88725750022E+02  0.19907196904E+03  0.12699999809E+01 0. -1.
</event>
<event>
 5   0  0.3329246E-01  0.5083011E+03  0.7818609E-02  0.1011635E+00
        2   -1    0    0  501    0  0.00000000000E+00  0.00000000000E+00  0.26793336026E+04  0.26793336026E+04  0.25500000920E-02 0.  1.
       -2   -1    0    0    0  501  0.00000000000E+00  0.00000000000E+00 -0.24107678394E+02  0.24107678528E+02  0.25500000920E-02 0. -1.
    10030    2    1    2    0    0  0.00000000000E+00  0.00000000000E+00  0.26552259242E+04  0.27034412811E+04  0.50830114296E+03 0.  0.
        2    1    3    3  502    0  0.36207645336E+02 -0.18444334427E+03  0.22374196717E+04  0.22453011220E+04  0.25500000920E-02 0.  1.
       -2    1    3    3    0  502 -0.36207645336E+02  0.18444334427E+03  0.41780625243E+03  0.45814015912E+03  0.25500000920E-02 0. -1.
</event>
<event>
 5   0  0.1984297E-01  0.4831498E+03  0.7818609E-02  0.1018273E+00
       -1   -1    0    0    0  501  0.00000000000E+00  0.00000000000E+00  0.10602133580E+03  0.10602133592E+03  0.50400001928E-02 0.  1.
        1   -1    0    0  501    0  0.00000000000E+00  0.00000000000E+00 -0.55044044864E+03  0.55044044867E+03  0.50400001928E-02 0. -1.
    10030    2    1    2    0    0  0.00000000000E+00  0.00000000000E+00 -0.44441911284E+03  0.65646178458E+03  0.48314979743E+03 0.  0.
        3    1    3    3  502    0  0.99088530205E+02 -0.84133783371E+02  0.54452488241E+02  0.14093301245E+03  0.10100000352E+00 0.  1.
       -3    1    3    3    0  502 -0.99088530205E+02  0.84133783371E+02 -0.49887160109E+03  0.51552877213E+03  0.10100000352E+00 0. -1.
</event>
<event>
 5   0  0.1984680E-01  0.4954807E+03  0.7818609E-02  0.1014965E+00
        1   -1    0    0  501    0  0.00000000000E+00  0.00000000000E+00  0.37097638197E+03  0.37097638200E+03  0.50400001928E-02 0. -1.
       -1   -1    0    0    0  501  0.00000000000E+00  0.00000000000E+00 -0.16544257485E+03  0.16544257492E+03  0.50400001928E-02 0.  1.
    10030    2    1    2    0    0  0.00000000000E+00  0.00000000000E+00  0.20553380712E+03  0.53641895693E+03  0.49548072766E+03 0.  0.
        5    1    3    3  502    0  0.30926177300E+02  0.18909608125E+03 -0.67171987613E+02  0.20309584512E+03  0.46999998093E+01 0.  1.
       -5    1    3    3    0  502 -0.30926177300E+02 -0.18909608125E+03  0.27270579474E+03  0.33332311181E+03  0.46999998093E+01 0. -1.
</event>
<event>
 5   0  0.3111146E-01  0.4970799E+03  0.7818609E-02  0.1014544E+00
        2   -1    0    0  501    0  0.00000000000E+00  0.00000000000E+00  0.63355083465E+03  0.63355083466E+03  0.25500000920E-02 0. -1.
       -2   -1    0    0    0  501  0.00000000000E+00  0.00000000000E+00 -0.97501429535E+02  0.97501429569E+02  0.25500000920E-02 0.  1.
    10030    2    1    2    0    0  0.00000000000E+00  0.00000000000E+00  0.53604940512E+03  0.73105226423E+03  0.49707992145E+03 0.  0.
        1    1    3    3  502    0 -0.17814442899E+03  0.16014846386E+03  0.17059034637E+03  0.29408167974E+03  0.50400001928E-02 0.  1.
       -1    1    3    3    0  502  0.17814442899E+03 -0.16014846386E+03  0.36545905875E+03  0.43697058449E+03  0.50400001928E-02 0. -1.
</event>
<event>
 5   0  0.3187123E-01  0.5588663E+03  0.7818609E-02  0.9994623E-01
        2   -1    0    0  501    0  0.00000000000E+00  0.00000000000E+00  0.54110416385E+03  0.54110416385E+03  0.25500000920E-02 0. -1.
       -2   -1    0    0    0  501  0.00000000000E+00  0.00000000000E+00 -0.14430286957E+03  0.14430286959E+03  0.25500000920E-02 0.  1.
    10030    2    1    2    0    0  0.00000000000E+00  0.00000000000E+00  0.39680129428E+03  0.68540703344E+03  0.55886629381E+03 0.  0.
        5    1    3    3  502    0  0.12433236929E+03 -0.24671922093E+03  0.24943936235E+03  0.37225125590E+03  0.46999998093E+01 0.  1.
       -5    1    3    3    0  502 -0.12433236929E+03  0.24671922093E+03  0.14736193192E+03  0.31315577754E+03  0.46999998093E+01 0. -1.
</event>
<event>
 5   0  0.3187123E-01  0.5044746E+03  0.7818609E-02  0.1012618E+00
       -2   -1    0    0    0  501  0.00000000000E+00  0.00000000000E+00  0.37638954368E+02  0.37638954455E+02  0.25500000920E-02 0. -1.
        2   -1    0    0  501    0  0.00000000000E+00  0.00000000000E+00 -0.16903670267E+04  0.16903670267E+04  0.25500000920E-02 0.  1.
    10030    2    1    2    0    0  0.00000000000E+00  0.00000000000E+00 -0.16527280723E+04  0.17280059811E+04  0.50447456808E+03 0.  0.
        5    1    3    3  502    0  0.33856347292E+02  0.24904480011E+03 -0.89755816686E+03  0.93209565904E+03  0.46999998093E+01 0. -1.
       -5    1    3    3    0  502 -0.33856347292E+02 -0.24904480011E+03 -0.75516990543E+03  0.79591032208E+03  0.46999998093E+01 0.  1.
</event>
<event>
 5   0  0.2013450E-01  0.5055547E+03  0.7818609E-02  0.1012339E+00
       -1   -1    0    0    0  501  0.00000000000E+00  0.00000000000E+00  0.55764580266E+02  0.55764580493E+02  0.50400001928E-02 0. -1.
        1   -1    0    0  501    0  0.00000000000E+00  0.00000000000E+00 -0.11458240612E+04  0.11458240612E+04  0.50400001928E-02 0.  1.
    10030    2    1    2    0    0  0.00000000000E+00  0.00000000000E+00 -0.10900594809E+04  0.12015886417E+04  0.50555473679E+03 0.  0.
        4    1    3    3  502    0  0.22489551414E+03 -0.33646119363E+02 -0.80738852565E+03  0.83880146512E+03  0.12699999809E+01 0.  1.
       -4    1    3    3    0  502 -0.22489551414E+03  0.33646119363E+02 -0.28267095524E+03  0.36278717654E+03  0.12699999809E+01 0. -1.
</event>
<event>
 5   0  0.2013450E-01  0.5041161E+03  0.7818609E-02  0.1012710E+00
       -1   -1    0    0    0  501  0.00000000000E+00  0.00000000000E+00  0.96335985850E+02  0.96335985981E+02  0.50400001928E-02 0.  1.
        1   -1    0    0  501    0  0.00000000000E+00  0.00000000000E+00 -0.65949654651E+03  0.65949654653E+03  0.50400001928E-02 0. -1.
    10030    2    1    2    0    0  0.00000000000E+00  0.00000000000E+00 -0.56316056066E+03  0.75583253251E+03  0.50411605818E+03 0.  0.
        4    1    3    3  502    0  0.73415795897E+01 -0.70245164482E+02  0.81191798386E+02  0.10761971450E+03  0.12699999809E+01 0.  1.
       -4    1    3    3    0  502 -0.73415795897E+01  0.70245164482E+02 -0.64435235905E+03  0.64821281801E+03  0.12699999809E+01 0. -1.
</event>
<event>
 5   0  0.2000612E-01  0.5042844E+03  0.7818609E-02  0.1012667E+00
        1   -1    0    0  501    0  0.00000000000E+00  0.00000000000E+00  0.27958143463E+03  0.27958143467E+03  0.50400001928E-02 0.  1.
       -1   -1    0    0    0  501  0.00000000000E+00  0.00000000000E+00 -0.22739595415E+03  0.22739595421E+03  0.50400001928E-02 0. -1.
    10030    2    1    2    0    0  0.00000000000E+00  0.00000000000E+00  0.52185480476E+02  0.50697738888E+03  0.50428439244E+03 0.  0.
        2    1    3    3  502    0 -0.10159705678E+03 -0.13271674673E+03 -0.16370098576E+03  0.23395236600E+03  0.25500000920E-02 0. -1.
       -2    1    3    3    0  502  0.10159705678E+03  0.13271674673E+03  0.21588646624E+03  0.27302502288E+03  0.25500000920E-02 0.  1.
</event>
<event>
 5   0  0.3111146E-01  0.4890734E+03  0.7818609E-02  0.1016671E+00
       -2   -1    0    0    0  501  0.00000000000E+00  0.00000000000E+00  0.37415451272E+02  0.37415451359E+02  0.25500000920E-02 0.  1.
        2   -1    0    0  501    0  0.00000000000E+00  0.00000000000E+00 -0.15982221077E+04  0.15982221077E+04  0.25500000920E-02 0. -1.
    10030    2    1    2    0    0  0.00000000000E+00  0.00000000000E+00 -0.15608066564E+04  0.16356375590E+04  0.48907341561E+03 0.  0.
        1    1    3    3  502    0  0.22608441704E+03 -0.56915192990E+02 -0.53362902141E+03  0.58233447033E+03  0.50400001928E-02 0.  1.
       -1    1    3    3    0  502 -0.22608441704E+03  0.56915192990E+02 -0.10271776350E+04  0.10533030887E+04  0.50400001928E-02 0. -1.
</event>
<event>
 5   0  0.3187123E-01  0.5078879E+03  0.7818609E-02  0.1011740E+00
       -2   -1    0    0    0  501  0.00000000000E+00  0.00000000000E+00  0.10554817473E+03  0.10554817476E+03  0.25500000920E-02 0.  1.
        2   -1    0    0  501    0  0.00000000000E+00  0.00000000000E+00 -0.61097712302E+03  0.61097712302E+03  0.25500000920E-02 0. -1.
    10030    2    1    2    0    0  0.00000000000E+00  0.00000000000E+00 -0.50542894828E+03  0.71652529778E+03  0.50788786223E+03 0.  0.
        5    1    3    3  502    0  0.10201146652E+02  0.11532768674E+03  0.66077875441E+02  0.13339008338E+03  0.46999998093E+01 0.  1.
       -5    1    3    3    0  502 -0.10201146652E+02 -0.11532768674E+03 -0.57150682372E+03  0.58313521441E+03  0.46999998093E+01 0. -1.
</event>
<event>
 5   0  0.3178149E-01  0.4972081E+03  0.7818609E-02  0.1014510E+00
       -2   -1    0    0    0  501  0.00000000000E+00  0.00000000000E+00  0.45565882508E+02  0.45565882579E+02  0.25500000920E-02 0. -1.
        2   -1    0    0  501    0  0.00000000000E+00  0.00000000000E+00 -0.13563653826E+04  0.13563653826E+04  0.25500000920E-02 0.  1.
    10030    2    1    2    0    0  0.00000000000E+00  0.00000000000E+00 -0.13107995001E+04  0.14019312652E+04  0.49720814842E+03 0.  0.
        3    1    3    3  502    0  0.23671779300E+03  0.65108831899E+02 -0.76567130753E+03  0.80406904858E+03  0.10100000352E+00 0. -1.
       -3    1    3    3    0  502 -0.23671779300E+03 -0.65108831899E+02 -0.54512819260E+03  0.59786221664E+03  0.10100000352E+00 0.  1.
</event>
<event>
 5   0  0.2013450E-01  0.5003656E+03  0.7818609E-02  0.1013684E+00
       -1   -1    0    0    0  501  0.00000000000E+00  0.00000000000E+00  0.28040286606E+03  0.28040286610E+03  0.50400001928E-02 0. -1.
        1   -1    0    0  501    0  0.00000000000E+00  0.00000000000E+00 -0.22321966250E+03  0.22321966255E+03  0.50400001928E-02 0.  1.
    10030    2    1    2    0    0  0.00000000000E+00  0.00000000000E+00  0.57183203558E+02  0.50362252866E+03  0.50036559894E+03 0.  0.
        4    1    3    3  502    0 -0.35480337637E+02  0.17464529072E+03 -0.14813600074E+03  0.23174494502E+03  0.12699999809E+01 0.  1.
       -4    1    3    3    0  502  0.35480337637E+02 -0.17464529072E+03  0.20531920430E+03  0.27187758363E+03  0.12699999809E+01 0. -1.
</event>
<event>
 5   0  0.3111146E-01  0.4946373E+03  0.7818609E-02  0.1015188E+00
       -2   -1    0    0    0  501  0.00000000000E+00  0.00000000000E+00  0.46080037839E+03  0.46080037840E+03  0.25500000920E-02 0. -1.
        2   -1    0    0  501    0  0.00000000000E+00  0.00000000000E+00 -0.13273971709E+03  0.13273971711E+03  0.25500000920E-02 0.  1.
    10030    2    1    2    0    0  0.00000000000E+00  0.00000000000E+00  0.32806066130E+03  0.59354009551E+03  0.49463728881E+03 0.  0.
        1    1    3    3  502    0  0.21487618306E+03 -0.34915841217E+02  0.30486799535E+03  0.37461364714E+03  0.50400001928E-02 0. -1.
       -1    1    3    3    0  502 -0.21487618306E+03  0.34915841217E+02  0.23192665958E+02  0.21892644837E+03  0.50400001928E-02 0.  1.
</event>
<event>
 5   0  0.2013450E-01  0.4825646E+03  0.7818609E-02  0.1018433E+00
       -1   -1    0    0    0  501  0.00000000000E+00  0.00000000000E+00  0.16801953789E+03  0.16801953797E+03  0.50400001928E-02 0. -1.
        1   -1    0    0  501    0  0.00000000000E+00  0.00000000000E+00 -0.34649031108E+03  0.34649031112E+03  0.50400001928E-02 0.  1.
    10030    2    1    2    0    0  0.00000000000E+00  0.00000000000E+00 -0.17847077319E+03  0.51450984909E+03  0.48256457384E+03 0.  0.
        4    1    3    3  502    0  0.72919732314E+01 -0.19019143309E+03  0.68870002830E+02  0.20241206556E+03  0.12699999809E+01 0. -1.
       -4    1    3    3    0  502 -0.72919732314E+01  0.19019143309E+03 -0.24734077602E+03  0.31209778352E+03  0.12699999809E+01 0.  1.
</event>
<event>
 5   0  0.3178149E-01  0.4934899E+03  0.7818609E-02  0.1015492E+00
        2   -1    0    0  501    0  0.00000000000E+00  0.00000000000E+00  0.39267444978E+03  0.39267444978E+03  0.25500000920E-02 0. -1.
       -2   -1    0    0    0  501  0.00000000000E+00  0.00000000000E+00 -0.15504717274E+03  0.15504717276E+03  0.25500000920E-02 0.  1.
    10030    2    1    2    0    0  0.00000000000E+00  0.00000000000E+00  0.23762727704E+03  0.54772162254E+03  0.49348987123E+03 0.  0.
        3    1    3    3  502    0 -0.83235734468E+02 -0.50975089241E+02  0.37033736213E+03  0.38298357563E+03  0.10100000352E+00 0. -1.
       -3    1    3    3    0  502  0.83235734468E+02  0.50975089241E+02 -0.13271008509E+03  0.16473804691E+03  0.10100000352E+00 0.  1.
</event>
<event>
 5   0  0.3117389E-01  0.5142269E+03  0.7818609E-02  0.1010131E+00
        2   -1    0    0  501    0  0.00000000000E+00  0.00000000000E+00  0.89308623458E+03  0.89308623458E+03  0.25500000920E-02 0.  1.
       -2   -1    0    0    0  501  0.00000000000E+00  0.00000000000E+00 -0.74021225047E+02  0.74021225091E+02  0.25500000920E-02 0. -1.
    10030    2    1    2    0    0  0.00000000000E+00  0.00000000000E+00  0.81906500953E+03  0.96710745967E+03  0.51422694281E+03 0.  0.
        4    1    3    3  502    0  0.15927206925E+03  0.19839503819E+03  0.33972981118E+03  0.42443626226E+03  0.12699999809E+01 0.  1.
       -4    1    3    3    0  502 -0.15927206925E+03 -0.19839503819E+03  0.47933519835E+03  0.54267119741E+03  0.12699999809E+01 0. -1.
</event>
<event>
 5   0  0.1967161E-01  0.5178317E+03  0.7818609E-02  0.1009227E+00
       -1   -1    0    0    0  501  0.00000000000E+00  0.00000000000E+00  0.54065402519E+03  0.54065402522E+03  0.50400001928E-02 0.  1.
        1   -1    0    0  501    0  0.00000000000E+00  0.00000000000E+00 -0.12399317324E+03  0.12399317334E+03  0.50400001928E-02 0. -1.
    10030    2    1    2    0    0  0.00000000000E+00  0.00000000000E+00  0.41666085195E+03  0.66464719856E+03  0.51783166474E+03 0.  0.
        1    1    3    3  502    0  0.22734449906E+03 -0.12121316368E+03  0.17537479769E+03  0.31166403706E+03  0.50400001928E-02 0. -1.
       -1    1    3    3    0  502 -0.22734449906E+03  0.12121316368E+03  0.24128605426E+03  0.35298316150E+03  0.50400001928E-02 0.  1.
</event>
<event>
 5   0  0.3111146E-01  0.5706240E+03  0.7818609E-02  0.9968299E-01
       -2   -1    0    0    0  501  0.00000000000E+00  0.00000000000E+00  0.12100643633E+03  0.12100643636E+03  0.25500000920E-02 0. -1.
        2   -1    0    0  501    0  0.00000000000E+00  0.00000000000E+00 -0.67271564949E+03  0.67271564950E+03  0.25500000920E-02 0.  1.
    10030    2    1    2    0    0  0.00000000000E+00  0.00000000000E+00 -0.55170921316E+03  0.79372208585E+03  0.57062395120E+03 0.  0.
        1    1    3    3  502    0 -0.19445652073E+03 -0.18872171136E+03 -0.15164693207E+03  0.31052538515E+03  0.50400001928E-02 0. -1.
       -1    1    3    3    0  502  0.19445652073E+03  0.18872171136E+03 -0.40006228109E+03  0.48319670070E+03  0.50400001928E-02 0.  1.
</event>
<event>
 5   0  0.1984297E-01  0.4750849E+03  0.7818609E-02  0.1020495E+00
        1   -1    0    0  501    0  0.00000000000E+00  0.00000000000E+00  0.17738555148E+04  0.17738555149E+04  0.50400001928E-02 0.  1.
       -1   -1    0    0    0  501  0.00000000000E+00  0.00000000000E+00 -0.31810037737E+02  0.31810038136E+02  0.50400001928E-02 0. -1.
    10030    2    1    2    0    0  0.00000000000E+00  0.00000000000E+00  0.17420454771E+04  0.18056655530E+04  0.47508488182E+03 0.  0.
        3    1    3    3  502    0 -0.99262110231E+02 -0.14800043457E+03  0.27406365164E+03  0.32690670001E+03  0.10100000352E+00 0. -1.
       -3    1    3    3    0  502  0.99262110231E+02  0.14800043457E+03  0.14679818255E+04  0.14787588530E+04  0.10100000352E+00 0.  1.
</event>
<event>
 5   0  0.1984680E-01  0.4993824E+03  0.7818609E-02  0.1013940E+00
       -1   -1    0    0    0  501  0.00000000000E+00  0.00000000000E+00  0.65202642376E+02  0.65202642571E+02  0.50400001928E-02 0. -1.
        1   -1    0    0  501    0  0.00000000000E+00  0.00000000000E+00 -0.95618352134E+03  0.95618352136E+03  0.50400001928E-02 0.  1.
    10030    2    1    2    0    0  0.00000000000E+00  0.00000000000E+00 -0.89098087897E+03  0.10213861639E+04  0.49938238773E+03 0.  0.
        5    1    3    3  502    0 -0.21495927762E+03  0.12690637120E+03 -0.45223813108E+03  0.51657926332E+03  0.46999998093E+01 0.  1.
       -5    1    3    3    0  502  0.21495927762E+03 -0.12690637120E+03 -0.43874274789E+03  0.50480690061E+03  0.46999998093E+01 0. -1.
</event>
<event>
 5   0  0.2013450E-01  0.4961882E+03  0.7818609E-02  0.1014779E+00
       -1   -1    0    0    0  501  0.00000000000E+00  0.00000000000E+00  0.19414356481E+03  0.19414356487E+03  0.50400001928E-02 0.  1.
        1   -1    0    0  501    0  0.00000000000E+00  0.00000000000E+00 -0.31703700701E+03  0.31703700705E+03  0.50400001928E-02 0. -1.
    10030    2    1    2    0    0  0.00000000000E+00  0.00000000000E+00 -0.12289344220E+03  0.51118057192E+03  0.49618824953E+03 0.  0.
        4    1    3    3  502    0  0.19485188685E+03  0.11943817285E+03  0.37990891757E+02  0.23168438812E+03  0.12699999809E+01 0.  1.
       -4    1    3    3    0  502 -0.19485188685E+03 -0.11943817285E+03 -0.16088433396E+03  0.27949618380E+03  0.12699999809E+01 0. -1.
</event>
<event>
 5   0  0.1984297E-01  0.5361408E+03  0.7818609E-02  0.1004754E+00
        1   -1    0    0  501    0  0.00000000000E+00  0.00000000000E+00  0.13031972500E+04  0.13031972500E+04  0.50400001928E-02 0.  1.
       -1   -1    0    0    0  501  0.00000000000E+00  0.00000000000E+00 -0.55142644518E+02  0.55142644748E+02  0.50400001928E-02 0. -1.
    10030    2    1    2    0    0  0.00000000000E+00  0.00000000000E+00  0.12480546055E+04  0.13583398948E+04  0.53614081306E+03 0.  0.
        3    1    3    3  502    0 -0.33288940831E+02  0.52013236343E+02 -0.36875990435E+02  0.71926206685E+02  0.10100000352E+00 0. -1.
       -3    1    3    3    0  502  0.33288940831E+02 -0.52013236343E+02  0.12849305959E+04  0.12864136881E+04  0.10100000352E+00 0.  1.
</event>
<event>
 5   0  0.1984297E-01  0.5202146E+03  0.7818609E-02  0.1008633E+00
        1   -1    0    0  501    0  0.00000000000E+00  0.00000000000E+00  0.10291424605E+04  0.10291424606E+04  0.50400001928E-02 0.  1.
       -1   -1    0    0    0  501  0.00000000000E+00  0.00000000000E+00 -0.65739994628E+02  0.65739994822E+02  0.50400001928E-02 0. -1.
    10030    2    1    2    0    0  0.00000000000E+00  0.00000000000E+00  0.96340246591E+03  0.10948824554E+04  0.52021464778E+03 0.  0.
        3    1    3    3  502    0  0.73798024569E+02  0.19254406659E+03  0.81538635033E+03  0.84105545389E+03  0.10100000352E+00 0.  1.
       -3    1    3    3    0  502 -0.73798024569E+02 -0.19254406659E+03  0.14801611559E+03  0.25382700149E+03  0.10100000352E+00 0. -1.
</event>
<event>
 5   0  0.2013450E-01  0.5021864E+03  0.7818609E-02  0.1013210E+00
        1   -1    0    0  501    0  0.00000000000E+00  0.00000000000E+00  0.36696221110E+03  0.36696221114E+03  0.50400001928E-02 0. -1.
       -1   -1    0    0    0  501  0.00000000000E+00  0.00000000000E+00 -0.17181007213E+03  0.17181007221E+03  0.50400001928E-02 0.  1.
    10030    2    1    2    0    0  0.00000000000E+00  0.00000000000E+00  0.19515213897E+03  0.53877228334E+03  0.50218643545E+03 0.  0.
        4    1    3    3  502    0  0.47688677337E+02  0.45770982537E+02  0.35745687986E+03  0.36351922459E+03  0.12699999809E+01 0. -1.
       -4    1    3    3    0  502 -0.47688677337E+02 -0.45770982537E+02 -0.16230474089E+03  0.17525305875E+03  0.12699999809E+01 0.  1.
</event>
<event>
 5   0  0.1984297E-01  0.5012463E+03  0.7818609E-02  0.1013454E+00
        1   -1    0    0  501    0  0.00000000000E+00  0.00000000000E+00  0.56243444992E+03  0.56243444994E+03  0.50400001928E-02 0. -1.
       -1   -1    0    0    0  501  0.00000000000E+00  0.00000000000E+00 -0.11167872338E+03  0.11167872350E+03  0.50400001928E-02 0.  1.
    10030    2    1    2    0    0  0.00000000000E+00  0.00000000000E+00  0.45075572653E+03  0.67411317344E+03  0.50124629235E+03 0.  0.
        3    1    3    3  502    0 -0.15522843192E+02  0.18147022599E+03  0.45691328472E+03  0.49187616483E+03  0.10100000352E+00 0. -1.
       -3    1    3    3    0  502  0.15522843192E+02 -0.18147022599E+03 -0.61575581827E+01  0.18223700860E+03  0.10100000352E+00 0.  1.
</event>
<event>
 5   0  0.1967161E-01  0.4719019E+03  0.7818609E-02  0.1021385E+00
        1   -1    0    0  501    0  0.00000000000E+00  0.00000000000E+00  0.61057475017E+03  0.61057475019E+03  0.50400001928E-02 0. -1.
       -1   -1    0    0    0  501  0.00000000000E+00  0.00000000000E+00 -0.91181060698E+02  0.91181060837E+02  0.50400001928E-02 0.  1.
    10030    2    1    2    0    0  0.00000000000E+00  0.00000000000E+00  0.51939368948E+03  0.70175581103E+03  0.47190191105E+03 0.  0.
        1    1    3    3  502    0  0.14454364566E+03  0.18618416378E+03  0.24371886273E+03  0.33905204972E+03  0.50400001928E-02 0.  1.
       -1    1    3    3    0  502 -0.14454364566E+03 -0.18618416378E+03  0.27567482674E+03  0.36270376131E+03  0.50400001928E-02 0. -1.
</event>
<event>
 5   0  0.1984297E-01  0.4864550E+03  0.7818609E-02  0.1017376E+00
       -1   -1    0    0    0  501  0.00000000000E+00  0.00000000000E+00  0.65300247955E+03  0.65300247957E+03  0.50400001928E-02 0.  1.
        1   -1    0    0  501    0  0.00000000000E+00  0.00000000000E+00 -0.90596318494E+02  0.90596318634E+02  0.50400001928E-02 0. -1.
    10030    2    1    2    0    0  0.00000000000E+00  0.00000000000E+00  0.56240616105E+03  0.74359879820E+03  0.48645501611E+03 0.  0.
        3    1    3    3  502    0  0.75757479308E+02  0.43272681011E+01  0.63444602163E+03  0.63896767170E+03  0.10100000352E+00 0.  1.
       -3    1    3    3    0  502 -0.75757479308E+02 -0.43272681011E+01 -0.72039860573E+02  0.10463112650E+03  0.10100000352E+00 0. -1.
</event>
<event>
 5   0  0.3178149E-01  0.5117973E+03  0.7818609E-02  0.1010745E+00
       -2   -1    0    0    0  501  0.00000000000E+00  0.00000000000E+00  0.77482789577E+02  0.77482789619E+02  0.25500000920E-02 0. -1.
        2   -1    0    0  501    0  0.00000000000E+00  0.00000000000E+00 -0.84514406891E+03  0.84514406891E+03  0.25500000920E-02 0.  1.
    10030    2    1    2    0    0  0.00000000000E+00  0.00000000000E+00 -0.76766127933E+03  0.92262685853E+03  0.51179730392E+03 0.  0.
        3    1    3    3  502    0 -0.18704042553E+03 -0.42072229737E+02 -0.78271497657E+02  0.20707638891E+03  0.10100000352E+00 0. -1.
       -3    1    3    3    0  502  0.18704042553E+03  0.42072229737E+02 -0.68938978168E+03  0.71555046962E+03  0.10100000352E+00 0.  1.
</event>
<event>
 5   0  0.3329246E-01  0.5186087E+03  0.7818609E-02  0.1009033E+00
        2   -1    0    0  501    0  0.00000000000E+00  0.00000000000E+00  0.12429933183E+04  0.12429933183E+04  0.25500000920E-02 0.  1.
       -2   -1    0    0    0  501  0.00000000000E+00  0.00000000000E+00 -0.54094210274E+02  0.54094210334E+02  0.25500000920E-02 0. -1.
    10030    2    1    2    0    0  0.00000000000E+00  0.00000000000E+00  0.11888991081E+04  0.12970875287E+04  0.51860868474E+03 0.  0.
        2    1    3    3  502    0  0.16614737009E+03 -0.54797341247E+02  0.10731393293E+04  0.10873066345E+04  0.25500000920E-02 0.  1.
       -2    1    3    3    0  502 -0.16614737009E+03  0.54797341247E+02  0.11575977874E+03  0.20978089422E+03  0.25500000920E-02 0. -1.
</event>
<event>
 5   0  0.1984680E-01  0.5189062E+03  0.7818609E-02  0.1008959E+00
       -1   -1    0    0    0  501  0.00000000000E+00  0.00000000000E+00  0.24036802094E+03  0.24036802100E+03  0.50400001928E-02 0. -1.
        1   -1    0    0  501    0  0.00000000000E+00  0.00000000000E+00 -0.28005351123E+03  0.28005351128E+03  0.50400001928E-02 0.  1.
    10030    2    1    2    0    0  0.00000000000E+00  0.00000000000E+00 -0.39685490287E+02  0.52042153228E+03  0.51890618913E+03 0.  0.
        5    1    3    3  502    0  0.14307151922E+03  0.38978805522E+02 -0.23331406160E+03  0.27648932752E+03  0.46999998093E+01 0.  1.
       -5    1    3    3    0  502 -0.14307151922E+03 -0.38978805522E+02  0.19362857131E+03  0.24393220476E+03  0.46999998093E+01 0. -1.
</event>
<event>
 5   0  0.3178149E-01  0.4979652E+03  0.7818609E-02  0.1014311E+00
        2   -1    0    0  501    0  0.00000000000E+00  0.00000000000E+00  0.12404107531E+04  0.12404107531E+04  0.25500000920E-02 0. -1.
       -2   -1    0    0    0  501  0.00000000000E+00  0.00000000000E+00 -0.49977254950E+02  0.49977255015E+02  0.25500000920E-02 0.  1.
    10030    2    1    2    0    0  0.00000000000E+00  0.00000000000E+00  0.11904334982E+04  0.12903880081E+04  0.49796515739E+03 0.  0.
        3    1    3    3  502    0 -0.51291551460E+02  0.32001444855E+02  0.12211022509E+04  0.12225979033E+04  0.10100000352E+00 0. -1.
       -3    1    3    3    0  502  0.51291551460E+02 -0.32001444855E+02 -0.30668752725E+02  0.67790104873E+02  0.10100000352E+00 0.  1.
</event>
<event>
 5   0  0.3111146E-01  0.4980832E+03  0.7818609E-02  0.1014280E+00
        2   -1    0    0  501    0  0.00000000000E+00  0.00000000000E+00  0.37530392480E+03  0.37530392480E+03  0.25500000920E-02 0. -1.
       -2   -1    0    0    0  501  0.00000000000E+00  0.00000000000E+00 -0.16525730567E+03  0.16525730569E+03  0.25500000920E-02 0.  1.
    10030    2    1    2    0    0  0.00000000000E+00  0.00000000000E+00  0.21004661913E+03  0.54056123049E+03  0.49808318753E+03 0.  0.
        1    1    3    3  502    0  0.17744870065E+03 -0.86755446877E+02 -0.59593651225E+02  0.20631517689E+03  0.50400001928E-02 0.  1.
       -1    1    3    3    0  502 -0.17744870065E+03  0.86755446877E+02  0.26964027035E+03  0.33424605360E+03  0.50400001928E-02 0. -1.
</event>
<event>
 5   0  0.3117389E-01  0.4885883E+03  0.7818609E-02  0.1016801E+00
        2   -1    0    0  501    0  0.00000000000E+00  0.00000000000E+00  0.14548276784E+04  0.14548276784E+04  0.25500000920E-02 0. -1.
       -2   -1    0    0    0  501  0.00000000000E+00  0.00000000000E+00 -0.41021784089E+02  0.41021784169E+02  0.25500000920E-02 0.  1.
    10030    2    1    2    0    0  0.00000000000E+00  0.00000000000E+00  0.14138058944E+04  0.14958494626E+04  0.48858828055E+03 0.  0.
        4    1    3    3  502    0  0.14290640286E+03 -0.19135661121E+03  0.86416246076E+03  0.89655895741E+03  0.12699999809E+01 0. -1.
       -4    1    3    3    0  502 -0.14290640286E+03  0.19135661121E+03  0.54964343359E+03  0.59929050520E+03  0.12699999809E+01 0.  1.
</event>
<event>
 5   0  0.3329246E-01  0.5139263E+03  0.7818609E-02  0.1010207E+00
       -2   -1    0    0    0  501  0.00000000000E+00  0.00000000000E+00  0.36580609587E+02  0.36580609675E+02  0.25500000920E-02 0.  1.
        2   -1    0    0  501    0  0.00000000000E+00  0.00000000000E+00 -0.18050563490E+04  0.18050563490E+04  0.25500000920E-02 0. -1.
    10030    2    1    2    0    0  0.00000000000E+00  0.00000000000E+00 -0.17684757394E+04  0.18416369587E+04  0.51392630471E+03 0.  0.
        2    1    3    3  502    0  0.16454718466E+03  0.14369369573E+03 -0.39939084210E+03  0.45523257674E+03  0.25500000920E-02 0.  1.
       -2    1    3    3    0  502 -0.16454718466E+03 -0.14369369573E+03 -0.13690848973E+04  0.13864043819E+04  0.25500000920E-02 0. -1.
</event>
<event>
 5   0  0.1984680E-01  0.4691434E+03  0.7818609E-02  0.1022162E+00
       -1   -1    0    0    0  501  0.00000000000E+00  0.00000000000E+00  0.12642038338E+03  0.12642038348E+03  0.50400001928E-02 0. -1.
        1   -1    0    0  501    0  0.00000000000E+00  0.00000000000E+00 -0.43524539225E+03  0.43524539228E+03  0.50400001928E-02 0.  1.
    10030    2    1    2    0    0  0.00000000000E+00  0.00000000000E+00 -0.30882500888E+03  0.56166577576E+03  0.46914342962E+03 0.  0.
        5    1    3    3  502    0  0.11880206320E+03 -0.40235465589E+02 -0.39165752946E+03  0.41127914279E+03  0.46999998093E+01 0.  1.
       -5    1    3    3    0  502 -0.11880206320E+03  0.40235465589E+02  0.82832520582E+02  0.15038663297E+03  0.46999998093E+01 0. -1.
</event>
<event>
 5   0  0.3329246E-01  0.5012375E+03  0.7818609E-02  0.1013456E+00
       -2   -1    0    0    0  501  0.00000000000E+00  0.00000000000E+00  0.42956313810E+02  0.42956313885E+02  0.25500000920E-02 0.  1.
        2   -1    0    0  501    0  0.00000000000E+00  0.00000000000E+00 -0.14621778324E+04  0.14621778324E+04  0.25500000920E-02 0. -1.
    10030    2    1    2    0    0  0.00000000000E+00  0.00000000000E+00 -0.14192215186E+04  0.15051341463E+04  0.50123754796E+03 0.  0.
        2    1    3    3  502    0 -0.18136085391E+03 -0.43108270209E+02 -0.12126165993E+04  0.12268614832E+04  0.25500000920E-02 0. -1.
       -2    1    3    3    0  502  0.18136085391E+03  0.43108270209E+02 -0.20660491932E+03  0.27827266302E+03  0.25500000920E-02 0.  1.
</event>
<event>
 5   0  0.1984680E-01  0.3086424E+03  0.7818609E-02  0.1080998E+00
       -1   -1    0    0    0  501  0.00000000000E+00  0.00000000000E+00  0.10658950569E+04  0.10658950569E+04  0.50400001928E-02 0.  1.
        1   -1    0    0  501    0  0.00000000000E+00  0.00000000000E+00 -0.22342757051E+02  0.22342757620E+02  0.50400001928E-02 0. -1.
    10030    2    1    2    0    0  0.00000000000E+00  0.00000000000E+00  0.10435522998E+04  0.10882378145E+04  0.30864241195E+03 0.  0.
        5    1    3    3  502    0 -0.90848664338E+02  0.15789657015E+02  0.95776371561E+03  0.96220383392E+03  0.46999998093E+01 0.  1.
       -5    1    3    3    0  502  0.90848664338E+02 -0.15789657015E+02  0.85788584199E+02  0.12603398057E+03  0.46999998093E+01 0. -1.
</event>
<event>
 5   0  0.2000612E-01  0.4945778E+03  0.7818609E-02  0.1015204E+00
       -1   -1    0    0    0  501  0.00000000000E+00  0.00000000000E+00  0.31070683145E+02  0.31070683554E+02  0.50400001928E-02 0.  1.
        1   -1    0    0  501    0  0.00000000000E+00  0.00000000000E+00 -0.19681511689E+04  0.19681511689E+04  0.50400001928E-02 0. -1.
    10030    2    1    2    0    0  0.00000000000E+00  0.00000000000E+00 -0.19370804857E+04  0.19992218524E+04  0.49457780688E+03 0.  0.
        2    1    3    3  502    0 -0.20456822795E+02 -0.54742827342E+02  0.27561014800E+01  0.58505169396E+02  0.25500000920E-02 0.  1.
       -2    1    3    3    0  502  0.20456822795E+02  0.54742827342E+02 -0.19398365872E+04  0.19407166830E+04  0.25500000920E-02 0. -1.
</event>
<event>
 5   0  0.2000612E-01  0.5138271E+03  0.7818609E-02  0.1010232E+00
        1   -1    0    0  501    0  0.00000000000E+00  0.00000000000E+00  0.11030464868E+04  0.11030464868E+04  0.50400001928E-02 0.  1.
       -1   -1    0    0    0  501  0.00000000000E+00  0.00000000000E+00 -0.59838435969E+02  0.59838436181E+02  0.50400001928E-02 0. -1.
    10030    2    1    2    0    0  0.00000000000E+00  0.00000000000E+00  0.10432080508E+04  0.11628849230E+04  0.51382711762E+03 0.  0.
        2    1    3    3  502    0 -0.12709323764E+03  0.21858187282E+03  0.62466836944E+03  0.67390006527E+03  0.25500000920E-02 0.  1.
       -2    1    3    3    0  502  0.12709323764E+03 -0.21858187282E+03  0.41853968139E+03  0.48898485773E+03  0.25500000920E-02 0. -1.
</event>
<event>
 5   0  0.2000612E-01  0.5205309E+03  0.7818609E-02  0.1008555E+00
        1   -1    0    0  501    0  0.00000000000E+00  0.00000000000E+00  0.14171379125E+03  0.14171379134E+03  0.50400001928E-02 0.  1.
       -1   -1    0    0    0  501  0.00000000000E+00  0.00000000000E+00 -0.47799228917E+03  0.47799228920E+03  0.50400001928E-02 0. -1.
    10030    2    1    2    0    0  0.00000000000E+00  0.00000000000E+00 -0.33627849792E+03  0.61970608054E+03  0.52053088102E+03 0.  0.
        2    1    3    3  502    0  0.15939832812E+03 -0.20052762524E+03 -0.11333692191E+03  0.28011500025E+03  0.25500000920E-02 0.  1.
       -2    1    3    3    0  502 -0.15939832812E+03  0.20052762524E+03 -0.22294157601E+03  0.33959108029E+03  0.25500000920E-02 0. -1.
</event>
<event>
 5   0  0.3111146E-01  0.4833638E+03  0.7818609E-02  0.1018215E+00
       -2   -1    0    0    0  501  0.00000000000E+00  0.00000000000E+00  0.97966313829E+02  0.97966313862E+02  0.25500000920E-02 0.  1.
        2   -1    0    0  501    0  0.00000000000E+00  0.00000000000E+00 -0.59622685448E+03  0.59622685449E+03  0.25500000920E-02 0. -1.
    10030    2    1    2    0    0  0.00000000000E+00  0.00000000000E+00 -0.49826054066E+03  0.69419316835E+03  0.48336382634E+03 0.  0.
        1    1    3    3  502    0  0.92460498217E+02  0.14479288759E+03 -0.49971340137E+01  0.17186883196E+03  0.50400001928E-02 0.  1.
       -1    1    3    3    0  502 -0.92460498217E+02 -0.14479288759E+03 -0.49326340664E+03  0.52232433639E+03  0.50400001928E-02 0. -1.
</event>
<event>
 5   0  0.3117389E-01  0.4479869E+03  0.7818609E-02  0.1028324E+00
        2   -1    0    0  501    0  0.00000000000E+00  0.00000000000E+00  0.98126612599E+02  0.98126612632E+02  0.25500000920E-02 0. -1.
       -2   -1    0    0    0  501  0.00000000000E+00  0.00000000000E+00 -0.51130946611E+03  0.51130946612E+03  0.25500000920E-02 0.  1.
    10030    2    1    2    0    0  0.00000000000E+00  0.00000000000E+00 -0.41318285351E+03  0.60943607875E+03  0.44798690120E+03 0.  0.
        4    1    3    3  502    0 -0.19944041379E+03 -0.10178967543E+03 -0.21450467007E+03  0.31008302607E+03  0.12699999809E+01 0.  1.
       -4    1    3    3    0  502  0.19944041379E+03  0.10178967543E+03 -0.19867818344E+03  0.29935305268E+03  0.12699999809E+01 0. -1.
</event>
<event>
 5   0  0.1292375E-01  0.4979376E+03  0.7818609E-02  0.1014319E+00
       -3   -1    0    0    0  501  0.00000000000E+00  0.00000000000E+00  0.11740312731E+03  0.11740317075E+03  0.10100000352E+00 0. -1.
        3   -1    0    0  501    0  0.00000000000E+00  0.00000000000E+00 -0.52797091927E+03  0.52797092893E+03  0.10100000352E+00 0.  1.
    10030    2    1    2    0    0  0.00000000000E+00  0.00000000000E+00 -0.41056779196E+03  0.64537409969E+03  0.49793756311E+03 0.  0.
        3    1    3    3  502    0  0.41646754211E+02  0.23728138163E+03 -0.12384070302E+03  0.27087531473E+03  0.10100000352E+00 0. -1.
       -3    1    3    3    0  502 -0.41646754211E+02 -0.23728138163E+03 -0.28672708894E+03  0.37449878496E+03  0.10100000352E+00 0.  1.
</event>
<event>
 5   0  0.1984297E-01  0.4984680E+03  0.7818609E-02  0.1014180E+00
       -1   -1    0    0    0  501  0.00000000000E+00  0.00000000000E+00  0.42706686480E+03  0.42706686483E+03  0.50400001928E-02 0.  1.
        1   -1    0    0  501    0  0.00000000000E+00  0.00000000000E+00 -0.14545168440E+03  0.14545168449E+03  0.50400001928E-02 0. -1.
    10030    2    1    2    0    0  0.00000000000E+00  0.00000000000E+00  0.28161518040E+03  0.57251854932E+03  0.49846803257E+03 0.  0.
        3    1    3    3  502    0  0.17548160248E+03 -0.17350370587E+03  0.10068603944E+03  0.26652395295E+03  0.10100000352E+00 0.  1.
       -3    1    3    3    0  502 -0.17548160248E+03  0.17350370587E+03  0.18092914096E+03  0.30599459637E+03  0.10100000352E+00 0. -1.
</event>
<event>
 5   0  0.3178149E-01  0.4900397E+03  0.7818609E-02  0.1016412E+00
        2   -1    0    0  501    0  0.00000000000E+00  0.00000000000E+00  0.11108670160E+03  0.11108670163E+03  0.25500000920E-02 0.  1.
       -2   -1    0    0    0  501  0.00000000000E+00  0.00000000000E+00 -0.54043129198E+03  0.54043129199E+03  0.25500000920E-02 0. -1.
    10030    2    1    2    0    0  0.00000000000E+00  0.00000000000E+00 -0.42934459038E+03  0.65151799361E+03  0.49003971136E+03 0.  0.
        3    1    3    3  502    0 -0.14374118769E+02 -0.21749678621E+03 -0.65889161352E+02  0.22771222867E+03  0.10100000352E+00 0.  1.
       -3    1    3    3    0  502  0.14374118769E+02  0.21749678621E+03 -0.36345542903E+03  0.42380576494E+03  0.10100000352E+00 0. -1.
</event>
<event>
 5   0  0.1984297E-01  0.6578596E+03  0.7818609E-02  0.9792142E-01
        1   -1    0    0  501    0  0.00000000000E+00  0.00000000000E+00  0.44642159389E+03  0.44642159392E+03  0.50400001928E-02 0. -1.
       -1   -1    0    0    0  501  0.00000000000E+00  0.00000000000E+00 -0.24236017262E+03  0.24236017267E+03  0.50400001928E-02 0.  1.
    10030    2    1    2    0    0  0.00000000000E+00  0.00000000000E+00  0.20406142127E+03  0.68878176659E+03  0.65785960382E+03 0.  0.
        3    1    3    3  502    0 -0.27512756131E+03 -0.49021133540E+02  0.28366876317E+03  0.39820374675E+03  0.10100000352E+00 0. -1.
       -3    1    3    3    0  502  0.27512756131E+03  0.49021133540E+02 -0.79607341906E+02  0.29057801984E+03  0.10100000352E+00 0.  1.
</event>
<event>
 5   0  0.2000612E-01  0.4865778E+03  0.7818609E-02  0.1017343E+00
       -1   -1    0    0    0  501  0.00000000000E+00  0.00000000000E+00  0.38940152242E+03  0.38940152245E+03  0.50400001928E-02 0. -1.
        1   -1    0    0  501    0  0.00000000000E+00  0.00000000000E+00 -0.15200120089E+03  0.15200120097E+03  0.50400001928E-02 0.  1.
    10030    2    1    2    0    0  0.00000000000E+00  0.00000000000E+00  0.23740032153E+03  0.54140272343E+03  0.48657784194E+03 0.  0.
        2    1    3    3  502    0 -0.47626592025E+01  0.66030652932E+02  0.37918665346E+03  0.38492239246E+03  0.25500000920E-02 0. -1.
       -2    1    3    3    0  502  0.47626592025E+01 -0.66030652932E+02 -0.14178633193E+03  0.15648033096E+03  0.25500000920E-02 0.  1.
</event>
<event>
 5   0  0.3329246E-01  0.4985056E+03  0.7818609E-02  0.1014170E+00
       -2   -1    0    0    0  501  0.00000000000E+00  0.00000000000E+00  0.77814824243E+02  0.77814824285E+02  0.25500000920E-02 0. -1.
        2   -1    0    0  501    0  0.00000000000E+00  0.00000000000E+00 -0.79839477413E+03  0.79839477413E+03  0.25500000920E-02 0.  1.
    10030    2    1    2    0    0  0.00000000000E+00  0.00000000000E+00 -0.72057994989E+03  0.87620959842E+03  0.49850556284E+03 0.  0.
        2    1    3    3  502    0 -0.29796254502E+02 -0.54688764851E+02 -0.78449862268E+03  0.78696681428E+03  0.25500000920E-02 0.  1.
       -2    1    3    3    0  502  0.29796254502E+02  0.54688764851E+02  0.63918672792E+02  0.89242784141E+02  0.25500000920E-02 0. -1.
</event>
<event>
 5   0  0.1984680E-01  0.4955348E+03  0.7818609E-02  0.1014951E+00
        1   -1    0    0  501    0  0.00000000000E+00  0.00000000000E+00  0.21636403562E+03  0.21636403568E+03  0.50400001928E-02 0.  1.
       -1   -1    0    0    0  501  0.00000000000E+00  0.00000000000E+00 -0.28372871329E+03  0.28372871334E+03  0.50400001928E-02 0. -1.
    10030    2    1    2    0    0  0.00000000000E+00  0.00000000000E+00 -0.67364677667E+02  0.50009274902E+03  0.49553481999E+03 0.  0.
        5    1    3    3  502    0 -0.23103849714E+02  0.12464501302E+03 -0.24846953040E+03  0.27897914739E+03  0.46999998093E+01 0. -1.
       -5    1    3    3    0  502  0.23103849714E+02 -0.12464501302E+03  0.18110485274E+03  0.22111360163E+03  0.46999998093E+01 0.  1.
</event>
<event>
 5   0  0.2013450E-01  0.5018164E+03  0.7818609E-02  0.1013306E+00
        1   -1    0    0  501    0  0.00000000000E+00  0.00000000000E+00  0.16726939417E+03  0.16726939424E+03  0.50400001928E-02 0. -1.
       -1   -1    0    0    0  501  0.00000000000E+00  0.00000000000E+00 -0.37636845209E+03  0.37636845212E+03  0.50400001928E-02 0.  1.
    10030    2    1    2    0    0  0.00000000000E+00  0.00000000000E+00 -0.20909905792E+03  0.54363784636E+03  0.50181639270E+03 0.  0.
        4    1    3    3  502    0 -0.64528400165E+02  0.11134309496E+03  0.12878924198E+03  0.18206998921E+03  0.12699999809E+01 0. -1.
       -4    1    3    3    0  502  0.64528400165E+02 -0.11134309496E+03 -0.33788829989E+03  0.36156785715E+03  0.12699999809E+01 0.  1.
</event>
<event>
 5   0  0.3117389E-01  0.4942055E+03  0.7818609E-02  0.1015303E+00
        2   -1    0    0  501    0  0.00000000000E+00  0.00000000000E+00  0.41728742259E+03  0.41728742260E+03  0.25500000920E-02 0. -1.
       -2   -1    0    0    0  501  0.00000000000E+00  0.00000000000E+00 -0.14632546037E+03  0.14632546039E+03  0.25500000920E-02 0.  1.
    10030    2    1    2    0    0  0.00000000000E+00  0.00000000000E+00  0.27096196222E+03  0.56361288299E+03  0.49420552091E+03 0.  0.
        4    1    3    3  502    0 -0.14321628127E+03 -0.14475768573E+03  0.29511223314E+03  0.35855060151E+03  0.12699999809E+01 0.  1.
       -4    1    3    3    0  502  0.14321628127E+03  0.14475768573E+03 -0.24150270919E+02  0.20506228147E+03  0.12699999809E+01 0. -1.
</event>
<event>
 5   0  0.1967161E-01  0.5102482E+03  0.7818609E-02  0.1011138E+00
       -1   -1    0    0    0  501  0.00000000000E+00  0.00000000000E+00  0.47856197365E+02  0.47856197631E+02  0.50400001928E-02 0.  1.
        1   -1    0    0  501    0  0.00000000000E+00  0.00000000000E+00 -0.13600811932E+04  0.13600811932E+04  0.50400001928E-02 0. -1.
    10030    2    1    2    0    0  0.00000000000E+00  0.00000000000E+00 -0.13122249958E+04  0.14079373908E+04  0.51024823060E+03 0.  0.
        1    1    3    3  502    0  0.12060383654E+03 -0.79854653932E+02 -0.76220437491E+02  0.16349803136E+03  0.50400001928E-02 0.  1.
       -1    1    3    3    0  502 -0.12060383654E+03  0.79854653932E+02 -0.12360045583E+04  0.12444393595E+04  0.50400001928E-02 0. -1.
</event>
<event>
 5   0  0.3117389E-01  0.5070315E+03  0.7818609E-02  0.1011960E+00
        2   -1    0    0  501    0  0.00000000000E+00  0.00000000000E+00  0.39028901842E+03  0.39028901843E+03  0.25500000920E-02 0. -1.
       -2   -1    0    0    0  501  0.00000000000E+00  0.00000000000E+00 -0.16467345307E+03  0.16467345309E+03  0.25500000920E-02 0.  1.
    10030    2    1    2    0    0  0.00000000000E+00  0.00000000000E+00  0.22561556535E+03  0.55496247152E+03  0.50703151920E+03 0.  0.
        4    1    3    3  502    0  0.97088645240E+02 -0.23048988282E+03  0.67456131046E+02  0.25904388360E+03  0.12699999809E+01 0.  1.
       -4    1    3    3    0  502 -0.97088645240E+02  0.23048988282E+03  0.15815943430E+03  0.29591858792E+03  0.12699999809E+01 0. -1.
</event>
<event>
 5   0  0.3187123E-01  0.5245994E+03  0.7818609E-02  0.1007550E+00
        2   -1    0    0  501    0  0.00000000000E+00  0.00000000000E+00  0.10916429993E+04  0.10916429993E+04  0.25500000920E-02 0. -1.
       -2   -1    0    0    0  501  0.00000000000E+00  0.00000000000E+00 -0.63025304561E+02  0.63025304612E+02  0.25500000920E-02 0.  1.
    10030    2    1    2    0    0  0.00000000000E+00  0.00000000000E+00  0.10286176948E+04  0.11546683039E+04  0.52459939967E+03 0.  0.
        5    1    3    3  502    0 -0.47407020262E+01 -0.25904562428E+03  0.60376817839E+03  0.65702755875E+03  0.46999998093E+01 0. -1.
       -5    1    3    3    0  502  0.47407020262E+01  0.25904562428E+03  0.42484951636E+03  0.49764074518E+03  0.46999998093E+01 0.  1.
</event>
<event>
 5   0  0.2013450E-01  0.4929501E+03  0.7818609E-02  0.1015636E+00
        1   -1    0    0  501    0  0.00000000000E+00  0.00000000000E+00  0.19969080091E+03  0.19969080097E+03  0.50400001928E-02 0. -1.
       -1   -1    0    0    0  501  0.00000000000E+00  0.00000000000E+00 -0.30422005400E+03  0.30422005404E+03  0.50400001928E-02 0.  1.
    10030    2    1    2    0    0  0.00000000000E+00  0.00000000000E+00 -0.10452925309E+03  0.50391085501E+03  0.49295008373E+03 0.  0.
        4    1    3    3  502    0  0.16830928131E+03 -0.81876722182E+02  0.11166478565E+03  0.21795056564E+03  0.12699999809E+01 0.  1.
       -4    1    3    3    0  502 -0.16830928131E+03  0.81876722182E+02 -0.21619403874E+03  0.28596028937E+03  0.12699999809E+01 0. -1.
</event>
<event>
 5   0  0.3187123E-01  0.4999139E+03  0.7818609E-02  0.1013801E+00
        2   -1    0    0  501    0  0.00000000000E+00  0.00000000000E+00  0.97842777475E+03  0.97842777475E+03  0.25500000920E-02 0. -1.
       -2   -1    0    0    0  501  0.00000000000E+00  0.00000000000E+00 -0.63855997177E+02  0.63855997228E+02  0.25500000920E-02 0.  1.
    10030    2    1    2    0    0  0.00000000000E+00  0.00000000000E+00  0.91457177757E+03  0.10422837720E+04  0.49991391759E+03 0.  0.
        5    1    3    3  502    0 -0.45023408401E+02  0.19119135843E+03  0.77944008176E+03  0.80382222780E+03  0.46999998093E+01 0. -1.
       -5    1    3    3    0  502  0.45023408401E+02 -0.19119135843E+03  0.13513169581E+03  0.23846154418E+03  0.46999998093E+01 0.  1.
</event>
<event>
 5   0  0.1292375E-01  0.4989275E+03  0.7818609E-02  0.1014059E+00
       -4   -1    0    0    0  501  0.00000000000E+00  0.00000000000E+00  0.67360628237E+03  0.67360747958E+03  0.12699999809E+01 0. -1.
        4   -1    0    0  501    0  0.00000000000E+00  0.00000000000E+00 -0.92380897588E+02  0.92389626794E+02  0.12699999809E+01 0.  1.
    10030    2    1    2    0    0  0.00000000000E+00  0.00000000000E+00  0.58122538478E+03  0.76599710637E+03  0.49892746874E+03 0.  0.
        4    1    3    3  502    0  0.18032659957E+03 -0.17225526822E+03  0.30044116161E+03  0.39045622601E+03  0.12699999809E+01 0.  1.
       -4    1    3    3    0  502 -0.18032659957E+03  0.17225526822E+03  0.28078422317E+03  0.37554088036E+03  0.12699999809E+01 0. -1.
</event>
<event>
 5   0  0.1292375E-01  0.5047527E+03  0.7818609E-02  0.1012546E+00
        3   -1    0    0  501    0  0.00000000000E+00  0.00000000000E+00  0.25609694737E+03  0.25609696729E+03  0.10100000352E+00 0.  1.
       -3   -1    0    0    0  501  0.00000000000E+00  0.00000000000E+00 -0.24870980829E+03  0.24870982879E+03  0.10100000352E+00 0. -1.
    10030    2    1    2    0    0  0.00000000000E+00  0.00000000000E+00  0.73871390857E+01  0.50480679608E+03  0.50475274298E+03 0.  0.
        3    1    3    3  502    0  0.88697312732E+02  0.12081629177E+03  0.20676711292E+03  0.25537509438E+03  0.10100000352E+00 0.  1.
       -3    1    3    3    0  502 -0.88697312732E+02 -0.12081629177E+03 -0.19937997384E+03  0.24943170170E+03  0.10100000352E+00 0. -1.
</event>
<event>
 5   0  0.3329246E-01  0.5005159E+03  0.7818609E-02  0.1013644E+00
       -2   -1    0    0    0  501  0.00000000000E+00  0.00000000000E+00  0.18667243741E+03  0.18667243743E+03  0.25500000920E-02 0.  1.
        2   -1    0    0  501    0  0.00000000000E+00  0.00000000000E+00 -0.33550231800E+03  0.33550231801E+03  0.25500000920E-02 0. -1.
    10030    2    1    2    0    0  0.00000000000E+00  0.00000000000E+00 -0.14882988059E+03  0.52217475544E+03  0.50051587573E+03 0.  0.
        2    1    3    3  502    0  0.24642137051E+03  0.24051658208E+01 -0.28942606293E+02  0.24812688515E+03  0.25500000920E-02 0. -1.
       -2    1    3    3    0  502 -0.24642137051E+03 -0.24051658208E+01 -0.11988727429E+03  0.27404787029E+03  0.25500000920E-02 0.  1.
</event>
<event>
 5   0  0.1984297E-01  0.4941087E+03  0.7818609E-02  0.1015328E+00
       -1   -1    0    0    0  501  0.00000000000E+00  0.00000000000E+00  0.10744739361E+03  0.10744739373E+03  0.50400001928E-02 0.  1.
        1   -1    0    0  501    0  0.00000000000E+00  0.00000000000E+00 -0.56805328939E+03  0.56805328941E+03  0.50400001928E-02 0. -1.
    10030    2    1    2    0    0  0.00000000000E+00  0.00000000000E+00 -0.46060589578E+03  0.67550068314E+03  0.49410867397E+03 0.  0.
        3    1    3    3  502    0 -0.70628929846E+02  0.55537934228E+02  0.84319209928E+02  0.12321788520E+03  0.10100000352E+00 0.  1.
       -3    1    3    3    0  502  0.70628929846E+02 -0.55537934228E+02 -0.54492510571E+03  0.55228279794E+03  0.10100000352E+00 0. -1.
</event>
</LesHouchesEvents>
