<LesHouchesEvents version="3.0">
<header>
<!--
#*********************************************************************
#                                                                    *
#                        MadGraph5_aMC@NLO                           *
#                                                                    *
#                           Going Beyond                             *
#                                                                    *
#                   http://madgraph.hep.uiuc.edu                     *
#                   http://madgraph.phys.ucl.ac.be                   *
#                   http://amcatnlo.cern.ch                          *
#                                                                    *
#                     The MadGraph5_aMC@NLO team                     *
#                                                                    *
#....................................................................*
#                                                                    *
# This file contains all the information necessary to reproduce      *
# the events generated:                                              *
#                                                                    *
# 1. software version                                                *
# 2. proc_card          : code generation info including model       *
# 3. param_card         : model primary parameters in the LH format  *
# 4. run_card           : running parameters (collider and cuts)     *
# 5. pythia_card        : present only if pythia has been run        *
# 6. pgs_card           : present only if pgs has been run           *
# 7. delphes_cards      : present only if delphes has been run       *
#                                                                    *
#                                                                    *
#*********************************************************************
-->
<MGVersion>
#5.2.2.3
</MGVersion>
<MG5ProcCard>
#************************************************************
#*                     MadGraph5_aMC@NLO                    *
#*                                                          *
#*                *                       *                 *
#*                  *        * *        *                   *
#*                    * * * * 5 * * * *                     *
#*                  *        * *        *                   *
#*                *                       *                 *
#*                                                          *
#*                                                          *
#*         VERSION 2.2.3                 2015-02-10         *
#*                                                          *
#*    The MadGraph5_aMC@NLO Development Team - Find us at   *
#*    https://server06.fynu.ucl.ac.be/projects/madgraph     *
#*                                                          *
#************************************************************
#*                                                          *
#*               Command File for MadGraph5_aMC@NLO         *
#*                                                          *
#*     run as ./bin/mg5_aMC  filename                       *
#*                                                          *
#************************************************************
set group_subprocesses Auto
set ignore_six_quark_processes False
set loop_optimized_output True
set gauge unitary
set complex_mass_scheme False
import model sm
define p = g u c d s u~ c~ d~ s~
define j = g u c d s u~ c~ d~ s~
define l+ = e+ mu+
define l- = e- mu-
define vl = ve vm vt
define vl~ = ve~ vm~ vt~
import model Zprime_UFO
generate p p > zph, zph > j j
add process p p > zph, zph > b b~
output Dijet_signal
</MG5ProcCard>
<MGProcCard>
#*********************************************************************
#                        MadGraph/MadEvent                           *
#                   http://madgraph.hep.uiuc.edu                     *
#                                                                    *
#                          proc_card.dat                             *
#*********************************************************************
#                                                                    *
#            This Files is generated by MADGRAPH 5                   *
#                                                                    *
# WARNING: This Files is generated for MADEVENT (compatibility issue)*
#          This files is NOT a valid MG4 proc_card.dat               *
#          Running this in MG4 will NEVER reproduce the result of MG5*
#                                                                    *
#*********************************************************************
#*********************************************************************
# Process(es) requested : mg2 input                                  *
#*********************************************************************
# Begin PROCESS # This is TAG. Do not modify this line
p p > zph , zph > j j           #Process
# Be carefull the coupling are here in MG5 convention
          
end_coup           # End the couplings input

done               # this tells MG there are no more procs
# End PROCESS  # This is TAG. Do not modify this line
#*********************************************************************
# Model information                                                  *
#*********************************************************************
# Begin MODEL  # This is TAG. Do not modify this line
Zprime_UFO
# End   MODEL  # This is TAG. Do not modify this line
#*********************************************************************
# Start multiparticle definitions                                    *
#*********************************************************************
# Begin MULTIPARTICLES # This is TAG. Do not modify this line

# End  MULTIPARTICLES # This is TAG. Do not modify this line
</MGProcCard>
<MGRunCard>
#*********************************************************************
#                       MadGraph5_aMC@NLO                            *
#                                                                    *
#                     run_card.dat MadEvent                          *
#                                                                    *
#  This file is used to set the parameters of the run.               *
#                                                                    *
#  Some notation/conventions:                                        *
#                                                                    *
#   Lines starting with a '# ' are info or comments                  *
#                                                                    *
#   mind the format:   value    = variable     ! comment             *
#*********************************************************************
#
#*******************                                                 
# Running parameters
#*******************                                                 
#                                                                    
#*********************************************************************
# Tag name for the run (one word)                                    *
#*********************************************************************
  tag_1     = run_tag ! name of the run 
#*********************************************************************
# Run to generate the grid pack                                      *
#*********************************************************************
  .false.     = gridpack  !True = setting up the grid pack
#*********************************************************************
# Number of events and rnd seed                                      *
# Warning: Do not generate more than 1M events in a single run       *
# If you want to run Pythia, avoid more than 50k events in a run.    *
#*********************************************************************
  2000 = nevents ! Number of unweighted events requested 
 2343 = iseed   ! rnd seed (0=assigned automatically=default))
#*********************************************************************
# Collider type and energy                                           *
# lpp: 0=No PDF, 1=proton, -1=antiproton, 2=photon from proton,      *
#                                         3=photon from electron     *
#*********************************************************************
        1     = lpp1    ! beam 1 type 
        1     = lpp2    ! beam 2 type
     4000     = ebeam1  ! beam 1 total energy in GeV
     4000     = ebeam2  ! beam 2 total energy in GeV
#*********************************************************************
# Beam polarization from -100 (left-handed) to 100 (right-handed)    *
#*********************************************************************
        0     = polbeam1 ! beam polarization for beam 1
        0     = polbeam2 ! beam polarization for beam 2
#*********************************************************************
# PDF CHOICE: this automatically fixes also alpha_s and its evol.    *
#*********************************************************************
 'nn23lo1'    = pdlabel     ! PDF set                                     
 230000    = lhaid     ! if pdlabel=lhapdf, this is the lhapdf number
#*********************************************************************
# Renormalization and factorization scales                           *
#*********************************************************************
 F        = fixed_ren_scale  ! if .true. use fixed ren scale
 F        = fixed_fac_scale  ! if .true. use fixed fac scale
 91.1880  = scale            ! fixed ren scale
 91.1880  = dsqrt_q2fact1    ! fixed fact scale for pdf1
 91.1880  = dsqrt_q2fact2    ! fixed fact scale for pdf2
 1        = scalefact        ! scale factor for event-by-event scales
#*********************************************************************
# Matching - Warning! ickkw > 1 is still beta
#*********************************************************************
 0        = ickkw            ! 0 no matching, 1 MLM, 2 CKKW matching
 1        = highestmult      ! for ickkw=2, highest mult group
 1        = ktscheme         ! for ickkw=1, 1 Durham kT, 2 Pythia pTE
 1        = alpsfact         ! scale factor for QCD emission vx
 F        = chcluster        ! cluster only according to channel diag
 T        = pdfwgt           ! for ickkw=1, perform pdf reweighting
 5        = asrwgtflavor     ! highest quark flavor for a_s reweight
 T        = clusinfo         ! include clustering tag in output
 3.0      = lhe_version       ! Change the way clustering information pass to shower.        
#*********************************************************************
#**********************************************************
#
#**********************************************************
# Automatic ptj and mjj cuts if xqcut > 0
# (turn off for VBF and single top processes)
#**********************************************************
   T  = auto_ptj_mjj  ! Automatic setting of ptj and mjj
#**********************************************************
#                                                                    
#**********************************
# BW cutoff (M+/-bwcutoff*Gamma)
#**********************************
  15  = bwcutoff      ! (M+/-bwcutoff*Gamma)
#**********************************************************
# Apply pt/E/eta/dr/mij cuts on decay products or not
# (note that etmiss/ptll/ptheavy/ht/sorted cuts always apply)
#**********************************************************
   T  = cut_decays    ! Cut decay products 
#*************************************************************
# Number of helicities to sum per event (0 = all helicities)
# 0 gives more stable result, but longer run time (needed for
# long decay chains e.g.).
# Use >=2 if most helicities contribute, e.g. pure QCD.
#*************************************************************
   0  = nhel          ! Number of helicities used per event
#*******************                                                 
# Standard Cuts
#*******************                                                 
#                                                                    
#*********************************************************************
# Minimum and maximum pt's (for max, -1 means no cut)                *
#*********************************************************************
 20  = ptj       ! minimum pt for the jets 
  0  = ptb       ! minimum pt for the b 
 10  = pta       ! minimum pt for the photons 
 10  = ptl       ! minimum pt for the charged leptons 
  0  = misset    ! minimum missing Et (sum of neutrino's momenta)
  0  = ptheavy   ! minimum pt for one heavy final state
 1.0 = ptonium   ! minimum pt for the quarkonium states
 -1  = ptjmax    ! maximum pt for the jets
 -1  = ptbmax    ! maximum pt for the b
 -1  = ptamax    ! maximum pt for the photons
 -1  = ptlmax    ! maximum pt for the charged leptons
 -1  = missetmax ! maximum missing Et (sum of neutrino's momenta)
#*********************************************************************
# Minimum and maximum E's (in the center of mass frame)              *
#*********************************************************************
  0  = ej     ! minimum E for the jets 
  0  = eb     ! minimum E for the b 
  0  = ea     ! minimum E for the photons 
  0  = el     ! minimum E for the charged leptons 
 -1   = ejmax ! maximum E for the jets
 -1   = ebmax ! maximum E for the b
 -1   = eamax ! maximum E for the photons
 -1   = elmax ! maximum E for the charged leptons
#*********************************************************************
# Maximum and minimum absolute rapidity (for max, -1 means no cut)   *
#*********************************************************************
   5  = etaj    ! max rap for the jets 
  -1  = etab    ! max rap for the b
 2.5  = etaa    ! max rap for the photons 
 2.5  = etal    ! max rap for the charged leptons 
 0.6  = etaonium ! max rap for the quarkonium states
   0  = etajmin ! min rap for the jets
   0  = etabmin ! min rap for the b
   0  = etaamin ! min rap for the photons
   0  = etalmin ! main rap for the charged leptons
#*********************************************************************
# Minimum and maximum DeltaR distance                                *
#*********************************************************************
 0.4 = drjj    ! min distance between jets 
 0   = drbb    ! min distance between b's 
 0.4 = drll    ! min distance between leptons 
 0.4 = draa    ! min distance between gammas 
 0   = drbj    ! min distance between b and jet 
 0.4 = draj    ! min distance between gamma and jet 
 0.4 = drjl    ! min distance between jet and lepton 
 0   = drab    ! min distance between gamma and b 
 0   = drbl    ! min distance between b and lepton 
 0.4 = dral    ! min distance between gamma and lepton 
 -1  = drjjmax ! max distance between jets
 -1  = drbbmax ! max distance between b's
 -1  = drllmax ! max distance between leptons
 -1  = draamax ! max distance between gammas
 -1  = drbjmax ! max distance between b and jet
 -1  = drajmax ! max distance between gamma and jet
 -1  = drjlmax ! max distance between jet and lepton
 -1  = drabmax ! max distance between gamma and b
 -1  = drblmax ! max distance between b and lepton
 -1  = dralmax ! maxdistance between gamma and lepton
#*********************************************************************
# Minimum and maximum invariant mass for pairs                       *
# WARNING: for four lepton final state mmll cut require to have      *
#          different lepton masses for each flavor!                  *           
#*********************************************************************
 0   = mmjj    ! min invariant mass of a jet pair 
 0   = mmbb    ! min invariant mass of a b pair 
 0   = mmaa    ! min invariant mass of gamma gamma pair
 0   = mmll    ! min invariant mass of l+l- (same flavour) lepton pair
 -1  = mmjjmax ! max invariant mass of a jet pair
 -1  = mmbbmax ! max invariant mass of a b pair
 -1  = mmaamax ! max invariant mass of gamma gamma pair
 -1  = mmllmax ! max invariant mass of l+l- (same flavour) lepton pair
#*********************************************************************
# Minimum and maximum invariant mass for all letpons                 *
#*********************************************************************
 0   = mmnl    ! min invariant mass for all letpons (l+- and vl) 
 -1  = mmnlmax ! max invariant mass for all letpons (l+- and vl) 
#*********************************************************************
# Minimum and maximum pt for 4-momenta sum of leptons                *
#*********************************************************************
 0   = ptllmin  ! Minimum pt for 4-momenta sum of leptons(l and vl)
 -1  = ptllmax  ! Maximum pt for 4-momenta sum of leptons(l and vl)
#*********************************************************************
# Inclusive cuts                                                     *
#*********************************************************************
 0  = xptj ! minimum pt for at least one jet  
 0  = xptb ! minimum pt for at least one b 
 0  = xpta ! minimum pt for at least one photon 
 0  = xptl ! minimum pt for at least one charged lepton 
#*********************************************************************
# Control the pt's of the jets sorted by pt                          *
#*********************************************************************
 0   = ptj1min ! minimum pt for the leading jet in pt
 0   = ptj2min ! minimum pt for the second jet in pt
 0   = ptj3min ! minimum pt for the third jet in pt
 0   = ptj4min ! minimum pt for the fourth jet in pt
 -1  = ptj1max ! maximum pt for the leading jet in pt 
 -1  = ptj2max ! maximum pt for the second jet in pt
 -1  = ptj3max ! maximum pt for the third jet in pt
 -1  = ptj4max ! maximum pt for the fourth jet in pt
 0   = cutuse  ! reject event if fails any (0) / all (1) jet pt cuts
#*********************************************************************
# Control the pt's of leptons sorted by pt                           *
#*********************************************************************
 0   = ptl1min ! minimum pt for the leading lepton in pt
 0   = ptl2min ! minimum pt for the second lepton in pt
 0   = ptl3min ! minimum pt for the third lepton in pt
 0   = ptl4min ! minimum pt for the fourth lepton in pt
 -1  = ptl1max ! maximum pt for the leading lepton in pt 
 -1  = ptl2max ! maximum pt for the second lepton in pt
 -1  = ptl3max ! maximum pt for the third lepton in pt
 -1  = ptl4max ! maximum pt for the fourth lepton in pt
#*********************************************************************
# Control the Ht(k)=Sum of k leading jets                            *
#*********************************************************************
 0   = htjmin ! minimum jet HT=Sum(jet pt)
 -1  = htjmax ! maximum jet HT=Sum(jet pt)
 0   = ihtmin  !inclusive Ht for all partons (including b)
 -1  = ihtmax  !inclusive Ht for all partons (including b)
 0   = ht2min ! minimum Ht for the two leading jets
 0   = ht3min ! minimum Ht for the three leading jets
 0   = ht4min ! minimum Ht for the four leading jets
 -1  = ht2max ! maximum Ht for the two leading jets
 -1  = ht3max ! maximum Ht for the three leading jets
 -1  = ht4max ! maximum Ht for the four leading jets
#***********************************************************************
# Photon-isolation cuts, according to hep-ph/9801442                   *
# When ptgmin=0, all the other parameters are ignored                  *
# When ptgmin>0, pta and draj are not going to be used                 *
#***********************************************************************
   0 = ptgmin ! Min photon transverse momentum
 0.4 = R0gamma ! Radius of isolation code
 1.0 = xn ! n parameter of eq.(3.4) in hep-ph/9801442
 1.0 = epsgamma ! epsilon_gamma parameter of eq.(3.4) in hep-ph/9801442
 .true. = isoEM ! isolate photons from EM energy (photons and leptons)
#*********************************************************************
# WBF cuts                                                           *
#*********************************************************************
 0   = xetamin ! minimum rapidity for two jets in the WBF case  
 0   = deltaeta ! minimum rapidity for two jets in the WBF case 
#*********************************************************************
# KT DURHAM CUT                                                      *
#*********************************************************************
 -1    =  ktdurham        
 0.4  =  dparameter 
#*********************************************************************
# maximal pdg code for quark to be considered as a light jet         *
# (otherwise b cuts are applied)                                     *
#*********************************************************************
 4 = maxjetflavor    ! Maximum jet pdg code
#*********************************************************************
# Jet measure cuts                                                   *
#*********************************************************************
 0   = xqcut   ! minimum kt jet measure between partons
#*********************************************************************
#
#*********************************************************************
# Store info for systematics studies                                 *
# WARNING: If use_syst is T, matched Pythia output is                *
#          meaningful ONLY if plotted taking matchscale              *
#          reweighting into account!                                 *
#*********************************************************************
   F  = use_syst      ! Enable systematics studies
#
#**************************************
# Parameter of the systematics study
#  will be used by SysCalc (if installed)
#**************************************                                  
#
0.5 1 2 = sys_scalefact  # factorization/renormalization scale factor
0.5 1 2 = sys_alpsfact  # \alpha_s emission scale factors
30 50 = sys_matchscale # variation of merging scale
# PDF sets and number of members (0 or none for all members).
CT10nlo.LHgrid = sys_pdf # matching scales
# MSTW2008nlo68cl.LHgrid 1  = sys_pdf
</MGRunCard>
<slha>
######################################################################
## PARAM_CARD AUTOMATICALY GENERATED BY MG5 FOLLOWING UFO MODEL   ####
######################################################################
##                                                                  ##
##  Width set on Auto will be computed following the information    ##
##        present in the decay.py files of the model.               ##
##        See  arXiv:1402.1178 for more details.                    ##
##                                                                  ##
######################################################################

###################################
## INFORMATION FOR CKMBLOCK
###################################
Block ckmblock 
    1 2.277360e-01 # cabi 

###################################
## INFORMATION FOR FRBLOCK
###################################
Block frblock 
    1 1.200000e+00 # gz 

###################################
## INFORMATION FOR MASS
###################################
Block mass 
    1 5.040000e-03 # MD 
    2 2.550000e-03 # MU 
    3 1.010000e-01 # MS 
    4 1.270000e+00 # MC 
    5 4.700000e+00 # MB 
    6 1.720000e+02 # MT 
   11 5.110000e-04 # Me 
   13 1.056600e-01 # MM 
   15 1.777000e+00 # MTA 
   23 9.118760e+01 # MZ 
   25 1.200000e+02 # MH 
  10030 3.000000e+03 # MZph 
  10031 3.000000e+02 # MZpl 
## Dependent parameters, given by model restrictions.
## Those values should be edited following the 
## analytical expression. MG5 ignores those values 
## but they are important for interfacing the output of MG5
## to external program such as Pythia.
  12 0.000000 # ve : 0.0 
  14 0.000000 # vm : 0.0 
  16 0.000000 # vt : 0.0 
  21 0.000000 # g : 0.0 
  22 0.000000 # a : 0.0 
  24 79.824360 # w+ : cmath.sqrt(MZ__exp__2/2. + cmath.sqrt(MZ__exp__4/4. - (aEW*cmath.pi*MZ__exp__2)/(Gf*sqrt__2))) 

###################################
## INFORMATION FOR SMINPUTS
###################################
Block sminputs 
    1 1.279000e+02 # aEWM1 
    2 1.166370e-05 # Gf 
    3 1.184000e-01 # aS 

###################################
## INFORMATION FOR YUKAWA
###################################
Block yukawa 
    1 5.040000e-03 # ymdo 
    2 2.550000e-03 # ymup 
    3 1.010000e-01 # yms 
    4 1.270000e+00 # ymc 
    5 4.700000e+00 # ymb 
    6 1.720000e+02 # ymt 
   11 5.110000e-04 # yme 
   13 1.056600e-01 # ymm 
   15 1.777000e+00 # ymtau 

###################################
## INFORMATION FOR DECAY
###################################
DECAY   6 1.508336e+00 # WT 
DECAY  23 2.495200e+00 # WZ 
DECAY  24 2.085000e+00 # WW 
DECAY  25 5.753088e-03 # WH 
## Dependent parameters, given by model restrictions.
## Those values should be edited following the 
## analytical expression. MG5 ignores those values 
## but they are important for interfacing the output of MG5
## to external program such as Pythia.
DECAY  1 0.000000 # d : 0.0 
DECAY  2 0.000000 # u : 0.0 
DECAY  3 0.000000 # s : 0.0 
DECAY  4 0.000000 # c : 0.0 
DECAY  5 0.000000 # b : 0.0 
DECAY  11 0.000000 # e- : 0.0 
DECAY  12 0.000000 # ve : 0.0 
DECAY  13 0.000000 # mu- : 0.0 
DECAY  14 0.000000 # vm : 0.0 
DECAY  15 0.000000 # ta- : 0.0 
DECAY  16 0.000000 # vt : 0.0 
DECAY  21 0.000000 # g : 0.0 
DECAY  22 0.000000 # a : 0.0 
DECAY  10030 0.308725 # zph : (gz__exp__2*MZph*(5 + cmath.sqrt(1 - (4*MT__exp__2)/MZph__exp__2)))/(144.*cmath.pi) 
DECAY  10031 0.132629 # zpl : (5*gz__exp__2*MZpl)/(144.*cmath.pi) 
#===========================================================
# QUANTUM NUMBERS OF NEW STATE(S) (NON SM PDG CODE)
#===========================================================

Block QNUMBERS 10030  # zph 
        1 0  # 3 times electric charge
        2 3  # number of spin states (2S+1)
        3 1  # colour rep (1: singlet, 3: triplet, 8: octet)
        4 0  # Particle/Antiparticle distinction (0=own anti)
Block QNUMBERS 10031  # zpl 
        1 0  # 3 times electric charge
        2 3  # number of spin states (2S+1)
        3 1  # colour rep (1: singlet, 3: triplet, 8: octet)
        4 0  # Particle/Antiparticle distinction (0=own anti)
</slha>
## END BANNER##
<MGGenerationInfo>
#  Number of Events        :         3904
#  Integrated weight (pb)  :  0.18388E-02
#  Max wgt                 :  0.72173E-06
#  Average wgt             :  0.47100E-06
</MGGenerationInfo>
</header>
<init>
     2212     2212  0.40000000000E+04  0.40000000000E+04 0 0  247000  247000 2   1
  0.18413586003E-02  0.40697549965E-05  0.72172550000E-06   0
</init>
<event>
 5   0  0.7217255E-06  0.3028944E+04  0.7818609E-02  0.8235514E-01
        2   -1    0    0  501    0  0.00000000000E+00  0.00000000000E+00  0.21351764174E+04  0.21351764174E+04  0.25500000920E-02 0. -1.
       -2   -1    0    0    0  501  0.00000000000E+00  0.00000000000E+00 -0.10742086490E+04  0.10742086490E+04  0.25500000920E-02 0.  1.
    10030    2    1    2    0    0  0.00000000000E+00  0.00000000000E+00  0.10609677684E+04  0.32093850665E+04  0.30289436937E+04 0.  0.
        1    1    3    3  502    0 -0.13160856820E+04  0.15273608984E+03  0.13078195281E+04  0.18616663916E+04  0.50400001928E-02 0. -1.
       -1    1    3    3    0  502  0.13160856820E+04 -0.15273608984E+03 -0.24685175966E+03  0.13477186749E+04  0.50400001928E-02 0.  1.
</event>
<event>
 5   0  0.7217255E-06  0.2942834E+04  0.7818609E-02  0.8260246E-01
        2   -1    0    0  501    0  0.00000000000E+00  0.00000000000E+00  0.17163498628E+04  0.17163498628E+04  0.25500000920E-02 0. -1.
       -2   -1    0    0    0  501  0.00000000000E+00  0.00000000000E+00 -0.12614377722E+04  0.12614377722E+04  0.25500000920E-02 0.  1.
    10030    2    1    2    0    0  0.00000000000E+00  0.00000000000E+00  0.45491209060E+03  0.29777876350E+04  0.29428343802E+04 0.  0.
        1    1    3    3  502    0  0.76489420278E+03  0.10756100283E+03 -0.10397910579E+04  0.12952984038E+04  0.50400001928E-02 0.  1.
       -1    1    3    3    0  502 -0.76489420278E+03 -0.10756100283E+03  0.14947031485E+04  0.16824892312E+04  0.50400001928E-02 0. -1.
</event>
<event>
 5   0  0.7201538E-06  0.3036508E+04  0.7818609E-02  0.8233382E-01
       -2   -1    0    0    0  501  0.00000000000E+00  0.00000000000E+00  0.18349291592E+04  0.18349291592E+04  0.25500000920E-02 0.  1.
        2   -1    0    0  501    0  0.00000000000E+00  0.00000000000E+00 -0.12562309474E+04  0.12562309474E+04  0.25500000920E-02 0. -1.
    10030    2    1    2    0    0  0.00000000000E+00  0.00000000000E+00  0.57869821181E+03  0.30911601067E+04  0.30365077284E+04 0.  0.
        3    1    3    3  502    0 -0.11936204430E+04  0.17153057550E+02 -0.66565648511E+03  0.13667927991E+04  0.10100000352E+00 0. -1.
       -3    1    3    3    0  502  0.11936204430E+04 -0.17153057550E+02  0.12443546969E+04  0.17243673075E+04  0.10100000352E+00 0.  1.
</event>
<event>
 5   0  0.7217255E-06  0.2986001E+04  0.7818609E-02  0.8247740E-01
        2   -1    0    0  501    0  0.00000000000E+00  0.00000000000E+00  0.19392519984E+04  0.19392519984E+04  0.25500000920E-02 0.  1.
       -2   -1    0    0    0  501  0.00000000000E+00  0.00000000000E+00 -0.11494384319E+04  0.11494384319E+04  0.25500000920E-02 0. -1.
    10030    2    1    2    0    0  0.00000000000E+00  0.00000000000E+00  0.78981356649E+03  0.30886904302E+04  0.29860011895E+04 0.  0.
        1    1    3    3  502    0  0.24681850470E+03  0.14628258097E+04  0.22098135844E+03  0.14998704893E+04  0.50400001928E-02 0.  1.
       -1    1    3    3    0  502 -0.24681850470E+03 -0.14628258097E+04  0.56883220805E+03  0.15888199409E+04  0.50400001928E-02 0. -1.
</event>
<event>
 5   0  0.7201538E-06  0.3034739E+04  0.7818609E-02  0.8233880E-01
       -2   -1    0    0    0  501  0.00000000000E+00  0.00000000000E+00  0.20205391941E+04  0.20205391941E+04  0.25500000920E-02 0.  1.
        2   -1    0    0  501    0  0.00000000000E+00  0.00000000000E+00 -0.11395030929E+04  0.11395030929E+04  0.25500000920E-02 0. -1.
    10030    2    1    2    0    0  0.00000000000E+00  0.00000000000E+00  0.88103610122E+03  0.31600422870E+04  0.30347393042E+04 0.  0.
        3    1    3    3  502    0 -0.62004954131E+03 -0.29891848860E+03  0.18486083317E+04  0.19726039822E+04  0.10100000352E+00 0.  1.
       -3    1    3    3    0  502  0.62004954131E+03  0.29891848860E+03 -0.96757223043E+03  0.11874383048E+04  0.10100000352E+00 0. -1.
</event>
<event>
 5   0  0.2628425E-06  0.2826824E+04  0.7818609E-02  0.8294989E-01
       -1   -1    0    0    0  501  0.00000000000E+00  0.00000000000E+00  0.15757992793E+04  0.15757992793E+04  0.50400001928E-02 0. -1.
        1   -1    0    0  501    0  0.00000000000E+00  0.00000000000E+00 -0.12677585425E+04  0.12677585425E+04  0.50400001928E-02 0.  1.
    10030    2    1    2    0    0  0.00000000000E+00  0.00000000000E+00  0.30804073676E+03  0.28435578218E+04  0.28268236575E+04 0.  0.
        1    1    3    3  502    0 -0.20940256835E+03  0.30565363629E+03 -0.12180407170E+04  0.12731444417E+04  0.50400001928E-02 0.  1.
       -1    1    3    3    0  502  0.20940256835E+03 -0.30565363629E+03  0.15260814538E+04  0.15704133802E+04  0.50400001928E-02 0. -1.
</event>
<event>
 5   0  0.2552990E-06  0.2995465E+04  0.7818609E-02  0.8245027E-01
       -1   -1    0    0    0  501  0.00000000000E+00  0.00000000000E+00  0.88960927516E+03  0.88960927517E+03  0.50400001928E-02 0.  1.
        1   -1    0    0  501    0  0.00000000000E+00  0.00000000000E+00 -0.25215594583E+04  0.25215594583E+04  0.50400001928E-02 0. -1.
    10030    2    1    2    0    0  0.00000000000E+00  0.00000000000E+00 -0.16319501832E+04  0.34111687335E+04  0.29954650270E+04 0.  0.
        3    1    3    3  502    0  0.12944268213E+04  0.65793173272E+03 -0.39789056123E+03  0.15055669595E+04  0.10100000352E+00 0.  1.
       -3    1    3    3    0  502 -0.12944268213E+04 -0.65793173272E+03 -0.12340596219E+04  0.19056017740E+04  0.10100000352E+00 0. -1.
</event>
<event>
 5   0  0.7217255E-06  0.2968035E+04  0.7818609E-02  0.8252918E-01
       -2   -1    0    0    0  501  0.00000000000E+00  0.00000000000E+00  0.86585290734E+03  0.86585290734E+03  0.25500000920E-02 0.  1.
        2   -1    0    0  501    0  0.00000000000E+00  0.00000000000E+00 -0.25435120897E+04  0.25435120897E+04  0.25500000920E-02 0. -1.
    10030    2    1    2    0    0  0.00000000000E+00  0.00000000000E+00 -0.16776591823E+04  0.34093649970E+04  0.29680345939E+04 0.  0.
        1    1    3    3  502    0 -0.19171106445E+03  0.90145505226E+03 -0.21749410344E+04  0.23621479307E+04  0.50400001928E-02 0. -1.
       -1    1    3    3    0  502  0.19171106445E+03 -0.90145505226E+03  0.49728185209E+03  0.10472170663E+04  0.50400001928E-02 0.  1.
</event>
<event>
 5   0  0.2422083E-06  0.3042805E+04  0.7818609E-02  0.8231612E-01
        1   -1    0    0  501    0  0.00000000000E+00  0.00000000000E+00  0.31485846143E+04  0.31485846143E+04  0.50400001928E-02 0.  1.
       -1   -1    0    0    0  501  0.00000000000E+00  0.00000000000E+00 -0.73514496788E+03  0.73514496790E+03  0.50400001928E-02 0. -1.
    10030    2    1    2    0    0  0.00000000000E+00  0.00000000000E+00  0.24134396464E+04  0.38837295822E+04  0.30428053734E+04 0.  0.
        2    1    3    3  502    0  0.10598720315E+04  0.82784715809E+03  0.21146508430E+04  0.25060741865E+04  0.25500000920E-02 0.  1.
       -2    1    3    3    0  502 -0.10598720315E+04 -0.82784715809E+03  0.29878880337E+03  0.13776553957E+04  0.25500000920E-02 0. -1.
</event>
<event>
 5   0  0.7217255E-06  0.2985210E+04  0.7818609E-02  0.8247967E-01
       -2   -1    0    0    0  501  0.00000000000E+00  0.00000000000E+00  0.11713763568E+04  0.11713763568E+04  0.25500000920E-02 0.  1.
        2   -1    0    0  501    0  0.00000000000E+00  0.00000000000E+00 -0.19019248148E+04  0.19019248148E+04  0.25500000920E-02 0. -1.
    10030    2    1    2    0    0  0.00000000000E+00  0.00000000000E+00 -0.73054845805E+03  0.30733011716E+04  0.29852100499E+04 0.  0.
        1    1    3    3  502    0 -0.36767950503E+03 -0.42299262474E+03  0.10589350952E+04  0.11981045509E+04  0.50400001928E-02 0.  1.
       -1    1    3    3    0  502  0.36767950503E+03  0.42299262474E+03 -0.17894835532E+04  0.18751966207E+04  0.50400001928E-02 0. -1.
</event>
<event>
 5   0  0.2422083E-06  0.2956946E+04  0.7818609E-02  0.8256133E-01
       -1   -1    0    0    0  501  0.00000000000E+00  0.00000000000E+00  0.16316843628E+04  0.16316843628E+04  0.50400001928E-02 0.  1.
        1   -1    0    0  501    0  0.00000000000E+00  0.00000000000E+00 -0.13396478341E+04  0.13396478341E+04  0.50400001928E-02 0. -1.
    10030    2    1    2    0    0  0.00000000000E+00  0.00000000000E+00  0.29203652871E+03  0.29713321969E+04  0.29569460074E+04 0.  0.
        2    1    3    3  502    0  0.77539065689E+03  0.11173293382E+04  0.72869012336E+03  0.15429338342E+04  0.25500000920E-02 0. -1.
       -2    1    3    3    0  502 -0.77539065689E+03 -0.11173293382E+04 -0.43665359465E+03  0.14283983627E+04  0.25500000920E-02 0.  1.
</event>
<event>
 5   0  0.6780150E-06  0.2817386E+04  0.7818609E-02  0.8297891E-01
        2   -1    0    0  501    0  0.00000000000E+00  0.00000000000E+00  0.10785526899E+04  0.10785526899E+04  0.25500000920E-02 0. -1.
       -2   -1    0    0    0  501  0.00000000000E+00  0.00000000000E+00 -0.18398879188E+04  0.18398879188E+04  0.25500000920E-02 0.  1.
    10030    2    1    2    0    0  0.00000000000E+00  0.00000000000E+00 -0.76133522892E+03  0.29184406087E+04  0.28173860679E+04 0.  0.
        5    1    3    3  502    0 -0.13828225651E+04 -0.15143903578E+03 -0.15075633540E+03  0.13992432208E+04  0.46999998093E+01 0. -1.
       -5    1    3    3    0  502  0.13828225651E+04  0.15143903578E+03 -0.61057889351E+03  0.15191973879E+04  0.46999998093E+01 0.  1.
</event>
<event>
 5   0  0.2672155E-06  0.2995267E+04  0.7818609E-02  0.8245084E-01
       -1   -1    0    0    0  501  0.00000000000E+00  0.00000000000E+00  0.19984610477E+04  0.19984610477E+04  0.50400001928E-02 0. -1.
        1   -1    0    0  501    0  0.00000000000E+00  0.00000000000E+00 -0.11223166709E+04  0.11223166710E+04  0.50400001928E-02 0.  1.
    10030    2    1    2    0    0  0.00000000000E+00  0.00000000000E+00  0.87614437674E+03  0.31207777186E+04  0.29952670332E+04 0.  0.
        5    1    3    3  502    0  0.10999939692E+04  0.89503855956E+03  0.93970634668E+03  0.17012204041E+04  0.46999998093E+01 0. -1.
       -5    1    3    3    0  502 -0.10999939692E+04 -0.89503855956E+03 -0.63561969937E+02  0.14195573146E+04  0.46999998093E+01 0.  1.
</event>
<event>
 5   0  0.2628425E-06  0.3090425E+04  0.7818609E-02  0.8218371E-01
        1   -1    0    0  501    0  0.00000000000E+00  0.00000000000E+00  0.16560403676E+04  0.16560403676E+04  0.50400001928E-02 0. -1.
       -1   -1    0    0    0  501  0.00000000000E+00  0.00000000000E+00 -0.14418013913E+04  0.14418013913E+04  0.50400001928E-02 0.  1.
    10030    2    1    2    0    0  0.00000000000E+00  0.00000000000E+00  0.21423897629E+03  0.30978417590E+04  0.30904247645E+04 0.  0.
        1    1    3    3  502    0  0.11571946373E+04 -0.51015692668E+03  0.99712525241E+03  0.16104714488E+04  0.50400001928E-02 0.  1.
       -1    1    3    3    0  502 -0.11571946373E+04  0.51015692668E+03 -0.78288627612E+03  0.14873703102E+04  0.50400001928E-02 0. -1.
</event>
<event>
 5   0  0.2552990E-06  0.2995908E+04  0.7818609E-02  0.8244900E-01
       -1   -1    0    0    0  501  0.00000000000E+00  0.00000000000E+00  0.13351995624E+04  0.13351995624E+04  0.50400001928E-02 0.  1.
        1   -1    0    0  501    0  0.00000000000E+00  0.00000000000E+00 -0.16805479608E+04  0.16805479608E+04  0.50400001928E-02 0. -1.
    10030    2    1    2    0    0  0.00000000000E+00  0.00000000000E+00 -0.34534839839E+03  0.30157475233E+04  0.29959084779E+04 0.  0.
        3    1    3    3  502    0 -0.12820853428E+04 -0.46681230070E+03  0.44965138371E+03  0.14366081329E+04  0.10100000352E+00 0.  1.
       -3    1    3    3    0  502  0.12820853428E+04  0.46681230070E+03 -0.79499978210E+03  0.15791393904E+04  0.10100000352E+00 0. -1.
</event>
<event>
 5   0  0.2552990E-06  0.3013066E+04  0.7818609E-02  0.8240010E-01
        1   -1    0    0  501    0  0.00000000000E+00  0.00000000000E+00  0.21194778355E+04  0.21194778355E+04  0.50400001928E-02 0.  1.
       -1   -1    0    0    0  501  0.00000000000E+00  0.00000000000E+00 -0.10708497502E+04  0.10708497502E+04  0.50400001928E-02 0. -1.
    10030    2    1    2    0    0  0.00000000000E+00  0.00000000000E+00  0.10486280853E+04  0.31903275857E+04  0.30130664186E+04 0.  0.
        3    1    3    3  502    0 -0.57895777512E+03 -0.99781031032E+03  0.15502466800E+04  0.19323773699E+04  0.10100000352E+00 0.  1.
       -3    1    3    3    0  502  0.57895777512E+03  0.99781031032E+03 -0.50161859469E+03  0.12579502158E+04  0.10100000352E+00 0. -1.
</event>
<event>
 5   0  0.7217255E-06  0.2990784E+04  0.7818609E-02  0.8246368E-01
       -2   -1    0    0    0  501  0.00000000000E+00  0.00000000000E+00  0.12196994742E+04  0.12196994742E+04  0.25500000920E-02 0.  1.
        2   -1    0    0  501    0  0.00000000000E+00  0.00000000000E+00 -0.18333998023E+04  0.18333998023E+04  0.25500000920E-02 0. -1.
    10030    2    1    2    0    0  0.00000000000E+00  0.00000000000E+00 -0.61370032813E+03  0.30530992765E+04  0.29907836932E+04 0.  0.
        1    1    3    3  502    0  0.61845583754E+03 -0.34456048425E+03 -0.16514840848E+04  0.17968331121E+04  0.50400001928E-02 0. -1.
       -1    1    3    3    0  502 -0.61845583754E+03  0.34456048425E+03  0.10377837567E+04  0.12562661644E+04  0.50400001928E-02 0.  1.
</event>
<event>
 5   0  0.2504260E-06  0.3027687E+04  0.7818609E-02  0.8235869E-01
       -1   -1    0    0    0  501  0.00000000000E+00  0.00000000000E+00  0.99018720951E+03  0.99018720952E+03  0.50400001928E-02 0. -1.
        1   -1    0    0  501    0  0.00000000000E+00  0.00000000000E+00 -0.23144337339E+04  0.23144337339E+04  0.50400001928E-02 0.  1.
    10030    2    1    2    0    0  0.00000000000E+00  0.00000000000E+00 -0.13242465243E+04  0.33046209434E+04  0.30276873554E+04 0.  0.
        4    1    3    3  502    0 -0.64076855344E+03 -0.96559255360E+03 -0.17252635610E+04  0.20783381068E+04  0.12699999809E+01 0.  1.
       -4    1    3    3    0  502  0.64076855344E+03  0.96559255360E+03  0.40101703661E+03  0.12262828365E+04  0.12699999809E+01 0. -1.
</event>
<event>
 5   0  0.2628425E-06  0.3016716E+04  0.7818609E-02  0.8238974E-01
        1   -1    0    0  501    0  0.00000000000E+00  0.00000000000E+00  0.25792773317E+04  0.25792773317E+04  0.50400001928E-02 0.  1.
       -1   -1    0    0    0  501  0.00000000000E+00  0.00000000000E+00 -0.88208574548E+03  0.88208574549E+03  0.50400001928E-02 0. -1.
    10030    2    1    2    0    0  0.00000000000E+00  0.00000000000E+00  0.16971915862E+04  0.34613630772E+04  0.30167159415E+04 0.  0.
        1    1    3    3  502    0 -0.12091143564E+04  0.52442051918E+03  0.68669242000E+01  0.13179611385E+04  0.50400001928E-02 0. -1.
       -1    1    3    3    0  502  0.12091143564E+04 -0.52442051918E+03  0.16903246620E+04  0.21434019387E+04  0.50400001928E-02 0.  1.
</event>
<event>
 5   0  0.6792811E-06  0.3004249E+04  0.7818609E-02  0.8242519E-01
       -2   -1    0    0    0  501  0.00000000000E+00  0.00000000000E+00  0.16777545291E+04  0.16777545291E+04  0.25500000920E-02 0. -1.
        2   -1    0    0  501    0  0.00000000000E+00  0.00000000000E+00 -0.13448797462E+04  0.13448797462E+04  0.25500000920E-02 0.  1.
    10030    2    1    2    0    0  0.00000000000E+00  0.00000000000E+00  0.33287478291E+03  0.30226342754E+04  0.30042490478E+04 0.  0.
        2    1    3    3  502    0 -0.54263278574E+03 -0.40429402672E+03  0.15157163964E+04  0.16599096947E+04  0.25500000920E-02 0. -1.
       -2    1    3    3    0  502  0.54263278574E+03  0.40429402672E+03 -0.11828416135E+04  0.13627245807E+04  0.25500000920E-02 0.  1.
</event>
<event>
 5   0  0.2552990E-06  0.3077031E+04  0.7818609E-02  0.8222070E-01
       -1   -1    0    0    0  501  0.00000000000E+00  0.00000000000E+00  0.16035828649E+04  0.16035828649E+04  0.50400001928E-02 0. -1.
        1   -1    0    0  501    0  0.00000000000E+00  0.00000000000E+00 -0.14760878757E+04  0.14760878757E+04  0.50400001928E-02 0.  1.
    10030    2    1    2    0    0  0.00000000000E+00  0.00000000000E+00  0.12749498920E+03  0.30796707407E+04  0.30770305326E+04 0.  0.
        3    1    3    3  502    0  0.29550792449E+03 -0.84168855114E+02  0.15725621104E+04  0.16022986397E+04  0.10100000352E+00 0. -1.
       -3    1    3    3    0  502 -0.29550792449E+03  0.84168855114E+02 -0.14450671212E+04  0.14773721009E+04  0.10100000352E+00 0.  1.
</event>
<event>
 5   0  0.7201538E-06  0.2310933E+04  0.7818609E-02  0.8473623E-01
       -2   -1    0    0    0  501  0.00000000000E+00  0.00000000000E+00  0.10239918763E+04  0.10239918763E+04  0.25500000920E-02 0. -1.
        2   -1    0    0  501    0  0.00000000000E+00  0.00000000000E+00 -0.13038219940E+04  0.13038219940E+04  0.25500000920E-02 0.  1.
    10030    2    1    2    0    0  0.00000000000E+00  0.00000000000E+00 -0.27983011768E+03  0.23278138703E+04  0.23109332574E+04 0.  0.
        3    1    3    3  502    0  0.49165232848E+03 -0.60069343211E+03 -0.10020575362E+04  0.12675464202E+04  0.10100000352E+00 0.  1.
       -3    1    3    3    0  502 -0.49165232848E+03  0.60069343211E+03  0.72222741850E+03  0.10602674501E+04  0.10100000352E+00 0. -1.
</event>
<event>
 5   0  0.2628425E-06  0.3002499E+04  0.7818609E-02  0.8243018E-01
       -1   -1    0    0    0  501  0.00000000000E+00  0.00000000000E+00  0.20971542973E+04  0.20971542973E+04  0.50400001928E-02 0.  1.
        1   -1    0    0  501    0  0.00000000000E+00  0.00000000000E+00 -0.10746707928E+04  0.10746707928E+04  0.50400001928E-02 0. -1.
    10030    2    1    2    0    0  0.00000000000E+00  0.00000000000E+00  0.10224835045E+04  0.31718250901E+04  0.30024992731E+04 0.  0.
        1    1    3    3  502    0 -0.30292267256E+03 -0.12871854799E+02  0.20644738250E+04  0.20866192763E+04  0.50400001928E-02 0.  1.
       -1    1    3    3    0  502  0.30292267256E+03  0.12871854799E+02 -0.10419903205E+04  0.10852058138E+04  0.50400001928E-02 0. -1.
</event>
<event>
 5   0  0.6792811E-06  0.3029860E+04  0.7818609E-02  0.8235255E-01
        2   -1    0    0  501    0  0.00000000000E+00  0.00000000000E+00  0.26663001564E+04  0.26663001564E+04  0.25500000920E-02 0.  1.
       -2   -1    0    0    0  501  0.00000000000E+00  0.00000000000E+00 -0.86074831092E+03  0.86074831092E+03  0.25500000920E-02 0. -1.
    10030    2    1    2    0    0  0.00000000000E+00  0.00000000000E+00  0.18055518455E+04  0.35270484673E+04  0.30298602978E+04 0.  0.
        2    1    3    3  502    0  0.12371468246E+04  0.68384301712E+03  0.26854136500E+03  0.14388495413E+04  0.25500000920E-02 0. -1.
       -2    1    3    3    0  502 -0.12371468246E+04 -0.68384301712E+03  0.15370104805E+04  0.20881989260E+04  0.25500000920E-02 0.  1.
</event>
<event>
 5   0  0.2422083E-06  0.3048451E+04  0.7818609E-02  0.8230029E-01
       -1   -1    0    0    0  501  0.00000000000E+00  0.00000000000E+00  0.13066183955E+04  0.13066183955E+04  0.50400001928E-02 0.  1.
        1   -1    0    0  501    0  0.00000000000E+00  0.00000000000E+00 -0.17780729835E+04  0.17780729835E+04  0.50400001928E-02 0. -1.
    10030    2    1    2    0    0  0.00000000000E+00  0.00000000000E+00 -0.47145458802E+03  0.30846913790E+04  0.30484506680E+04 0.  0.
        2    1    3    3  502    0 -0.53250870435E+03 -0.12426812260E+04  0.47651604614E+03  0.14334886438E+04  0.25500000920E-02 0.  1.
       -2    1    3    3    0  502  0.53250870435E+03  0.12426812260E+04 -0.94797063416E+03  0.16512027352E+04  0.25500000920E-02 0. -1.
</event>
<event>
 5   0  0.7201538E-06  0.3039759E+04  0.7818609E-02  0.8232468E-01
        2   -1    0    0  501    0  0.00000000000E+00  0.00000000000E+00  0.19659025484E+04  0.19659025484E+04  0.25500000920E-02 0.  1.
       -2   -1    0    0    0  501  0.00000000000E+00  0.00000000000E+00 -0.11750499995E+04  0.11750499995E+04  0.25500000920E-02 0. -1.
    10030    2    1    2    0    0  0.00000000000E+00  0.00000000000E+00  0.79085254887E+03  0.31409525479E+04  0.30397590618E+04 0.  0.
        3    1    3    3  502    0 -0.34480976505E+03 -0.10707829870E+04  0.14514889626E+04  0.18363796443E+04  0.10100000352E+00 0.  1.
       -3    1    3    3    0  502  0.34480976505E+03  0.10707829870E+04 -0.66063641375E+03  0.13045729036E+04  0.10100000352E+00 0. -1.
</event>
<event>
 5   0  0.6780150E-06  0.2997331E+04  0.7818609E-02  0.8244494E-01
        2   -1    0    0  501    0  0.00000000000E+00  0.00000000000E+00  0.20926230199E+04  0.20926230199E+04  0.25500000920E-02 0. -1.
       -2   -1    0    0    0  501  0.00000000000E+00  0.00000000000E+00 -0.10732930292E+04  0.10732930292E+04  0.25500000920E-02 0.  1.
    10030    2    1    2    0    0  0.00000000000E+00  0.00000000000E+00  0.10193299907E+04  0.31659160491E+04  0.29973306124E+04 0.  0.
        5    1    3    3  502    0  0.69505536519E+03  0.85841631428E+03  0.15795506993E+04  0.19274291248E+04  0.46999998093E+01 0. -1.
       -5    1    3    3    0  502 -0.69505536519E+03 -0.85841631428E+03 -0.56022070863E+03  0.12384869243E+04  0.46999998093E+01 0.  1.
</event>
<event>
 5   0  0.2422083E-06  0.2848613E+04  0.7818609E-02  0.8288333E-01
        1   -1    0    0  501    0  0.00000000000E+00  0.00000000000E+00  0.21353867706E+04  0.21353867706E+04  0.50400001928E-02 0. -1.
       -1   -1    0    0    0  501  0.00000000000E+00  0.00000000000E+00 -0.95001451914E+03  0.95001451915E+03  0.50400001928E-02 0.  1.
    10030    2    1    2    0    0  0.00000000000E+00  0.00000000000E+00  0.11853722515E+04  0.30854012898E+04  0.28486125999E+04 0.  0.
        2    1    3    3  502    0 -0.60292523186E+03  0.93264940583E+03 -0.37323642707E+03  0.11716053857E+04  0.25500000920E-02 0.  1.
       -2    1    3    3    0  502  0.60292523186E+03 -0.93264940583E+03  0.15586086785E+04  0.19137959040E+04  0.25500000920E-02 0. -1.
</event>
<event>
 5   0  0.7201538E-06  0.2982060E+04  0.7818609E-02  0.8248872E-01
       -2   -1    0    0    0  501  0.00000000000E+00  0.00000000000E+00  0.14204470310E+04  0.14204470310E+04  0.25500000920E-02 0. -1.
        2   -1    0    0  501    0  0.00000000000E+00  0.00000000000E+00 -0.15651200175E+04  0.15651200175E+04  0.25500000920E-02 0.  1.
    10030    2    1    2    0    0  0.00000000000E+00  0.00000000000E+00 -0.14467298655E+03  0.29855670485E+04  0.29820597459E+04 0.  0.
        3    1    3    3  502    0 -0.49258520647E+03  0.14065411149E+04 -0.11899579620E+03  0.14950445154E+04  0.10100000352E+00 0. -1.
       -3    1    3    3    0  502  0.49258520647E+03 -0.14065411149E+04 -0.25677190342E+02  0.14905225331E+04  0.10100000352E+00 0.  1.
</event>
<event>
 5   0  0.7217255E-06  0.3009532E+04  0.7818609E-02  0.8241014E-01
       -2   -1    0    0    0  501  0.00000000000E+00  0.00000000000E+00  0.11184842681E+04  0.11184842681E+04  0.25500000920E-02 0. -1.
        2   -1    0    0  501    0  0.00000000000E+00  0.00000000000E+00 -0.20244551287E+04  0.20244551287E+04  0.25500000920E-02 0.  1.
    10030    2    1    2    0    0  0.00000000000E+00  0.00000000000E+00 -0.90597086065E+03  0.31429393968E+04  0.30095323311E+04 0.  0.
        1    1    3    3  502    0  0.76074864147E+03  0.12941423577E+04 -0.56140598696E+03  0.16027225648E+04  0.50400001928E-02 0. -1.
       -1    1    3    3    0  502 -0.76074864147E+03 -0.12941423577E+04 -0.34456487370E+03  0.15402168320E+04  0.50400001928E-02 0.  1.
</event>
<event>
 5   0  0.2672155E-06  0.3005461E+04  0.7818609E-02  0.8242173E-01
       -1   -1    0    0    0  501  0.00000000000E+00  0.00000000000E+00  0.12393675020E+04  0.12393675020E+04  0.50400001928E-02 0. -1.
        1   -1    0    0  501    0  0.00000000000E+00  0.00000000000E+00 -0.18220578725E+04  0.18220578725E+04  0.50400001928E-02 0.  1.
    10030    2    1    2    0    0  0.00000000000E+00  0.00000000000E+00 -0.58269037043E+03  0.30614253745E+04  0.30054612385E+04 0.  0.
        5    1    3    3  502    0 -0.25904025944E+03  0.94809170573E+03  0.86657064699E+03  0.13103230574E+04  0.46999998093E+01 0. -1.
       -5    1    3    3    0  502  0.25904025944E+03 -0.94809170573E+03 -0.14492610174E+04  0.17511023171E+04  0.46999998093E+01 0.  1.
</event>
<event>
 5   0  0.7201538E-06  0.2891595E+04  0.7818609E-02  0.8275383E-01
       -2   -1    0    0    0  501  0.00000000000E+00  0.00000000000E+00  0.10284503856E+04  0.10284503856E+04  0.25500000920E-02 0. -1.
        2   -1    0    0  501    0  0.00000000000E+00  0.00000000000E+00 -0.20325047251E+04  0.20325047251E+04  0.25500000920E-02 0.  1.
    10030    2    1    2    0    0  0.00000000000E+00  0.00000000000E+00 -0.10040543395E+04  0.30609551107E+04  0.28915949013E+04 0.  0.
        3    1    3    3  502    0  0.26818983599E+03  0.12223745728E+04  0.26439849207E+03  0.12790746488E+04  0.10100000352E+00 0.  1.
       -3    1    3    3    0  502 -0.26818983599E+03 -0.12223745728E+04 -0.12684528316E+04  0.17818804619E+04  0.10100000352E+00 0. -1.
</event>
<event>
 5   0  0.2504260E-06  0.3003417E+04  0.7818609E-02  0.8242756E-01
        1   -1    0    0  501    0  0.00000000000E+00  0.00000000000E+00  0.14074760917E+04  0.14074760917E+04  0.50400001928E-02 0.  1.
       -1   -1    0    0    0  501  0.00000000000E+00  0.00000000000E+00 -0.16022501251E+04  0.16022501251E+04  0.50400001928E-02 0. -1.
    10030    2    1    2    0    0  0.00000000000E+00  0.00000000000E+00 -0.19477403342E+03  0.30097262168E+04  0.30034172165E+04 0.  0.
        4    1    3    3  502    0  0.32882735655E+03  0.14642047869E+04 -0.41556045996E+02  0.15012500145E+04  0.12699999809E+01 0. -1.
       -4    1    3    3    0  502 -0.32882735655E+03 -0.14642047869E+04 -0.15321798742E+03  0.15084762023E+04  0.12699999809E+01 0.  1.
</event>
<event>
 5   0  0.2628425E-06  0.3009969E+04  0.7818609E-02  0.8240890E-01
       -1   -1    0    0    0  501  0.00000000000E+00  0.00000000000E+00  0.16205977413E+04  0.16205977413E+04  0.50400001928E-02 0. -1.
        1   -1    0    0  501    0  0.00000000000E+00  0.00000000000E+00 -0.13976193056E+04  0.13976193056E+04  0.50400001928E-02 0.  1.
    10030    2    1    2    0    0  0.00000000000E+00  0.00000000000E+00  0.22297843574E+03  0.30182170469E+04  0.30099692290E+04 0.  0.
        1    1    3    3  502    0 -0.11818368702E+04  0.25278552131E+03 -0.78781822234E+03  0.14426699065E+04  0.50400001928E-02 0.  1.
       -1    1    3    3    0  502  0.11818368702E+04 -0.25278552131E+03  0.10107966581E+04  0.15755471404E+04  0.50400001928E-02 0. -1.
</event>
<event>
 5   0  0.2552990E-06  0.2675763E+04  0.7818609E-02  0.8342912E-01
       -1   -1    0    0    0  501  0.00000000000E+00  0.00000000000E+00  0.15966078636E+04  0.15966078636E+04  0.50400001928E-02 0.  1.
        1   -1    0    0  501    0  0.00000000000E+00  0.00000000000E+00 -0.11210812773E+04  0.11210812773E+04  0.50400001928E-02 0. -1.
    10030    2    1    2    0    0  0.00000000000E+00  0.00000000000E+00  0.47552658631E+03  0.27176891409E+04  0.26757632056E+04 0.  0.
        3    1    3    3  502    0 -0.11251426459E+04  0.39153675081E+02  0.97189455070E+03  0.14872988979E+04  0.10100000352E+00 0.  1.
       -3    1    3    3    0  502  0.11251426459E+04 -0.39153675081E+02 -0.49636796439E+03  0.12303902430E+04  0.10100000352E+00 0. -1.
</event>
<event>
 5   0  0.7193153E-06  0.3021874E+04  0.7818609E-02  0.8237512E-01
        2   -1    0    0  501    0  0.00000000000E+00  0.00000000000E+00  0.14901427003E+04  0.14901427003E+04  0.25500000920E-02 0. -1.
       -2   -1    0    0    0  501  0.00000000000E+00  0.00000000000E+00 -0.15320216374E+04  0.15320216374E+04  0.25500000920E-02 0.  1.
    10030    2    1    2    0    0  0.00000000000E+00  0.00000000000E+00 -0.41878937051E+02  0.30221643377E+04  0.30218741600E+04 0.  0.
        4    1    3    3  502    0 -0.27285440096E+03  0.20458432831E+03 -0.14930267957E+04  0.15314812755E+04  0.12699999809E+01 0.  1.
       -4    1    3    3    0  502  0.27285440096E+03 -0.20458432831E+03  0.14511478587E+04  0.14906830623E+04  0.12699999809E+01 0. -1.
</event>
<event>
 5   0  0.7193153E-06  0.3007216E+04  0.7818609E-02  0.8241673E-01
        2   -1    0    0  501    0  0.00000000000E+00  0.00000000000E+00  0.19170682883E+04  0.19170682883E+04  0.25500000920E-02 0. -1.
       -2   -1    0    0    0  501  0.00000000000E+00  0.00000000000E+00 -0.11793202577E+04  0.11793202577E+04  0.25500000920E-02 0.  1.
    10030    2    1    2    0    0  0.00000000000E+00  0.00000000000E+00  0.73774803062E+03  0.30963885460E+04  0.30072162993E+04 0.  0.
        4    1    3    3  502    0  0.29295060134E+03  0.81386521888E+03 -0.89748971040E+03  0.12464694310E+04  0.12699999809E+01 0.  1.
       -4    1    3    3    0  502 -0.29295060134E+03 -0.81386521888E+03  0.16352377410E+04  0.18499191150E+04  0.12699999809E+01 0. -1.
</event>
<event>
 5   0  0.2422083E-06  0.3009773E+04  0.7818609E-02  0.8240946E-01
        1   -1    0    0  501    0  0.00000000000E+00  0.00000000000E+00  0.22649061855E+04  0.22649061855E+04  0.50400001928E-02 0.  1.
       -1   -1    0    0    0  501  0.00000000000E+00  0.00000000000E+00 -0.99990179222E+03  0.99990179223E+03  0.50400001928E-02 0. -1.
    10030    2    1    2    0    0  0.00000000000E+00  0.00000000000E+00  0.12650043933E+04  0.32648079778E+04  0.30097732500E+04 0.  0.
        2    1    3    3  502    0 -0.12540924883E+04 -0.16884424342E+03 -0.25102631574E+03  0.12900661064E+04  0.25500000920E-02 0. -1.
       -2    1    3    3    0  502  0.12540924883E+04  0.16884424342E+03  0.15160307090E+04  0.19747418714E+04  0.25500000920E-02 0.  1.
</event>
<event>
 5   0  0.2672155E-06  0.2850962E+04  0.7818609E-02  0.8287619E-01
       -1   -1    0    0    0  501  0.00000000000E+00  0.00000000000E+00  0.16606960395E+04  0.16606960395E+04  0.50400001928E-02 0.  1.
        1   -1    0    0  501    0  0.00000000000E+00  0.00000000000E+00 -0.12235813227E+04  0.12235813227E+04  0.50400001928E-02 0. -1.
    10030    2    1    2    0    0  0.00000000000E+00  0.00000000000E+00  0.43711471680E+03  0.28842773622E+04  0.28509624036E+04 0.  0.
        5    1    3    3  502    0 -0.42869354695E+03 -0.13140059284E+04  0.57132214467E+03  0.14956004881E+04  0.46999998093E+01 0.  1.
       -5    1    3    3    0  502  0.42869354695E+03  0.13140059284E+04 -0.13420742786E+03  0.13886768741E+04  0.46999998093E+01 0. -1.
</event>
<event>
 5   0  0.2672155E-06  0.2974216E+04  0.7818609E-02  0.8251132E-01
        1   -1    0    0  501    0  0.00000000000E+00  0.00000000000E+00  0.13950939625E+04  0.13950939625E+04  0.50400001928E-02 0. -1.
       -1   -1    0    0    0  501  0.00000000000E+00  0.00000000000E+00 -0.15851908399E+04  0.15851908399E+04  0.50400001928E-02 0.  1.
    10030    2    1    2    0    0  0.00000000000E+00  0.00000000000E+00 -0.19009687739E+03  0.29802848025E+04  0.29742159775E+04 0.  0.
        5    1    3    3  502    0 -0.23857625583E+03 -0.13821818672E+04 -0.59014439636E+03  0.15217219991E+04  0.46999998093E+01 0.  1.
       -5    1    3    3    0  502  0.23857625583E+03  0.13821818672E+04  0.40004751897E+03  0.14585628034E+04  0.46999998093E+01 0. -1.
</event>
<event>
 5   0  0.6792811E-06  0.2642241E+04  0.7818609E-02  0.8353993E-01
        2   -1    0    0  501    0  0.00000000000E+00  0.00000000000E+00  0.19403485687E+04  0.19403485687E+04  0.25500000920E-02 0. -1.
       -2   -1    0    0    0  501  0.00000000000E+00  0.00000000000E+00 -0.89950848276E+03  0.89950848277E+03  0.25500000920E-02 0.  1.
    10030    2    1    2    0    0  0.00000000000E+00  0.00000000000E+00  0.10408400860E+04  0.28398570515E+04  0.26422414705E+04 0.  0.
        2    1    3    3  502    0 -0.83712846568E+03  0.38421729781E+03  0.15383287231E+04  0.17930036978E+04  0.25500000920E-02 0. -1.
       -2    1    3    3    0  502  0.83712846568E+03 -0.38421729781E+03 -0.49748863717E+03  0.10468533537E+04  0.25500000920E-02 0.  1.
</event>
<event>
 5   0  0.7201538E-06  0.3015278E+04  0.7818609E-02  0.8239382E-01
       -2   -1    0    0    0  501  0.00000000000E+00  0.00000000000E+00  0.91618208482E+03  0.91618208483E+03  0.25500000920E-02 0. -1.
        2   -1    0    0  501    0  0.00000000000E+00  0.00000000000E+00 -0.24809213750E+04  0.24809213750E+04  0.25500000920E-02 0.  1.
    10030    2    1    2    0    0  0.00000000000E+00  0.00000000000E+00 -0.15647392902E+04  0.33971034598E+04  0.30152782410E+04 0.  0.
        3    1    3    3  502    0 -0.13127616186E+04  0.65703888511E+03 -0.39547010545E+03  0.15203419938E+04  0.10100000352E+00 0. -1.
       -3    1    3    3    0  502  0.13127616186E+04 -0.65703888511E+03 -0.11692691848E+04  0.18767614660E+04  0.10100000352E+00 0.  1.
</event>
<event>
 5   0  0.7217255E-06  0.3014543E+04  0.7818609E-02  0.8239590E-01
        2   -1    0    0  501    0  0.00000000000E+00  0.00000000000E+00  0.18916314774E+04  0.18916314774E+04  0.25500000920E-02 0. -1.
       -2   -1    0    0    0  501  0.00000000000E+00  0.00000000000E+00 -0.12010097102E+04  0.12010097102E+04  0.25500000920E-02 0.  1.
    10030    2    1    2    0    0  0.00000000000E+00  0.00000000000E+00  0.69062176718E+03  0.30926411876E+04  0.30145432639E+04 0.  0.
        1    1    3    3  502    0  0.50038558874E+03 -0.69659039313E+03  0.16168745044E+04  0.18302751367E+04  0.50400001928E-02 0. -1.
       -1    1    3    3    0  502 -0.50038558874E+03  0.69659039313E+03 -0.92625273718E+03  0.12623660509E+04  0.50400001928E-02 0.  1.
</event>
<event>
 5   0  0.6792811E-06  0.3038244E+04  0.7818609E-02  0.8232894E-01
        2   -1    0    0  501    0  0.00000000000E+00  0.00000000000E+00  0.23774565950E+04  0.23774565950E+04  0.25500000920E-02 0.  1.
       -2   -1    0    0    0  501  0.00000000000E+00  0.00000000000E+00 -0.97067258137E+03  0.97067258137E+03  0.25500000920E-02 0. -1.
    10030    2    1    2    0    0  0.00000000000E+00  0.00000000000E+00  0.14067840136E+04  0.33481291764E+04  0.30382441838E+04 0.  0.
        2    1    3    3  502    0 -0.10783367406E+04 -0.39528527030E+03 -0.39234292439E+03  0.12136694531E+04  0.25500000920E-02 0. -1.
       -2    1    3    3    0  502  0.10783367406E+04  0.39528527030E+03  0.17991269380E+04  0.21344597232E+04  0.25500000920E-02 0.  1.
</event>
<event>
 5   0  0.7201538E-06  0.2708571E+04  0.7818609E-02  0.8332229E-01
       -2   -1    0    0    0  501  0.00000000000E+00  0.00000000000E+00  0.87945628405E+03  0.87945628405E+03  0.25500000920E-02 0.  1.
        2   -1    0    0  501    0  0.00000000000E+00  0.00000000000E+00 -0.20854807055E+04  0.20854807055E+04  0.25500000920E-02 0. -1.
    10030    2    1    2    0    0  0.00000000000E+00  0.00000000000E+00 -0.12060244215E+04  0.29649369895E+04  0.27085709234E+04 0.  0.
        3    1    3    3  502    0 -0.43758805224E+03 -0.11487491734E+04 -0.12251174146E+04  0.17355174032E+04  0.10100000352E+00 0. -1.
       -3    1    3    3    0  502  0.43758805224E+03  0.11487491734E+04  0.19092993199E+02  0.12294195864E+04  0.10100000352E+00 0.  1.
</event>
<event>
 5   0  0.2552990E-06  0.2969433E+04  0.7818609E-02  0.8252514E-01
        1   -1    0    0  501    0  0.00000000000E+00  0.00000000000E+00  0.13860886964E+04  0.13860886964E+04  0.50400001928E-02 0. -1.
       -1   -1    0    0    0  501  0.00000000000E+00  0.00000000000E+00 -0.15903617947E+04  0.15903617947E+04  0.50400001928E-02 0.  1.
    10030    2    1    2    0    0  0.00000000000E+00  0.00000000000E+00 -0.20427309830E+03  0.29764504911E+04  0.29694326103E+04 0.  0.
        3    1    3    3  502    0  0.93697799461E+03 -0.10239845409E+04 -0.63055452675E+03  0.15244904473E+04  0.10100000352E+00 0. -1.
       -3    1    3    3    0  502 -0.93697799461E+03  0.10239845409E+04  0.42628142845E+03  0.14519600438E+04  0.10100000352E+00 0.  1.
</event>
<event>
 5   0  0.6780150E-06  0.2952953E+04  0.7818609E-02  0.8257294E-01
        2   -1    0    0  501    0  0.00000000000E+00  0.00000000000E+00  0.85438171457E+03  0.85438171457E+03  0.25500000920E-02 0. -1.
       -2   -1    0    0    0  501  0.00000000000E+00  0.00000000000E+00 -0.25515329529E+04  0.25515329529E+04  0.25500000920E-02 0.  1.
    10030    2    1    2    0    0  0.00000000000E+00  0.00000000000E+00 -0.16971512383E+04  0.34059146674E+04  0.29529531653E+04 0.  0.
        5    1    3    3  502    0 -0.84878803257E+03 -0.11886153781E+04 -0.10978615642E+04  0.18271753461E+04  0.46999998093E+01 0.  1.
       -5    1    3    3    0  502  0.84878803257E+03  0.11886153781E+04 -0.59928967408E+03  0.15787393213E+04  0.46999998093E+01 0. -1.
</event>
<event>
 5   0  0.2672155E-06  0.3005103E+04  0.7818609E-02  0.8242275E-01
       -1   -1    0    0    0  501  0.00000000000E+00  0.00000000000E+00  0.16723185786E+04  0.16723185786E+04  0.50400001928E-02 0.  1.
        1   -1    0    0  501    0  0.00000000000E+00  0.00000000000E+00 -0.13500186123E+04  0.13500186123E+04  0.50400001928E-02 0. -1.
    10030    2    1    2    0    0  0.00000000000E+00  0.00000000000E+00  0.32229996632E+03  0.30223371908E+04  0.30051031308E+04 0.  0.
        5    1    3    3  502    0 -0.16498386744E+03 -0.14046456547E+04 -0.34909576024E+03  0.14567563391E+04  0.46999998093E+01 0. -1.
       -5    1    3    3    0  502  0.16498386744E+03  0.14046456547E+04  0.67139572655E+03  0.15655808517E+04  0.46999998093E+01 0.  1.
</event>
<event>
 5   0  0.2552990E-06  0.2990237E+04  0.7818609E-02  0.8246524E-01
        1   -1    0    0  501    0  0.00000000000E+00  0.00000000000E+00  0.17189597293E+04  0.17189597293E+04  0.50400001928E-02 0.  1.
       -1   -1    0    0    0  501  0.00000000000E+00  0.00000000000E+00 -0.13004255086E+04  0.13004255086E+04  0.50400001928E-02 0. -1.
    10030    2    1    2    0    0  0.00000000000E+00  0.00000000000E+00  0.41853422066E+03  0.30193852379E+04  0.29902368336E+04 0.  0.
        3    1    3    3  502    0 -0.36230325634E+03  0.11579264837E+04  0.10914664717E+04  0.16319793075E+04  0.10100000352E+00 0.  1.
       -3    1    3    3    0  502  0.36230325634E+03 -0.11579264837E+04 -0.67293225103E+03  0.13874059304E+04  0.10100000352E+00 0. -1.
</event>
<event>
 5   0  0.7201538E-06  0.2911052E+04  0.7818609E-02  0.8269597E-01
        2   -1    0    0  501    0  0.00000000000E+00  0.00000000000E+00  0.10955177994E+04  0.10955177994E+04  0.25500000920E-02 0.  1.
       -2   -1    0    0    0  501  0.00000000000E+00  0.00000000000E+00 -0.19338393396E+04  0.19338393396E+04  0.25500000920E-02 0. -1.
    10030    2    1    2    0    0  0.00000000000E+00  0.00000000000E+00 -0.83832154016E+03  0.30293571390E+04  0.29110516434E+04 0.  0.
        3    1    3    3  502    0  0.11236393018E+04 -0.54002553191E+03  0.36261041807E+03  0.12983370830E+04  0.10100000352E+00 0.  1.
       -3    1    3    3    0  502 -0.11236393018E+04  0.54002553191E+03 -0.12009319582E+04  0.17310200560E+04  0.10100000352E+00 0. -1.
</event>
<event>
 5   0  0.2628425E-06  0.2874470E+04  0.7818609E-02  0.8280514E-01
       -1   -1    0    0    0  501  0.00000000000E+00  0.00000000000E+00  0.27101887752E+04  0.27101887752E+04  0.50400001928E-02 0.  1.
        1   -1    0    0  501    0  0.00000000000E+00  0.00000000000E+00 -0.76217746203E+03  0.76217746204E+03  0.50400001928E-02 0. -1.
    10030    2    1    2    0    0  0.00000000000E+00  0.00000000000E+00  0.19480113132E+04  0.34723662372E+04  0.28744702485E+04 0.  0.
        1    1    3    3  502    0 -0.11106372199E+04 -0.98429577793E+02  0.20695253402E+04  0.23507740320E+04  0.50400001928E-02 0.  1.
       -1    1    3    3    0  502  0.11106372199E+04  0.98429577793E+02 -0.12151402705E+03  0.11215922052E+04  0.50400001928E-02 0. -1.
</event>
<event>
 5   0  0.2552990E-06  0.2998792E+04  0.7818609E-02  0.8244076E-01
        1   -1    0    0  501    0  0.00000000000E+00  0.00000000000E+00  0.14493765832E+04  0.14493765832E+04  0.50400001928E-02 0. -1.
       -1   -1    0    0    0  501  0.00000000000E+00  0.00000000000E+00 -0.15511412026E+04  0.15511412026E+04  0.50400001928E-02 0.  1.
    10030    2    1    2    0    0  0.00000000000E+00  0.00000000000E+00 -0.10176461942E+03  0.30005177859E+04  0.29987915809E+04 0.  0.
        3    1    3    3  502    0  0.10452059319E+02 -0.12997798225E+04  0.69697746002E+03  0.14748947157E+04  0.10100000352E+00 0. -1.
       -3    1    3    3    0  502 -0.10452059319E+02  0.12997798225E+04 -0.79874207944E+03  0.15256230701E+04  0.10100000352E+00 0.  1.
</event>
<event>
 5   0  0.2504260E-06  0.2983592E+04  0.7818609E-02  0.8248432E-01
        1   -1    0    0  501    0  0.00000000000E+00  0.00000000000E+00  0.23085185776E+04  0.23085185776E+04  0.50400001928E-02 0. -1.
       -1   -1    0    0    0  501  0.00000000000E+00  0.00000000000E+00 -0.96401912118E+03  0.96401912119E+03  0.50400001928E-02 0.  1.
    10030    2    1    2    0    0  0.00000000000E+00  0.00000000000E+00  0.13444994564E+04  0.32725376988E+04  0.29835924993E+04 0.  0.
        4    1    3    3  502    0  0.10811242700E+04  0.97799828187E+03  0.10193523222E+04  0.17788735470E+04  0.12699999809E+01 0. -1.
       -4    1    3    3    0  502 -0.10811242700E+04 -0.97799828187E+03  0.32514713424E+03  0.14936641518E+04  0.12699999809E+01 0.  1.
</event>
<event>
 5   0  0.2672155E-06  0.2386474E+04  0.7818609E-02  0.8444585E-01
        1   -1    0    0  501    0  0.00000000000E+00  0.00000000000E+00  0.99414531307E+03  0.99414531308E+03  0.50400001928E-02 0. -1.
       -1   -1    0    0    0  501  0.00000000000E+00  0.00000000000E+00 -0.14321998493E+04  0.14321998493E+04  0.50400001928E-02 0.  1.
    10030    2    1    2    0    0  0.00000000000E+00  0.00000000000E+00 -0.43805453627E+03  0.24263451624E+04  0.23864741923E+04 0.  0.
        5    1    3    3  502    0 -0.80882927067E+03 -0.90683541620E+02 -0.11061671798E+04  0.13733376182E+04  0.46999998093E+01 0.  1.
       -5    1    3    3    0  502  0.80882927067E+03  0.90683541620E+02  0.66811264353E+03  0.10530075443E+04  0.46999998093E+01 0. -1.
</event>
<event>
 5   0  0.7193153E-06  0.2989689E+04  0.7818609E-02  0.8246682E-01
       -2   -1    0    0    0  501  0.00000000000E+00  0.00000000000E+00  0.19714876102E+04  0.19714876102E+04  0.25500000920E-02 0.  1.
        2   -1    0    0  501    0  0.00000000000E+00  0.00000000000E+00 -0.11334381992E+04  0.11334381992E+04  0.25500000920E-02 0. -1.
    10030    2    1    2    0    0  0.00000000000E+00  0.00000000000E+00  0.83804941104E+03  0.31049258094E+04  0.29896885234E+04 0.  0.
        4    1    3    3  502    0 -0.36223418733E+03 -0.13055892987E+04  0.10748563462E+04  0.17294781875E+04  0.12699999809E+01 0.  1.
       -4    1    3    3    0  502  0.36223418733E+03  0.13055892987E+04 -0.23680693512E+03  0.13754476219E+04  0.12699999809E+01 0. -1.
</event>
<event>
 5   0  0.7217255E-06  0.2974878E+04  0.7818609E-02  0.8250941E-01
       -2   -1    0    0    0  501  0.00000000000E+00  0.00000000000E+00  0.96125177817E+03  0.96125177817E+03  0.25500000920E-02 0. -1.
        2   -1    0    0  501    0  0.00000000000E+00  0.00000000000E+00 -0.23016603073E+04  0.23016603073E+04  0.25500000920E-02 0.  1.
    10030    2    1    2    0    0  0.00000000000E+00  0.00000000000E+00 -0.13404085292E+04  0.32629120855E+04  0.29748781912E+04 0.  0.
        1    1    3    3  502    0  0.57185171668E+03  0.12746314784E+04 -0.11009934435E+03  0.14013642129E+04  0.50400001928E-02 0. -1.
       -1    1    3    3    0  502 -0.57185171668E+03 -0.12746314784E+04 -0.12303091848E+04  0.18615478726E+04  0.50400001928E-02 0.  1.
</event>
<event>
 5   0  0.2504260E-06  0.3044201E+04  0.7818609E-02  0.8231220E-01
       -1   -1    0    0    0  501  0.00000000000E+00  0.00000000000E+00  0.14258412589E+04  0.14258412589E+04  0.50400001928E-02 0. -1.
        1   -1    0    0  501    0  0.00000000000E+00  0.00000000000E+00 -0.16248585986E+04  0.16248585986E+04  0.50400001928E-02 0.  1.
    10030    2    1    2    0    0  0.00000000000E+00  0.00000000000E+00 -0.19901733969E+03  0.30506998575E+04  0.30442013269E+04 0.  0.
        4    1    3    3  502    0 -0.41943475952E+03 -0.17240790598E+03 -0.15555862201E+04  0.16203395029E+04  0.12699999809E+01 0.  1.
       -4    1    3    3    0  502  0.41943475952E+03  0.17240790598E+03  0.13565688804E+04  0.14303603545E+04  0.12699999809E+01 0. -1.
</event>
<event>
 5   0  0.6792811E-06  0.2982159E+04  0.7818609E-02  0.8248844E-01
       -2   -1    0    0    0  501  0.00000000000E+00  0.00000000000E+00  0.11881771405E+04  0.11881771405E+04  0.25500000920E-02 0.  1.
        2   -1    0    0  501    0  0.00000000000E+00  0.00000000000E+00 -0.18712014082E+04  0.18712014082E+04  0.25500000920E-02 0. -1.
    10030    2    1    2    0    0  0.00000000000E+00  0.00000000000E+00 -0.68302426772E+03  0.30593785487E+04  0.29821594447E+04 0.  0.
        2    1    3    3  502    0  0.88819277947E+02  0.12048864862E+04  0.55500298815E+03  0.13295369967E+04  0.25500000920E-02 0.  1.
       -2    1    3    3    0  502 -0.88819277947E+02 -0.12048864862E+04 -0.12380272559E+04  0.17298415520E+04  0.25500000920E-02 0. -1.
</event>
<event>
 5   0  0.2672155E-06  0.3121711E+04  0.7818609E-02  0.8209805E-01
       -1   -1    0    0    0  501  0.00000000000E+00  0.00000000000E+00  0.12751271733E+04  0.12751271733E+04  0.50400001928E-02 0.  1.
        1   -1    0    0  501    0  0.00000000000E+00  0.00000000000E+00 -0.19106091630E+04  0.19106091630E+04  0.50400001928E-02 0. -1.
    10030    2    1    2    0    0  0.00000000000E+00  0.00000000000E+00 -0.63548198975E+03  0.31857363363E+04  0.31217108522E+04 0.  0.
        5    1    3    3  502    0 -0.76920695298E+02  0.15504186774E+04 -0.48397041906E+03  0.16260271600E+04  0.46999998093E+01 0.  1.
       -5    1    3    3    0  502  0.76920695298E+02 -0.15504186774E+04 -0.15151157069E+03  0.15597091763E+04  0.46999998093E+01 0. -1.
</event>
<event>
 5   0  0.6792811E-06  0.3030214E+04  0.7818609E-02  0.8235155E-01
        2   -1    0    0  501    0  0.00000000000E+00  0.00000000000E+00  0.16396499987E+04  0.16396499987E+04  0.25500000920E-02 0.  1.
       -2   -1    0    0    0  501  0.00000000000E+00  0.00000000000E+00 -0.14000238114E+04  0.14000238114E+04  0.25500000920E-02 0. -1.
    10030    2    1    2    0    0  0.00000000000E+00  0.00000000000E+00  0.23962618730E+03  0.30396738101E+04  0.30302138806E+04 0.  0.
        2    1    3    3  502    0 -0.99988852341E+03 -0.11074458813E+04 -0.14432548807E+03  0.14990141046E+04  0.25500000920E-02 0. -1.
       -2    1    3    3    0  502  0.99988852341E+03  0.11074458813E+04  0.38395167538E+03  0.15406597055E+04  0.25500000920E-02 0.  1.
</event>
<event>
 5   0  0.2504260E-06  0.3028403E+04  0.7818609E-02  0.8235666E-01
       -1   -1    0    0    0  501  0.00000000000E+00  0.00000000000E+00  0.80434457404E+03  0.80434457405E+03  0.50400001928E-02 0.  1.
        1   -1    0    0  501    0  0.00000000000E+00  0.00000000000E+00 -0.28505273186E+04  0.28505273186E+04  0.50400001928E-02 0. -1.
    10030    2    1    2    0    0  0.00000000000E+00  0.00000000000E+00 -0.20461827445E+04  0.36548718926E+04  0.30284029995E+04 0.  0.
        4    1    3    3  502    0  0.19345026676E+03 -0.11013009981E+04  0.20916253744E+03  0.11375576794E+04  0.12699999809E+01 0.  1.
       -4    1    3    3    0  502 -0.19345026676E+03  0.11013009981E+04 -0.22553452820E+04  0.25173142132E+04  0.12699999809E+01 0. -1.
</event>
<event>
 5   0  0.2504260E-06  0.3066334E+04  0.7818609E-02  0.8225038E-01
        1   -1    0    0  501    0  0.00000000000E+00  0.00000000000E+00  0.16505425833E+04  0.16505425833E+04  0.50400001928E-02 0. -1.
       -1   -1    0    0    0  501  0.00000000000E+00  0.00000000000E+00 -0.14241381760E+04  0.14241381760E+04  0.50400001928E-02 0.  1.
    10030    2    1    2    0    0  0.00000000000E+00  0.00000000000E+00  0.22640440730E+03  0.30746807592E+04  0.30663337743E+04 0.  0.
        4    1    3    3  502    0 -0.57410065806E+03 -0.86808507444E+03 -0.10156669173E+04  0.14542159956E+04  0.12699999809E+01 0.  1.
       -4    1    3    3    0  502  0.57410065806E+03  0.86808507444E+03  0.12420713246E+04  0.16204647637E+04  0.12699999809E+01 0. -1.
</event>
<event>
 5   0  0.2422083E-06  0.2976166E+04  0.7818609E-02  0.8250570E-01
       -1   -1    0    0    0  501  0.00000000000E+00  0.00000000000E+00  0.13308770903E+04  0.13308770904E+04  0.50400001928E-02 0.  1.
        1   -1    0    0  501    0  0.00000000000E+00  0.00000000000E+00 -0.16638583774E+04  0.16638583774E+04  0.50400001928E-02 0. -1.
    10030    2    1    2    0    0  0.00000000000E+00  0.00000000000E+00 -0.33298128704E+03  0.29947354677E+04  0.29761659874E+04 0.  0.
        2    1    3    3  502    0  0.87406847412E+03 -0.49782430207E+03  0.93696740052E+03  0.13746754682E+04  0.25500000920E-02 0.  1.
       -2    1    3    3    0  502 -0.87406847412E+03  0.49782430207E+03 -0.12699486876E+04  0.16200599996E+04  0.25500000920E-02 0. -1.
</event>
<event>
 5   0  0.6792811E-06  0.3010336E+04  0.7818609E-02  0.8240785E-01
       -2   -1    0    0    0  501  0.00000000000E+00  0.00000000000E+00  0.11037221658E+04  0.11037221658E+04  0.25500000920E-02 0. -1.
        2   -1    0    0  501    0  0.00000000000E+00  0.00000000000E+00 -0.20526279112E+04  0.20526279112E+04  0.25500000920E-02 0.  1.
    10030    2    1    2    0    0  0.00000000000E+00  0.00000000000E+00 -0.94890574535E+03  0.31563500770E+04  0.30103361432E+04 0.  0.
        2    1    3    3  502    0 -0.10895395099E+04 -0.13440504677E+03 -0.15541423304E+04  0.19027662609E+04  0.25500000920E-02 0.  1.
       -2    1    3    3    0  502  0.10895395099E+04  0.13440504677E+03  0.60523658506E+03  0.12535838162E+04  0.25500000920E-02 0. -1.
</event>
<event>
 5   0  0.2298500E-06  0.2997538E+04  0.7818609E-02  0.8244434E-01
        3   -1    0    0  501    0  0.00000000000E+00  0.00000000000E+00  0.89646385281E+03  0.89646385850E+03  0.10100000352E+00 0. -1.
       -3   -1    0    0    0  501  0.00000000000E+00  0.00000000000E+00 -0.25057430420E+04  0.25057430440E+04  0.10100000352E+00 0.  1.
    10030    2    1    2    0    0  0.00000000000E+00  0.00000000000E+00 -0.16092791891E+04  0.34022069025E+04  0.29975377060E+04 0.  0.
        4    1    3    3  502    0 -0.66543863704E+03 -0.86228374746E+03  0.36389547686E+03  0.11483742298E+04  0.12699999809E+01 0. -1.
       -4    1    3    3    0  502  0.66543863704E+03  0.86228374746E+03 -0.19731746660E+04  0.22538326726E+04  0.12699999809E+01 0.  1.
</event>
<event>
 5   0  0.6780150E-06  0.2966504E+04  0.7818609E-02  0.8253361E-01
       -2   -1    0    0    0  501  0.00000000000E+00  0.00000000000E+00  0.13981325473E+04  0.13981325473E+04  0.25500000920E-02 0.  1.
        2   -1    0    0  501    0  0.00000000000E+00  0.00000000000E+00 -0.15735538265E+04  0.15735538265E+04  0.25500000920E-02 0. -1.
    10030    2    1    2    0    0  0.00000000000E+00  0.00000000000E+00 -0.17542127924E+03  0.29716863738E+04  0.29665042186E+04 0.  0.
        5    1    3    3  502    0  0.34842981367E+02  0.14531484226E+04  0.20803442499E+03  0.14683850938E+04  0.46999998093E+01 0.  1.
       -5    1    3    3    0  502 -0.34842981367E+02 -0.14531484226E+04 -0.38345570423E+03  0.15033012801E+04  0.46999998093E+01 0. -1.
</event>
<event>
 5   0  0.6780150E-06  0.3013527E+04  0.7818609E-02  0.8239879E-01
       -2   -1    0    0    0  501  0.00000000000E+00  0.00000000000E+00  0.10596259850E+04  0.10596259850E+04  0.25500000920E-02 0. -1.
        2   -1    0    0  501    0  0.00000000000E+00  0.00000000000E+00 -0.21425829032E+04  0.21425829032E+04  0.25500000920E-02 0.  1.
    10030    2    1    2    0    0  0.00000000000E+00  0.00000000000E+00 -0.10829569182E+04  0.32022088882E+04  0.30135271820E+04 0.  0.
        5    1    3    3  502    0  0.15037256367E+04  0.65631589456E+02 -0.61522196768E+03  0.16260438049E+04  0.46999998093E+01 0.  1.
       -5    1    3    3    0  502 -0.15037256367E+04 -0.65631589456E+02 -0.46773495053E+03  0.15761650833E+04  0.46999998093E+01 0. -1.
</event>
<event>
 5   0  0.7193153E-06  0.2986340E+04  0.7818609E-02  0.8247642E-01
        2   -1    0    0  501    0  0.00000000000E+00  0.00000000000E+00  0.11248918986E+04  0.11248918986E+04  0.25500000920E-02 0.  1.
       -2   -1    0    0    0  501  0.00000000000E+00  0.00000000000E+00 -0.19820189197E+04  0.19820189197E+04  0.25500000920E-02 0. -1.
    10030    2    1    2    0    0  0.00000000000E+00  0.00000000000E+00 -0.85712702112E+03  0.31069108183E+04  0.29863402523E+04 0.  0.
        4    1    3    3  502    0  0.61537271350E+03 -0.52621830475E+03 -0.17337939420E+04  0.19135392149E+04  0.12699999809E+01 0. -1.
       -4    1    3    3    0  502 -0.61537271350E+03  0.52621830475E+03  0.87666692086E+03  0.11933716034E+04  0.12699999809E+01 0.  1.
</event>
<event>
 5   0  0.2504260E-06  0.2244446E+04  0.7818609E-02  0.8500153E-01
        1   -1    0    0  501    0  0.00000000000E+00  0.00000000000E+00  0.14443932752E+04  0.14443932753E+04  0.50400001928E-02 0.  1.
       -1   -1    0    0    0  501  0.00000000000E+00  0.00000000000E+00 -0.87191237991E+03  0.87191237993E+03  0.50400001928E-02 0. -1.
    10030    2    1    2    0    0  0.00000000000E+00  0.00000000000E+00  0.57248089533E+03  0.23163056552E+04  0.22444459255E+04 0.  0.
        4    1    3    3  502    0  0.65393734266E+03 -0.18331740646E+02 -0.65477128582E+03  0.92557935936E+03  0.12699999809E+01 0. -1.
       -4    1    3    3    0  502 -0.65393734266E+03  0.18331740646E+02  0.12272521811E+04  0.13907262958E+04  0.12699999809E+01 0.  1.
</event>
<event>
 5   0  0.2422083E-06  0.2967497E+04  0.7818609E-02  0.8253074E-01
        1   -1    0    0  501    0  0.00000000000E+00  0.00000000000E+00  0.13321598317E+04  0.13321598317E+04  0.50400001928E-02 0. -1.
       -1   -1    0    0    0  501  0.00000000000E+00  0.00000000000E+00 -0.16525870906E+04  0.16525870906E+04  0.50400001928E-02 0.  1.
    10030    2    1    2    0    0  0.00000000000E+00  0.00000000000E+00 -0.32042725889E+03  0.29847469223E+04  0.29674973567E+04 0.  0.
        2    1    3    3  502    0 -0.37916193504E+03 -0.53937649335E+03 -0.14971577254E+04  0.16359009840E+04  0.25500000920E-02 0.  1.
       -2    1    3    3    0  502  0.37916193504E+03  0.53937649335E+03  0.11767304665E+04  0.13488459384E+04  0.25500000920E-02 0. -1.
</event>
<event>
 5   0  0.6792811E-06  0.3163604E+04  0.7818609E-02  0.8198496E-01
        2   -1    0    0  501    0  0.00000000000E+00  0.00000000000E+00  0.20703358686E+04  0.20703358686E+04  0.25500000920E-02 0.  1.
       -2   -1    0    0    0  501  0.00000000000E+00  0.00000000000E+00 -0.12085468825E+04  0.12085468825E+04  0.25500000920E-02 0. -1.
    10030    2    1    2    0    0  0.00000000000E+00  0.00000000000E+00  0.86178898608E+03  0.32788827511E+04  0.31636042481E+04 0.  0.
        2    1    3    3  502    0 -0.19032867410E+02  0.15187766928E+04 -0.26846838758E+02  0.15191331888E+04  0.25500000920E-02 0. -1.
       -2    1    3    3    0  502  0.19032867410E+02 -0.15187766928E+04  0.88863582484E+03  0.17597495622E+04  0.25500000920E-02 0.  1.
</event>
<event>
 5   0  0.2422083E-06  0.2984190E+04  0.7818609E-02  0.8248260E-01
        1   -1    0    0  501    0  0.00000000000E+00  0.00000000000E+00  0.19257526208E+04  0.19257526209E+04  0.50400001928E-02 0. -1.
       -1   -1    0    0    0  501  0.00000000000E+00  0.00000000000E+00 -0.11560924241E+04  0.11560924242E+04  0.50400001928E-02 0.  1.
    10030    2    1    2    0    0  0.00000000000E+00  0.00000000000E+00  0.76966019671E+03  0.30818450450E+04  0.29841903530E+04 0.  0.
        2    1    3    3  502    0  0.18101207186E+03  0.46756033936E+02  0.19136092808E+04  0.19227199423E+04  0.25500000920E-02 0. -1.
       -2    1    3    3    0  502 -0.18101207186E+03 -0.46756033936E+02 -0.11439490841E+04  0.11591251028E+04  0.25500000920E-02 0.  1.
</event>
<event>
 5   0  0.7201538E-06  0.2993799E+04  0.7818609E-02  0.8245504E-01
        2   -1    0    0  501    0  0.00000000000E+00  0.00000000000E+00  0.23148576997E+04  0.23148576997E+04  0.25500000920E-02 0.  1.
       -2   -1    0    0    0  501  0.00000000000E+00  0.00000000000E+00 -0.96796812243E+03  0.96796812243E+03  0.25500000920E-02 0. -1.
    10030    2    1    2    0    0  0.00000000000E+00  0.00000000000E+00  0.13468895773E+04  0.32828258221E+04  0.29937992326E+04 0.  0.
        3    1    3    3  502    0  0.99213883331E+03 -0.87919644895E+03 -0.88933764783E+02  0.13286214981E+04  0.10100000352E+00 0.  1.
       -3    1    3    3    0  502 -0.99213883331E+03  0.87919644895E+03  0.14358233421E+04  0.19542043241E+04  0.10100000352E+00 0. -1.
</event>
<event>
 5   0  0.6780150E-06  0.2997580E+04  0.7818609E-02  0.8244422E-01
       -2   -1    0    0    0  501  0.00000000000E+00  0.00000000000E+00  0.11975982122E+04  0.11975982122E+04  0.25500000920E-02 0. -1.
        2   -1    0    0  501    0  0.00000000000E+00  0.00000000000E+00 -0.18757308892E+04  0.18757308893E+04  0.25500000920E-02 0.  1.
    10030    2    1    2    0    0  0.00000000000E+00  0.00000000000E+00 -0.67813267702E+03  0.30733291015E+04  0.29975803306E+04 0.  0.
        5    1    3    3  502    0  0.63580551622E+03 -0.10555347172E+04  0.53569246096E+03  0.13436482785E+04  0.46999998093E+01 0. -1.
       -5    1    3    3    0  502 -0.63580551622E+03  0.10555347172E+04 -0.12138251380E+04  0.17296808229E+04  0.46999998093E+01 0.  1.
</event>
<event>
 5   0  0.2672155E-06  0.3016355E+04  0.7818609E-02  0.8239076E-01
        1   -1    0    0  501    0  0.00000000000E+00  0.00000000000E+00  0.99650192649E+03  0.99650192650E+03  0.50400001928E-02 0. -1.
       -1   -1    0    0    0  501  0.00000000000E+00  0.00000000000E+00 -0.22825836261E+04  0.22825836261E+04  0.50400001928E-02 0.  1.
    10030    2    1    2    0    0  0.00000000000E+00  0.00000000000E+00 -0.12860816996E+04  0.32790855526E+04  0.30163547410E+04 0.  0.
        5    1    3    3  502    0 -0.11980162894E+04 -0.91091221203E+03 -0.53667801684E+03  0.15978264835E+04  0.46999998093E+01 0.  1.
       -5    1    3    3    0  502  0.11980162894E+04  0.91091221203E+03 -0.74940368279E+03  0.16812590691E+04  0.46999998093E+01 0. -1.
</event>
<event>
 5   0  0.2552990E-06  0.3068780E+04  0.7818609E-02  0.8224359E-01
        1   -1    0    0  501    0  0.00000000000E+00  0.00000000000E+00  0.20708586253E+04  0.20708586253E+04  0.50400001928E-02 0. -1.
       -1   -1    0    0    0  501  0.00000000000E+00  0.00000000000E+00 -0.11368968762E+04  0.11368968762E+04  0.50400001928E-02 0.  1.
    10030    2    1    2    0    0  0.00000000000E+00  0.00000000000E+00  0.93396174909E+03  0.32077555015E+04  0.30687800196E+04 0.  0.
        3    1    3    3  502    0 -0.62877102353E+03  0.42314580212E+03  0.18615468829E+04  0.20099159628E+04  0.10100000352E+00 0. -1.
       -3    1    3    3    0  502  0.62877102353E+03 -0.42314580212E+03 -0.92758513384E+03  0.11978395388E+04  0.10100000352E+00 0.  1.
</event>
<event>
 5   0  0.7201538E-06  0.2918593E+04  0.7818609E-02  0.8267367E-01
       -2   -1    0    0    0  501  0.00000000000E+00  0.00000000000E+00  0.15478826182E+04  0.15478826182E+04  0.25500000920E-02 0. -1.
        2   -1    0    0  501    0  0.00000000000E+00  0.00000000000E+00 -0.13757798631E+04  0.13757798631E+04  0.25500000920E-02 0.  1.
    10030    2    1    2    0    0  0.00000000000E+00  0.00000000000E+00  0.17210275505E+03  0.29236624813E+04  0.29185926311E+04 0.  0.
        3    1    3    3  502    0  0.10624361013E+04 -0.21972956278E+03 -0.89160202802E+03  0.14042812171E+04  0.10100000352E+00 0. -1.
       -3    1    3    3    0  502 -0.10624361013E+04  0.21972956278E+03  0.10637047831E+04  0.15193812642E+04  0.10100000352E+00 0.  1.
</event>
<event>
 5   0  0.7217255E-06  0.3030580E+04  0.7818609E-02  0.8235052E-01
       -2   -1    0    0    0  501  0.00000000000E+00  0.00000000000E+00  0.95846283998E+03  0.95846283999E+03  0.25500000920E-02 0.  1.
        2   -1    0    0  501    0  0.00000000000E+00  0.00000000000E+00 -0.23956108900E+04  0.23956108900E+04  0.25500000920E-02 0. -1.
    10030    2    1    2    0    0  0.00000000000E+00  0.00000000000E+00 -0.14371480500E+04  0.33540737300E+04  0.30305801538E+04 0.  0.
        1    1    3    3  502    0  0.92011158203E+03  0.11074164030E+04 -0.12413594621E+04  0.19010391178E+04  0.50400001928E-02 0. -1.
       -1    1    3    3    0  502 -0.92011158203E+03 -0.11074164030E+04 -0.19578858791E+03  0.14530346122E+04  0.50400001928E-02 0.  1.
</event>
<event>
 5   0  0.7217255E-06  0.2695725E+04  0.7818609E-02  0.8336394E-01
        2   -1    0    0  501    0  0.00000000000E+00  0.00000000000E+00  0.93103878702E+03  0.93103878702E+03  0.25500000920E-02 0.  1.
       -2   -1    0    0    0  501  0.00000000000E+00  0.00000000000E+00 -0.19512965008E+04  0.19512965008E+04  0.25500000920E-02 0. -1.
    10030    2    1    2    0    0  0.00000000000E+00  0.00000000000E+00 -0.10202577138E+04  0.28823352878E+04  0.26957245610E+04 0.  0.
        1    1    3    3  502    0 -0.71928331440E+03 -0.85478338218E+03  0.29620383251E+03  0.11557507635E+04  0.50400001928E-02 0.  1.
       -1    1    3    3    0  502  0.71928331440E+03  0.85478338218E+03 -0.13164615463E+04  0.17265845243E+04  0.50400001928E-02 0. -1.
</event>
<event>
 5   0  0.6792811E-06  0.2966836E+04  0.7818609E-02  0.8253265E-01
        2   -1    0    0  501    0  0.00000000000E+00  0.00000000000E+00  0.21834658992E+04  0.21834658992E+04  0.25500000920E-02 0. -1.
       -2   -1    0    0    0  501  0.00000000000E+00  0.00000000000E+00 -0.10078146884E+04  0.10078146884E+04  0.25500000920E-02 0.  1.
    10030    2    1    2    0    0  0.00000000000E+00  0.00000000000E+00  0.11756512108E+04  0.31912805875E+04  0.29668360283E+04 0.  0.
        2    1    3    3  502    0 -0.91658995214E+03  0.82226647819E+03 -0.30195943920E+03  0.12678480999E+04  0.25500000920E-02 0.  1.
       -2    1    3    3    0  502  0.91658995214E+03 -0.82226647819E+03  0.14776106500E+04  0.19234324876E+04  0.25500000920E-02 0. -1.
</event>
<event>
 5   0  0.2628425E-06  0.2927775E+04  0.7818609E-02  0.8264661E-01
       -1   -1    0    0    0  501  0.00000000000E+00  0.00000000000E+00  0.16361415603E+04  0.16361415603E+04  0.50400001928E-02 0. -1.
        1   -1    0    0  501    0  0.00000000000E+00  0.00000000000E+00 -0.13097689045E+04  0.13097689045E+04  0.50400001928E-02 0.  1.
    10030    2    1    2    0    0  0.00000000000E+00  0.00000000000E+00  0.32637265580E+03  0.29459104648E+04  0.29277754962E+04 0.  0.
        1    1    3    3  502    0 -0.39076847537E+03 -0.75586349870E+03 -0.10353837647E+04  0.13401675903E+04  0.50400001928E-02 0.  1.
       -1    1    3    3    0  502  0.39076847537E+03  0.75586349870E+03  0.13617564205E+04  0.16057428744E+04  0.50400001928E-02 0. -1.
</event>
<event>
 5   0  0.7217255E-06  0.3103605E+04  0.7818609E-02  0.8214749E-01
       -2   -1    0    0    0  501  0.00000000000E+00  0.00000000000E+00  0.11679859848E+04  0.11679859848E+04  0.25500000920E-02 0. -1.
        2   -1    0    0  501    0  0.00000000000E+00  0.00000000000E+00 -0.20617467372E+04  0.20617467372E+04  0.25500000920E-02 0.  1.
    10030    2    1    2    0    0  0.00000000000E+00  0.00000000000E+00 -0.89376075240E+03  0.32297327219E+04  0.31036051895E+04 0.  0.
        1    1    3    3  502    0  0.12590978967E+04 -0.68750833542E+03  0.16885446813E+03  0.14444746645E+04  0.50400001928E-02 0.  1.
       -1    1    3    3    0  502 -0.12590978967E+04  0.68750833542E+03 -0.10626152205E+04  0.17852580575E+04  0.50400001928E-02 0. -1.
</event>
<event>
 5   0  0.7193153E-06  0.2899200E+04  0.7818609E-02  0.8273116E-01
        2   -1    0    0  501    0  0.00000000000E+00  0.00000000000E+00  0.16600572617E+04  0.16600572617E+04  0.25500000920E-02 0.  1.
       -2   -1    0    0    0  501  0.00000000000E+00  0.00000000000E+00 -0.12658238856E+04  0.12658238856E+04  0.25500000920E-02 0. -1.
    10030    2    1    2    0    0  0.00000000000E+00  0.00000000000E+00  0.39423337609E+03  0.29258811474E+04  0.28991999817E+04 0.  0.
        4    1    3    3  502    0  0.89269315300E+03  0.11379380069E+04  0.29566031694E+03  0.14762183473E+04  0.12699999809E+01 0.  1.
       -4    1    3    3    0  502 -0.89269315300E+03 -0.11379380069E+04  0.98573059149E+02  0.14496628001E+04  0.12699999809E+01 0. -1.
</event>
<event>
 5   0  0.7201538E-06  0.2997239E+04  0.7818609E-02  0.8244520E-01
       -2   -1    0    0    0  501  0.00000000000E+00  0.00000000000E+00  0.99723809331E+03  0.99723809331E+03  0.25500000920E-02 0. -1.
        2   -1    0    0  501    0  0.00000000000E+00  0.00000000000E+00 -0.22520798173E+04  0.22520798173E+04  0.25500000920E-02 0.  1.
    10030    2    1    2    0    0  0.00000000000E+00  0.00000000000E+00 -0.12548417240E+04  0.32493179106E+04  0.29972385844E+04 0.  0.
        3    1    3    3  502    0  0.13115591363E+04  0.59383558617E+03 -0.10783764043E+04  0.17988117608E+04  0.10100000352E+00 0.  1.
       -3    1    3    3    0  502 -0.13115591363E+04 -0.59383558617E+03 -0.17646531968E+03  0.14505061498E+04  0.10100000352E+00 0. -1.
</event>
<event>
 5   0  0.2672155E-06  0.3041728E+04  0.7818609E-02  0.8231915E-01
        1   -1    0    0  501    0  0.00000000000E+00  0.00000000000E+00  0.17588398442E+04  0.17588398442E+04  0.50400001928E-02 0.  1.
       -1   -1    0    0    0  501  0.00000000000E+00  0.00000000000E+00 -0.13150869784E+04  0.13150869784E+04  0.50400001928E-02 0. -1.
    10030    2    1    2    0    0  0.00000000000E+00  0.00000000000E+00  0.44375286581E+03  0.30739268226E+04  0.30417280458E+04 0.  0.
        5    1    3    3  502    0  0.11803909857E+04 -0.56395409827E+03  0.10057406463E+04  0.16501222505E+04  0.46999998093E+01 0.  1.
       -5    1    3    3    0  502 -0.11803909857E+04  0.56395409827E+03 -0.56198778048E+03  0.14238045721E+04  0.46999998093E+01 0. -1.
</event>
<event>
 5   0  0.2422083E-06  0.2910360E+04  0.7818609E-02  0.8269802E-01
        1   -1    0    0  501    0  0.00000000000E+00  0.00000000000E+00  0.21398131519E+04  0.21398131519E+04  0.50400001928E-02 0. -1.
       -1   -1    0    0    0  501  0.00000000000E+00  0.00000000000E+00 -0.98959509616E+03  0.98959509618E+03  0.50400001928E-02 0.  1.
    10030    2    1    2    0    0  0.00000000000E+00  0.00000000000E+00  0.11502180557E+04  0.31294082481E+04  0.29103598416E+04 0.  0.
        2    1    3    3  502    0  0.83108000600E+03  0.58304243008E+02  0.18579931840E+04  0.20362298576E+04  0.25500000920E-02 0. -1.
       -2    1    3    3    0  502 -0.83108000600E+03 -0.58304243008E+02 -0.70777512830E+03  0.10931783905E+04  0.25500000920E-02 0.  1.
</event>
<event>
 5   0  0.7217255E-06  0.3052293E+04  0.7818609E-02  0.8228954E-01
       -2   -1    0    0    0  501  0.00000000000E+00  0.00000000000E+00  0.11368342051E+04  0.11368342051E+04  0.25500000920E-02 0. -1.
        2   -1    0    0  501    0  0.00000000000E+00  0.00000000000E+00 -0.20487805091E+04  0.20487805091E+04  0.25500000920E-02 0.  1.
    10030    2    1    2    0    0  0.00000000000E+00  0.00000000000E+00 -0.91194630405E+03  0.31856147142E+04  0.30522934075E+04 0.  0.
        1    1    3    3  502    0  0.56575777084E+03  0.11957181040E+03 -0.19300176935E+04  0.20147822637E+04  0.50400001928E-02 0.  1.
       -1    1    3    3    0  502 -0.56575777084E+03 -0.11957181040E+03  0.10180713894E+04  0.11708324505E+04  0.50400001928E-02 0. -1.
</event>
<event>
 5   0  0.7193153E-06  0.2991298E+04  0.7818609E-02  0.8246220E-01
        2   -1    0    0  501    0  0.00000000000E+00  0.00000000000E+00  0.15513552375E+04  0.15513552375E+04  0.25500000920E-02 0.  1.
       -2   -1    0    0    0  501  0.00000000000E+00  0.00000000000E+00 -0.14419428344E+04  0.14419428344E+04  0.25500000920E-02 0. -1.
    10030    2    1    2    0    0  0.00000000000E+00  0.00000000000E+00  0.10941240311E+03  0.29932980720E+04  0.29912977575E+04 0.  0.
        4    1    3    3  502    0  0.13245859024E+04 -0.42254278844E+03  0.60634041460E+03  0.15168126226E+04  0.12699999809E+01 0.  1.
       -4    1    3    3    0  502 -0.13245859024E+04  0.42254278844E+03 -0.49692801149E+03  0.14764854494E+04  0.12699999809E+01 0. -1.
</event>
<event>
 5   0  0.7201538E-06  0.3072312E+04  0.7818609E-02  0.8223378E-01
        2   -1    0    0  501    0  0.00000000000E+00  0.00000000000E+00  0.26861120313E+04  0.26861120313E+04  0.25500000920E-02 0. -1.
       -2   -1    0    0    0  501  0.00000000000E+00  0.00000000000E+00 -0.87850960592E+03  0.87850960593E+03  0.25500000920E-02 0.  1.
    10030    2    1    2    0    0  0.00000000000E+00  0.00000000000E+00  0.18076024254E+04  0.35646216372E+04  0.30723119777E+04 0.  0.
        3    1    3    3  502    0  0.36397513419E+01 -0.95241550498E+03  0.23022002330E+04  0.24914322116E+04  0.10100000352E+00 0. -1.
       -3    1    3    3    0  502 -0.36397513419E+01  0.95241550498E+03 -0.49459780758E+03  0.10731894257E+04  0.10100000352E+00 0.  1.
</event>
<event>
 5   0  0.2628425E-06  0.3198470E+04  0.7818609E-02  0.8189221E-01
       -1   -1    0    0    0  501  0.00000000000E+00  0.00000000000E+00  0.17064204279E+04  0.17064204279E+04  0.50400001928E-02 0. -1.
        1   -1    0    0  501    0  0.00000000000E+00  0.00000000000E+00 -0.14987819294E+04  0.14987819294E+04  0.50400001928E-02 0.  1.
    10030    2    1    2    0    0  0.00000000000E+00  0.00000000000E+00  0.20763849843E+03  0.32052023573E+04  0.31984696974E+04 0.  0.
        1    1    3    3  502    0 -0.14001073831E+04 -0.23589176786E+03 -0.63366906523E+03  0.15548254225E+04  0.50400001928E-02 0.  1.
       -1    1    3    3    0  502  0.14001073831E+04  0.23589176786E+03  0.84130756366E+03  0.16503769348E+04  0.50400001928E-02 0. -1.
</event>
<event>
 5   0  0.6792811E-06  0.2985646E+04  0.7818609E-02  0.8247842E-01
        2   -1    0    0  501    0  0.00000000000E+00  0.00000000000E+00  0.10203138768E+04  0.10203138768E+04  0.25500000920E-02 0.  1.
       -2   -1    0    0    0  501  0.00000000000E+00  0.00000000000E+00 -0.21841512439E+04  0.21841512439E+04  0.25500000920E-02 0. -1.
    10030    2    1    2    0    0  0.00000000000E+00  0.00000000000E+00 -0.11638373671E+04  0.32044651207E+04  0.29856455403E+04 0.  0.
        2    1    3    3  502    0  0.59888274641E+03  0.12897830588E+04 -0.94404953319E+02  0.14251712802E+04  0.25500000920E-02 0.  1.
       -2    1    3    3    0  502 -0.59888274641E+03 -0.12897830588E+04 -0.10694324138E+04  0.17792938404E+04  0.25500000920E-02 0. -1.
</event>
<event>
 5   0  0.2628425E-06  0.3003161E+04  0.7818609E-02  0.8242829E-01
       -1   -1    0    0    0  501  0.00000000000E+00  0.00000000000E+00  0.14828818744E+04  0.14828818744E+04  0.50400001928E-02 0.  1.
        1   -1    0    0  501    0  0.00000000000E+00  0.00000000000E+00 -0.15205151416E+04  0.15205151416E+04  0.50400001928E-02 0. -1.
    10030    2    1    2    0    0  0.00000000000E+00  0.00000000000E+00 -0.37633267259E+02  0.30033970160E+04  0.30031612300E+04 0.  0.
        1    1    3    3  502    0  0.24432686116E+03  0.76714954443E+03 -0.12864059127E+04  0.15175816982E+04  0.50400001928E-02 0. -1.
       -1    1    3    3    0  502 -0.24432686116E+03 -0.76714954443E+03  0.12487726454E+04  0.14858153178E+04  0.50400001928E-02 0.  1.
</event>
<event>
 5   0  0.2422083E-06  0.3002496E+04  0.7818609E-02  0.8243018E-01
        1   -1    0    0  501    0  0.00000000000E+00  0.00000000000E+00  0.21075800603E+04  0.21075800603E+04  0.50400001928E-02 0.  1.
       -1   -1    0    0    0  501  0.00000000000E+00  0.00000000000E+00 -0.10693523494E+04  0.10693523494E+04  0.50400001928E-02 0. -1.
    10030    2    1    2    0    0  0.00000000000E+00  0.00000000000E+00  0.10382277110E+04  0.31769324097E+04  0.30024960876E+04 0.  0.
        2    1    3    3  502    0  0.87797126542E+03  0.10614852256E+04 -0.11235053615E+03  0.13821024094E+04  0.25500000920E-02 0. -1.
       -2    1    3    3    0  502 -0.87797126542E+03 -0.10614852256E+04  0.11505782471E+04  0.17948300003E+04  0.25500000920E-02 0.  1.
</event>
<event>
 5   0  0.6780150E-06  0.2996055E+04  0.7818609E-02  0.8244858E-01
       -2   -1    0    0    0  501  0.00000000000E+00  0.00000000000E+00  0.94233253035E+03  0.94233253035E+03  0.25500000920E-02 0. -1.
        2   -1    0    0  501    0  0.00000000000E+00  0.00000000000E+00 -0.23814174513E+04  0.23814174513E+04  0.25500000920E-02 0.  1.
    10030    2    1    2    0    0  0.00000000000E+00  0.00000000000E+00 -0.14390849210E+04  0.33237499817E+04  0.29960554953E+04 0.  0.
        5    1    3    3  502    0  0.48488369977E+01  0.62202942232E+03 -0.22313572400E+04  0.23164458414E+04  0.46999998093E+01 0.  1.
       -5    1    3    3    0  502 -0.48488369977E+01 -0.62202942232E+03  0.79227231907E+03  0.10073041403E+04  0.46999998093E+01 0. -1.
</event>
<event>
 5   0  0.2628425E-06  0.3145038E+04  0.7818609E-02  0.8203485E-01
       -1   -1    0    0    0  501  0.00000000000E+00  0.00000000000E+00  0.11349882346E+04  0.11349882346E+04  0.50400001928E-02 0. -1.
        1   -1    0    0  501    0  0.00000000000E+00  0.00000000000E+00 -0.21787148383E+04  0.21787148383E+04  0.50400001928E-02 0.  1.
    10030    2    1    2    0    0  0.00000000000E+00  0.00000000000E+00 -0.10437266037E+04  0.33137030729E+04  0.31450378109E+04 0.  0.
        1    1    3    3  502    0  0.59759278529E+02  0.13973127866E+04  0.23554977670E+03  0.14182869570E+04  0.50400001928E-02 0. -1.
       -1    1    3    3    0  502 -0.59759278529E+02 -0.13973127866E+04 -0.12792763804E+04  0.18954161159E+04  0.50400001928E-02 0.  1.
</event>
<event>
 5   0  0.7193153E-06  0.2972136E+04  0.7818609E-02  0.8251733E-01
       -2   -1    0    0    0  501  0.00000000000E+00  0.00000000000E+00  0.11323541315E+04  0.11323541315E+04  0.25500000920E-02 0. -1.
        2   -1    0    0  501    0  0.00000000000E+00  0.00000000000E+00 -0.19502721144E+04  0.19502721144E+04  0.25500000920E-02 0.  1.
    10030    2    1    2    0    0  0.00000000000E+00  0.00000000000E+00 -0.81791798295E+03  0.30826262460E+04  0.29721363942E+04 0.  0.
        4    1    3    3  502    0  0.75895689048E+03  0.38771166727E+03  0.85369745739E+03  0.12062905372E+04  0.12699999809E+01 0. -1.
       -4    1    3    3    0  502 -0.75895689048E+03 -0.38771166727E+03 -0.16716154403E+04  0.18763357087E+04  0.12699999809E+01 0.  1.
</event>
<event>
 5   0  0.2298500E-06  0.3032266E+04  0.7818609E-02  0.8234577E-01
        3   -1    0    0  501    0  0.00000000000E+00  0.00000000000E+00  0.29699272086E+04  0.29699272104E+04  0.10100000352E+00 0. -1.
       -3   -1    0    0    0  501  0.00000000000E+00  0.00000000000E+00 -0.77397842636E+03  0.77397843295E+03  0.10100000352E+00 0.  1.
    10030    2    1    2    0    0  0.00000000000E+00  0.00000000000E+00  0.21959487823E+04  0.37439056433E+04  0.30322662171E+04 0.  0.
        1    1    3    3  502    0  0.10641760784E+04 -0.10241339560E+04  0.67503526372E+03  0.16238822904E+04  0.50400001928E-02 0.  1.
       -1    1    3    3    0  502 -0.10641760784E+04  0.10241339560E+04  0.15209135186E+04  0.21200233529E+04  0.50400001928E-02 0. -1.
</event>
<event>
 5   0  0.7201538E-06  0.3050590E+04  0.7818609E-02  0.8229430E-01
        2   -1    0    0  501    0  0.00000000000E+00  0.00000000000E+00  0.13285345821E+04  0.13285345821E+04  0.25500000920E-02 0.  1.
       -2   -1    0    0    0  501  0.00000000000E+00  0.00000000000E+00 -0.17511959629E+04  0.17511959629E+04  0.25500000920E-02 0. -1.
    10030    2    1    2    0    0  0.00000000000E+00  0.00000000000E+00 -0.42266138087E+03  0.30797305450E+04  0.30505897113E+04 0.  0.
        3    1    3    3  502    0 -0.11401020698E+04  0.96280033362E+03  0.10745008611E+03  0.14961158856E+04  0.10100000352E+00 0.  1.
       -3    1    3    3    0  502  0.11401020698E+04 -0.96280033362E+03 -0.53011146698E+03  0.15836146594E+04  0.10100000352E+00 0. -1.
</event>
<event>
 5   0  0.6780150E-06  0.3202482E+04  0.7818609E-02  0.8188162E-01
       -2   -1    0    0    0  501  0.00000000000E+00  0.00000000000E+00  0.11401161605E+04  0.11401161605E+04  0.25500000920E-02 0. -1.
        2   -1    0    0  501    0  0.00000000000E+00  0.00000000000E+00 -0.22488697724E+04  0.22488697724E+04  0.25500000920E-02 0.  1.
    10030    2    1    2    0    0  0.00000000000E+00  0.00000000000E+00 -0.11087536119E+04  0.33889859330E+04  0.32024820190E+04 0.  0.
        5    1    3    3  502    0 -0.83736086125E+03 -0.50013952223E+03  0.78947537648E+03  0.12548331418E+04  0.46999998093E+01 0. -1.
       -5    1    3    3    0  502  0.83736086125E+03  0.50013952223E+03 -0.18982289884E+04  0.21341527912E+04  0.46999998093E+01 0.  1.
</event>
<event>
 5   0  0.2552990E-06  0.2405258E+04  0.7818609E-02  0.8437537E-01
       -1   -1    0    0    0  501  0.00000000000E+00  0.00000000000E+00  0.22810376779E+04  0.22810376779E+04  0.50400001928E-02 0.  1.
        1   -1    0    0  501    0  0.00000000000E+00  0.00000000000E+00 -0.63406102689E+03  0.63406102691E+03  0.50400001928E-02 0. -1.
    10030    2    1    2    0    0  0.00000000000E+00  0.00000000000E+00  0.16469766510E+04  0.29150987048E+04  0.24052584830E+04 0.  0.
        3    1    3    3  502    0  0.63760286357E+03 -0.51833228758E+03 -0.24077732668E+03  0.85625901644E+03  0.10100000352E+00 0. -1.
       -3    1    3    3    0  502 -0.63760286357E+03  0.51833228758E+03  0.18877539777E+04  0.20588396884E+04  0.10100000352E+00 0.  1.
</event>
<event>
 5   0  0.6792811E-06  0.3029378E+04  0.7818609E-02  0.8235391E-01
        2   -1    0    0  501    0  0.00000000000E+00  0.00000000000E+00  0.19488821074E+04  0.19488821074E+04  0.25500000920E-02 0. -1.
       -2   -1    0    0    0  501  0.00000000000E+00  0.00000000000E+00 -0.11772301797E+04  0.11772301798E+04  0.25500000920E-02 0.  1.
    10030    2    1    2    0    0  0.00000000000E+00  0.00000000000E+00  0.77165192764E+03  0.31261122871E+04  0.30293780441E+04 0.  0.
        2    1    3    3  502    0 -0.66570493256E+03  0.45078337814E+03  0.17105285609E+04  0.18900467372E+04  0.25500000920E-02 0. -1.
       -2    1    3    3    0  502  0.66570493256E+03 -0.45078337814E+03 -0.93887663325E+03  0.12360655499E+04  0.25500000920E-02 0.  1.
</event>
<event>
 5   0  0.7193153E-06  0.2982144E+04  0.7818609E-02  0.8248848E-01
       -2   -1    0    0    0  501  0.00000000000E+00  0.00000000000E+00  0.21044542331E+04  0.21044542331E+04  0.25500000920E-02 0.  1.
        2   -1    0    0  501    0  0.00000000000E+00  0.00000000000E+00 -0.10564711249E+04  0.10564711249E+04  0.25500000920E-02 0. -1.
    10030    2    1    2    0    0  0.00000000000E+00  0.00000000000E+00  0.10479831082E+04  0.31609253581E+04  0.29821436123E+04 0.  0.
        4    1    3    3  502    0 -0.71770587902E+03  0.12547428319E+04  0.91172526916E+03  0.17090131311E+04  0.12699999809E+01 0. -1.
       -4    1    3    3    0  502  0.71770587902E+03 -0.12547428319E+04  0.13625783906E+03  0.14519122269E+04  0.12699999809E+01 0.  1.
</event>
<event>
 5   0  0.7193153E-06  0.2957234E+04  0.7818609E-02  0.8256049E-01
        2   -1    0    0  501    0  0.00000000000E+00  0.00000000000E+00  0.16623825645E+04  0.16623825645E+04  0.25500000920E-02 0. -1.
       -2   -1    0    0    0  501  0.00000000000E+00  0.00000000000E+00 -0.13151657011E+04  0.13151657011E+04  0.25500000920E-02 0.  1.
    10030    2    1    2    0    0  0.00000000000E+00  0.00000000000E+00  0.34721686335E+03  0.29775482656E+04  0.29572342018E+04 0.  0.
        4    1    3    3  502    0  0.13941659320E+04  0.14494078050E+03 -0.30036980523E+03  0.14335027411E+04  0.12699999809E+01 0.  1.
       -4    1    3    3    0  502 -0.13941659320E+04 -0.14494078050E+03  0.64758666857E+03  0.15440455246E+04  0.12699999809E+01 0. -1.
</event>
<event>
 5   0  0.2504260E-06  0.2972310E+04  0.7818609E-02  0.8251682E-01
        1   -1    0    0  501    0  0.00000000000E+00  0.00000000000E+00  0.96425531704E+03  0.96425531706E+03  0.50400001928E-02 0. -1.
       -1   -1    0    0    0  501  0.00000000000E+00  0.00000000000E+00 -0.22905315773E+04  0.22905315773E+04  0.50400001928E-02 0.  1.
    10030    2    1    2    0    0  0.00000000000E+00  0.00000000000E+00 -0.13262762602E+04  0.32547868943E+04  0.29723103824E+04 0.  0.
        4    1    3    3  502    0  0.53080415208E+03 -0.49144984607E+03 -0.20847376619E+04  0.22066736802E+04  0.12699999809E+01 0.  1.
       -4    1    3    3    0  502 -0.53080415208E+03  0.49144984607E+03  0.75846140163E+03  0.10481132142E+04  0.12699999809E+01 0. -1.
</event>
<event>
 5   0  0.2552990E-06  0.2994976E+04  0.7818609E-02  0.8245167E-01
       -1   -1    0    0    0  501  0.00000000000E+00  0.00000000000E+00  0.19802260335E+04  0.19802260335E+04  0.50400001928E-02 0. -1.
        1   -1    0    0  501    0  0.00000000000E+00  0.00000000000E+00 -0.11324317922E+04  0.11324317923E+04  0.50400001928E-02 0.  1.
    10030    2    1    2    0    0  0.00000000000E+00  0.00000000000E+00  0.84779424125E+03  0.31126578258E+04  0.29949764047E+04 0.  0.
        3    1    3    3  502    0 -0.11441007435E+04  0.85333325917E+03  0.89483186829E+03  0.16845973540E+04  0.10100000352E+00 0.  1.
       -3    1    3    3    0  502  0.11441007435E+04 -0.85333325917E+03 -0.47037627042E+02  0.14280604717E+04  0.10100000352E+00 0. -1.
</event>
<event>
 5   0  0.2628425E-06  0.3007146E+04  0.7818609E-02  0.8241693E-01
       -1   -1    0    0    0  501  0.00000000000E+00  0.00000000000E+00  0.17461752235E+04  0.17461752235E+04  0.50400001928E-02 0. -1.
        1   -1    0    0  501    0  0.00000000000E+00  0.00000000000E+00 -0.12946761458E+04  0.12946761458E+04  0.50400001928E-02 0.  1.
    10030    2    1    2    0    0  0.00000000000E+00  0.00000000000E+00  0.45149907775E+03  0.30408513693E+04  0.30071457618E+04 0.  0.
        1    1    3    3  502    0  0.33311979206E+03  0.43696744588E+03 -0.11895168969E+04  0.13102899651E+04  0.50400001928E-02 0.  1.
       -1    1    3    3    0  502 -0.33311979206E+03 -0.43696744588E+03  0.16410159746E+04  0.17305614042E+04  0.50400001928E-02 0. -1.
</event>
<event>
 5   0  0.2504260E-06  0.2981310E+04  0.7818609E-02  0.8249088E-01
       -1   -1    0    0    0  501  0.00000000000E+00  0.00000000000E+00  0.23830810478E+04  0.23830810478E+04  0.50400001928E-02 0. -1.
        1   -1    0    0  501    0  0.00000000000E+00  0.00000000000E+00 -0.93242835633E+03  0.93242835634E+03  0.50400001928E-02 0.  1.
    10030    2    1    2    0    0  0.00000000000E+00  0.00000000000E+00  0.14506526915E+04  0.33155094042E+04  0.29813100103E+04 0.  0.
        4    1    3    3  502    0  0.66358665141E+03  0.83979439552E+03  0.18791510333E+04  0.21625938337E+04  0.12699999809E+01 0. -1.
       -4    1    3    3    0  502 -0.66358665141E+03 -0.83979439552E+03 -0.42849834185E+03  0.11529155704E+04  0.12699999809E+01 0.  1.
</event>
<event>
 5   0  0.2628425E-06  0.3003708E+04  0.7818609E-02  0.8242673E-01
       -1   -1    0    0    0  501  0.00000000000E+00  0.00000000000E+00  0.17017491017E+04  0.17017491017E+04  0.50400001928E-02 0.  1.
        1   -1    0    0  501    0  0.00000000000E+00  0.00000000000E+00 -0.13254392133E+04  0.13254392133E+04  0.50400001928E-02 0. -1.
    10030    2    1    2    0    0  0.00000000000E+00  0.00000000000E+00  0.37630988844E+03  0.30271883151E+04  0.30037077026E+04 0.  0.
        1    1    3    3  502    0 -0.36016502640E+03 -0.14373100490E+04 -0.58679978351E+02  0.14829100994E+04  0.50400001928E-02 0. -1.
       -1    1    3    3    0  502  0.36016502640E+03  0.14373100490E+04  0.43498986679E+03  0.15442782156E+04  0.50400001928E-02 0.  1.
</event>
<event>
 5   0  0.6792811E-06  0.2958487E+04  0.7818609E-02  0.8255685E-01
        2   -1    0    0  501    0  0.00000000000E+00  0.00000000000E+00  0.19006350638E+04  0.19006350638E+04  0.25500000920E-02 0.  1.
       -2   -1    0    0    0  501  0.00000000000E+00  0.00000000000E+00 -0.11512794333E+04  0.11512794333E+04  0.25500000920E-02 0. -1.
    10030    2    1    2    0    0  0.00000000000E+00  0.00000000000E+00  0.74935563051E+03  0.30519144971E+04  0.29584874914E+04 0.  0.
        2    1    3    3  502    0 -0.89366751233E+03 -0.56854011027E+03 -0.69054088441E+03  0.12644074472E+04  0.25500000920E-02 0. -1.
       -2    1    3    3    0  502  0.89366751233E+03  0.56854011027E+03  0.14398965149E+04  0.17875070499E+04  0.25500000920E-02 0.  1.
</event>
<event>
 5   0  0.2504260E-06  0.2949129E+04  0.7818609E-02  0.8258408E-01
       -1   -1    0    0    0  501  0.00000000000E+00  0.00000000000E+00  0.15874116848E+04  0.15874116848E+04  0.50400001928E-02 0. -1.
        1   -1    0    0  501    0  0.00000000000E+00  0.00000000000E+00 -0.13697392495E+04  0.13697392495E+04  0.50400001928E-02 0.  1.
    10030    2    1    2    0    0  0.00000000000E+00  0.00000000000E+00  0.21767243533E+03  0.29571509343E+04  0.29491287458E+04 0.  0.
        4    1    3    3  502    0  0.40801116926E+03  0.14159486163E+04  0.54329556621E+02  0.14745632953E+04  0.12699999809E+01 0.  1.
       -4    1    3    3    0  502 -0.40801116926E+03 -0.14159486163E+04  0.16334287871E+03  0.14825876390E+04  0.12699999809E+01 0. -1.
</event>
<event>
 5   0  0.6792811E-06  0.3073198E+04  0.7818609E-02  0.8223132E-01
        2   -1    0    0  501    0  0.00000000000E+00  0.00000000000E+00  0.17975732480E+04  0.17975732480E+04  0.25500000920E-02 0.  1.
       -2   -1    0    0    0  501  0.00000000000E+00  0.00000000000E+00 -0.13135131122E+04  0.13135131122E+04  0.25500000920E-02 0. -1.
    10030    2    1    2    0    0  0.00000000000E+00  0.00000000000E+00  0.48406013583E+03  0.31110863602E+04  0.30731977036E+04 0.  0.
        2    1    3    3  502    0 -0.37687193178E+03 -0.14387676601E+04  0.63286133725E+03  0.16163533973E+04  0.25500000920E-02 0.  1.
       -2    1    3    3    0  502  0.37687193178E+03  0.14387676601E+04 -0.14880120142E+03  0.14947329629E+04  0.25500000920E-02 0. -1.
</event>
<event>
 5   0  0.2628425E-06  0.2943773E+04  0.7818609E-02  0.8259971E-01
        1   -1    0    0  501    0  0.00000000000E+00  0.00000000000E+00  0.19786500140E+04  0.19786500140E+04  0.50400001928E-02 0.  1.
       -1   -1    0    0    0  501  0.00000000000E+00  0.00000000000E+00 -0.10949134183E+04  0.10949134184E+04  0.50400001928E-02 0. -1.
    10030    2    1    2    0    0  0.00000000000E+00  0.00000000000E+00  0.88373659563E+03  0.30735634323E+04  0.29437733952E+04 0.  0.
        1    1    3    3  502    0 -0.10604946927E+04  0.83940292149E+03 -0.16442712211E+03  0.13624545997E+04  0.50400001928E-02 0. -1.
       -1    1    3    3    0  502  0.10604946927E+04 -0.83940292149E+03  0.10481637177E+04  0.17111088326E+04  0.50400001928E-02 0.  1.
</event>
<event>
 5   0  0.2552990E-06  0.2932639E+04  0.7818609E-02  0.8263232E-01
        1   -1    0    0  501    0  0.00000000000E+00  0.00000000000E+00  0.15891808473E+04  0.15891808473E+04  0.50400001928E-02 0.  1.
       -1   -1    0    0    0  501  0.00000000000E+00  0.00000000000E+00 -0.13529564400E+04  0.13529564400E+04  0.50400001928E-02 0. -1.
    10030    2    1    2    0    0  0.00000000000E+00  0.00000000000E+00  0.23622440728E+03  0.29421372873E+04  0.29326387174E+04 0.  0.
        3    1    3    3  502    0  0.96328863428E+03 -0.48544476183E+03  0.11145617216E+04  0.15510736447E+04  0.10100000352E+00 0.  1.
       -3    1    3    3    0  502 -0.96328863428E+03  0.48544476183E+03 -0.87833731437E+03  0.13910636426E+04  0.10100000352E+00 0. -1.
</event>
<event>
 5   0  0.6792811E-06  0.3032841E+04  0.7818609E-02  0.8234415E-01
       -2   -1    0    0    0  501  0.00000000000E+00  0.00000000000E+00  0.91947397726E+03  0.91947397726E+03  0.25500000920E-02 0.  1.
        2   -1    0    0  501    0  0.00000000000E+00  0.00000000000E+00 -0.25009202256E+04  0.25009202256E+04  0.25500000920E-02 0. -1.
    10030    2    1    2    0    0  0.00000000000E+00  0.00000000000E+00 -0.15814462483E+04  0.34203942028E+04  0.30328409563E+04 0.  0.
        2    1    3    3  502    0 -0.12163800214E+04  0.89214101474E+03 -0.61587955145E+03  0.16293567960E+04  0.25500000920E-02 0. -1.
       -2    1    3    3    0  502  0.12163800214E+04 -0.89214101474E+03 -0.96556669687E+03  0.17910374069E+04  0.25500000920E-02 0.  1.
</event>
<event>
 5   0  0.7201538E-06  0.2903807E+04  0.7818609E-02  0.8271746E-01
        2   -1    0    0  501    0  0.00000000000E+00  0.00000000000E+00  0.22088084525E+04  0.22088084525E+04  0.25500000920E-02 0.  1.
       -2   -1    0    0    0  501  0.00000000000E+00  0.00000000000E+00 -0.95437166296E+03  0.95437166296E+03  0.25500000920E-02 0. -1.
    10030    2    1    2    0    0  0.00000000000E+00  0.00000000000E+00  0.12544367895E+04  0.31631801154E+04  0.29038072911E+04 0.  0.
        3    1    3    3  502    0 -0.22519273979E+03 -0.68188599912E+03  0.20018127772E+04  0.21267192319E+04  0.10100000352E+00 0.  1.
       -3    1    3    3    0  502  0.22519273979E+03  0.68188599912E+03 -0.74737598776E+03  0.10364608835E+04  0.10100000352E+00 0. -1.
</event>
<event>
 5   0  0.6780150E-06  0.3000287E+04  0.7818609E-02  0.8243649E-01
        2   -1    0    0  501    0  0.00000000000E+00  0.00000000000E+00  0.18162740069E+04  0.18162740069E+04  0.25500000920E-02 0. -1.
       -2   -1    0    0    0  501  0.00000000000E+00  0.00000000000E+00 -0.12390367690E+04  0.12390367690E+04  0.25500000920E-02 0.  1.
    10030    2    1    2    0    0  0.00000000000E+00  0.00000000000E+00  0.57723723791E+03  0.30553107760E+04  0.30002868378E+04 0.  0.
        5    1    3    3  502    0  0.86125274807E+03 -0.73519782962E+03  0.12906026714E+04  0.17169593735E+04  0.46999998093E+01 0. -1.
       -5    1    3    3    0  502 -0.86125274807E+03  0.73519782962E+03 -0.71336543352E+03  0.13383514025E+04  0.46999998093E+01 0.  1.
</event>
<event>
 5   0  0.2504260E-06  0.3046954E+04  0.7818609E-02  0.8230448E-01
       -1   -1    0    0    0  501  0.00000000000E+00  0.00000000000E+00  0.13371375781E+04  0.13371375781E+04  0.50400001928E-02 0.  1.
        1   -1    0    0  501    0  0.00000000000E+00  0.00000000000E+00 -0.17357844301E+04  0.17357844301E+04  0.50400001928E-02 0. -1.
    10030    2    1    2    0    0  0.00000000000E+00  0.00000000000E+00 -0.39864685204E+03  0.30729220082E+04  0.30469542753E+04 0.  0.
        4    1    3    3  502    0 -0.12599030513E+04 -0.65842996489E+03  0.35315480169E+03  0.14647886005E+04  0.12699999809E+01 0.  1.
       -4    1    3    3    0  502  0.12599030513E+04  0.65842996489E+03 -0.75180165373E+03  0.16081334077E+04  0.12699999809E+01 0. -1.
</event>
<event>
 5   0  0.2628425E-06  0.3003657E+04  0.7818609E-02  0.8242687E-01
        1   -1    0    0  501    0  0.00000000000E+00  0.00000000000E+00  0.19121796978E+04  0.19121796978E+04  0.50400001928E-02 0.  1.
       -1   -1    0    0    0  501  0.00000000000E+00  0.00000000000E+00 -0.11795382146E+04  0.11795382146E+04  0.50400001928E-02 0. -1.
    10030    2    1    2    0    0  0.00000000000E+00  0.00000000000E+00  0.73264148318E+03  0.30917179124E+04  0.30036571221E+04 0.  0.
        1    1    3    3  502    0 -0.71088987761E+03  0.11668555647E+04 -0.27531071800E+03  0.13938121532E+04  0.50400001928E-02 0. -1.
       -1    1    3    3    0  502  0.71088987761E+03 -0.11668555647E+04  0.10079522012E+04  0.16979057591E+04  0.50400001928E-02 0.  1.
</event>
<event>
 5   0  0.2552990E-06  0.2985712E+04  0.7818609E-02  0.8247823E-01
        1   -1    0    0  501    0  0.00000000000E+00  0.00000000000E+00  0.18016213607E+04  0.18016213607E+04  0.50400001928E-02 0.  1.
       -1   -1    0    0    0  501  0.00000000000E+00  0.00000000000E+00 -0.12370074611E+04  0.12370074612E+04  0.50400001928E-02 0. -1.
    10030    2    1    2    0    0  0.00000000000E+00  0.00000000000E+00  0.56461389954E+03  0.30386288218E+04  0.29857120192E+04 0.  0.
        3    1    3    3  502    0 -0.27418349387E+03 -0.14084025946E+04  0.70173319829E+03  0.15972488687E+04  0.10100000352E+00 0.  1.
       -3    1    3    3    0  502  0.27418349387E+03  0.14084025946E+04 -0.13711929875E+03  0.14413799531E+04  0.10100000352E+00 0. -1.
</event>
<event>
 5   0  0.7201538E-06  0.2987634E+04  0.7818609E-02  0.8247271E-01
        2   -1    0    0  501    0  0.00000000000E+00  0.00000000000E+00  0.93089541313E+03  0.93089541313E+03  0.25500000920E-02 0. -1.
       -2   -1    0    0    0  501  0.00000000000E+00  0.00000000000E+00 -0.23971425578E+04  0.23971425579E+04  0.25500000920E-02 0.  1.
    10030    2    1    2    0    0  0.00000000000E+00  0.00000000000E+00 -0.14662471447E+04  0.33280379710E+04  0.29876338542E+04 0.  0.
        3    1    3    3  502    0 -0.13210510802E+04  0.65638116867E+03 -0.47075209141E+03  0.15484249213E+04  0.10100000352E+00 0. -1.
       -3    1    3    3    0  502  0.13210510802E+04 -0.65638116867E+03 -0.99549505331E+03  0.17796130497E+04  0.10100000352E+00 0.  1.
</event>
<event>
 5   0  0.6792811E-06  0.2986957E+04  0.7818609E-02  0.8247465E-01
       -2   -1    0    0    0  501  0.00000000000E+00  0.00000000000E+00  0.18625816043E+04  0.18625816043E+04  0.25500000920E-02 0. -1.
        2   -1    0    0  501    0  0.00000000000E+00  0.00000000000E+00 -0.11975198269E+04  0.11975198269E+04  0.25500000920E-02 0.  1.
    10030    2    1    2    0    0  0.00000000000E+00  0.00000000000E+00  0.66506177739E+03  0.30601014312E+04  0.29869572480E+04 0.  0.
        2    1    3    3  502    0  0.39274466260E+03  0.28367142508E+03  0.17798391215E+04  0.18445989119E+04  0.25500000920E-02 0. -1.
       -2    1    3    3    0  502 -0.39274466260E+03 -0.28367142508E+03 -0.11147773441E+04  0.12155025193E+04  0.25500000920E-02 0.  1.
</event>
<event>
 5   0  0.2422083E-06  0.2978517E+04  0.7818609E-02  0.8249892E-01
       -1   -1    0    0    0  501  0.00000000000E+00  0.00000000000E+00  0.11746983093E+04  0.11746983094E+04  0.50400001928E-02 0.  1.
        1   -1    0    0  501    0  0.00000000000E+00  0.00000000000E+00 -0.18880510989E+04  0.18880510989E+04  0.50400001928E-02 0. -1.
    10030    2    1    2    0    0  0.00000000000E+00  0.00000000000E+00 -0.71335278957E+03  0.30627494083E+04  0.29785167006E+04 0.  0.
        2    1    3    3  502    0  0.95447612547E+03  0.10387192360E+04  0.13424320139E+03  0.14170333668E+04  0.25500000920E-02 0.  1.
       -2    1    3    3    0  502 -0.95447612547E+03 -0.10387192360E+04 -0.84759599096E+03  0.16457160415E+04  0.25500000920E-02 0. -1.
</event>
<event>
 5   0  0.2422083E-06  0.3052520E+04  0.7818609E-02  0.8228890E-01
        1   -1    0    0  501    0  0.00000000000E+00  0.00000000000E+00  0.18911244931E+04  0.18911244931E+04  0.50400001928E-02 0.  1.
       -1   -1    0    0    0  501  0.00000000000E+00  0.00000000000E+00 -0.12317907115E+04  0.12317907115E+04  0.50400001928E-02 0. -1.
    10030    2    1    2    0    0  0.00000000000E+00  0.00000000000E+00  0.65933378163E+03  0.31229152046E+04  0.30525199982E+04 0.  0.
        2    1    3    3  502    0  0.94717868682E+03  0.36947731125E+03  0.14942543507E+04  0.18073342284E+04  0.25500000920E-02 0.  1.
       -2    1    3    3    0  502 -0.94717868682E+03 -0.36947731125E+03 -0.83492056911E+03  0.13155809762E+04  0.25500000920E-02 0. -1.
</event>
<event>
 5   0  0.7217255E-06  0.2868480E+04  0.7818609E-02  0.8282318E-01
        2   -1    0    0  501    0  0.00000000000E+00  0.00000000000E+00  0.20727905778E+04  0.20727905778E+04  0.25500000920E-02 0. -1.
       -2   -1    0    0    0  501  0.00000000000E+00  0.00000000000E+00 -0.99240346316E+03  0.99240346316E+03  0.25500000920E-02 0.  1.
    10030    2    1    2    0    0  0.00000000000E+00  0.00000000000E+00  0.10803871147E+04  0.30651940410E+04  0.28684801187E+04 0.  0.
        1    1    3    3  502    0  0.11503127419E+04  0.85369269951E+03  0.46437784563E+03  0.15058743018E+04  0.50400001928E-02 0. -1.
       -1    1    3    3    0  502 -0.11503127419E+04 -0.85369269951E+03  0.61600926904E+03  0.15593197392E+04  0.50400001928E-02 0.  1.
</event>
<event>
 5   0  0.2552990E-06  0.3056301E+04  0.7818609E-02  0.8227834E-01
       -1   -1    0    0    0  501  0.00000000000E+00  0.00000000000E+00  0.12408021009E+04  0.12408021009E+04  0.50400001928E-02 0. -1.
        1   -1    0    0  501    0  0.00000000000E+00  0.00000000000E+00 -0.18820442001E+04  0.18820442001E+04  0.50400001928E-02 0.  1.
    10030    2    1    2    0    0  0.00000000000E+00  0.00000000000E+00 -0.64124209920E+03  0.31228463011E+04  0.30563012925E+04 0.  0.
        3    1    3    3  502    0  0.92635397638E+03  0.11362947905E+04 -0.76122547405E+03  0.16518964172E+04  0.10100000352E+00 0.  1.
       -3    1    3    3    0  502 -0.92635397638E+03 -0.11362947905E+04  0.11998337485E+03  0.14709498839E+04  0.10100000352E+00 0. -1.
</event>
<event>
 5   0  0.7217255E-06  0.2993570E+04  0.7818609E-02  0.8245569E-01
       -2   -1    0    0    0  501  0.00000000000E+00  0.00000000000E+00  0.14720530190E+04  0.14720530190E+04  0.25500000920E-02 0. -1.
        2   -1    0    0  501    0  0.00000000000E+00  0.00000000000E+00 -0.15219328528E+04  0.15219328528E+04  0.25500000920E-02 0.  1.
    10030    2    1    2    0    0  0.00000000000E+00  0.00000000000E+00 -0.49879833763E+02  0.29939858717E+04  0.29935703437E+04 0.  0.
        1    1    3    3  502    0 -0.14705516231E+04  0.13258676368E+03  0.22058249707E+03  0.14929025301E+04  0.50400001928E-02 0. -1.
       -1    1    3    3    0  502  0.14705516231E+04 -0.13258676368E+03 -0.27046233083E+03  0.15010833417E+04  0.50400001928E-02 0.  1.
</event>
<event>
 5   0  0.2422083E-06  0.2995557E+04  0.7818609E-02  0.8245001E-01
       -1   -1    0    0    0  501  0.00000000000E+00  0.00000000000E+00  0.77851050757E+03  0.77851050758E+03  0.50400001928E-02 0. -1.
        1   -1    0    0  501    0  0.00000000000E+00  0.00000000000E+00 -0.28815796626E+04  0.28815796626E+04  0.50400001928E-02 0.  1.
    10030    2    1    2    0    0  0.00000000000E+00  0.00000000000E+00 -0.21030691550E+04  0.36600901702E+04  0.29955567401E+04 0.  0.
        2    1    3    3  502    0  0.47480093836E+02  0.40819769661E+03 -0.28113487116E+04  0.28412253162E+04  0.25500000920E-02 0.  1.
       -2    1    3    3    0  502 -0.47480093836E+02 -0.40819769661E+03  0.70827955660E+03  0.81886485401E+03  0.25500000920E-02 0. -1.
</event>
<event>
 5   0  0.2504260E-06  0.2976313E+04  0.7818609E-02  0.8250527E-01
        1   -1    0    0  501    0  0.00000000000E+00  0.00000000000E+00  0.14809991839E+04  0.14809991839E+04  0.50400001928E-02 0.  1.
       -1   -1    0    0    0  501  0.00000000000E+00  0.00000000000E+00 -0.14953487492E+04  0.14953487492E+04  0.50400001928E-02 0. -1.
    10030    2    1    2    0    0  0.00000000000E+00  0.00000000000E+00 -0.14349565237E+02  0.29763479331E+04  0.29763133418E+04 0.  0.
        4    1    3    3  502    0  0.58117691235E+03 -0.13649815511E+04 -0.12408390833E+03  0.14887376087E+04  0.12699999809E+01 0.  1.
       -4    1    3    3    0  502 -0.58117691235E+03  0.13649815511E+04  0.10973434310E+03  0.14876103244E+04  0.12699999809E+01 0. -1.
</event>
<event>
 5   0  0.7193153E-06  0.2586974E+04  0.7818609E-02  0.8372639E-01
       -2   -1    0    0    0  501  0.00000000000E+00  0.00000000000E+00  0.17612631798E+04  0.17612631798E+04  0.25500000920E-02 0.  1.
        2   -1    0    0  501    0  0.00000000000E+00  0.00000000000E+00 -0.94994817810E+03  0.94994817811E+03  0.25500000920E-02 0. -1.
    10030    2    1    2    0    0  0.00000000000E+00  0.00000000000E+00  0.81131500172E+03  0.27112113579E+04  0.25869741002E+04 0.  0.
        4    1    3    3  502    0  0.80388842421E+03  0.48041834037E+02  0.14664746373E+04  0.16730493391E+04  0.12699999809E+01 0.  1.
       -4    1    3    3    0  502 -0.80388842421E+03 -0.48041834037E+02 -0.65515963555E+03  0.10381620188E+04  0.12699999809E+01 0. -1.
</event>
<event>
 5   0  0.6792811E-06  0.2967391E+04  0.7818609E-02  0.8253104E-01
       -2   -1    0    0    0  501  0.00000000000E+00  0.00000000000E+00  0.12479446207E+04  0.12479446207E+04  0.25500000920E-02 0.  1.
        2   -1    0    0  501    0  0.00000000000E+00  0.00000000000E+00 -0.17639821208E+04  0.17639821208E+04  0.25500000920E-02 0. -1.
    10030    2    1    2    0    0  0.00000000000E+00  0.00000000000E+00 -0.51603750013E+03  0.30119267416E+04  0.29673907722E+04 0.  0.
        2    1    3    3  502    0  0.72001235125E+03 -0.11033589019E+04  0.43452156497E+03  0.13873094978E+04  0.25500000920E-02 0.  1.
       -2    1    3    3    0  502 -0.72001235125E+03  0.11033589019E+04 -0.95055906510E+03  0.16246172437E+04  0.25500000920E-02 0. -1.
</event>
<event>
 5   0  0.2672155E-06  0.3013605E+04  0.7818609E-02  0.8239857E-01
        1   -1    0    0  501    0  0.00000000000E+00  0.00000000000E+00  0.16856600476E+04  0.16856600476E+04  0.50400001928E-02 0. -1.
       -1   -1    0    0    0  501  0.00000000000E+00  0.00000000000E+00 -0.13469228238E+04  0.13469228238E+04  0.50400001928E-02 0.  1.
    10030    2    1    2    0    0  0.00000000000E+00  0.00000000000E+00  0.33873722386E+03  0.30325828714E+04  0.30136051442E+04 0.  0.
        5    1    3    3  502    0 -0.12829880258E+04  0.70559082025E+03 -0.18856107353E+03  0.14763109593E+04  0.46999998093E+01 0.  1.
       -5    1    3    3    0  502  0.12829880258E+04 -0.70559082025E+03  0.52729829739E+03  0.15562719121E+04  0.46999998093E+01 0. -1.
</event>
<event>
 5   0  0.6780150E-06  0.3005013E+04  0.7818609E-02  0.8242301E-01
        2   -1    0    0  501    0  0.00000000000E+00  0.00000000000E+00  0.17838267535E+04  0.17838267535E+04  0.25500000920E-02 0.  1.
       -2   -1    0    0    0  501  0.00000000000E+00  0.00000000000E+00 -0.12655524590E+04  0.12655524590E+04  0.25500000920E-02 0. -1.
    10030    2    1    2    0    0  0.00000000000E+00  0.00000000000E+00  0.51827429454E+03  0.30493792125E+04  0.30050133673E+04 0.  0.
        5    1    3    3  502    0  0.18875529114E+03 -0.58780342210E+03 -0.11308904950E+04  0.12884396861E+04  0.46999998093E+01 0. -1.
       -5    1    3    3    0  502 -0.18875529114E+03  0.58780342210E+03  0.16491647895E+04  0.17609395265E+04  0.46999998093E+01 0.  1.
</event>
<event>
 5   0  0.6792811E-06  0.2974373E+04  0.7818609E-02  0.8251087E-01
       -2   -1    0    0    0  501  0.00000000000E+00  0.00000000000E+00  0.12067164416E+04  0.12067164416E+04  0.25500000920E-02 0.  1.
        2   -1    0    0  501    0  0.00000000000E+00  0.00000000000E+00 -0.18328448050E+04  0.18328448050E+04  0.25500000920E-02 0. -1.
    10030    2    1    2    0    0  0.00000000000E+00  0.00000000000E+00 -0.62612836338E+03  0.30395612465E+04  0.29743731851E+04 0.  0.
        2    1    3    3  502    0 -0.89662827593E+03 -0.11721572201E+04 -0.50102224705E+03  0.15584986705E+04  0.25500000920E-02 0. -1.
       -2    1    3    3    0  502  0.89662827593E+03  0.11721572201E+04 -0.12510611632E+03  0.14810625761E+04  0.25500000920E-02 0.  1.
</event>
<event>
 5   0  0.2298500E-06  0.2996064E+04  0.7818609E-02  0.8244856E-01
        4   -1    0    0  501    0  0.00000000000E+00  0.00000000000E+00  0.16918652019E+04  0.16918656786E+04  0.12699999809E+01 0.  1.
       -4   -1    0    0    0  501  0.00000000000E+00  0.00000000000E+00 -0.13264051779E+04  0.13264057859E+04  0.12699999809E+01 0. -1.
    10030    2    1    2    0    0  0.00000000000E+00  0.00000000000E+00  0.36546002399E+03  0.30182714645E+04  0.29960643525E+04 0.  0.
        5    1    3    3  502    0  0.17648603723E+03  0.14797939804E+04  0.29481587045E+02  0.14905800212E+04  0.46999998093E+01 0. -1.
       -5    1    3    3    0  502 -0.17648603723E+03 -0.14797939804E+04  0.33597843694E+03  0.15276914433E+04  0.46999998093E+01 0.  1.
</event>
<event>
 5   0  0.2552990E-06  0.2999354E+04  0.7818609E-02  0.8243915E-01
       -1   -1    0    0    0  501  0.00000000000E+00  0.00000000000E+00  0.80603671265E+03  0.80603671266E+03  0.50400001928E-02 0.  1.
        1   -1    0    0  501    0  0.00000000000E+00  0.00000000000E+00 -0.27902336632E+04  0.27902336632E+04  0.50400001928E-02 0. -1.
    10030    2    1    2    0    0  0.00000000000E+00  0.00000000000E+00 -0.19841969505E+04  0.35962703758E+04  0.29993537767E+04 0.  0.
        3    1    3    3  502    0 -0.22429195455E+03 -0.22878614489E+03 -0.27487192980E+04  0.27673286343E+04  0.10100000352E+00 0. -1.
       -3    1    3    3    0  502  0.22429195455E+03  0.22878614489E+03  0.76452234743E+03  0.82894174155E+03  0.10100000352E+00 0.  1.
</event>
<event>
 5   0  0.7217255E-06  0.2840294E+04  0.7818609E-02  0.8290867E-01
       -2   -1    0    0    0  501  0.00000000000E+00  0.00000000000E+00  0.10772731557E+04  0.10772731557E+04  0.25500000920E-02 0. -1.
        2   -1    0    0  501    0  0.00000000000E+00  0.00000000000E+00 -0.18721504785E+04  0.18721504785E+04  0.25500000920E-02 0.  1.
    10030    2    1    2    0    0  0.00000000000E+00  0.00000000000E+00 -0.79487732278E+03  0.29494236342E+04  0.28402939664E+04 0.  0.
        1    1    3    3  502    0 -0.89069612534E+03 -0.57568090799E+03  0.58334489468E+03  0.12103881037E+04  0.50400001928E-02 0. -1.
       -1    1    3    3    0  502  0.89069612534E+03  0.57568090799E+03 -0.13782222175E+04  0.17390355305E+04  0.50400001928E-02 0.  1.
</event>
<event>
 5   0  0.2552990E-06  0.3014206E+04  0.7818609E-02  0.8239686E-01
        1   -1    0    0  501    0  0.00000000000E+00  0.00000000000E+00  0.21086855670E+04  0.21086855670E+04  0.50400001928E-02 0. -1.
       -1   -1    0    0    0  501  0.00000000000E+00  0.00000000000E+00 -0.10771449173E+04  0.10771449173E+04  0.50400001928E-02 0.  1.
    10030    2    1    2    0    0  0.00000000000E+00  0.00000000000E+00  0.10315406497E+04  0.31858304844E+04  0.30142063239E+04 0.  0.
        3    1    3    3  502    0 -0.28479852512E+03 -0.54764374488E+03 -0.93740895337E+03  0.11223900513E+04  0.10100000352E+00 0.  1.
       -3    1    3    3    0  502  0.28479852512E+03  0.54764374488E+03  0.19689496031E+04  0.20634404331E+04  0.10100000352E+00 0. -1.
</event>
<event>
 5   0  0.6792811E-06  0.2948281E+04  0.7818609E-02  0.8258656E-01
       -2   -1    0    0    0  501  0.00000000000E+00  0.00000000000E+00  0.12617228113E+04  0.12617228113E+04  0.25500000920E-02 0.  1.
        2   -1    0    0  501    0  0.00000000000E+00  0.00000000000E+00 -0.17223202506E+04  0.17223202506E+04  0.25500000920E-02 0. -1.
    10030    2    1    2    0    0  0.00000000000E+00  0.00000000000E+00 -0.46059743929E+03  0.29840430620E+04  0.29482813628E+04 0.  0.
        2    1    3    3  502    0  0.23829714615E+03 -0.57511152794E+03  0.11221549730E+04  0.12832655933E+04  0.25500000920E-02 0.  1.
       -2    1    3    3    0  502 -0.23829714615E+03  0.57511152794E+03 -0.15827524123E+04  0.17007774687E+04  0.25500000920E-02 0. -1.
</event>
<event>
 5   0  0.7201538E-06  0.3014607E+04  0.7818609E-02  0.8239572E-01
        2   -1    0    0  501    0  0.00000000000E+00  0.00000000000E+00  0.22313921866E+04  0.22313921866E+04  0.25500000920E-02 0. -1.
       -2   -1    0    0    0  501  0.00000000000E+00  0.00000000000E+00 -0.10181823953E+04  0.10181823953E+04  0.25500000920E-02 0.  1.
    10030    2    1    2    0    0  0.00000000000E+00  0.00000000000E+00  0.12132097913E+04  0.32495745819E+04  0.30146072655E+04 0.  0.
        3    1    3    3  502    0  0.26926888349E+02  0.14512140051E+04  0.16845446219E+03  0.14612063721E+04  0.10100000352E+00 0.  1.
       -3    1    3    3    0  502 -0.26926888349E+02 -0.14512140051E+04  0.10447553291E+04  0.17883682098E+04  0.10100000352E+00 0. -1.
</event>
<event>
 5   0  0.7217255E-06  0.3048889E+04  0.7818609E-02  0.8229907E-01
        2   -1    0    0  501    0  0.00000000000E+00  0.00000000000E+00  0.20933207874E+04  0.20933207874E+04  0.25500000920E-02 0. -1.
       -2   -1    0    0    0  501  0.00000000000E+00  0.00000000000E+00 -0.11101646398E+04  0.11101646398E+04  0.25500000920E-02 0.  1.
    10030    2    1    2    0    0  0.00000000000E+00  0.00000000000E+00  0.98315614757E+03  0.32034854272E+04  0.30488887929E+04 0.  0.
        1    1    3    3  502    0 -0.97485307253E+03  0.11457394883E+04  0.75081349445E+03  0.16813025878E+04  0.50400001928E-02 0. -1.
       -1    1    3    3    0  502  0.97485307253E+03 -0.11457394883E+04  0.23234265312E+03  0.15221828394E+04  0.50400001928E-02 0.  1.
</event>
<event>
 5   0  0.6780150E-06  0.3150319E+04  0.7818609E-02  0.8202062E-01
       -2   -1    0    0    0  501  0.00000000000E+00  0.00000000000E+00  0.17627372493E+04  0.17627372493E+04  0.25500000920E-02 0. -1.
        2   -1    0    0  501    0  0.00000000000E+00  0.00000000000E+00 -0.14075428140E+04  0.14075428140E+04  0.25500000920E-02 0.  1.
    10030    2    1    2    0    0  0.00000000000E+00  0.00000000000E+00  0.35519443531E+03  0.31702800633E+04  0.31503194430E+04 0.  0.
        5    1    3    3  502    0  0.11233378376E+04  0.96746506030E+03 -0.35796791198E+03  0.15251359469E+04  0.46999998093E+01 0.  1.
       -5    1    3    3    0  502 -0.11233378376E+04 -0.96746506030E+03  0.71316234729E+03  0.16451441165E+04  0.46999998093E+01 0. -1.
</event>
<event>
 5   0  0.2504260E-06  0.3011680E+04  0.7818609E-02  0.8240403E-01
        1   -1    0    0  501    0  0.00000000000E+00  0.00000000000E+00  0.19929836990E+04  0.19929836990E+04  0.50400001928E-02 0.  1.
       -1   -1    0    0    0  501  0.00000000000E+00  0.00000000000E+00 -0.11377684096E+04  0.11377684096E+04  0.50400001928E-02 0. -1.
    10030    2    1    2    0    0  0.00000000000E+00  0.00000000000E+00  0.85521528942E+03  0.31307521086E+04  0.30116798592E+04 0.  0.
        4    1    3    3  502    0 -0.46994093947E+02  0.13755106695E+04  0.10627588870E+04  0.17388778311E+04  0.12699999809E+01 0.  1.
       -4    1    3    3    0  502  0.46994093947E+02 -0.13755106695E+04 -0.20754359759E+03  0.13918742775E+04  0.12699999809E+01 0. -1.
</event>
<event>
 5   0  0.2672155E-06  0.3099429E+04  0.7818609E-02  0.8215895E-01
        1   -1    0    0  501    0  0.00000000000E+00  0.00000000000E+00  0.25644474308E+04  0.25644474308E+04  0.50400001928E-02 0. -1.
       -1   -1    0    0    0  501  0.00000000000E+00  0.00000000000E+00 -0.93650407970E+03  0.93650407971E+03  0.50400001928E-02 0.  1.
    10030    2    1    2    0    0  0.00000000000E+00  0.00000000000E+00  0.16279433511E+04  0.35009515105E+04  0.30994292901E+04 0.  0.
        5    1    3    3  502    0 -0.26000665276E+03 -0.14813540804E+04  0.39196823572E+03  0.15542440474E+04  0.46999998093E+01 0.  1.
       -5    1    3    3    0  502  0.26000665276E+03  0.14813540804E+04  0.12359751154E+04  0.19467074631E+04  0.46999998093E+01 0. -1.
</event>
<event>
 5   0  0.7193153E-06  0.2993176E+04  0.7818609E-02  0.8245682E-01
        2   -1    0    0  501    0  0.00000000000E+00  0.00000000000E+00  0.22742533663E+04  0.22742533663E+04  0.25500000920E-02 0.  1.
       -2   -1    0    0    0  501  0.00000000000E+00  0.00000000000E+00 -0.98484027480E+03  0.98484027480E+03  0.25500000920E-02 0. -1.
    10030    2    1    2    0    0  0.00000000000E+00  0.00000000000E+00  0.12894130915E+04  0.32590936411E+04  0.29931764467E+04 0.  0.
        4    1    3    3  502    0 -0.27558458954E+03 -0.23057032068E+02 -0.95677712189E+03  0.99594305389E+03  0.12699999809E+01 0. -1.
       -4    1    3    3    0  502  0.27558458954E+03  0.23057032068E+02  0.22461902134E+04  0.22631505872E+04  0.12699999809E+01 0.  1.
</event>
<event>
 5   0  0.2504260E-06  0.2738437E+04  0.7818609E-02  0.8322640E-01
        1   -1    0    0  501    0  0.00000000000E+00  0.00000000000E+00  0.12975183640E+04  0.12975183640E+04  0.50400001928E-02 0.  1.
       -1   -1    0    0    0  501  0.00000000000E+00  0.00000000000E+00 -0.14448812159E+04  0.14448812159E+04  0.50400001928E-02 0. -1.
    10030    2    1    2    0    0  0.00000000000E+00  0.00000000000E+00 -0.14736285195E+03  0.27423995799E+04  0.27384374461E+04 0.  0.
        4    1    3    3  502    0  0.11964013056E+03 -0.16786920264E+03  0.12818886985E+04  0.12983582241E+04  0.12699999809E+01 0.  1.
       -4    1    3    3    0  502 -0.11964013056E+03  0.16786920264E+03 -0.14292515504E+04  0.14440413558E+04  0.12699999809E+01 0. -1.
</event>
<event>
 5   0  0.2628425E-06  0.3015747E+04  0.7818609E-02  0.8239249E-01
       -1   -1    0    0    0  501  0.00000000000E+00  0.00000000000E+00  0.82580590567E+03  0.82580590568E+03  0.50400001928E-02 0.  1.
        1   -1    0    0  501    0  0.00000000000E+00  0.00000000000E+00 -0.27532888849E+04  0.27532888849E+04  0.50400001928E-02 0. -1.
    10030    2    1    2    0    0  0.00000000000E+00  0.00000000000E+00 -0.19274829792E+04  0.35790947905E+04  0.30157468204E+04 0.  0.
        1    1    3    3  502    0 -0.87085496855E+03  0.86025447152E+03  0.81221514696E+02  0.12267938158E+04  0.50400001928E-02 0.  1.
       -1    1    3    3    0  502  0.87085496855E+03 -0.86025447152E+03 -0.20087044939E+04  0.23523009747E+04  0.50400001928E-02 0. -1.
</event>
<event>
 5   0  0.7217255E-06  0.3001087E+04  0.7818609E-02  0.8243421E-01
        2   -1    0    0  501    0  0.00000000000E+00  0.00000000000E+00  0.18182939729E+04  0.18182939729E+04  0.25500000920E-02 0. -1.
       -2   -1    0    0    0  501  0.00000000000E+00  0.00000000000E+00 -0.12383206530E+04  0.12383206530E+04  0.25500000920E-02 0.  1.
    10030    2    1    2    0    0  0.00000000000E+00  0.00000000000E+00  0.57997331989E+03  0.30566146259E+04  0.30010871229E+04 0.  0.
        1    1    3    3  502    0 -0.45519209450E+03 -0.94890849365E+03 -0.79938436179E+03  0.13216060419E+04  0.50400001928E-02 0.  1.
       -1    1    3    3    0  502  0.45519209450E+03  0.94890849365E+03  0.13793576817E+04  0.17350085839E+04  0.50400001928E-02 0. -1.
</event>
<event>
 5   0  0.2672155E-06  0.2938843E+04  0.7818609E-02  0.8261413E-01
        1   -1    0    0  501    0  0.00000000000E+00  0.00000000000E+00  0.26035219503E+04  0.26035219503E+04  0.50400001928E-02 0. -1.
       -1   -1    0    0    0  501  0.00000000000E+00  0.00000000000E+00 -0.82933809167E+03  0.82933809169E+03  0.50400001928E-02 0.  1.
    10030    2    1    2    0    0  0.00000000000E+00  0.00000000000E+00  0.17741838586E+04  0.34328600420E+04  0.29388432595E+04 0.  0.
        5    1    3    3  502    0  0.66219302845E+03 -0.12787980043E+04  0.12283566083E+04  0.18928037378E+04  0.46999998093E+01 0.  1.
       -5    1    3    3    0  502 -0.66219302845E+03  0.12787980043E+04  0.54582725039E+03  0.15400563042E+04  0.46999998093E+01 0. -1.
</event>
<event>
 5   0  0.7193153E-06  0.3006195E+04  0.7818609E-02  0.8241964E-01
        2   -1    0    0  501    0  0.00000000000E+00  0.00000000000E+00  0.21613533316E+04  0.21613533316E+04  0.25500000920E-02 0. -1.
       -2   -1    0    0    0  501  0.00000000000E+00  0.00000000000E+00 -0.10453183860E+04  0.10453183860E+04  0.25500000920E-02 0.  1.
    10030    2    1    2    0    0  0.00000000000E+00  0.00000000000E+00  0.11160349456E+04  0.32066717175E+04  0.30061951873E+04 0.  0.
        4    1    3    3  502    0  0.18414334303E+03  0.13545651846E+04 -0.10859425862E+03  0.13713314464E+04  0.12699999809E+01 0.  1.
       -4    1    3    3    0  502 -0.18414334303E+03 -0.13545651846E+04  0.12246292042E+04  0.18353402711E+04  0.12699999809E+01 0. -1.
</event>
<event>
 5   0  0.7217255E-06  0.3010646E+04  0.7818609E-02  0.8240697E-01
        2   -1    0    0  501    0  0.00000000000E+00  0.00000000000E+00  0.24608436805E+04  0.24608436805E+04  0.25500000920E-02 0. -1.
       -2   -1    0    0    0  501  0.00000000000E+00  0.00000000000E+00 -0.92082137146E+03  0.92082137147E+03  0.25500000920E-02 0.  1.
    10030    2    1    2    0    0  0.00000000000E+00  0.00000000000E+00  0.15400223090E+04  0.33816650520E+04  0.30106460787E+04 0.  0.
        1    1    3    3  502    0 -0.64213653097E+03 -0.19209480187E+03 -0.74396624311E+03  0.10013618268E+04  0.50400001928E-02 0.  1.
       -1    1    3    3    0  502  0.64213653097E+03  0.19209480187E+03  0.22839885521E+04  0.23803032251E+04  0.50400001928E-02 0. -1.
</event>
<event>
 5   0  0.7201538E-06  0.2981522E+04  0.7818609E-02  0.8249027E-01
       -2   -1    0    0    0  501  0.00000000000E+00  0.00000000000E+00  0.14596140057E+04  0.14596140057E+04  0.25500000920E-02 0.  1.
        2   -1    0    0  501    0  0.00000000000E+00  0.00000000000E+00 -0.15225729164E+04  0.15225729164E+04  0.25500000920E-02 0. -1.
    10030    2    1    2    0    0  0.00000000000E+00  0.00000000000E+00 -0.62958910722E+02  0.29821869221E+04  0.29815222646E+04 0.  0.
        3    1    3    3  502    0 -0.59378489365E+03 -0.51362780320E+03 -0.12990325425E+04  0.15178536085E+04  0.10100000352E+00 0. -1.
       -3    1    3    3    0  502  0.59378489365E+03  0.51362780320E+03  0.12360736318E+04  0.14643333137E+04  0.10100000352E+00 0.  1.
</event>
<event>
 5   0  0.6792811E-06  0.2924004E+04  0.7818609E-02  0.8265771E-01
        2   -1    0    0  501    0  0.00000000000E+00  0.00000000000E+00  0.28076983270E+04  0.28076983270E+04  0.25500000920E-02 0.  1.
       -2   -1    0    0    0  501  0.00000000000E+00  0.00000000000E+00 -0.76128199444E+03  0.76128199445E+03  0.25500000920E-02 0. -1.
    10030    2    1    2    0    0  0.00000000000E+00  0.00000000000E+00  0.20464163325E+04  0.35689803214E+04  0.29240042286E+04 0.  0.
        2    1    3    3  502    0 -0.10197455783E+04 -0.32142767532E+03  0.22402757539E+04  0.24823441035E+04  0.25500000920E-02 0.  1.
       -2    1    3    3    0  502  0.10197455783E+04  0.32142767532E+03 -0.19385942134E+03  0.10866362179E+04  0.25500000920E-02 0. -1.
</event>
<event>
 5   0  0.7217255E-06  0.2978702E+04  0.7818609E-02  0.8249839E-01
       -2   -1    0    0    0  501  0.00000000000E+00  0.00000000000E+00  0.11377896392E+04  0.11377896392E+04  0.25500000920E-02 0.  1.
        2   -1    0    0  501    0  0.00000000000E+00  0.00000000000E+00 -0.19495398433E+04  0.19495398433E+04  0.25500000920E-02 0. -1.
    10030    2    1    2    0    0  0.00000000000E+00  0.00000000000E+00 -0.81175020411E+03  0.30873294825E+04  0.29787018883E+04 0.  0.
        1    1    3    3  502    0 -0.78537205717E+03  0.12179886370E+04 -0.50046913513E+02  0.14501069897E+04  0.50400001928E-02 0.  1.
       -1    1    3    3    0  502  0.78537205717E+03 -0.12179886370E+04 -0.76170329060E+03  0.16372224928E+04  0.50400001928E-02 0. -1.
</event>
<event>
 5   0  0.6780150E-06  0.2996379E+04  0.7818609E-02  0.8244766E-01
       -2   -1    0    0    0  501  0.00000000000E+00  0.00000000000E+00  0.83766415405E+03  0.83766415405E+03  0.25500000920E-02 0. -1.
        2   -1    0    0  501    0  0.00000000000E+00  0.00000000000E+00 -0.26795611002E+04  0.26795611002E+04  0.25500000920E-02 0.  1.
    10030    2    1    2    0    0  0.00000000000E+00  0.00000000000E+00 -0.18418969462E+04  0.35172252543E+04  0.29963793366E+04 0.  0.
        5    1    3    3  502    0 -0.11620136792E+04 -0.84485398941E+03 -0.14196461516E+04  0.20197701205E+04  0.46999998093E+01 0.  1.
       -5    1    3    3    0  502  0.11620136792E+04  0.84485398941E+03 -0.42225079458E+03  0.14974551337E+04  0.46999998093E+01 0. -1.
</event>
<event>
 5   0  0.6792811E-06  0.2957275E+04  0.7818609E-02  0.8256037E-01
        2   -1    0    0  501    0  0.00000000000E+00  0.00000000000E+00  0.16748978547E+04  0.16748978547E+04  0.25500000920E-02 0. -1.
       -2   -1    0    0    0  501  0.00000000000E+00  0.00000000000E+00 -0.13053748328E+04  0.13053748328E+04  0.25500000920E-02 0.  1.
    10030    2    1    2    0    0  0.00000000000E+00  0.00000000000E+00  0.36952302194E+03  0.29802726875E+04  0.29572754400E+04 0.  0.
        2    1    3    3  502    0  0.37453139060E+03  0.46379205649E+03 -0.11789029723E+04  0.13210560368E+04  0.25500000920E-02 0.  1.
       -2    1    3    3    0  502 -0.37453139060E+03 -0.46379205649E+03  0.15484259943E+04  0.16592166507E+04  0.25500000920E-02 0. -1.
</event>
<event>
 5   0  0.2552990E-06  0.3048623E+04  0.7818609E-02  0.8229981E-01
        1   -1    0    0  501    0  0.00000000000E+00  0.00000000000E+00  0.16439499811E+04  0.16439499811E+04  0.50400001928E-02 0. -1.
       -1   -1    0    0    0  501  0.00000000000E+00  0.00000000000E+00 -0.14133801429E+04  0.14133801429E+04  0.50400001928E-02 0.  1.
    10030    2    1    2    0    0  0.00000000000E+00  0.00000000000E+00  0.23056983820E+03  0.30573301240E+04  0.30486234659E+04 0.  0.
        3    1    3    3  502    0 -0.82922906383E+03  0.12341605241E+04  0.45203135164E+03  0.15540609360E+04  0.10100000352E+00 0. -1.
       -3    1    3    3    0  502  0.82922906383E+03 -0.12341605241E+04 -0.22146151344E+03  0.15032691880E+04  0.10100000352E+00 0.  1.
</event>
<event>
 5   0  0.2628425E-06  0.2923787E+04  0.7818609E-02  0.8265835E-01
        1   -1    0    0  501    0  0.00000000000E+00  0.00000000000E+00  0.17277305385E+04  0.17277305385E+04  0.50400001928E-02 0. -1.
       -1   -1    0    0    0  501  0.00000000000E+00  0.00000000000E+00 -0.12369593594E+04  0.12369593594E+04  0.50400001928E-02 0.  1.
    10030    2    1    2    0    0  0.00000000000E+00  0.00000000000E+00  0.49077117917E+03  0.29646898979E+04  0.29237869007E+04 0.  0.
        1    1    3    3  502    0 -0.40390842233E+02  0.64042403983E+03  0.15772903762E+04  0.17028268561E+04  0.50400001928E-02 0. -1.
       -1    1    3    3    0  502  0.40390842233E+02 -0.64042403983E+03 -0.10865191970E+04  0.12618630419E+04  0.50400001928E-02 0.  1.
</event>
<event>
 5   0  0.6792811E-06  0.3061848E+04  0.7818609E-02  0.8226287E-01
        2   -1    0    0  501    0  0.00000000000E+00  0.00000000000E+00  0.14327427285E+04  0.14327427285E+04  0.25500000920E-02 0.  1.
       -2   -1    0    0    0  501  0.00000000000E+00  0.00000000000E+00 -0.16358336304E+04  0.16358336304E+04  0.25500000920E-02 0. -1.
    10030    2    1    2    0    0  0.00000000000E+00  0.00000000000E+00 -0.20309090190E+03  0.30685763590E+04  0.30618482909E+04 0.  0.
        2    1    3    3  502    0  0.11652686010E+04  0.83825767073E+03  0.43179110363E+03  0.14989897905E+04  0.25500000920E-02 0.  1.
       -2    1    3    3    0  502 -0.11652686010E+04 -0.83825767073E+03 -0.63488200554E+03  0.15695865685E+04  0.25500000920E-02 0. -1.
</event>
<event>
 5   0  0.6780150E-06  0.3004355E+04  0.7818609E-02  0.8242488E-01
        2   -1    0    0  501    0  0.00000000000E+00  0.00000000000E+00  0.23056046501E+04  0.23056046501E+04  0.25500000920E-02 0.  1.
       -2   -1    0    0    0  501  0.00000000000E+00  0.00000000000E+00 -0.97871847308E+03  0.97871847308E+03  0.25500000920E-02 0. -1.
    10030    2    1    2    0    0  0.00000000000E+00  0.00000000000E+00  0.13268861771E+04  0.32843231232E+04  0.30043554135E+04 0.  0.
        5    1    3    3  502    0  0.11785895611E+04  0.90334114148E+03  0.91132725477E+03  0.17423082467E+04  0.46999998093E+01 0. -1.
       -5    1    3    3    0  502 -0.11785895611E+04 -0.90334114148E+03  0.41555892230E+03  0.15420148765E+04  0.46999998093E+01 0.  1.
</event>
<event>
 5   0  0.6780150E-06  0.2990342E+04  0.7818609E-02  0.8246494E-01
        2   -1    0    0  501    0  0.00000000000E+00  0.00000000000E+00  0.15883090467E+04  0.15883090467E+04  0.25500000920E-02 0.  1.
       -2   -1    0    0    0  501  0.00000000000E+00  0.00000000000E+00 -0.14074950087E+04  0.14074950087E+04  0.25500000920E-02 0. -1.
    10030    2    1    2    0    0  0.00000000000E+00  0.00000000000E+00  0.18081403807E+03  0.29958040554E+04  0.29903424924E+04 0.  0.
        5    1    3    3  502    0  0.69265870669E+03  0.60348630549E+03  0.12721983850E+04  0.15692299467E+04  0.46999998093E+01 0.  1.
       -5    1    3    3    0  502 -0.69265870669E+03 -0.60348630549E+03 -0.10913843469E+04  0.14265741087E+04  0.46999998093E+01 0. -1.
</event>
<event>
 5   0  0.2504260E-06  0.2937779E+04  0.7818609E-02  0.8261725E-01
        1   -1    0    0  501    0  0.00000000000E+00  0.00000000000E+00  0.26015353802E+04  0.26015353802E+04  0.50400001928E-02 0. -1.
       -1   -1    0    0    0  501  0.00000000000E+00  0.00000000000E+00 -0.82937029768E+03  0.82937029769E+03  0.50400001928E-02 0.  1.
    10030    2    1    2    0    0  0.00000000000E+00  0.00000000000E+00  0.17721650825E+04  0.34309056779E+04  0.29377788703E+04 0.  0.
        4    1    3    3  502    0  0.71002113736E+03 -0.25698471241E+03 -0.58535399862E+03  0.95541199203E+03  0.12699999809E+01 0.  1.
       -4    1    3    3    0  502 -0.71002113736E+03  0.25698471241E+03  0.23575190812E+04  0.24754936859E+04  0.12699999809E+01 0. -1.
</event>
<event>
 5   0  0.2672155E-06  0.3026533E+04  0.7818609E-02  0.8236195E-01
        1   -1    0    0  501    0  0.00000000000E+00  0.00000000000E+00  0.24081056561E+04  0.24081056561E+04  0.50400001928E-02 0.  1.
       -1   -1    0    0    0  501  0.00000000000E+00  0.00000000000E+00 -0.95094471310E+03  0.95094471311E+03  0.50400001928E-02 0. -1.
    10030    2    1    2    0    0  0.00000000000E+00  0.00000000000E+00  0.14571609430E+04  0.33590503692E+04  0.30265328957E+04 0.  0.
        5    1    3    3  502    0 -0.10797650000E+04 -0.59704404308E+03  0.17009657526E+04  0.21013473359E+04  0.46999998093E+01 0.  1.
       -5    1    3    3    0  502  0.10797650000E+04  0.59704404308E+03 -0.24380480961E+03  0.12577030333E+04  0.46999998093E+01 0. -1.
</event>
<event>
 5   0  0.7217255E-06  0.3089656E+04  0.7818609E-02  0.8218582E-01
        2   -1    0    0  501    0  0.00000000000E+00  0.00000000000E+00  0.15375691485E+04  0.15375691485E+04  0.25500000920E-02 0. -1.
       -2   -1    0    0    0  501  0.00000000000E+00  0.00000000000E+00 -0.15521215503E+04  0.15521215503E+04  0.25500000920E-02 0.  1.
    10030    2    1    2    0    0  0.00000000000E+00  0.00000000000E+00 -0.14552401761E+02  0.30896906989E+04  0.30896564279E+04 0.  0.
        1    1    3    3  502    0  0.11401561163E+04 -0.16585045322E+03  0.10218279544E+04  0.15399982827E+04  0.50400001928E-02 0. -1.
       -1    1    3    3    0  502 -0.11401561163E+04  0.16585045322E+03 -0.10363803561E+04  0.15496924162E+04  0.50400001928E-02 0.  1.
</event>
<event>
 5   0  0.7193153E-06  0.2790256E+04  0.7818609E-02  0.8306300E-01
       -2   -1    0    0    0  501  0.00000000000E+00  0.00000000000E+00  0.10169510415E+04  0.10169510415E+04  0.25500000920E-02 0. -1.
        2   -1    0    0  501    0  0.00000000000E+00  0.00000000000E+00 -0.19139383475E+04  0.19139383475E+04  0.25500000920E-02 0.  1.
    10030    2    1    2    0    0  0.00000000000E+00  0.00000000000E+00 -0.89698730605E+03  0.29308893890E+04  0.27902556126E+04 0.  0.
        4    1    3    3  502    0 -0.11709964121E+04  0.40804786144E+03 -0.11199660683E+04  0.16709462174E+04  0.12699999809E+01 0.  1.
       -4    1    3    3    0  502  0.11709964121E+04 -0.40804786144E+03  0.22297876226E+03  0.12599431716E+04  0.12699999809E+01 0. -1.
</event>
<event>
 5   0  0.6792811E-06  0.2816024E+04  0.7818609E-02  0.8298311E-01
        2   -1    0    0  501    0  0.00000000000E+00  0.00000000000E+00  0.10982889581E+04  0.10982889581E+04  0.25500000920E-02 0. -1.
       -2   -1    0    0    0  501  0.00000000000E+00  0.00000000000E+00 -0.18050785623E+04  0.18050785623E+04  0.25500000920E-02 0.  1.
    10030    2    1    2    0    0  0.00000000000E+00  0.00000000000E+00 -0.70678960421E+03  0.29033675205E+04  0.28160240436E+04 0.  0.
        2    1    3    3  502    0 -0.77035555721E+03 -0.98544389845E+03  0.31314805080E+03  0.12894219880E+04  0.25500000920E-02 0. -1.
       -2    1    3    3    0  502  0.77035555721E+03  0.98544389845E+03 -0.10199376550E+04  0.16139455324E+04  0.25500000920E-02 0.  1.
</event>
<event>
 5   0  0.6792811E-06  0.3011130E+04  0.7818609E-02  0.8240560E-01
       -2   -1    0    0    0  501  0.00000000000E+00  0.00000000000E+00  0.13241260123E+04  0.13241260123E+04  0.25500000920E-02 0. -1.
        2   -1    0    0  501    0  0.00000000000E+00  0.00000000000E+00 -0.17118659607E+04  0.17118659607E+04  0.25500000920E-02 0.  1.
    10030    2    1    2    0    0  0.00000000000E+00  0.00000000000E+00 -0.38773994835E+03  0.30359919730E+04  0.30111301853E+04 0.  0.
        2    1    3    3  502    0  0.13473119575E+04  0.18689665359E+03 -0.84460287917E+03  0.16011039609E+04  0.25500000920E-02 0.  1.
       -2    1    3    3    0  502 -0.13473119575E+04 -0.18689665359E+03  0.45686293083E+03  0.14348880122E+04  0.25500000920E-02 0. -1.
</event>
<event>
 5   0  0.2422083E-06  0.2984333E+04  0.7818609E-02  0.8248219E-01
        1   -1    0    0  501    0  0.00000000000E+00  0.00000000000E+00  0.15770172096E+04  0.15770172096E+04  0.50400001928E-02 0. -1.
       -1   -1    0    0    0  501  0.00000000000E+00  0.00000000000E+00 -0.14118809176E+04  0.14118809176E+04  0.50400001928E-02 0.  1.
    10030    2    1    2    0    0  0.00000000000E+00  0.00000000000E+00  0.16513629198E+03  0.29888981272E+04  0.29843327595E+04 0.  0.
        2    1    3    3  502    0 -0.10821726585E+04  0.97017042357E+03  0.42106771544E+03  0.15131511275E+04  0.25500000920E-02 0. -1.
       -2    1    3    3    0  502  0.10821726585E+04 -0.97017042357E+03 -0.25593142346E+03  0.14757469997E+04  0.25500000920E-02 0.  1.
</event>
<event>
 5   0  0.2552990E-06  0.2980460E+04  0.7818609E-02  0.8249333E-01
        1   -1    0    0  501    0  0.00000000000E+00  0.00000000000E+00  0.12614993137E+04  0.12614993137E+04  0.50400001928E-02 0.  1.
       -1   -1    0    0    0  501  0.00000000000E+00  0.00000000000E+00 -0.17604331607E+04  0.17604331607E+04  0.50400001928E-02 0. -1.
    10030    2    1    2    0    0  0.00000000000E+00  0.00000000000E+00 -0.49893384705E+03  0.30219324744E+04  0.29804598464E+04 0.  0.
        3    1    3    3  502    0 -0.91130052523E+03 -0.47148834939E+03 -0.13452529219E+04  0.16918851453E+04  0.10100000352E+00 0. -1.
       -3    1    3    3    0  502  0.91130052523E+03  0.47148834939E+03  0.84631907486E+03  0.13300473291E+04  0.10100000352E+00 0.  1.
</event>
<event>
 5   0  0.6780150E-06  0.3010553E+04  0.7818609E-02  0.8240724E-01
       -2   -1    0    0    0  501  0.00000000000E+00  0.00000000000E+00  0.11765599072E+04  0.11765599072E+04  0.25500000920E-02 0. -1.
        2   -1    0    0  501    0  0.00000000000E+00  0.00000000000E+00 -0.19258321543E+04  0.19258321543E+04  0.25500000920E-02 0.  1.
    10030    2    1    2    0    0  0.00000000000E+00  0.00000000000E+00 -0.74927224711E+03  0.31023920615E+04  0.30105527072E+04 0.  0.
        5    1    3    3  502    0  0.38639962149E+03 -0.97398665652E+03  0.73901608156E+03  0.12822330262E+04  0.46999998093E+01 0. -1.
       -5    1    3    3    0  502 -0.38639962149E+03  0.97398665652E+03 -0.14882883287E+04  0.18201590353E+04  0.46999998093E+01 0.  1.
</event>
<event>
 5   0  0.7217255E-06  0.2666508E+04  0.7818609E-02  0.8345954E-01
        2   -1    0    0  501    0  0.00000000000E+00  0.00000000000E+00  0.83783651854E+03  0.83783651854E+03  0.25500000920E-02 0. -1.
       -2   -1    0    0    0  501  0.00000000000E+00  0.00000000000E+00 -0.21216153028E+04  0.21216153028E+04  0.25500000920E-02 0.  1.
    10030    2    1    2    0    0  0.00000000000E+00  0.00000000000E+00 -0.12837787843E+04  0.29594518214E+04  0.26665084129E+04 0.  0.
        1    1    3    3  502    0  0.27283771252E+03  0.75435913719E+03  0.54003035630E+03  0.96702167038E+03  0.50400001928E-02 0. -1.
       -1    1    3    3    0  502 -0.27283771252E+03 -0.75435913719E+03 -0.18238091406E+04  0.19924301510E+04  0.50400001928E-02 0.  1.
</event>
<event>
 5   0  0.2504260E-06  0.2996411E+04  0.7818609E-02  0.8244756E-01
        1   -1    0    0  501    0  0.00000000000E+00  0.00000000000E+00  0.17946047459E+04  0.17946047459E+04  0.50400001928E-02 0.  1.
       -1   -1    0    0    0  501  0.00000000000E+00  0.00000000000E+00 -0.12507603459E+04  0.12507603459E+04  0.50400001928E-02 0. -1.
    10030    2    1    2    0    0  0.00000000000E+00  0.00000000000E+00  0.54384440008E+03  0.30453650918E+04  0.29964114889E+04 0.  0.
        4    1    3    3  502    0  0.10384766279E+04 -0.53392906602E+03 -0.68208514041E+03  0.13523149433E+04  0.12699999809E+01 0. -1.
       -4    1    3    3    0  502 -0.10384766279E+04  0.53392906602E+03  0.12259295405E+04  0.16930501485E+04  0.12699999809E+01 0.  1.
</event>
<event>
 5   0  0.2552990E-06  0.3014317E+04  0.7818609E-02  0.8239654E-01
        1   -1    0    0  501    0  0.00000000000E+00  0.00000000000E+00  0.10460434879E+04  0.10460434879E+04  0.50400001928E-02 0.  1.
       -1   -1    0    0    0  501  0.00000000000E+00  0.00000000000E+00 -0.21715410880E+04  0.21715410881E+04  0.50400001928E-02 0. -1.
    10030    2    1    2    0    0  0.00000000000E+00  0.00000000000E+00 -0.11254976002E+04  0.32175845759E+04  0.30143167808E+04 0.  0.
        3    1    3    3  502    0 -0.13174690135E+04 -0.70059104459E+03 -0.33637727799E+03  0.15296084782E+04  0.10100000352E+00 0.  1.
       -3    1    3    3    0  502  0.13174690135E+04  0.70059104459E+03 -0.78912032219E+03  0.16879760977E+04  0.10100000352E+00 0. -1.
</event>
<event>
 5   0  0.6780150E-06  0.2991744E+04  0.7818609E-02  0.8246092E-01
        2   -1    0    0  501    0  0.00000000000E+00  0.00000000000E+00  0.16237805447E+04  0.16237805447E+04  0.25500000920E-02 0.  1.
       -2   -1    0    0    0  501  0.00000000000E+00  0.00000000000E+00 -0.13780388989E+04  0.13780388989E+04  0.25500000920E-02 0. -1.
    10030    2    1    2    0    0  0.00000000000E+00  0.00000000000E+00  0.24574164577E+03  0.30018194436E+04  0.29917438085E+04 0.  0.
        5    1    3    3  502    0  0.41433031300E+03 -0.84219284099E+03 -0.10458060209E+04  0.14052368886E+04  0.46999998093E+01 0. -1.
       -5    1    3    3    0  502 -0.41433031300E+03  0.84219284099E+03  0.12915476667E+04  0.15965825550E+04  0.46999998093E+01 0.  1.
</event>
<event>
 5   0  0.2298500E-06  0.3009959E+04  0.7818609E-02  0.8240893E-01
        4   -1    0    0  501    0  0.00000000000E+00  0.00000000000E+00  0.10051021549E+04  0.10051029572E+04  0.12699999809E+01 0. -1.
       -4   -1    0    0    0  501  0.00000000000E+00  0.00000000000E+00 -0.22534646296E+04  0.22534649875E+04  0.12699999809E+01 0.  1.
    10030    2    1    2    0    0  0.00000000000E+00  0.00000000000E+00 -0.12483624748E+04  0.32585679447E+04  0.30099594984E+04 0.  0.
        2    1    3    3  502    0  0.10160254403E+03  0.64544606562E+03  0.84354023895E+03  0.10669975798E+04  0.25500000920E-02 0. -1.
       -2    1    3    3    0  502 -0.10160254403E+03 -0.64544606562E+03 -0.20919027137E+04  0.21915703649E+04  0.25500000920E-02 0.  1.
</event>
<event>
 5   0  0.6792811E-06  0.2850208E+04  0.7818609E-02  0.8287848E-01
       -2   -1    0    0    0  501  0.00000000000E+00  0.00000000000E+00  0.13013831639E+04  0.13013831639E+04  0.25500000920E-02 0.  1.
        2   -1    0    0  501    0  0.00000000000E+00  0.00000000000E+00 -0.15605867425E+04  0.15605867425E+04  0.25500000920E-02 0. -1.
    10030    2    1    2    0    0  0.00000000000E+00  0.00000000000E+00 -0.25920357859E+03  0.28619699064E+04  0.28502079310E+04 0.  0.
        2    1    3    3  502    0 -0.78122495809E+03 -0.11884673776E+04 -0.38928703853E+02  0.14227728514E+04  0.25500000920E-02 0.  1.
       -2    1    3    3    0  502  0.78122495809E+03  0.11884673776E+04 -0.22027487473E+03  0.14391970550E+04  0.25500000920E-02 0. -1.
</event>
<event>
 5   0  0.7193153E-06  0.3058222E+04  0.7818609E-02  0.8227298E-01
        2   -1    0    0  501    0  0.00000000000E+00  0.00000000000E+00  0.14404789406E+04  0.14404789406E+04  0.25500000920E-02 0. -1.
       -2   -1    0    0    0  501  0.00000000000E+00  0.00000000000E+00 -0.16231969748E+04  0.16231969748E+04  0.25500000920E-02 0.  1.
    10030    2    1    2    0    0  0.00000000000E+00  0.00000000000E+00 -0.18271803422E+03  0.30636759153E+04  0.30582223978E+04 0.  0.
        4    1    3    3  502    0  0.78239184064E+03  0.85419492235E+03 -0.10913341450E+04  0.15914766057E+04  0.12699999809E+01 0.  1.
       -4    1    3    3    0  502 -0.78239184064E+03 -0.85419492235E+03  0.90861611073E+03  0.14721993096E+04  0.12699999809E+01 0. -1.
</event>
<event>
 5   0  0.2628425E-06  0.2952155E+04  0.7818609E-02  0.8257527E-01
        1   -1    0    0  501    0  0.00000000000E+00  0.00000000000E+00  0.15343734045E+04  0.15343734045E+04  0.50400001928E-02 0.  1.
       -1   -1    0    0    0  501  0.00000000000E+00  0.00000000000E+00 -0.14199967237E+04  0.14199967237E+04  0.50400001928E-02 0. -1.
    10030    2    1    2    0    0  0.00000000000E+00  0.00000000000E+00  0.11437668081E+03  0.29543701283E+04  0.29521552855E+04 0.  0.
        1    1    3    3  502    0 -0.11793032367E+04  0.62573019412E+02 -0.82898925365E+03  0.14428772261E+04  0.50400001928E-02 0. -1.
       -1    1    3    3    0  502  0.11793032367E+04 -0.62573019412E+02  0.94336593446E+03  0.15114929021E+04  0.50400001928E-02 0.  1.
</event>
<event>
 5   0  0.2628425E-06  0.2961152E+04  0.7818609E-02  0.8254912E-01
       -1   -1    0    0    0  501  0.00000000000E+00  0.00000000000E+00  0.13832500961E+04  0.13832500961E+04  0.50400001928E-02 0. -1.
        1   -1    0    0  501    0  0.00000000000E+00  0.00000000000E+00 -0.15847499334E+04  0.15847499334E+04  0.50400001928E-02 0.  1.
    10030    2    1    2    0    0  0.00000000000E+00  0.00000000000E+00 -0.20149983737E+03  0.29680000295E+04  0.29611521391E+04 0.  0.
        1    1    3    3  502    0  0.10398367995E+04 -0.53063619683E+03  0.81199872730E+03  0.14220327971E+04  0.50400001928E-02 0. -1.
       -1    1    3    3    0  502 -0.10398367995E+04  0.53063619683E+03 -0.10134985647E+04  0.15459672324E+04  0.50400001928E-02 0.  1.
</event>
<event>
 5   0  0.2672155E-06  0.3021596E+04  0.7818609E-02  0.8237591E-01
       -1   -1    0    0    0  501  0.00000000000E+00  0.00000000000E+00  0.14297015331E+04  0.14297015331E+04  0.50400001928E-02 0. -1.
        1   -1    0    0  501    0  0.00000000000E+00  0.00000000000E+00 -0.15964941874E+04  0.15964941874E+04  0.50400001928E-02 0.  1.
    10030    2    1    2    0    0  0.00000000000E+00  0.00000000000E+00 -0.16679265426E+03  0.30261957205E+04  0.30215957290E+04 0.  0.
        5    1    3    3  502    0 -0.11581699757E+04  0.96752600464E+03 -0.12409405159E+02  0.15091853251E+04  0.46999998093E+01 0. -1.
       -5    1    3    3    0  502  0.11581699757E+04 -0.96752600464E+03 -0.15438324911E+03  0.15170103954E+04  0.46999998093E+01 0.  1.
</event>
<event>
 5   0  0.7217255E-06  0.3006890E+04  0.7818609E-02  0.8241766E-01
        2   -1    0    0  501    0  0.00000000000E+00  0.00000000000E+00  0.11948719267E+04  0.11948719267E+04  0.25500000920E-02 0.  1.
       -2   -1    0    0    0  501  0.00000000000E+00  0.00000000000E+00 -0.18917060403E+04  0.18917060403E+04  0.25500000920E-02 0. -1.
    10030    2    1    2    0    0  0.00000000000E+00  0.00000000000E+00 -0.69683411364E+03  0.30865779670E+04  0.30068897160E+04 0.  0.
        1    1    3    3  502    0  0.19430749996E+03  0.22608245399E+03  0.11642294365E+04  0.12017898574E+04  0.50400001928E-02 0.  1.
       -1    1    3    3    0  502 -0.19430749996E+03 -0.22608245399E+03 -0.18610635501E+04  0.18847881096E+04  0.50400001928E-02 0. -1.
</event>
<event>
 5   0  0.7193153E-06  0.3146725E+04  0.7818609E-02  0.8203030E-01
       -2   -1    0    0    0  501  0.00000000000E+00  0.00000000000E+00  0.82791012991E+03  0.82791012992E+03  0.25500000920E-02 0.  1.
        2   -1    0    0  501    0  0.00000000000E+00  0.00000000000E+00 -0.29900213454E+04  0.29900213454E+04  0.25500000920E-02 0. -1.
    10030    2    1    2    0    0  0.00000000000E+00  0.00000000000E+00 -0.21621112155E+04  0.38179314753E+04  0.31467246213E+04 0.  0.
        4    1    3    3  502    0  0.96463056278E+02  0.23140290521E+03  0.80351926319E+03  0.84172278393E+03  0.12699999809E+01 0.  1.
       -4    1    3    3    0  502 -0.96463056278E+02 -0.23140290521E+03 -0.29656304787E+04  0.29762086914E+04  0.12699999809E+01 0. -1.
</event>
<event>
 5   0  0.2504260E-06  0.3012222E+04  0.7818609E-02  0.8240250E-01
        1   -1    0    0  501    0  0.00000000000E+00  0.00000000000E+00  0.16329434498E+04  0.16329434498E+04  0.50400001928E-02 0.  1.
       -1   -1    0    0    0  501  0.00000000000E+00  0.00000000000E+00 -0.13891294728E+04  0.13891294728E+04  0.50400001928E-02 0. -1.
    10030    2    1    2    0    0  0.00000000000E+00  0.00000000000E+00  0.24381397704E+03  0.30220729226E+04  0.30122216875E+04 0.  0.
        4    1    3    3  502    0 -0.12198194410E+04  0.21707576013E+03 -0.73721527536E+03  0.14417244291E+04  0.12699999809E+01 0. -1.
       -4    1    3    3    0  502  0.12198194410E+04 -0.21707576013E+03  0.98102925239E+03  0.15803484936E+04  0.12699999809E+01 0.  1.
</event>
<event>
 5   0  0.2672155E-06  0.3020239E+04  0.7818609E-02  0.8237975E-01
       -1   -1    0    0    0  501  0.00000000000E+00  0.00000000000E+00  0.10281041339E+04  0.10281041339E+04  0.50400001928E-02 0.  1.
        1   -1    0    0  501    0  0.00000000000E+00  0.00000000000E+00 -0.22181228037E+04  0.22181228038E+04  0.50400001928E-02 0. -1.
    10030    2    1    2    0    0  0.00000000000E+00  0.00000000000E+00 -0.11900186699E+04  0.32462269376E+04  0.30202392117E+04 0.  0.
        5    1    3    3  502    0 -0.14097317975E+03  0.10572178318E+04  0.55402583241E+03  0.12018942110E+04  0.46999998093E+01 0.  1.
       -5    1    3    3    0  502  0.14097317975E+03 -0.10572178318E+04 -0.17440445023E+04  0.20443327267E+04  0.46999998093E+01 0. -1.
</event>
<event>
 5   0  0.7217255E-06  0.2791532E+04  0.7818609E-02  0.8305902E-01
       -2   -1    0    0    0  501  0.00000000000E+00  0.00000000000E+00  0.15423253837E+04  0.15423253837E+04  0.25500000920E-02 0.  1.
        2   -1    0    0  501    0  0.00000000000E+00  0.00000000000E+00 -0.12631332630E+04  0.12631332630E+04  0.25500000920E-02 0. -1.
    10030    2    1    2    0    0  0.00000000000E+00  0.00000000000E+00  0.27919212074E+03  0.28054586467E+04  0.27915318336E+04 0.  0.
        1    1    3    3  502    0 -0.35584261880E+03 -0.13272509060E+04  0.38565125830E+03  0.14272161119E+04  0.50400001928E-02 0. -1.
       -1    1    3    3    0  502  0.35584261880E+03  0.13272509060E+04 -0.10645913756E+03  0.13782425349E+04  0.50400001928E-02 0.  1.
</event>
<event>
 5   0  0.2552990E-06  0.2735661E+04  0.7818609E-02  0.8323526E-01
        1   -1    0    0  501    0  0.00000000000E+00  0.00000000000E+00  0.14735357213E+04  0.14735357213E+04  0.50400001928E-02 0. -1.
       -1   -1    0    0    0  501  0.00000000000E+00  0.00000000000E+00 -0.12697077973E+04  0.12697077973E+04  0.50400001928E-02 0.  1.
    10030    2    1    2    0    0  0.00000000000E+00  0.00000000000E+00  0.20382792399E+03  0.27432435186E+04  0.27356606478E+04 0.  0.
        3    1    3    3  502    0  0.60685373719E+03 -0.54699780853E+03  0.12019879315E+04  0.14533592325E+04  0.10100000352E+00 0. -1.
       -3    1    3    3    0  502 -0.60685373719E+03  0.54699780853E+03 -0.99816000754E+03  0.12898842862E+04  0.10100000352E+00 0.  1.
</event>
<event>
 5   0  0.6792811E-06  0.3166676E+04  0.7818609E-02  0.8197674E-01
       -2   -1    0    0    0  501  0.00000000000E+00  0.00000000000E+00  0.12046386311E+04  0.12046386311E+04  0.25500000920E-02 0.  1.
        2   -1    0    0  501    0  0.00000000000E+00  0.00000000000E+00 -0.20810887306E+04  0.20810887306E+04  0.25500000920E-02 0. -1.
    10030    2    1    2    0    0  0.00000000000E+00  0.00000000000E+00 -0.87645009954E+03  0.32857273617E+04  0.31666764152E+04 0.  0.
        2    1    3    3  502    0 -0.54892353338E+03  0.14178714894E+04  0.20297142552E+02  0.15205553525E+04  0.25500000920E-02 0.  1.
       -2    1    3    3    0  502  0.54892353338E+03 -0.14178714894E+04 -0.89674724209E+03  0.17651720092E+04  0.25500000920E-02 0. -1.
</event>
<event>
 5   0  0.6792811E-06  0.2993917E+04  0.7818609E-02  0.8245470E-01
        2   -1    0    0  501    0  0.00000000000E+00  0.00000000000E+00  0.21057996851E+04  0.21057996851E+04  0.25500000920E-02 0. -1.
       -2   -1    0    0    0  501  0.00000000000E+00  0.00000000000E+00 -0.10641488172E+04  0.10641488172E+04  0.25500000920E-02 0.  1.
    10030    2    1    2    0    0  0.00000000000E+00  0.00000000000E+00  0.10416508679E+04  0.31699485023E+04  0.29939166616E+04 0.  0.
        2    1    3    3  502    0  0.30351497329E+03 -0.25319775768E+03 -0.10078999278E+04  0.10826323050E+04  0.25500000920E-02 0.  1.
       -2    1    3    3    0  502 -0.30351497329E+03  0.25319775768E+03  0.20495507956E+04  0.20873161973E+04  0.25500000920E-02 0. -1.
</event>
<event>
 5   0  0.7193153E-06  0.3015876E+04  0.7818609E-02  0.8239212E-01
        2   -1    0    0  501    0  0.00000000000E+00  0.00000000000E+00  0.24044693534E+04  0.24044693534E+04  0.25500000920E-02 0. -1.
       -2   -1    0    0    0  501  0.00000000000E+00  0.00000000000E+00 -0.94568739857E+03  0.94568739858E+03  0.25500000920E-02 0.  1.
    10030    2    1    2    0    0  0.00000000000E+00  0.00000000000E+00  0.14587819548E+04  0.33501567520E+04  0.30158755729E+04 0.  0.
        4    1    3    3  502    0  0.34007075982E+02 -0.10770003861E+04  0.19012031668E+04  0.21853286726E+04  0.12699999809E+01 0.  1.
       -4    1    3    3    0  502 -0.34007075982E+02  0.10770003861E+04 -0.44242121198E+03  0.11648280794E+04  0.12699999809E+01 0. -1.
</event>
<event>
 5   0  0.6780150E-06  0.3000518E+04  0.7818609E-02  0.8243583E-01
        2   -1    0    0  501    0  0.00000000000E+00  0.00000000000E+00  0.24018315431E+04  0.24018315431E+04  0.25500000920E-02 0.  1.
       -2   -1    0    0    0  501  0.00000000000E+00  0.00000000000E+00 -0.93710860278E+03  0.93710860278E+03  0.25500000920E-02 0. -1.
    10030    2    1    2    0    0  0.00000000000E+00  0.00000000000E+00  0.14647229403E+04  0.33389401459E+04  0.30005179563E+04 0.  0.
        5    1    3    3  502    0  0.66046501882E+03  0.12989698022E+04  0.11292670803E+04  0.18435842310E+04  0.46999998093E+01 0. -1.
       -5    1    3    3    0  502 -0.66046501882E+03 -0.12989698022E+04  0.33545586001E+03  0.14953559149E+04  0.46999998093E+01 0.  1.
</event>
<event>
 5   0  0.7217255E-06  0.3123015E+04  0.7818609E-02  0.8209450E-01
       -2   -1    0    0    0  501  0.00000000000E+00  0.00000000000E+00  0.83076808059E+03  0.83076808059E+03  0.25500000920E-02 0.  1.
        2   -1    0    0  501    0  0.00000000000E+00  0.00000000000E+00 -0.29350025158E+04  0.29350025158E+04  0.25500000920E-02 0. -1.
    10030    2    1    2    0    0  0.00000000000E+00  0.00000000000E+00 -0.21042344352E+04  0.37657705964E+04  0.31230154701E+04 0.  0.
        1    1    3    3  502    0  0.78623651966E+03 -0.35000336918E+03  0.51897629792E+03  0.10049908562E+04  0.50400001928E-02 0.  1.
       -1    1    3    3    0  502 -0.78623651966E+03  0.35000336918E+03 -0.26232107332E+04  0.27607797402E+04  0.50400001928E-02 0. -1.
</event>
<event>
 5   0  0.6780150E-06  0.2976065E+04  0.7818609E-02  0.8250599E-01
        2   -1    0    0  501    0  0.00000000000E+00  0.00000000000E+00  0.91365798469E+03  0.91365798469E+03  0.25500000920E-02 0.  1.
       -2   -1    0    0    0  501  0.00000000000E+00  0.00000000000E+00 -0.24234892158E+04  0.24234892158E+04  0.25500000920E-02 0. -1.
    10030    2    1    2    0    0  0.00000000000E+00  0.00000000000E+00 -0.15098312311E+04  0.33371472005E+04  0.29760646988E+04 0.  0.
        5    1    3    3  502    0  0.57437819456E+03  0.99060240523E+03  0.31065053676E+03  0.11864776785E+04  0.46999998093E+01 0.  1.
       -5    1    3    3    0  502 -0.57437819456E+03 -0.99060240523E+03 -0.18204817679E+04  0.21506695220E+04  0.46999998093E+01 0. -1.
</event>
<event>
 5   0  0.2504260E-06  0.3025180E+04  0.7818609E-02  0.8236577E-01
        1   -1    0    0  501    0  0.00000000000E+00  0.00000000000E+00  0.19846016116E+04  0.19846016116E+04  0.50400001928E-02 0.  1.
       -1   -1    0    0    0  501  0.00000000000E+00  0.00000000000E+00 -0.11528404757E+04  0.11528404758E+04  0.50400001928E-02 0. -1.
    10030    2    1    2    0    0  0.00000000000E+00  0.00000000000E+00  0.83176113585E+03  0.31374420874E+04  0.30251803689E+04 0.  0.
        4    1    3    3  502    0  0.26699166112E+02 -0.11278508825E+04  0.14608249834E+04  0.18457442141E+04  0.12699999809E+01 0.  1.
       -4    1    3    3    0  502 -0.26699166112E+02  0.11278508825E+04 -0.62906384754E+03  0.12916978733E+04  0.12699999809E+01 0. -1.
</event>
<event>
 5   0  0.2672155E-06  0.2893950E+04  0.7818609E-02  0.8274680E-01
        1   -1    0    0  501    0  0.00000000000E+00  0.00000000000E+00  0.26666159091E+04  0.26666159091E+04  0.50400001928E-02 0. -1.
       -1   -1    0    0    0  501  0.00000000000E+00  0.00000000000E+00 -0.78516641716E+03  0.78516641718E+03  0.50400001928E-02 0.  1.
    10030    2    1    2    0    0  0.00000000000E+00  0.00000000000E+00  0.18814494920E+04  0.34517823263E+04  0.28939504207E+04 0.  0.
        5    1    3    3  502    0  0.19829517448E+03  0.18083270531E+03 -0.75521335013E+03  0.80149281827E+03  0.46999998093E+01 0.  1.
       -5    1    3    3    0  502 -0.19829517448E+03 -0.18083270531E+03  0.26366628421E+04  0.26502895081E+04  0.46999998093E+01 0. -1.
</event>
<event>
 5   0  0.7193153E-06  0.3037593E+04  0.7818609E-02  0.8233077E-01
        2   -1    0    0  501    0  0.00000000000E+00  0.00000000000E+00  0.24123246534E+04  0.24123246534E+04  0.25500000920E-02 0. -1.
       -2   -1    0    0    0  501  0.00000000000E+00  0.00000000000E+00 -0.95623241564E+03  0.95623241564E+03  0.25500000920E-02 0.  1.
    10030    2    1    2    0    0  0.00000000000E+00  0.00000000000E+00  0.14560922378E+04  0.33685570690E+04  0.30375931463E+04 0.  0.
        4    1    3    3  502    0 -0.25755776005E+03 -0.14696646562E+04  0.10426677296E+04  0.18202768495E+04  0.12699999809E+01 0.  1.
       -4    1    3    3    0  502  0.25755776005E+03  0.14696646562E+04  0.41342450812E+03  0.15482802196E+04  0.12699999809E+01 0. -1.
</event>
<event>
 5   0  0.6792811E-06  0.2995505E+04  0.7818609E-02  0.8245016E-01
        2   -1    0    0  501    0  0.00000000000E+00  0.00000000000E+00  0.11002619947E+04  0.11002619947E+04  0.25500000920E-02 0. -1.
       -2   -1    0    0    0  501  0.00000000000E+00  0.00000000000E+00 -0.20388433735E+04  0.20388433735E+04  0.25500000920E-02 0.  1.
    10030    2    1    2    0    0  0.00000000000E+00  0.00000000000E+00 -0.93858137873E+03  0.31391053682E+04  0.29955045499E+04 0.  0.
        2    1    3    3  502    0  0.14632392119E+04  0.17496254111E+03 -0.74966277706E+03  0.16533829446E+04  0.25500000920E-02 0. -1.
       -2    1    3    3    0  502 -0.14632392119E+04 -0.17496254111E+03 -0.18891860167E+03  0.14857224236E+04  0.25500000920E-02 0.  1.
</event>
<event>
 5   0  0.2672155E-06  0.3002813E+04  0.7818609E-02  0.8242928E-01
       -1   -1    0    0    0  501  0.00000000000E+00  0.00000000000E+00  0.17725667770E+04  0.17725667770E+04  0.50400001928E-02 0.  1.
        1   -1    0    0  501    0  0.00000000000E+00  0.00000000000E+00 -0.12717272447E+04  0.12717272447E+04  0.50400001928E-02 0. -1.
    10030    2    1    2    0    0  0.00000000000E+00  0.00000000000E+00  0.50083953231E+03  0.30442940217E+04  0.30028129901E+04 0.  0.
        5    1    3    3  502    0 -0.50247028044E+03 -0.73755394388E+02  0.16828364722E+04  0.17578045748E+04  0.46999998093E+01 0.  1.
       -5    1    3    3    0  502  0.50247028044E+03  0.73755394388E+02 -0.11819969399E+04  0.12864894469E+04  0.46999998093E+01 0. -1.
</event>
<event>
 5   0  0.2504260E-06  0.2910920E+04  0.7818609E-02  0.8269636E-01
       -1   -1    0    0    0  501  0.00000000000E+00  0.00000000000E+00  0.10330338733E+04  0.10330338733E+04  0.50400001928E-02 0. -1.
        1   -1    0    0  501    0  0.00000000000E+00  0.00000000000E+00 -0.20506238683E+04  0.20506238683E+04  0.50400001928E-02 0.  1.
    10030    2    1    2    0    0  0.00000000000E+00  0.00000000000E+00 -0.10175899951E+04  0.30836577416E+04  0.29109200726E+04 0.  0.
        4    1    3    3  502    0 -0.76069278276E+03  0.59049251530E+03 -0.16648986197E+04  0.19233366702E+04  0.12699999809E+01 0.  1.
       -4    1    3    3    0  502  0.76069278276E+03 -0.59049251530E+03  0.64730862458E+03  0.11603210714E+04  0.12699999809E+01 0. -1.
</event>
<event>
 5   0  0.6780150E-06  0.2948718E+04  0.7818609E-02  0.8258528E-01
        2   -1    0    0  501    0  0.00000000000E+00  0.00000000000E+00  0.18465185330E+04  0.18465185330E+04  0.25500000920E-02 0.  1.
       -2   -1    0    0    0  501  0.00000000000E+00  0.00000000000E+00 -0.11772067629E+04  0.11772067629E+04  0.25500000920E-02 0. -1.
    10030    2    1    2    0    0  0.00000000000E+00  0.00000000000E+00  0.66931177008E+03  0.30237252959E+04  0.29487177585E+04 0.  0.
        5    1    3    3  502    0 -0.77569701981E+03  0.49514667009E+02  0.16193428588E+04  0.17962324330E+04  0.46999998093E+01 0.  1.
       -5    1    3    3    0  502  0.77569701981E+03 -0.49514667009E+02 -0.95003108877E+03  0.12274928629E+04  0.46999998093E+01 0. -1.
</event>
<event>
 5   0  0.2422083E-06  0.3014926E+04  0.7818609E-02  0.8239481E-01
       -1   -1    0    0    0  501  0.00000000000E+00  0.00000000000E+00  0.13488964358E+04  0.13488964358E+04  0.50400001928E-02 0.  1.
        1   -1    0    0  501    0  0.00000000000E+00  0.00000000000E+00 -0.16846697117E+04  0.16846697117E+04  0.50400001928E-02 0. -1.
    10030    2    1    2    0    0  0.00000000000E+00  0.00000000000E+00 -0.33577327591E+03  0.30335661476E+04  0.30149261813E+04 0.  0.
        2    1    3    3  502    0  0.58216301585E+03 -0.54193995681E+03 -0.14563631354E+04  0.16593993720E+04  0.25500000920E-02 0.  1.
       -2    1    3    3    0  502 -0.58216301585E+03  0.54193995681E+03  0.11205898595E+04  0.13741667755E+04  0.25500000920E-02 0. -1.
</event>
<event>
 5   0  0.2552990E-06  0.3069700E+04  0.7818609E-02  0.8224103E-01
       -1   -1    0    0    0  501  0.00000000000E+00  0.00000000000E+00  0.11582058269E+04  0.11582058269E+04  0.50400001928E-02 0. -1.
        1   -1    0    0  501    0  0.00000000000E+00  0.00000000000E+00 -0.20339774501E+04  0.20339774501E+04  0.50400001928E-02 0.  1.
    10030    2    1    2    0    0  0.00000000000E+00  0.00000000000E+00 -0.87577162322E+03  0.31921832770E+04  0.30697000079E+04 0.  0.
        3    1    3    3  502    0  0.59685841165E+03  0.14140324606E+04 -0.44419084399E+03  0.15978214165E+04  0.10100000352E+00 0. -1.
       -3    1    3    3    0  502 -0.59685841165E+03 -0.14140324606E+04 -0.43158077923E+03  0.15943618605E+04  0.10100000352E+00 0.  1.
</event>
<event>
 5   0  0.2628425E-06  0.2923783E+04  0.7818609E-02  0.8265836E-01
       -1   -1    0    0    0  501  0.00000000000E+00  0.00000000000E+00  0.16178506885E+04  0.16178506885E+04  0.50400001928E-02 0.  1.
        1   -1    0    0  501    0  0.00000000000E+00  0.00000000000E+00 -0.13209663261E+04  0.13209663261E+04  0.50400001928E-02 0. -1.
    10030    2    1    2    0    0  0.00000000000E+00  0.00000000000E+00  0.29688436243E+03  0.29388170146E+04  0.29237826733E+04 0.  0.
        1    1    3    3  502    0  0.11519477662E+04  0.64468683732E+03  0.77978144365E+03  0.15331874882E+04  0.50400001928E-02 0.  1.
       -1    1    3    3    0  502 -0.11519477662E+04 -0.64468683732E+03 -0.48289708122E+03  0.14056295263E+04  0.50400001928E-02 0. -1.
</event>
<event>
 5   0  0.7217255E-06  0.2736663E+04  0.7818609E-02  0.8323206E-01
       -2   -1    0    0    0  501  0.00000000000E+00  0.00000000000E+00  0.69957555729E+03  0.69957555729E+03  0.25500000920E-02 0.  1.
        2   -1    0    0  501    0  0.00000000000E+00  0.00000000000E+00 -0.26763810288E+04  0.26763810289E+04  0.25500000920E-02 0. -1.
    10030    2    1    2    0    0  0.00000000000E+00  0.00000000000E+00 -0.19768054716E+04  0.33759565861E+04  0.27366627485E+04 0.  0.
        1    1    3    3  502    0 -0.17474101072E+03 -0.64923030970E+03  0.48175879827E+03  0.82711906978E+03  0.50400001928E-02 0.  1.
       -1    1    3    3    0  502  0.17474101072E+03  0.64923030970E+03 -0.24585642698E+04  0.25488375164E+04  0.50400001928E-02 0. -1.
</event>
<event>
 5   0  0.7201538E-06  0.2995693E+04  0.7818609E-02  0.8244962E-01
       -2   -1    0    0    0  501  0.00000000000E+00  0.00000000000E+00  0.10104603331E+04  0.10104603331E+04  0.25500000920E-02 0.  1.
        2   -1    0    0  501    0  0.00000000000E+00  0.00000000000E+00 -0.22203185930E+04  0.22203185930E+04  0.25500000920E-02 0. -1.
    10030    2    1    2    0    0  0.00000000000E+00  0.00000000000E+00 -0.12098582599E+04  0.32307789260E+04  0.29956928180E+04 0.  0.
        3    1    3    3  502    0  0.75376124197E+03  0.12211661227E+04 -0.14213761952E+03  0.14420838472E+04  0.10100000352E+00 0. -1.
       -3    1    3    3    0  502 -0.75376124197E+03 -0.12211661227E+04 -0.10677206404E+04  0.17886950789E+04  0.10100000352E+00 0.  1.
</event>
<event>
 5   0  0.6780150E-06  0.2362541E+04  0.7818609E-02  0.8453662E-01
        2   -1    0    0  501    0  0.00000000000E+00  0.00000000000E+00  0.10325908221E+04  0.10325908221E+04  0.25500000920E-02 0. -1.
       -2   -1    0    0    0  501  0.00000000000E+00  0.00000000000E+00 -0.13513576666E+04  0.13513576666E+04  0.25500000920E-02 0.  1.
    10030    2    1    2    0    0  0.00000000000E+00  0.00000000000E+00 -0.31876684447E+03  0.23839484887E+04  0.23625406019E+04 0.  0.
        5    1    3    3  502    0 -0.75859792794E+03  0.90003636872E+03 -0.59281925920E+02  0.11785892915E+04  0.46999998093E+01 0.  1.
       -5    1    3    3    0  502  0.75859792794E+03 -0.90003636872E+03 -0.25948491855E+03  0.12053591972E+04  0.46999998093E+01 0. -1.
</event>
<event>
 5   0  0.7193153E-06  0.2468824E+04  0.7818609E-02  0.8414177E-01
        2   -1    0    0  501    0  0.00000000000E+00  0.00000000000E+00  0.14488078010E+04  0.14488078010E+04  0.25500000920E-02 0.  1.
       -2   -1    0    0    0  501  0.00000000000E+00  0.00000000000E+00 -0.10517428519E+04  0.10517428519E+04  0.25500000920E-02 0. -1.
    10030    2    1    2    0    0  0.00000000000E+00  0.00000000000E+00  0.39706494912E+03  0.25005506529E+04  0.24688242129E+04 0.  0.
        4    1    3    3  502    0  0.23180598823E+02  0.30244269429E+02  0.14482112818E+04  0.14487130791E+04  0.12699999809E+01 0.  1.
       -4    1    3    3    0  502 -0.23180598823E+02 -0.30244269429E+02 -0.10511463327E+04  0.10518375738E+04  0.12699999809E+01 0. -1.
</event>
<event>
 5   0  0.7217255E-06  0.2996917E+04  0.7818609E-02  0.8244612E-01
       -2   -1    0    0    0  501  0.00000000000E+00  0.00000000000E+00  0.21086135677E+04  0.21086135677E+04  0.25500000920E-02 0. -1.
        2   -1    0    0  501    0  0.00000000000E+00  0.00000000000E+00 -0.10648601083E+04  0.10648601083E+04  0.25500000920E-02 0.  1.
    10030    2    1    2    0    0  0.00000000000E+00  0.00000000000E+00  0.10437534594E+04  0.31734736760E+04  0.29969173976E+04 0.  0.
        1    1    3    3  502    0  0.64329758994E+03  0.13207166900E+04  0.83466687927E+03  0.16896133178E+04  0.50400001928E-02 0.  1.
       -1    1    3    3    0  502 -0.64329758994E+03 -0.13207166900E+04  0.20908658018E+03  0.14838603581E+04  0.50400001928E-02 0. -1.
</event>
<event>
 5   0  0.2422083E-06  0.3599977E+04  0.7818609E-02  0.8090497E-01
       -1   -1    0    0    0  501  0.00000000000E+00  0.00000000000E+00  0.21849555546E+04  0.21849555546E+04  0.50400001928E-02 0. -1.
        1   -1    0    0  501    0  0.00000000000E+00  0.00000000000E+00 -0.14828487907E+04  0.14828487907E+04  0.50400001928E-02 0.  1.
    10030    2    1    2    0    0  0.00000000000E+00  0.00000000000E+00  0.70210676384E+03  0.36678043453E+04  0.35999770565E+04 0.  0.
        2    1    3    3  502    0 -0.16303948649E+04 -0.31479738040E+03 -0.35678373739E+03  0.16984049699E+04  0.25500000920E-02 0.  1.
       -2    1    3    3    0  502  0.16303948649E+04  0.31479738040E+03  0.10588905012E+04  0.19693993754E+04  0.25500000920E-02 0. -1.
</event>
<event>
 5   0  0.2552990E-06  0.3106710E+04  0.7818609E-02  0.8213899E-01
       -1   -1    0    0    0  501  0.00000000000E+00  0.00000000000E+00  0.13165344667E+04  0.13165344667E+04  0.50400001928E-02 0. -1.
        1   -1    0    0  501    0  0.00000000000E+00  0.00000000000E+00 -0.18327752535E+04  0.18327752535E+04  0.50400001928E-02 0.  1.
    10030    2    1    2    0    0  0.00000000000E+00  0.00000000000E+00 -0.51624078680E+03  0.31493097202E+04  0.31067100225E+04 0.  0.
        3    1    3    3  502    0  0.47956693673E+03  0.72612727955E+03 -0.15624912502E+04  0.17884697901E+04  0.10100000352E+00 0.  1.
       -3    1    3    3    0  502 -0.47956693673E+03 -0.72612727955E+03  0.10462504634E+04  0.13608399301E+04  0.10100000352E+00 0. -1.
</event>
<event>
 5   0  0.7201538E-06  0.2985075E+04  0.7818609E-02  0.8248006E-01
        2   -1    0    0  501    0  0.00000000000E+00  0.00000000000E+00  0.16234090969E+04  0.16234090969E+04  0.25500000920E-02 0.  1.
       -2   -1    0    0    0  501  0.00000000000E+00  0.00000000000E+00 -0.13722164334E+04  0.13722164334E+04  0.25500000920E-02 0. -1.
    10030    2    1    2    0    0  0.00000000000E+00  0.00000000000E+00  0.25119266348E+03  0.29956255303E+04  0.29850753028E+04 0.  0.
        3    1    3    3  502    0 -0.14897389799E+04 -0.42403912938E+02  0.44388696053E+02  0.14910032484E+04  0.10100000352E+00 0. -1.
       -3    1    3    3    0  502  0.14897389799E+04  0.42403912938E+02  0.20680396743E+03  0.15046222819E+04  0.10100000352E+00 0.  1.
</event>
<event>
 5   0  0.7201538E-06  0.3049340E+04  0.7818609E-02  0.8229780E-01
        2   -1    0    0  501    0  0.00000000000E+00  0.00000000000E+00  0.16958968312E+04  0.16958968312E+04  0.25500000920E-02 0. -1.
       -2   -1    0    0    0  501  0.00000000000E+00  0.00000000000E+00 -0.13707314936E+04  0.13707314936E+04  0.25500000920E-02 0.  1.
    10030    2    1    2    0    0  0.00000000000E+00  0.00000000000E+00  0.32516533752E+03  0.30666283248E+04  0.30493403853E+04 0.  0.
        3    1    3    3  502    0 -0.14828503798E+04 -0.31157506571E+03  0.33293877822E+03  0.15513776171E+04  0.10100000352E+00 0. -1.
       -3    1    3    3    0  502  0.14828503798E+04  0.31157506571E+03 -0.77734406991E+01  0.15152507077E+04  0.10100000352E+00 0.  1.
</event>
<event>
 5   0  0.2504260E-06  0.3017726E+04  0.7818609E-02  0.8238687E-01
       -1   -1    0    0    0  501  0.00000000000E+00  0.00000000000E+00  0.20729242331E+04  0.20729242331E+04  0.50400001928E-02 0. -1.
        1   -1    0    0  501    0  0.00000000000E+00  0.00000000000E+00 -0.10982880400E+04  0.10982880400E+04  0.50400001928E-02 0.  1.
    10030    2    1    2    0    0  0.00000000000E+00  0.00000000000E+00  0.97463619314E+03  0.31712122731E+04  0.30177262255E+04 0.  0.
        4    1    3    3  502    0  0.81928167634E+03 -0.85035470728E+03 -0.49978753470E+03  0.12822303951E+04  0.12699999809E+01 0.  1.
       -4    1    3    3    0  502 -0.81928167634E+03  0.85035470728E+03  0.14744237278E+04  0.18889818780E+04  0.12699999809E+01 0. -1.
</event>
<event>
 5   0  0.2628425E-06  0.2992700E+04  0.7818609E-02  0.8245819E-01
        1   -1    0    0  501    0  0.00000000000E+00  0.00000000000E+00  0.12267558044E+04  0.12267558044E+04  0.50400001928E-02 0.  1.
       -1   -1    0    0    0  501  0.00000000000E+00  0.00000000000E+00 -0.18251906929E+04  0.18251906929E+04  0.50400001928E-02 0. -1.
    10030    2    1    2    0    0  0.00000000000E+00  0.00000000000E+00 -0.59843488846E+03  0.30519464973E+04  0.29926999693E+04 0.  0.
        1    1    3    3  502    0  0.14113208461E+04  0.49483712152E+03 -0.34889494875E+03  0.15357141638E+04  0.50400001928E-02 0. -1.
       -1    1    3    3    0  502 -0.14113208461E+04 -0.49483712152E+03 -0.24953993971E+03  0.15162323335E+04  0.50400001928E-02 0.  1.
</event>
<event>
 5   0  0.6780150E-06  0.2969168E+04  0.7818609E-02  0.8252590E-01
        2   -1    0    0  501    0  0.00000000000E+00  0.00000000000E+00  0.24472801724E+04  0.24472801724E+04  0.25500000920E-02 0.  1.
       -2   -1    0    0    0  501  0.00000000000E+00  0.00000000000E+00 -0.90058724585E+03  0.90058724585E+03  0.25500000920E-02 0. -1.
    10030    2    1    2    0    0  0.00000000000E+00  0.00000000000E+00  0.15466929266E+04  0.33478674183E+04  0.29691677691E+04 0.  0.
        5    1    3    3  502    0  0.12195912673E+04 -0.65415053132E+02 -0.17826679292E+03  0.12342945872E+04  0.46999998093E+01 0. -1.
       -5    1    3    3    0  502 -0.12195912673E+04  0.65415053132E+02  0.17249597195E+04  0.21135728311E+04  0.46999998093E+01 0.  1.
</event>
<event>
 5   0  0.2504260E-06  0.3040295E+04  0.7818609E-02  0.8232317E-01
       -1   -1    0    0    0  501  0.00000000000E+00  0.00000000000E+00  0.10823858994E+04  0.10823858994E+04  0.50400001928E-02 0.  1.
        1   -1    0    0  501    0  0.00000000000E+00  0.00000000000E+00 -0.21349574429E+04  0.21349574430E+04  0.50400001928E-02 0. -1.
    10030    2    1    2    0    0  0.00000000000E+00  0.00000000000E+00 -0.10525715436E+04  0.32173433423E+04  0.30402946121E+04 0.  0.
        4    1    3    3  502    0  0.14696329148E+04  0.16058060007E+03 -0.90078580245E+03  0.17311914129E+04  0.12699999809E+01 0. -1.
       -4    1    3    3    0  502 -0.14696329148E+04 -0.16058060007E+03 -0.15178574112E+03  0.14861519294E+04  0.12699999809E+01 0.  1.
</event>
<event>
 5   0  0.2628425E-06  0.3068261E+04  0.7818609E-02  0.8224503E-01
       -1   -1    0    0    0  501  0.00000000000E+00  0.00000000000E+00  0.98728951486E+03  0.98728951487E+03  0.50400001928E-02 0.  1.
        1   -1    0    0  501    0  0.00000000000E+00  0.00000000000E+00 -0.23838560380E+04  0.23838560380E+04  0.50400001928E-02 0. -1.
    10030    2    1    2    0    0  0.00000000000E+00  0.00000000000E+00 -0.13965665231E+04  0.33711455529E+04  0.30682607916E+04 0.  0.
        1    1    3    3  502    0  0.49931239785E+03  0.14420758718E+04 -0.52574511759E+03  0.16140952944E+04  0.50400001928E-02 0.  1.
       -1    1    3    3    0  502 -0.49931239785E+03 -0.14420758718E+04 -0.87082140554E+03  0.17570502585E+04  0.50400001928E-02 0. -1.
</event>
<event>
 5   0  0.7193153E-06  0.3016742E+04  0.7818609E-02  0.8238966E-01
        2   -1    0    0  501    0  0.00000000000E+00  0.00000000000E+00  0.18417487708E+04  0.18417487708E+04  0.25500000920E-02 0. -1.
       -2   -1    0    0    0  501  0.00000000000E+00  0.00000000000E+00 -0.12353385227E+04  0.12353385227E+04  0.25500000920E-02 0.  1.
    10030    2    1    2    0    0  0.00000000000E+00  0.00000000000E+00  0.60641024807E+03  0.30770872936E+04  0.30167420876E+04 0.  0.
        4    1    3    3  502    0 -0.13579030210E+04  0.34835460135E+03 -0.26464467694E+03  0.14266358893E+04  0.12699999809E+01 0.  1.
       -4    1    3    3    0  502  0.13579030210E+04 -0.34835460135E+03  0.87105492501E+03  0.16504514043E+04  0.12699999809E+01 0. -1.
</event>
<event>
 5   0  0.2552990E-06  0.2724129E+04  0.7818609E-02  0.8327218E-01
       -1   -1    0    0    0  501  0.00000000000E+00  0.00000000000E+00  0.12744320802E+04  0.12744320802E+04  0.50400001928E-02 0.  1.
        1   -1    0    0  501    0  0.00000000000E+00  0.00000000000E+00 -0.14557228749E+04  0.14557228749E+04  0.50400001928E-02 0. -1.
    10030    2    1    2    0    0  0.00000000000E+00  0.00000000000E+00 -0.18129079466E+03  0.27301549551E+04  0.27241291685E+04 0.  0.
        3    1    3    3  502    0 -0.22903163585E+03 -0.35450617091E+03  0.12072442255E+04  0.12788935631E+04  0.10100000352E+00 0.  1.
       -3    1    3    3    0  502  0.22903163585E+03  0.35450617091E+03 -0.13885350202E+04  0.14512613920E+04  0.10100000352E+00 0. -1.
</event>
<event>
 5   0  0.2628425E-06  0.2999835E+04  0.7818609E-02  0.8243778E-01
        1   -1    0    0  501    0  0.00000000000E+00  0.00000000000E+00  0.21034822509E+04  0.21034822509E+04  0.50400001928E-02 0. -1.
       -1   -1    0    0    0  501  0.00000000000E+00  0.00000000000E+00 -0.10695369989E+04  0.10695369989E+04  0.50400001928E-02 0.  1.
    10030    2    1    2    0    0  0.00000000000E+00  0.00000000000E+00  0.10339452520E+04  0.31730192498E+04  0.29998347247E+04 0.  0.
        1    1    3    3  502    0 -0.53777733687E+03 -0.11652966177E+04 -0.30413723050E+03  0.13189465972E+04  0.50400001928E-02 0.  1.
       -1    1    3    3    0  502  0.53777733687E+03  0.11652966177E+04  0.13380824825E+04  0.18540726526E+04  0.50400001928E-02 0. -1.
</event>
<event>
 5   0  0.2628425E-06  0.3015516E+04  0.7818609E-02  0.8239314E-01
       -1   -1    0    0    0  501  0.00000000000E+00  0.00000000000E+00  0.13485492868E+04  0.13485492868E+04  0.50400001928E-02 0.  1.
        1   -1    0    0  501    0  0.00000000000E+00  0.00000000000E+00 -0.16857624230E+04  0.16857624230E+04  0.50400001928E-02 0. -1.
    10030    2    1    2    0    0  0.00000000000E+00  0.00000000000E+00 -0.33721313625E+03  0.30343117098E+04  0.30155156861E+04 0.  0.
        1    1    3    3  502    0  0.28602166243E+03  0.99085819752E+03  0.93812422237E+03  0.13941611871E+04  0.50400001928E-02 0.  1.
       -1    1    3    3    0  502 -0.28602166243E+03 -0.99085819752E+03 -0.12753373586E+04  0.16401505228E+04  0.50400001928E-02 0. -1.
</event>
<event>
 5   0  0.2672155E-06  0.3006863E+04  0.7818609E-02  0.8241774E-01
        1   -1    0    0  501    0  0.00000000000E+00  0.00000000000E+00  0.14155584004E+04  0.14155584004E+04  0.50400001928E-02 0. -1.
       -1   -1    0    0    0  501  0.00000000000E+00  0.00000000000E+00 -0.15967595526E+04  0.15967595526E+04  0.50400001928E-02 0.  1.
    10030    2    1    2    0    0  0.00000000000E+00  0.00000000000E+00 -0.18120115223E+03  0.30123179531E+04  0.30068630818E+04 0.  0.
        5    1    3    3  502    0  0.61630944095E+02  0.10408772564E+04  0.99444344377E+03  0.14408898948E+04  0.46999998093E+01 0. -1.
       -5    1    3    3    0  502 -0.61630944095E+02 -0.10408772564E+04 -0.11756445960E+04  0.15714280582E+04  0.46999998093E+01 0.  1.
</event>
<event>
 5   0  0.2672155E-06  0.3005311E+04  0.7818609E-02  0.8242216E-01
        1   -1    0    0  501    0  0.00000000000E+00  0.00000000000E+00  0.18823250653E+04  0.18823250653E+04  0.50400001928E-02 0.  1.
       -1   -1    0    0    0  501  0.00000000000E+00  0.00000000000E+00 -0.11995660886E+04  0.11995660886E+04  0.50400001928E-02 0. -1.
    10030    2    1    2    0    0  0.00000000000E+00  0.00000000000E+00  0.68275897674E+03  0.30818911539E+04  0.30053108432E+04 0.  0.
        5    1    3    3  502    0 -0.32283474810E+03 -0.14191038587E+04  0.72490577662E+03  0.16259115939E+04  0.46999998093E+01 0.  1.
       -5    1    3    3    0  502  0.32283474810E+03  0.14191038587E+04 -0.42146799880E+02  0.14559795600E+04  0.46999998093E+01 0. -1.
</event>
<event>
 5   0  0.2422083E-06  0.2277462E+04  0.7818609E-02  0.8486861E-01
        1   -1    0    0  501    0  0.00000000000E+00  0.00000000000E+00  0.13117844507E+04  0.13117844507E+04  0.50400001928E-02 0.  1.
       -1   -1    0    0    0  501  0.00000000000E+00  0.00000000000E+00 -0.98850724002E+03  0.98850724004E+03  0.50400001928E-02 0. -1.
    10030    2    1    2    0    0  0.00000000000E+00  0.00000000000E+00  0.32327721067E+03  0.23002916907E+04  0.22774621199E+04 0.  0.
        2    1    3    3  502    0 -0.63287453901E+03 -0.23197990841E+03  0.10886424510E+04  0.12804246351E+04  0.25500000920E-02 0.  1.
       -2    1    3    3    0  502  0.63287453901E+03  0.23197990841E+03 -0.76536524035E+03  0.10198670556E+04  0.25500000920E-02 0. -1.
</event>
<event>
 5   0  0.2422083E-06  0.3018394E+04  0.7818609E-02  0.8238498E-01
       -1   -1    0    0    0  501  0.00000000000E+00  0.00000000000E+00  0.17454975243E+04  0.17454975243E+04  0.50400001928E-02 0.  1.
        1   -1    0    0  501    0  0.00000000000E+00  0.00000000000E+00 -0.13048865626E+04  0.13048865626E+04  0.50400001928E-02 0. -1.
    10030    2    1    2    0    0  0.00000000000E+00  0.00000000000E+00  0.44061096175E+03  0.30503840869E+04  0.30183944503E+04 0.  0.
        2    1    3    3  502    0 -0.13977928593E+04  0.11032393243E+03 -0.34389442892E+03  0.14436965144E+04  0.25500000920E-02 0. -1.
       -2    1    3    3    0  502  0.13977928593E+04 -0.11032393243E+03  0.78450539068E+03  0.16066875725E+04  0.25500000920E-02 0.  1.
</event>
<event>
 5   0  0.2422083E-06  0.2968435E+04  0.7818609E-02  0.8252802E-01
        1   -1    0    0  501    0  0.00000000000E+00  0.00000000000E+00  0.34387538041E+04  0.34387538041E+04  0.50400001928E-02 0.  1.
       -1   -1    0    0    0  501  0.00000000000E+00  0.00000000000E+00 -0.64061035624E+03  0.64061035626E+03  0.50400001928E-02 0. -1.
    10030    2    1    2    0    0  0.00000000000E+00  0.00000000000E+00  0.27981434479E+04  0.40793641604E+04  0.29684348061E+04 0.  0.
        2    1    3    3  502    0 -0.92540763017E+03 -0.85098996446E+03  0.31494973070E+03  0.12960542174E+04  0.25500000920E-02 0. -1.
       -2    1    3    3    0  502  0.92540763017E+03  0.85098996446E+03  0.24831937172E+04  0.27833099430E+04  0.25500000920E-02 0.  1.
</event>
<event>
 5   0  0.6780150E-06  0.2993846E+04  0.7818609E-02  0.8245490E-01
       -2   -1    0    0    0  501  0.00000000000E+00  0.00000000000E+00  0.10557845680E+04  0.10557845680E+04  0.25500000920E-02 0.  1.
        2   -1    0    0  501    0  0.00000000000E+00  0.00000000000E+00 -0.21223817207E+04  0.21223817207E+04  0.25500000920E-02 0. -1.
    10030    2    1    2    0    0  0.00000000000E+00  0.00000000000E+00 -0.10665971528E+04  0.31781662887E+04  0.29938455993E+04 0.  0.
        5    1    3    3  502    0  0.10682782803E+04 -0.10475724763E+04 -0.58228272064E+03  0.16055222932E+04  0.46999998093E+01 0.  1.
       -5    1    3    3    0  502 -0.10682782803E+04  0.10475724763E+04 -0.48431443213E+03  0.15726439955E+04  0.46999998093E+01 0. -1.
</event>
<event>
 5   0  0.2628425E-06  0.2997503E+04  0.7818609E-02  0.8244444E-01
        1   -1    0    0  501    0  0.00000000000E+00  0.00000000000E+00  0.17418185412E+04  0.17418185412E+04  0.50400001928E-02 0. -1.
       -1   -1    0    0    0  501  0.00000000000E+00  0.00000000000E+00 -0.12896041221E+04  0.12896041221E+04  0.50400001928E-02 0.  1.
    10030    2    1    2    0    0  0.00000000000E+00  0.00000000000E+00  0.45221441908E+03  0.30314226633E+04  0.29975032082E+04 0.  0.
        1    1    3    3  502    0  0.15362106617E+03 -0.49285990409E+03 -0.11968491452E+04  0.13034409053E+04  0.50400001928E-02 0.  1.
       -1    1    3    3    0  502 -0.15362106617E+03  0.49285990409E+03  0.16490635643E+04  0.17279817581E+04  0.50400001928E-02 0. -1.
</event>
<event>
 5   0  0.2298500E-06  0.3072823E+04  0.7818609E-02  0.8223236E-01
       -3   -1    0    0    0  501  0.00000000000E+00  0.00000000000E+00  0.18481439429E+04  0.18481439457E+04  0.10100000352E+00 0.  1.
        3   -1    0    0  501    0  0.00000000000E+00  0.00000000000E+00 -0.12772596997E+04  0.12772597037E+04  0.10100000352E+00 0. -1.
    10030    2    1    2    0    0  0.00000000000E+00  0.00000000000E+00  0.57088424318E+03  0.31254036494E+04  0.30728226686E+04 0.  0.
        5    1    3    3  502    0 -0.43997020550E+03 -0.40373350508E+02  0.17821293592E+04  0.18360857638E+04  0.46999998093E+01 0.  1.
       -5    1    3    3    0  502  0.43997020550E+03  0.40373350508E+02 -0.12112451160E+04  0.12893178856E+04  0.46999998093E+01 0. -1.
</event>
<event>
 5   0  0.6780150E-06  0.3025188E+04  0.7818609E-02  0.8236575E-01
       -2   -1    0    0    0  501  0.00000000000E+00  0.00000000000E+00  0.10416052168E+04  0.10416052168E+04  0.25500000920E-02 0. -1.
        2   -1    0    0  501    0  0.00000000000E+00  0.00000000000E+00 -0.21965532402E+04  0.21965532402E+04  0.25500000920E-02 0.  1.
    10030    2    1    2    0    0  0.00000000000E+00  0.00000000000E+00 -0.11549480234E+04  0.32381584570E+04  0.30251884662E+04 0.  0.
        5    1    3    3  502    0  0.13420408970E+04 -0.32152516697E+03  0.85367457289E+02  0.13826647804E+04  0.46999998093E+01 0. -1.
       -5    1    3    3    0  502 -0.13420408970E+04  0.32152516697E+03 -0.12403154807E+04  0.18554936766E+04  0.46999998093E+01 0.  1.
</event>
<event>
 5   0  0.2504260E-06  0.2992990E+04  0.7818609E-02  0.8245735E-01
        1   -1    0    0  501    0  0.00000000000E+00  0.00000000000E+00  0.17890378189E+04  0.17890378189E+04  0.50400001928E-02 0.  1.
       -1   -1    0    0    0  501  0.00000000000E+00  0.00000000000E+00 -0.12517890244E+04  0.12517890245E+04  0.50400001928E-02 0. -1.
    10030    2    1    2    0    0  0.00000000000E+00  0.00000000000E+00  0.53724879446E+03  0.30408268434E+04  0.29929904150E+04 0.  0.
        4    1    3    3  502    0  0.10290471617E+04 -0.99604487596E+03  0.70967427337E+03  0.15983374622E+04  0.12699999809E+01 0.  1.
       -4    1    3    3    0  502 -0.10290471617E+04  0.99604487596E+03 -0.17242547891E+03  0.14424893811E+04  0.12699999809E+01 0. -1.
</event>
<event>
 5   0  0.7193153E-06  0.3010825E+04  0.7818609E-02  0.8240646E-01
        2   -1    0    0  501    0  0.00000000000E+00  0.00000000000E+00  0.16600017184E+04  0.16600017184E+04  0.25500000920E-02 0. -1.
       -2   -1    0    0    0  501  0.00000000000E+00  0.00000000000E+00 -0.13652196816E+04  0.13652196816E+04  0.25500000920E-02 0.  1.
    10030    2    1    2    0    0  0.00000000000E+00  0.00000000000E+00  0.29478203674E+03  0.30252214000E+04  0.30108251476E+04 0.  0.
        4    1    3    3  502    0 -0.14018120846E+04  0.49537164208E+03 -0.89948538416E+02  0.14894839834E+04  0.12699999809E+01 0.  1.
       -4    1    3    3    0  502  0.14018120846E+04 -0.49537164208E+03  0.38473057515E+03  0.15357374166E+04  0.12699999809E+01 0. -1.
</event>
<event>
 5   0  0.7217255E-06  0.2959048E+04  0.7818609E-02  0.8255523E-01
        2   -1    0    0  501    0  0.00000000000E+00  0.00000000000E+00  0.35877510617E+04  0.35877510617E+04  0.25500000920E-02 0. -1.
       -2   -1    0    0    0  501  0.00000000000E+00  0.00000000000E+00 -0.61012914349E+03  0.61012914349E+03  0.25500000920E-02 0.  1.
    10030    2    1    2    0    0  0.00000000000E+00  0.00000000000E+00  0.29776219183E+04  0.41978802052E+04  0.29590481458E+04 0.  0.
        1    1    3    3  502    0 -0.10812521321E+04  0.34410472380E+03  0.14184880131E+03  0.11435188309E+04  0.50400001928E-02 0.  1.
       -1    1    3    3    0  502  0.10812521321E+04 -0.34410472380E+03  0.28357731170E+04  0.30543613743E+04  0.50400001928E-02 0. -1.
</event>
<event>
 5   0  0.2552990E-06  0.3019985E+04  0.7818609E-02  0.8238047E-01
       -1   -1    0    0    0  501  0.00000000000E+00  0.00000000000E+00  0.12059057717E+04  0.12059057717E+04  0.50400001928E-02 0.  1.
        1   -1    0    0  501    0  0.00000000000E+00  0.00000000000E+00 -0.18907593956E+04  0.18907593956E+04  0.50400001928E-02 0. -1.
    10030    2    1    2    0    0  0.00000000000E+00  0.00000000000E+00 -0.68485362388E+03  0.30966651674E+04  0.30199852107E+04 0.  0.
        3    1    3    3  502    0 -0.21397257023E+03 -0.99580452582E+03 -0.14854808725E+04  0.18011286315E+04  0.10100000352E+00 0. -1.
       -3    1    3    3    0  502  0.21397257023E+03  0.99580452582E+03  0.80062724858E+03  0.12955365359E+04  0.10100000352E+00 0.  1.
</event>
<event>
 5   0  0.7201538E-06  0.3107601E+04  0.7818609E-02  0.8213655E-01
       -2   -1    0    0    0  501  0.00000000000E+00  0.00000000000E+00  0.12311244610E+04  0.12311244610E+04  0.25500000920E-02 0.  1.
        2   -1    0    0  501    0  0.00000000000E+00  0.00000000000E+00 -0.19610489290E+04  0.19610489290E+04  0.25500000920E-02 0. -1.
    10030    2    1    2    0    0  0.00000000000E+00  0.00000000000E+00 -0.72992446806E+03  0.31921733900E+04  0.31076005572E+04 0.  0.
        3    1    3    3  502    0 -0.85466561808E+03  0.10507659546E+04 -0.11470855819E+04  0.17749275344E+04  0.10100000352E+00 0. -1.
       -3    1    3    3    0  502  0.85466561808E+03 -0.10507659546E+04  0.41716111381E+03  0.14172458556E+04  0.10100000352E+00 0.  1.
</event>
<event>
 5   0  0.2504260E-06  0.3026740E+04  0.7818609E-02  0.8236136E-01
        1   -1    0    0  501    0  0.00000000000E+00  0.00000000000E+00  0.94418817882E+03  0.94418817883E+03  0.50400001928E-02 0.  1.
       -1   -1    0    0    0  501  0.00000000000E+00  0.00000000000E+00 -0.24256704396E+04  0.24256704396E+04  0.50400001928E-02 0. -1.
    10030    2    1    2    0    0  0.00000000000E+00  0.00000000000E+00 -0.14814822608E+04  0.33698586185E+04  0.30267403951E+04 0.  0.
        4    1    3    3  502    0 -0.44368849413E+02 -0.63362767008E+03  0.78859688314E+03  0.10125903792E+04  0.12699999809E+01 0.  1.
       -4    1    3    3    0  502  0.44368849413E+02  0.63362767008E+03 -0.22700791439E+04  0.23572682392E+04  0.12699999809E+01 0. -1.
</event>
<event>
 5   0  0.6792811E-06  0.3029614E+04  0.7818609E-02  0.8235325E-01
       -2   -1    0    0    0  501  0.00000000000E+00  0.00000000000E+00  0.96483216671E+03  0.96483216671E+03  0.25500000920E-02 0.  1.
        2   -1    0    0  501    0  0.00000000000E+00  0.00000000000E+00 -0.23782799271E+04  0.23782799271E+04  0.25500000920E-02 0. -1.
    10030    2    1    2    0    0  0.00000000000E+00  0.00000000000E+00 -0.14134477604E+04  0.33431120938E+04  0.30296144805E+04 0.  0.
        2    1    3    3  502    0  0.81908490691E+03 -0.44879710225E+03  0.60929628025E+03  0.11151506090E+04  0.25500000920E-02 0.  1.
       -2    1    3    3    0  502 -0.81908490691E+03  0.44879710225E+03 -0.20227440406E+04  0.22279614848E+04  0.25500000920E-02 0. -1.
</event>
<event>
 5   0  0.2504260E-06  0.2986349E+04  0.7818609E-02  0.8247640E-01
       -1   -1    0    0    0  501  0.00000000000E+00  0.00000000000E+00  0.94703286246E+03  0.94703286247E+03  0.50400001928E-02 0. -1.
        1   -1    0    0  501    0  0.00000000000E+00  0.00000000000E+00 -0.23542687963E+04  0.23542687963E+04  0.50400001928E-02 0.  1.
    10030    2    1    2    0    0  0.00000000000E+00  0.00000000000E+00 -0.14072359338E+04  0.33013016588E+04  0.29863488860E+04 0.  0.
        4    1    3    3  502    0 -0.50152045268E+03 -0.64279594122E+03  0.67925491768E+03  0.10611777620E+04  0.12699999809E+01 0. -1.
       -4    1    3    3    0  502  0.50152045268E+03  0.64279594122E+03 -0.20864908515E+04  0.22401238967E+04  0.12699999809E+01 0.  1.
</event>
<event>
 5   0  0.2504260E-06  0.2998112E+04  0.7818609E-02  0.8244270E-01
       -1   -1    0    0    0  501  0.00000000000E+00  0.00000000000E+00  0.10558148707E+04  0.10558148707E+04  0.50400001928E-02 0.  1.
        1   -1    0    0  501    0  0.00000000000E+00  0.00000000000E+00 -0.21283736541E+04  0.21283736541E+04  0.50400001928E-02 0. -1.
    10030    2    1    2    0    0  0.00000000000E+00  0.00000000000E+00 -0.10725587834E+04  0.31841885248E+04  0.29981117753E+04 0.  0.
        4    1    3    3  502    0 -0.42279034028E+03 -0.14385156211E+03 -0.20560794282E+04  0.21040221415E+04  0.12699999809E+01 0. -1.
       -4    1    3    3    0  502  0.42279034028E+03  0.14385156211E+03  0.98352064486E+03  0.10801663833E+04  0.12699999809E+01 0.  1.
</event>
<event>
 5   0  0.2422083E-06  0.2925550E+04  0.7818609E-02  0.8265316E-01
       -1   -1    0    0    0  501  0.00000000000E+00  0.00000000000E+00  0.24745275160E+04  0.24745275160E+04  0.50400001928E-02 0. -1.
        1   -1    0    0  501    0  0.00000000000E+00  0.00000000000E+00 -0.86469477069E+03  0.86469477071E+03  0.50400001928E-02 0.  1.
    10030    2    1    2    0    0  0.00000000000E+00  0.00000000000E+00  0.16098327453E+04  0.33392222867E+04  0.29255502067E+04 0.  0.
        2    1    3    3  502    0  0.74752325461E+03 -0.57765089958E+03  0.20796301796E+04  0.22841482574E+04  0.25500000920E-02 0. -1.
       -2    1    3    3    0  502 -0.74752325461E+03  0.57765089958E+03 -0.46979743431E+03  0.10550740293E+04  0.25500000920E-02 0.  1.
</event>
<event>
 5   0  0.6792811E-06  0.2985924E+04  0.7818609E-02  0.8247762E-01
       -2   -1    0    0    0  501  0.00000000000E+00  0.00000000000E+00  0.10628358795E+04  0.10628358795E+04  0.25500000920E-02 0.  1.
        2   -1    0    0  501    0  0.00000000000E+00  0.00000000000E+00 -0.20971587207E+04  0.20971587207E+04  0.25500000920E-02 0. -1.
    10030    2    1    2    0    0  0.00000000000E+00  0.00000000000E+00 -0.10343228411E+04  0.31599946002E+04  0.29859240000E+04 0.  0.
        2    1    3    3  502    0  0.42725975968E+03 -0.11370299926E+04 -0.14358385118E+04  0.18806967693E+04  0.25500000920E-02 0. -1.
       -2    1    3    3    0  502 -0.42725975968E+03  0.11370299926E+04  0.40151567066E+03  0.12792978309E+04  0.25500000920E-02 0.  1.
</event>
<event>
 5   0  0.7217255E-06  0.2968467E+04  0.7818609E-02  0.8252793E-01
       -2   -1    0    0    0  501  0.00000000000E+00  0.00000000000E+00  0.12568032884E+04  0.12568032884E+04  0.25500000920E-02 0.  1.
        2   -1    0    0  501    0  0.00000000000E+00  0.00000000000E+00 -0.17528195271E+04  0.17528195271E+04  0.25500000920E-02 0. -1.
    10030    2    1    2    0    0  0.00000000000E+00  0.00000000000E+00 -0.49601623872E+03  0.30096228154E+04  0.29684671772E+04 0.  0.
        1    1    3    3  502    0  0.72768436287E+03  0.80092729178E+03  0.78192044482E+03  0.13350687775E+04  0.50400001928E-02 0.  1.
       -1    1    3    3    0  502 -0.72768436287E+03 -0.80092729178E+03 -0.12779366835E+04  0.16745540379E+04  0.50400001928E-02 0. -1.
</event>
<event>
 5   0  0.2298500E-06  0.2952581E+04  0.7818609E-02  0.8257403E-01
        4   -1    0    0  501    0  0.00000000000E+00  0.00000000000E+00  0.12816107824E+04  0.12816114116E+04  0.12699999809E+01 0. -1.
       -4   -1    0    0    0  501  0.00000000000E+00  0.00000000000E+00 -0.17005407275E+04  0.17005412018E+04  0.12699999809E+01 0.  1.
    10030    2    1    2    0    0  0.00000000000E+00  0.00000000000E+00 -0.41892994519E+03  0.29821526134E+04  0.29525805511E+04 0.  0.
        3    1    3    3  502    0  0.12180320730E+04  0.19004084558E+03  0.61089864757E+03  0.13758324104E+04  0.10100000352E+00 0. -1.
       -3    1    3    3    0  502 -0.12180320730E+04 -0.19004084558E+03 -0.10298285928E+04  0.16063202030E+04  0.10100000352E+00 0.  1.
</event>
<event>
 5   0  0.7217255E-06  0.2978699E+04  0.7818609E-02  0.8249840E-01
        2   -1    0    0  501    0  0.00000000000E+00  0.00000000000E+00  0.12591275382E+04  0.12591275382E+04  0.25500000920E-02 0.  1.
       -2   -1    0    0    0  501  0.00000000000E+00  0.00000000000E+00 -0.17616656943E+04  0.17616656943E+04  0.25500000920E-02 0. -1.
    10030    2    1    2    0    0  0.00000000000E+00  0.00000000000E+00 -0.50253815618E+03  0.30207932325E+04  0.29786989031E+04 0.  0.
        1    1    3    3  502    0 -0.11411009937E+04  0.67694477748E+03  0.43489887145E+03  0.13962459447E+04  0.50400001928E-02 0. -1.
       -1    1    3    3    0  502  0.11411009937E+04 -0.67694477748E+03 -0.93743702763E+03  0.16245472878E+04  0.50400001928E-02 0.  1.
</event>
<event>
 5   0  0.2628425E-06  0.2984077E+04  0.7818609E-02  0.8248293E-01
       -1   -1    0    0    0  501  0.00000000000E+00  0.00000000000E+00  0.15169076709E+04  0.15169076709E+04  0.50400001928E-02 0. -1.
        1   -1    0    0  501    0  0.00000000000E+00  0.00000000000E+00 -0.14675766790E+04  0.14675766790E+04  0.50400001928E-02 0.  1.
    10030    2    1    2    0    0  0.00000000000E+00  0.00000000000E+00  0.49330991942E+02  0.29844843499E+04  0.29840766223E+04 0.  0.
        1    1    3    3  502    0  0.91570324376E+03 -0.72051130093E+03  0.95674205655E+03  0.15076486090E+04  0.50400001928E-02 0. -1.
       -1    1    3    3    0  502 -0.91570324376E+03  0.72051130093E+03 -0.90741106460E+03  0.14768357409E+04  0.50400001928E-02 0.  1.
</event>
<event>
 5   0  0.6780150E-06  0.3009817E+04  0.7818609E-02  0.8240933E-01
       -2   -1    0    0    0  501  0.00000000000E+00  0.00000000000E+00  0.25413402878E+04  0.25413402878E+04  0.25500000920E-02 0. -1.
        2   -1    0    0  501    0  0.00000000000E+00  0.00000000000E+00 -0.89116349395E+03  0.89116349395E+03  0.25500000920E-02 0.  1.
    10030    2    1    2    0    0  0.00000000000E+00  0.00000000000E+00  0.16501767939E+04  0.34325037818E+04  0.30098170643E+04 0.  0.
        5    1    3    3  502    0  0.64998567306E+02 -0.36303928390E+03 -0.83881723375E+03  0.91632896770E+03  0.46999998093E+01 0.  1.
       -5    1    3    3    0  502 -0.64998567306E+02  0.36303928390E+03  0.24889940276E+04  0.25161748141E+04  0.46999998093E+01 0. -1.
</event>
<event>
 5   0  0.7193153E-06  0.3154017E+04  0.7818609E-02  0.8201068E-01
       -2   -1    0    0    0  501  0.00000000000E+00  0.00000000000E+00  0.81478997278E+03  0.81478997278E+03  0.25500000920E-02 0. -1.
        2   -1    0    0  501    0  0.00000000000E+00  0.00000000000E+00 -0.30522665145E+04  0.30522665145E+04  0.25500000920E-02 0.  1.
    10030    2    1    2    0    0  0.00000000000E+00  0.00000000000E+00 -0.22374765417E+04  0.38670564873E+04  0.31540172164E+04 0.  0.
        4    1    3    3  502    0 -0.10521878459E+04  0.66645429340E+03 -0.23047346603E+04  0.26197450363E+04  0.12699999809E+01 0.  1.
       -4    1    3    3    0  502  0.10521878459E+04 -0.66645429340E+03  0.67258118525E+02  0.12473114510E+04  0.12699999809E+01 0. -1.
</event>
<event>
 5   0  0.7193153E-06  0.2973065E+04  0.7818609E-02  0.8251465E-01
       -2   -1    0    0    0  501  0.00000000000E+00  0.00000000000E+00  0.13791265614E+04  0.13791265614E+04  0.25500000920E-02 0.  1.
        2   -1    0    0  501    0  0.00000000000E+00  0.00000000000E+00 -0.16023027512E+04  0.16023027512E+04  0.25500000920E-02 0. -1.
    10030    2    1    2    0    0  0.00000000000E+00  0.00000000000E+00 -0.22317618976E+03  0.29814293126E+04  0.29730646032E+04 0.  0.
        4    1    3    3  502    0 -0.67075996887E+03  0.13201233660E+04 -0.24284574623E+03  0.15005400050E+04  0.12699999809E+01 0. -1.
       -4    1    3    3    0  502  0.67075996887E+03 -0.13201233660E+04  0.19669556468E+02  0.14808893077E+04  0.12699999809E+01 0.  1.
</event>
<event>
 5   0  0.2422083E-06  0.3148015E+04  0.7818609E-02  0.8202683E-01
        1   -1    0    0  501    0  0.00000000000E+00  0.00000000000E+00  0.23971774576E+04  0.23971774576E+04  0.50400001928E-02 0.  1.
       -1   -1    0    0    0  501  0.00000000000E+00  0.00000000000E+00 -0.10335070837E+04  0.10335070837E+04  0.50400001928E-02 0. -1.
    10030    2    1    2    0    0  0.00000000000E+00  0.00000000000E+00  0.13636703739E+04  0.34306845412E+04  0.31480151736E+04 0.  0.
        2    1    3    3  502    0 -0.36845673286E+03  0.13710252590E+04 -0.58926833920E+02  0.14208951392E+04  0.25500000920E-02 0.  1.
       -2    1    3    3    0  502  0.36845673286E+03 -0.13710252590E+04  0.14225972078E+04  0.20097894020E+04  0.25500000920E-02 0. -1.
</event>
<event>
 5   0  0.2552990E-06  0.3000981E+04  0.7818609E-02  0.8243451E-01
       -1   -1    0    0    0  501  0.00000000000E+00  0.00000000000E+00  0.77973103166E+03  0.77973103167E+03  0.50400001928E-02 0.  1.
        1   -1    0    0  501    0  0.00000000000E+00  0.00000000000E+00 -0.28874981677E+04  0.28874981677E+04  0.50400001928E-02 0. -1.
    10030    2    1    2    0    0  0.00000000000E+00  0.00000000000E+00 -0.21077671360E+04  0.36672291993E+04  0.30009811230E+04 0.  0.
        3    1    3    3  502    0  0.87396683557E+03 -0.65681185760E+02 -0.25421994800E+04  0.26890351902E+04  0.10100000352E+00 0. -1.
       -3    1    3    3    0  502 -0.87396683557E+03  0.65681185760E+02  0.43443234398E+03  0.97819400915E+03  0.10100000352E+00 0.  1.
</event>
<event>
 5   0  0.2672155E-06  0.2983784E+04  0.7818609E-02  0.8248377E-01
       -1   -1    0    0    0  501  0.00000000000E+00  0.00000000000E+00  0.13695745246E+04  0.13695745247E+04  0.50400001928E-02 0.  1.
        1   -1    0    0  501    0  0.00000000000E+00  0.00000000000E+00 -0.16251336430E+04  0.16251336430E+04  0.50400001928E-02 0. -1.
    10030    2    1    2    0    0  0.00000000000E+00  0.00000000000E+00 -0.25555911834E+03  0.29947081676E+04  0.29837839309E+04 0.  0.
        5    1    3    3  502    0 -0.95053294748E+03 -0.85593956692E+03  0.64286894911E+03  0.14315893274E+04  0.46999998093E+01 0. -1.
       -5    1    3    3    0  502  0.95053294748E+03  0.85593956692E+03 -0.89842806745E+03  0.15631188403E+04  0.46999998093E+01 0.  1.
</event>
<event>
 5   0  0.7193153E-06  0.3004660E+04  0.7818609E-02  0.8242402E-01
        2   -1    0    0  501    0  0.00000000000E+00  0.00000000000E+00  0.24560433544E+04  0.24560433544E+04  0.25500000920E-02 0. -1.
       -2   -1    0    0    0  501  0.00000000000E+00  0.00000000000E+00 -0.91895567521E+03  0.91895567521E+03  0.25500000920E-02 0.  1.
    10030    2    1    2    0    0  0.00000000000E+00  0.00000000000E+00  0.15370876792E+04  0.33749990296E+04  0.30046597006E+04 0.  0.
        4    1    3    3  502    0 -0.86726533880E+03  0.83880599858E+03  0.17739974265E+04  0.21454167784E+04  0.12699999809E+01 0. -1.
       -4    1    3    3    0  502  0.86726533880E+03 -0.83880599858E+03 -0.23690974729E+03  0.12295822512E+04  0.12699999809E+01 0.  1.
</event>
<event>
 5   0  0.6780150E-06  0.2828970E+04  0.7818609E-02  0.8294330E-01
       -2   -1    0    0    0  501  0.00000000000E+00  0.00000000000E+00  0.10948989643E+04  0.10948989643E+04  0.25500000920E-02 0. -1.
        2   -1    0    0  501    0  0.00000000000E+00  0.00000000000E+00 -0.18273540258E+04  0.18273540258E+04  0.25500000920E-02 0.  1.
    10030    2    1    2    0    0  0.00000000000E+00  0.00000000000E+00 -0.73245506148E+03  0.29222529901E+04  0.28289701520E+04 0.  0.
        5    1    3    3  502    0  0.92765243856E+03 -0.76623350169E+03 -0.11344527716E+04  0.16536801405E+04  0.46999998093E+01 0.  1.
       -5    1    3    3    0  502 -0.92765243856E+03  0.76623350169E+03  0.40199771015E+03  0.12685728496E+04  0.46999998093E+01 0. -1.
</event>
<event>
 5   0  0.7217255E-06  0.2984843E+04  0.7818609E-02  0.8248072E-01
        2   -1    0    0  501    0  0.00000000000E+00  0.00000000000E+00  0.17733703905E+04  0.17733703905E+04  0.25500000920E-02 0. -1.
       -2   -1    0    0    0  501  0.00000000000E+00  0.00000000000E+00 -0.12559821564E+04  0.12559821564E+04  0.25500000920E-02 0.  1.
    10030    2    1    2    0    0  0.00000000000E+00  0.00000000000E+00  0.51738823414E+03  0.30293525469E+04  0.29848427544E+04 0.  0.
        1    1    3    3  502    0 -0.12154712520E+04 -0.85457784221E+03  0.11643287767E+03  0.14903792363E+04  0.50400001928E-02 0.  1.
       -1    1    3    3    0  502  0.12154712520E+04  0.85457784221E+03  0.40095535646E+03  0.15389733106E+04  0.50400001928E-02 0. -1.
</event>
<event>
 5   0  0.7217255E-06  0.2837772E+04  0.7818609E-02  0.8291637E-01
       -2   -1    0    0    0  501  0.00000000000E+00  0.00000000000E+00  0.12354984639E+04  0.12354984639E+04  0.25500000920E-02 0.  1.
        2   -1    0    0  501    0  0.00000000000E+00  0.00000000000E+00 -0.16294938124E+04  0.16294938124E+04  0.25500000920E-02 0. -1.
    10030    2    1    2    0    0  0.00000000000E+00  0.00000000000E+00 -0.39399534853E+03  0.28649922763E+04  0.28377717330E+04 0.  0.
        1    1    3    3  502    0 -0.14999907096E+03 -0.14048628489E+04 -0.64985019479E+02  0.14143416837E+04  0.50400001928E-02 0. -1.
       -1    1    3    3    0  502  0.14999907096E+03  0.14048628489E+04 -0.32901032905E+03  0.14506505927E+04  0.50400001928E-02 0.  1.
</event>
<event>
 5   0  0.2298500E-06  0.2976278E+04  0.7818609E-02  0.8250538E-01
       -3   -1    0    0    0  501  0.00000000000E+00  0.00000000000E+00  0.11072435930E+04  0.11072435976E+04  0.10100000352E+00 0. -1.
        3   -1    0    0  501    0  0.00000000000E+00  0.00000000000E+00 -0.20000633875E+04  0.20000633900E+04  0.10100000352E+00 0.  1.
    10030    2    1    2    0    0  0.00000000000E+00  0.00000000000E+00 -0.89281979454E+03  0.31073069876E+04  0.29762777978E+04 0.  0.
        4    1    3    3  502    0 -0.33423509353E+03 -0.33631278613E+02 -0.19599615915E+04  0.19885409761E+04  0.12699999809E+01 0.  1.
       -4    1    3    3    0  502  0.33423509353E+03  0.33631278613E+02  0.10671417970E+04  0.11187660115E+04  0.12699999809E+01 0. -1.
</event>
<event>
 5   0  0.2298500E-06  0.2976511E+04  0.7818609E-02  0.8250470E-01
        3   -1    0    0  501    0  0.00000000000E+00  0.00000000000E+00  0.10935558707E+04  0.10935558753E+04  0.10100000352E+00 0.  1.
       -3   -1    0    0    0  501  0.00000000000E+00  0.00000000000E+00 -0.20254144173E+04  0.20254144198E+04  0.10100000352E+00 0. -1.
    10030    2    1    2    0    0  0.00000000000E+00  0.00000000000E+00 -0.93185854663E+03  0.31189702951E+04  0.29765105999E+04 0.  0.
        4    1    3    3  502    0 -0.14160884240E+04  0.12795681486E+03 -0.92653894318E+03  0.16971020586E+04  0.12699999809E+01 0. -1.
       -4    1    3    3    0  502  0.14160884240E+04 -0.12795681486E+03 -0.53196034561E+01  0.14218682366E+04  0.12699999809E+01 0.  1.
</event>
<event>
 5   0  0.7193153E-06  0.2940843E+04  0.7818609E-02  0.8260828E-01
       -2   -1    0    0    0  501  0.00000000000E+00  0.00000000000E+00  0.93269307927E+03  0.93269307927E+03  0.25500000920E-02 0. -1.
        2   -1    0    0  501    0  0.00000000000E+00  0.00000000000E+00 -0.23181683156E+04  0.23181683156E+04  0.25500000920E-02 0.  1.
    10030    2    1    2    0    0  0.00000000000E+00  0.00000000000E+00 -0.13854752363E+04  0.32508613949E+04  0.29408431067E+04 0.  0.
        4    1    3    3  502    0  0.95603420214E+03 -0.16892886622E+03  0.52803626493E+03  0.11051525992E+04  0.12699999809E+01 0. -1.
       -4    1    3    3    0  502 -0.95603420214E+03  0.16892886622E+03 -0.19135115012E+04  0.21457087957E+04  0.12699999809E+01 0.  1.
</event>
<event>
 5   0  0.2504260E-06  0.3016888E+04  0.7818609E-02  0.8238925E-01
        1   -1    0    0  501    0  0.00000000000E+00  0.00000000000E+00  0.94601861043E+03  0.94601861045E+03  0.50400001928E-02 0.  1.
       -1   -1    0    0    0  501  0.00000000000E+00  0.00000000000E+00 -0.24052408789E+04  0.24052408789E+04  0.50400001928E-02 0. -1.
    10030    2    1    2    0    0  0.00000000000E+00  0.00000000000E+00 -0.14592222684E+04  0.33512594893E+04  0.30168875577E+04 0.  0.
        4    1    3    3  502    0 -0.10062850555E+04  0.82210814606E+03  0.12141312581E+03  0.13050724795E+04  0.12699999809E+01 0.  1.
       -4    1    3    3    0  502  0.10062850555E+04 -0.82210814606E+03 -0.15806353942E+04  0.20461870098E+04  0.12699999809E+01 0. -1.
</event>
<event>
 5   0  0.7193153E-06  0.3043481E+04  0.7818609E-02  0.8231423E-01
       -2   -1    0    0    0  501  0.00000000000E+00  0.00000000000E+00  0.13482149634E+04  0.13482149634E+04  0.25500000920E-02 0. -1.
        2   -1    0    0  501    0  0.00000000000E+00  0.00000000000E+00 -0.17175997731E+04  0.17175997731E+04  0.25500000920E-02 0.  1.
    10030    2    1    2    0    0  0.00000000000E+00  0.00000000000E+00 -0.36938480970E+03  0.30658147365E+04  0.30434807147E+04 0.  0.
        4    1    3    3  502    0 -0.13922731729E+04  0.51948661194E+03 -0.51481851033E+03  0.15726826251E+04  0.12699999809E+01 0.  1.
       -4    1    3    3    0  502  0.13922731729E+04 -0.51948661194E+03  0.14543370064E+03  0.14931321114E+04  0.12699999809E+01 0. -1.
</event>
<event>
 5   0  0.2552990E-06  0.2967919E+04  0.7818609E-02  0.8252952E-01
        1   -1    0    0  501    0  0.00000000000E+00  0.00000000000E+00  0.20439064668E+04  0.20439064669E+04  0.50400001928E-02 0.  1.
       -1   -1    0    0    0  501  0.00000000000E+00  0.00000000000E+00 -0.10774151839E+04  0.10774151839E+04  0.50400001928E-02 0. -1.
    10030    2    1    2    0    0  0.00000000000E+00  0.00000000000E+00  0.96649128298E+03  0.31213216507E+04  0.29679190432E+04 0.  0.
        3    1    3    3  502    0 -0.85431220087E+00 -0.64006701786E+03 -0.92477790874E+03  0.11246780463E+04  0.10100000352E+00 0. -1.
       -3    1    3    3    0  502  0.85431220087E+00  0.64006701786E+03  0.18912691917E+04  0.19966436044E+04  0.10100000352E+00 0.  1.
</event>
<event>
 5   0  0.2504260E-06  0.2966835E+04  0.7818609E-02  0.8253265E-01
       -1   -1    0    0    0  501  0.00000000000E+00  0.00000000000E+00  0.91668582108E+03  0.91668582109E+03  0.50400001928E-02 0. -1.
        1   -1    0    0  501    0  0.00000000000E+00  0.00000000000E+00 -0.24005249525E+04  0.24005249525E+04  0.50400001928E-02 0.  1.
    10030    2    1    2    0    0  0.00000000000E+00  0.00000000000E+00 -0.14838391314E+04  0.33172107736E+04  0.29668348030E+04 0.  0.
        4    1    3    3  502    0 -0.25979315275E+03  0.83120887611E+03 -0.20846262145E+04  0.22592186138E+04  0.12699999809E+01 0.  1.
       -4    1    3    3    0  502  0.25979315275E+03 -0.83120887611E+03  0.60078708312E+03  0.10579921597E+04  0.12699999809E+01 0. -1.
</event>
<event>
 5   0  0.2422083E-06  0.3051499E+04  0.7818609E-02  0.8229176E-01
       -1   -1    0    0    0  501  0.00000000000E+00  0.00000000000E+00  0.15953111136E+04  0.15953111136E+04  0.50400001928E-02 0. -1.
        1   -1    0    0  501    0  0.00000000000E+00  0.00000000000E+00 -0.14592211931E+04  0.14592211931E+04  0.50400001928E-02 0.  1.
    10030    2    1    2    0    0  0.00000000000E+00  0.00000000000E+00  0.13608992047E+03  0.30545323067E+04  0.30514991637E+04 0.  0.
        2    1    3    3  502    0  0.27892301764E+03  0.39511364760E+03 -0.13804590322E+04  0.14627303183E+04  0.25500000920E-02 0.  1.
       -2    1    3    3    0  502 -0.27892301764E+03 -0.39511364760E+03  0.15165489527E+04  0.15918019884E+04  0.25500000920E-02 0. -1.
</event>
<event>
 5   0  0.7217255E-06  0.2869969E+04  0.7818609E-02  0.8281869E-01
        2   -1    0    0  501    0  0.00000000000E+00  0.00000000000E+00  0.17250078120E+04  0.17250078120E+04  0.25500000920E-02 0. -1.
       -2   -1    0    0    0  501  0.00000000000E+00  0.00000000000E+00 -0.11937227986E+04  0.11937227986E+04  0.25500000920E-02 0.  1.
    10030    2    1    2    0    0  0.00000000000E+00  0.00000000000E+00  0.53128501340E+03  0.29187306105E+04  0.28699694443E+04 0.  0.
        1    1    3    3  502    0  0.91595165654E+03  0.59131076866E+03  0.12145358803E+04  0.16320886210E+04  0.50400001928E-02 0. -1.
       -1    1    3    3    0  502 -0.91595165654E+03 -0.59131076866E+03 -0.68325086686E+03  0.12866419896E+04  0.50400001928E-02 0.  1.
</event>
<event>
 5   0  0.2628425E-06  0.3011751E+04  0.7818609E-02  0.8240383E-01
        1   -1    0    0  501    0  0.00000000000E+00  0.00000000000E+00  0.10817670133E+04  0.10817670133E+04  0.50400001928E-02 0. -1.
       -1   -1    0    0    0  501  0.00000000000E+00  0.00000000000E+00 -0.20962569837E+04  0.20962569837E+04  0.50400001928E-02 0.  1.
    10030    2    1    2    0    0  0.00000000000E+00  0.00000000000E+00 -0.10144899704E+04  0.31780239971E+04  0.30117514216E+04 0.  0.
        1    1    3    3  502    0 -0.13209271070E+04  0.54249615273E+03 -0.28256163436E+01  0.14279910651E+04  0.50400001928E-02 0. -1.
       -1    1    3    3    0  502  0.13209271070E+04 -0.54249615273E+03 -0.10116643541E+04  0.17500329320E+04  0.50400001928E-02 0.  1.
</event>
<event>
 5   0  0.7217255E-06  0.3026574E+04  0.7818609E-02  0.8236183E-01
       -2   -1    0    0    0  501  0.00000000000E+00  0.00000000000E+00  0.15754395976E+04  0.15754395976E+04  0.25500000920E-02 0. -1.
        2   -1    0    0  501    0  0.00000000000E+00  0.00000000000E+00 -0.14535863475E+04  0.14535863475E+04  0.25500000920E-02 0.  1.
    10030    2    1    2    0    0  0.00000000000E+00  0.00000000000E+00  0.12185325011E+03  0.30290259450E+04  0.30265739643E+04 0.  0.
        1    1    3    3  502    0  0.41461802253E+03 -0.70950462552E+03  0.13326773809E+04  0.15656736313E+04  0.50400001928E-02 0. -1.
       -1    1    3    3    0  502 -0.41461802253E+03  0.70950462552E+03 -0.12108241308E+04  0.14633523137E+04  0.50400001928E-02 0.  1.
</event>
<event>
 5   0  0.6792811E-06  0.2575606E+04  0.7818609E-02  0.8376535E-01
       -2   -1    0    0    0  501  0.00000000000E+00  0.00000000000E+00  0.93086868425E+03  0.93086868425E+03  0.25500000920E-02 0.  1.
        2   -1    0    0  501    0  0.00000000000E+00  0.00000000000E+00 -0.17816015322E+04  0.17816015322E+04  0.25500000920E-02 0. -1.
    10030    2    1    2    0    0  0.00000000000E+00  0.00000000000E+00 -0.85073284799E+03  0.27124702165E+04  0.25756063940E+04 0.  0.
        2    1    3    3  502    0 -0.77123143942E+03 -0.64866325523E+03  0.41903468236E+03  0.10913991098E+04  0.25500000920E-02 0.  1.
       -2    1    3    3    0  502  0.77123143942E+03  0.64866325523E+03 -0.12697675304E+04  0.16210711067E+04  0.25500000920E-02 0. -1.
</event>
<event>
 5   0  0.7193153E-06  0.3009860E+04  0.7818609E-02  0.8240921E-01
       -2   -1    0    0    0  501  0.00000000000E+00  0.00000000000E+00  0.17712759269E+04  0.17712759269E+04  0.25500000920E-02 0. -1.
        2   -1    0    0  501    0  0.00000000000E+00  0.00000000000E+00 -0.12786342242E+04  0.12786342242E+04  0.25500000920E-02 0.  1.
    10030    2    1    2    0    0  0.00000000000E+00  0.00000000000E+00  0.49264170266E+03  0.30499101511E+04  0.30098598112E+04 0.  0.
        4    1    3    3  502    0 -0.12619505486E+03  0.43646982227E+02  0.17652607469E+04  0.17703043152E+04  0.12699999809E+01 0. -1.
       -4    1    3    3    0  502  0.12619505486E+03 -0.43646982227E+02 -0.12726190442E+04  0.12796058360E+04  0.12699999809E+01 0.  1.
</event>
<event>
 5   0  0.2504260E-06  0.2971799E+04  0.7818609E-02  0.8251830E-01
       -1   -1    0    0    0  501  0.00000000000E+00  0.00000000000E+00  0.14324848091E+04  0.14324848091E+04  0.50400001928E-02 0. -1.
        1   -1    0    0  501    0  0.00000000000E+00  0.00000000000E+00 -0.15413056615E+04  0.15413056615E+04  0.50400001928E-02 0.  1.
    10030    2    1    2    0    0  0.00000000000E+00  0.00000000000E+00 -0.10882085245E+03  0.29737904706E+04  0.29717987457E+04 0.  0.
        4    1    3    3  502    0  0.33507466352E+03  0.13268710503E+04 -0.63361915740E+03  0.15080904031E+04  0.12699999809E+01 0.  1.
       -4    1    3    3    0  502 -0.33507466352E+03 -0.13268710503E+04  0.52479830495E+03  0.14657000676E+04  0.12699999809E+01 0. -1.
</event>
<event>
 5   0  0.2628425E-06  0.2514456E+04  0.7818609E-02  0.8397853E-01
       -1   -1    0    0    0  501  0.00000000000E+00  0.00000000000E+00  0.10958870349E+04  0.10958870350E+04  0.50400001928E-02 0. -1.
        1   -1    0    0  501    0  0.00000000000E+00  0.00000000000E+00 -0.14423226655E+04  0.14423226655E+04  0.50400001928E-02 0.  1.
    10030    2    1    2    0    0  0.00000000000E+00  0.00000000000E+00 -0.34643563051E+03  0.25382097004E+04  0.25144563701E+04 0.  0.
        1    1    3    3  502    0 -0.56652208231E+03 -0.22585333091E+03  0.93656116886E+03  0.11176331330E+04  0.50400001928E-02 0. -1.
       -1    1    3    3    0  502  0.56652208231E+03  0.22585333091E+03 -0.12829967994E+04  0.14205765675E+04  0.50400001928E-02 0.  1.
</event>
<event>
 5   0  0.7193153E-06  0.2900477E+04  0.7818609E-02  0.8272736E-01
        2   -1    0    0  501    0  0.00000000000E+00  0.00000000000E+00  0.12772511647E+04  0.12772511647E+04  0.25500000920E-02 0. -1.
       -2   -1    0    0    0  501  0.00000000000E+00  0.00000000000E+00 -0.16466548175E+04  0.16466548175E+04  0.25500000920E-02 0.  1.
    10030    2    1    2    0    0  0.00000000000E+00  0.00000000000E+00 -0.36940365281E+03  0.29239059822E+04  0.29004770528E+04 0.  0.
        4    1    3    3  502    0  0.63272975100E+03 -0.20797322857E+03  0.11139550602E+04  0.12978818477E+04  0.12699999809E+01 0. -1.
       -4    1    3    3    0  502 -0.63272975100E+03  0.20797322857E+03 -0.14833587130E+04  0.16260241345E+04  0.12699999809E+01 0.  1.
</event>
<event>
 5   0  0.6780150E-06  0.2546922E+04  0.7818609E-02  0.8386457E-01
        2   -1    0    0  501    0  0.00000000000E+00  0.00000000000E+00  0.11090995387E+04  0.11090995387E+04  0.25500000920E-02 0. -1.
       -2   -1    0    0    0  501  0.00000000000E+00  0.00000000000E+00 -0.14621802417E+04  0.14621802417E+04  0.25500000920E-02 0.  1.
    10030    2    1    2    0    0  0.00000000000E+00  0.00000000000E+00 -0.35308070302E+03  0.25712797804E+04  0.25469224029E+04 0.  0.
        5    1    3    3  502    0 -0.91132276921E+03 -0.54506984551E+03  0.53308367201E+03  0.11881963716E+04  0.46999998093E+01 0. -1.
       -5    1    3    3    0  502  0.91132276921E+03  0.54506984551E+03 -0.88616437503E+03  0.13830834088E+04  0.46999998093E+01 0.  1.
</event>
<event>
 5   0  0.2422083E-06  0.2992333E+04  0.7818609E-02  0.8245924E-01
       -1   -1    0    0    0  501  0.00000000000E+00  0.00000000000E+00  0.13890115431E+04  0.13890115432E+04  0.50400001928E-02 0. -1.
        1   -1    0    0  501    0  0.00000000000E+00  0.00000000000E+00 -0.16115877294E+04  0.16115877294E+04  0.50400001928E-02 0.  1.
    10030    2    1    2    0    0  0.00000000000E+00  0.00000000000E+00 -0.22257618625E+03  0.30005992726E+04  0.29923328417E+04 0.  0.
        2    1    3    3  502    0 -0.76166425171E+02 -0.64725479195E+03  0.12391966149E+04  0.14001244017E+04  0.25500000920E-02 0. -1.
       -2    1    3    3    0  502  0.76166425171E+02  0.64725479195E+03 -0.14617728011E+04  0.16004748708E+04  0.25500000920E-02 0.  1.
</event>
<event>
 5   0  0.2552990E-06  0.2982451E+04  0.7818609E-02  0.8248760E-01
        1   -1    0    0  501    0  0.00000000000E+00  0.00000000000E+00  0.15308673947E+04  0.15308673947E+04  0.50400001928E-02 0. -1.
       -1   -1    0    0    0  501  0.00000000000E+00  0.00000000000E+00 -0.14526099666E+04  0.14526099666E+04  0.50400001928E-02 0.  1.
    10030    2    1    2    0    0  0.00000000000E+00  0.00000000000E+00  0.78257428065E+02  0.29834773613E+04  0.29824508278E+04 0.  0.
        3    1    3    3  502    0  0.96245949491E+03 -0.83911889174E+03 -0.73139897641E+03  0.14715275284E+04  0.10100000352E+00 0.  1.
       -3    1    3    3    0  502 -0.96245949491E+03  0.83911889174E+03  0.80965640447E+03  0.15119498329E+04  0.10100000352E+00 0. -1.
</event>
<event>
 5   0  0.6792811E-06  0.2976797E+04  0.7818609E-02  0.8250388E-01
       -2   -1    0    0    0  501  0.00000000000E+00  0.00000000000E+00  0.25456063033E+04  0.25456063033E+04  0.25500000920E-02 0.  1.
        2   -1    0    0  501    0  0.00000000000E+00  0.00000000000E+00 -0.87025623681E+03  0.87025623682E+03  0.25500000920E-02 0. -1.
    10030    2    1    2    0    0  0.00000000000E+00  0.00000000000E+00  0.16753500665E+04  0.34158625402E+04  0.29767967764E+04 0.  0.
        2    1    3    3  502    0 -0.72233653729E+03  0.12343790570E+04  0.36473396593E+03  0.14759717462E+04  0.25500000920E-02 0. -1.
       -2    1    3    3    0  502  0.72233653729E+03 -0.12343790570E+04  0.13106161006E+04  0.19398907940E+04  0.25500000920E-02 0.  1.
</event>
<event>
 5   0  0.7193153E-06  0.2915334E+04  0.7818609E-02  0.8268330E-01
       -2   -1    0    0    0  501  0.00000000000E+00  0.00000000000E+00  0.16156010021E+04  0.16156010021E+04  0.25500000920E-02 0. -1.
        2   -1    0    0  501    0  0.00000000000E+00  0.00000000000E+00 -0.13151715407E+04  0.13151715407E+04  0.25500000920E-02 0.  1.
    10030    2    1    2    0    0  0.00000000000E+00  0.00000000000E+00  0.30042946147E+03  0.29307725428E+04  0.29153335721E+04 0.  0.
        4    1    3    3  502    0  0.16895452652E+03  0.24887100769E+03 -0.12836304478E+04  0.13184047747E+04  0.12699999809E+01 0.  1.
       -4    1    3    3    0  502 -0.16895452652E+03 -0.24887100769E+03  0.15840599093E+04  0.16123677681E+04  0.12699999809E+01 0. -1.
</event>
<event>
 5   0  0.2628425E-06  0.3047569E+04  0.7818609E-02  0.8230276E-01
       -1   -1    0    0    0  501  0.00000000000E+00  0.00000000000E+00  0.15935945087E+04  0.15935945087E+04  0.50400001928E-02 0. -1.
        1   -1    0    0  501    0  0.00000000000E+00  0.00000000000E+00 -0.14570325822E+04  0.14570325822E+04  0.50400001928E-02 0.  1.
    10030    2    1    2    0    0  0.00000000000E+00  0.00000000000E+00  0.13656192653E+03  0.30506270909E+04  0.30475689472E+04 0.  0.
        1    1    3    3  502    0 -0.45863653894E+02 -0.11317638533E+04  0.10885810838E+04  0.15709874826E+04  0.50400001928E-02 0.  1.
       -1    1    3    3    0  502  0.45863653894E+02  0.11317638533E+04 -0.95201915727E+03  0.14796396083E+04  0.50400001928E-02 0. -1.
</event>
<event>
 5   0  0.2628425E-06  0.2995386E+04  0.7818609E-02  0.8245050E-01
        1   -1    0    0  501    0  0.00000000000E+00  0.00000000000E+00  0.22348860163E+04  0.22348860163E+04  0.50400001928E-02 0.  1.
       -1   -1    0    0    0  501  0.00000000000E+00  0.00000000000E+00 -0.10036680601E+04  0.10036680601E+04  0.50400001928E-02 0. -1.
    10030    2    1    2    0    0  0.00000000000E+00  0.00000000000E+00  0.12312179562E+04  0.32385540764E+04  0.29953855929E+04 0.  0.
        1    1    3    3  502    0 -0.96763989167E+03 -0.94368766293E+03 -0.81908112372E+02  0.13540983362E+04  0.50400001928E-02 0. -1.
       -1    1    3    3    0  502  0.96763989167E+03  0.94368766293E+03  0.13131260685E+04  0.18844557403E+04  0.50400001928E-02 0.  1.
</event>
<event>
 5   0  0.7201538E-06  0.2998164E+04  0.7818609E-02  0.8244255E-01
        2   -1    0    0  501    0  0.00000000000E+00  0.00000000000E+00  0.14489121688E+04  0.14489121688E+04  0.25500000920E-02 0. -1.
       -2   -1    0    0    0  501  0.00000000000E+00  0.00000000000E+00 -0.15509886354E+04  0.15509886354E+04  0.25500000920E-02 0.  1.
    10030    2    1    2    0    0  0.00000000000E+00  0.00000000000E+00 -0.10207646661E+03  0.29999008043E+04  0.29981636430E+04 0.  0.
        3    1    3    3  502    0 -0.12971849851E+03  0.60809191509E+03  0.13138062271E+04  0.14535093666E+04  0.10100000352E+00 0. -1.
       -3    1    3    3    0  502  0.12971849851E+03 -0.60809191509E+03 -0.14158826937E+04  0.15463914377E+04  0.10100000352E+00 0.  1.
</event>
<event>
 5   0  0.2504260E-06  0.3051507E+04  0.7818609E-02  0.8229174E-01
        1   -1    0    0  501    0  0.00000000000E+00  0.00000000000E+00  0.11830023144E+04  0.11830023144E+04  0.50400001928E-02 0.  1.
       -1   -1    0    0    0  501  0.00000000000E+00  0.00000000000E+00 -0.19678095354E+04  0.19678095354E+04  0.50400001928E-02 0. -1.
    10030    2    1    2    0    0  0.00000000000E+00  0.00000000000E+00 -0.78480722099E+03  0.31508118499E+04  0.30515066671E+04 0.  0.
        4    1    3    3  502    0  0.75004834737E+03 -0.10102642727E+03 -0.17603351735E+04  0.19161316235E+04  0.12699999809E+01 0. -1.
       -4    1    3    3    0  502 -0.75004834737E+03  0.10102642727E+03  0.97552795254E+03  0.12346802264E+04  0.12699999809E+01 0.  1.
</event>
<event>
 5   0  0.2628425E-06  0.2705000E+04  0.7818609E-02  0.8333384E-01
       -1   -1    0    0    0  501  0.00000000000E+00  0.00000000000E+00  0.88516406191E+03  0.88516406193E+03  0.50400001928E-02 0. -1.
        1   -1    0    0  501    0  0.00000000000E+00  0.00000000000E+00 -0.20665730743E+04  0.20665730743E+04  0.50400001928E-02 0.  1.
    10030    2    1    2    0    0  0.00000000000E+00  0.00000000000E+00 -0.11814090124E+04  0.29517371362E+04  0.27049999754E+04 0.  0.
        1    1    3    3  502    0  0.88990127678E+03  0.51234216437E+03 -0.15512450764E+04  0.18603171941E+04  0.50400001928E-02 0.  1.
       -1    1    3    3    0  502 -0.88990127678E+03 -0.51234216437E+03  0.36983606397E+03  0.10914199421E+04  0.50400001928E-02 0. -1.
</event>
<event>
 5   0  0.2628425E-06  0.2995859E+04  0.7818609E-02  0.8244914E-01
        1   -1    0    0  501    0  0.00000000000E+00  0.00000000000E+00  0.14360319376E+04  0.14360319376E+04  0.50400001928E-02 0.  1.
       -1   -1    0    0    0  501  0.00000000000E+00  0.00000000000E+00 -0.15624952388E+04  0.15624952388E+04  0.50400001928E-02 0. -1.
    10030    2    1    2    0    0  0.00000000000E+00  0.00000000000E+00 -0.12646330124E+03  0.29985271764E+04  0.29958591858E+04 0.  0.
        1    1    3    3  502    0  0.11170810656E+04  0.11280160926E+03 -0.10556784899E+04  0.15411201719E+04  0.50400001928E-02 0. -1.
       -1    1    3    3    0  502 -0.11170810656E+04 -0.11280160926E+03  0.92921518862E+03  0.14574070046E+04  0.50400001928E-02 0.  1.
</event>
<event>
 5   0  0.2552990E-06  0.2992203E+04  0.7818609E-02  0.8245961E-01
       -1   -1    0    0    0  501  0.00000000000E+00  0.00000000000E+00  0.16312395496E+04  0.16312395496E+04  0.50400001928E-02 0.  1.
        1   -1    0    0  501    0  0.00000000000E+00  0.00000000000E+00 -0.13721588655E+04  0.13721588655E+04  0.50400001928E-02 0. -1.
    10030    2    1    2    0    0  0.00000000000E+00  0.00000000000E+00  0.25908068413E+03  0.30033984151E+04  0.29922030745E+04 0.  0.
        3    1    3    3  502    0  0.38776866082E+03  0.13336232956E+04  0.68786262905E+03  0.15498614891E+04  0.10100000352E+00 0.  1.
       -3    1    3    3    0  502 -0.38776866082E+03 -0.13336232956E+04 -0.42878194492E+03  0.14535369260E+04  0.10100000352E+00 0. -1.
</event>
<event>
 5   0  0.6780150E-06  0.2879899E+04  0.7818609E-02  0.8278883E-01
        2   -1    0    0  501    0  0.00000000000E+00  0.00000000000E+00  0.23672457351E+04  0.23672457351E+04  0.25500000920E-02 0.  1.
       -2   -1    0    0    0  501  0.00000000000E+00  0.00000000000E+00 -0.87589301255E+03  0.87589301255E+03  0.25500000920E-02 0. -1.
    10030    2    1    2    0    0  0.00000000000E+00  0.00000000000E+00  0.14913527226E+04  0.32431387477E+04  0.28798986082E+04 0.  0.
        5    1    3    3  502    0  0.93953116002E+03 -0.10719314605E+04  0.51578025544E+03  0.15158519778E+04  0.46999998093E+01 0. -1.
       -5    1    3    3    0  502 -0.93953116002E+03  0.10719314605E+04  0.97557246714E+03  0.17272867699E+04  0.46999998093E+01 0.  1.
</event>
<event>
 5   0  0.2504260E-06  0.2961924E+04  0.7818609E-02  0.8254688E-01
       -1   -1    0    0    0  501  0.00000000000E+00  0.00000000000E+00  0.89911124767E+03  0.89911124769E+03  0.50400001928E-02 0.  1.
        1   -1    0    0  501    0  0.00000000000E+00  0.00000000000E+00 -0.24393522963E+04  0.24393522963E+04  0.50400001928E-02 0. -1.
    10030    2    1    2    0    0  0.00000000000E+00  0.00000000000E+00 -0.15402410487E+04  0.33384635440E+04  0.29619244330E+04 0.  0.
        4    1    3    3  502    0  0.11482279950E+04  0.84364323696E+03 -0.12252983004E+04  0.18792336144E+04  0.12699999809E+01 0.  1.
       -4    1    3    3    0  502 -0.11482279950E+04 -0.84364323696E+03 -0.31494274827E+03  0.14592299296E+04  0.12699999809E+01 0. -1.
</event>
<event>
 5   0  0.2628425E-06  0.3009871E+04  0.7818609E-02  0.8240918E-01
        1   -1    0    0  501    0  0.00000000000E+00  0.00000000000E+00  0.13237916223E+04  0.13237916223E+04  0.50400001928E-02 0. -1.
       -1   -1    0    0    0  501  0.00000000000E+00  0.00000000000E+00 -0.17108668054E+04  0.17108668054E+04  0.50400001928E-02 0.  1.
    10030    2    1    2    0    0  0.00000000000E+00  0.00000000000E+00 -0.38707518313E+03  0.30346584277E+04  0.30098711892E+04 0.  0.
        1    1    3    3  502    0  0.44491824350E+03 -0.49773317097E+03 -0.15534002166E+04  0.16907817085E+04  0.50400001928E-02 0.  1.
       -1    1    3    3    0  502 -0.44491824350E+03  0.49773317097E+03  0.11663250334E+04  0.13438767192E+04  0.50400001928E-02 0. -1.
</event>
<event>
 5   0  0.2552990E-06  0.3008085E+04  0.7818609E-02  0.8241426E-01
       -1   -1    0    0    0  501  0.00000000000E+00  0.00000000000E+00  0.12956462791E+04  0.12956462791E+04  0.50400001928E-02 0.  1.
        1   -1    0    0  501    0  0.00000000000E+00  0.00000000000E+00 -0.17459583279E+04  0.17459583279E+04  0.50400001928E-02 0. -1.
    10030    2    1    2    0    0  0.00000000000E+00  0.00000000000E+00 -0.45031204874E+03  0.30416046070E+04  0.30080853784E+04 0.  0.
        3    1    3    3  502    0  0.10276085151E+04  0.88711227416E+03  0.42951279615E+03  0.14238780494E+04  0.10100000352E+00 0.  1.
       -3    1    3    3    0  502 -0.10276085151E+04 -0.88711227416E+03 -0.87982484489E+03  0.16177265576E+04  0.10100000352E+00 0. -1.
</event>
<event>
 5   0  0.6780150E-06  0.2519307E+04  0.7818609E-02  0.8396139E-01
       -2   -1    0    0    0  501  0.00000000000E+00  0.00000000000E+00  0.84057668655E+03  0.84057668656E+03  0.25500000920E-02 0.  1.
        2   -1    0    0  501    0  0.00000000000E+00  0.00000000000E+00 -0.18876645625E+04  0.18876645625E+04  0.25500000920E-02 0. -1.
    10030    2    1    2    0    0  0.00000000000E+00  0.00000000000E+00 -0.10470878759E+04  0.27282412490E+04  0.25193069073E+04 0.  0.
        5    1    3    3  502    0  0.66901776899E+03 -0.83398650505E+02 -0.16758198511E+04  0.18063594254E+04  0.46999998093E+01 0. -1.
       -5    1    3    3    0  502 -0.66901776899E+03  0.83398650505E+02  0.62873197522E+03  0.92188182366E+03  0.46999998093E+01 0.  1.
</event>
<event>
 5   0  0.7193153E-06  0.3023415E+04  0.7818609E-02  0.8237076E-01
       -2   -1    0    0    0  501  0.00000000000E+00  0.00000000000E+00  0.84633743108E+03  0.84633743108E+03  0.25500000920E-02 0.  1.
        2   -1    0    0  501    0  0.00000000000E+00  0.00000000000E+00 -0.27001747065E+04  0.27001747065E+04  0.25500000920E-02 0. -1.
    10030    2    1    2    0    0  0.00000000000E+00  0.00000000000E+00 -0.18538372754E+04  0.35465121376E+04  0.30234145760E+04 0.  0.
        4    1    3    3  502    0 -0.98768485088E+03  0.97966827459E+03 -0.23296717455E+03  0.14105128891E+04  0.12699999809E+01 0.  1.
       -4    1    3    3    0  502  0.98768485088E+03 -0.97966827459E+03 -0.16208701008E+04  0.21359992485E+04  0.12699999809E+01 0. -1.
</event>
<event>
 5   0  0.2672155E-06  0.2942156E+04  0.7818609E-02  0.8260444E-01
       -1   -1    0    0    0  501  0.00000000000E+00  0.00000000000E+00  0.97933050011E+03  0.97933050012E+03  0.50400001928E-02 0.  1.
        1   -1    0    0  501    0  0.00000000000E+00  0.00000000000E+00 -0.22097448193E+04  0.22097448193E+04  0.50400001928E-02 0. -1.
    10030    2    1    2    0    0  0.00000000000E+00  0.00000000000E+00 -0.12304143192E+04  0.31890753195E+04  0.29421560115E+04 0.  0.
        5    1    3    3  502    0 -0.93889841152E+03  0.90268050203E+02 -0.18388278851E+04  0.20666370337E+04  0.46999998093E+01 0. -1.
       -5    1    3    3    0  502  0.93889841152E+03 -0.90268050203E+02  0.60841356593E+03  0.11224382857E+04  0.46999998093E+01 0.  1.
</event>
<event>
 5   0  0.7193153E-06  0.2980266E+04  0.7818609E-02  0.8249389E-01
        2   -1    0    0  501    0  0.00000000000E+00  0.00000000000E+00  0.14601069338E+04  0.14601069338E+04  0.25500000920E-02 0. -1.
       -2   -1    0    0    0  501  0.00000000000E+00  0.00000000000E+00 -0.15207765692E+04  0.15207765692E+04  0.25500000920E-02 0.  1.
    10030    2    1    2    0    0  0.00000000000E+00  0.00000000000E+00 -0.60669635356E+02  0.29808835030E+04  0.29802660375E+04 0.  0.
        4    1    3    3  502    0  0.99250869314E+03  0.88390870049E+03  0.64369403894E+03  0.14767233070E+04  0.12699999809E+01 0.  1.
       -4    1    3    3    0  502 -0.99250869314E+03 -0.88390870049E+03 -0.70436367430E+03  0.15041601960E+04  0.12699999809E+01 0. -1.
</event>
<event>
 5   0  0.2552990E-06  0.2849038E+04  0.7818609E-02  0.8288204E-01
       -1   -1    0    0    0  501  0.00000000000E+00  0.00000000000E+00  0.21469556551E+04  0.21469556551E+04  0.50400001928E-02 0.  1.
        1   -1    0    0  501    0  0.00000000000E+00  0.00000000000E+00 -0.94517774709E+03  0.94517774710E+03  0.50400001928E-02 0. -1.
    10030    2    1    2    0    0  0.00000000000E+00  0.00000000000E+00  0.12017779080E+04  0.30921334022E+04  0.28490382302E+04 0.  0.
        3    1    3    3  502    0 -0.61856968579E+03 -0.87429307262E+03  0.16203081148E+04  0.19422706377E+04  0.10100000352E+00 0.  1.
       -3    1    3    3    0  502  0.61856968579E+03  0.87429307262E+03 -0.41853020679E+03  0.11498627645E+04  0.10100000352E+00 0. -1.
</event>
<event>
 5   0  0.6792811E-06  0.2990794E+04  0.7818609E-02  0.8246365E-01
       -2   -1    0    0    0  501  0.00000000000E+00  0.00000000000E+00  0.13190385498E+04  0.13190385498E+04  0.25500000920E-02 0.  1.
        2   -1    0    0  501    0  0.00000000000E+00  0.00000000000E+00 -0.16953351285E+04  0.16953351285E+04  0.25500000920E-02 0. -1.
    10030    2    1    2    0    0  0.00000000000E+00  0.00000000000E+00 -0.37629657868E+03  0.30143736783E+04  0.29907941349E+04 0.  0.
        2    1    3    3  502    0 -0.54513740948E+03  0.13546534200E+04 -0.51310564990E+03  0.15477525938E+04  0.25500000920E-02 0.  1.
       -2    1    3    3    0  502  0.54513740948E+03 -0.13546534200E+04  0.13680907122E+03  0.14666210845E+04  0.25500000920E-02 0. -1.
</event>
<event>
 5   0  0.7217255E-06  0.3454632E+04  0.7818609E-02  0.8124627E-01
       -2   -1    0    0    0  501  0.00000000000E+00  0.00000000000E+00  0.12361271699E+04  0.12361271699E+04  0.25500000920E-02 0. -1.
        2   -1    0    0  501    0  0.00000000000E+00  0.00000000000E+00 -0.24136837522E+04  0.24136837522E+04  0.25500000920E-02 0.  1.
    10030    2    1    2    0    0  0.00000000000E+00  0.00000000000E+00 -0.11775565823E+04  0.36498109221E+04  0.34546317116E+04 0.  0.
        1    1    3    3  502    0  0.10042943396E+04  0.12152920795E+04  0.15684134609E+03  0.15843425030E+04  0.50400001928E-02 0. -1.
       -1    1    3    3    0  502 -0.10042943396E+04 -0.12152920795E+04 -0.13343979284E+04  0.20654684191E+04  0.50400001928E-02 0.  1.
</event>
<event>
 5   0  0.2504260E-06  0.3009148E+04  0.7818609E-02  0.8241123E-01
        1   -1    0    0  501    0  0.00000000000E+00  0.00000000000E+00  0.14931978544E+04  0.14931978544E+04  0.50400001928E-02 0. -1.
       -1   -1    0    0    0  501  0.00000000000E+00  0.00000000000E+00 -0.15160369454E+04  0.15160369455E+04  0.50400001928E-02 0.  1.
    10030    2    1    2    0    0  0.00000000000E+00  0.00000000000E+00 -0.22839091011E+02  0.30092347999E+04  0.30091481281E+04 0.  0.
        4    1    3    3  502    0 -0.53622042559E+03  0.12931410348E+03  0.13884375537E+04  0.14939929503E+04  0.12699999809E+01 0. -1.
       -4    1    3    3    0  502  0.53622042559E+03 -0.12931410348E+03 -0.14112766447E+04  0.15152418496E+04  0.12699999809E+01 0.  1.
</event>
<event>
 5   0  0.7217255E-06  0.2979996E+04  0.7818609E-02  0.8249466E-01
       -2   -1    0    0    0  501  0.00000000000E+00  0.00000000000E+00  0.91540730913E+03  0.91540730913E+03  0.25500000920E-02 0. -1.
        2   -1    0    0  501    0  0.00000000000E+00  0.00000000000E+00 -0.24252531440E+04  0.24252531440E+04  0.25500000920E-02 0.  1.
    10030    2    1    2    0    0  0.00000000000E+00  0.00000000000E+00 -0.15098458348E+04  0.33406604531E+04  0.29799962782E+04 0.  0.
        1    1    3    3  502    0 -0.16728773154E+03  0.24285497345E+03  0.88236610676E+03  0.93034062022E+03  0.50400001928E-02 0. -1.
       -1    1    3    3    0  502  0.16728773154E+03 -0.24285497345E+03 -0.23922119416E+04  0.24103198329E+04  0.50400001928E-02 0.  1.
</event>
<event>
 5   0  0.2422083E-06  0.2977803E+04  0.7818609E-02  0.8250098E-01
        1   -1    0    0  501    0  0.00000000000E+00  0.00000000000E+00  0.29794540008E+04  0.29794540008E+04  0.50400001928E-02 0. -1.
       -1   -1    0    0    0  501  0.00000000000E+00  0.00000000000E+00 -0.74403810450E+03  0.74403810452E+03  0.50400001928E-02 0.  1.
    10030    2    1    2    0    0  0.00000000000E+00  0.00000000000E+00  0.22354158963E+04  0.37234921054E+04  0.29778027519E+04 0.  0.
        2    1    3    3  502    0 -0.14403809290E+04  0.30962224614E+03  0.84875468988E+03  0.17002787065E+04  0.25500000920E-02 0.  1.
       -2    1    3    3    0  502  0.14403809290E+04 -0.30962224614E+03  0.13866612065E+04  0.20232133989E+04  0.25500000920E-02 0. -1.
</event>
<event>
 5   0  0.7193153E-06  0.2991416E+04  0.7818609E-02  0.8246186E-01
        2   -1    0    0  501    0  0.00000000000E+00  0.00000000000E+00  0.19379343846E+04  0.19379343846E+04  0.25500000920E-02 0. -1.
       -2   -1    0    0    0  501  0.00000000000E+00  0.00000000000E+00 -0.11543955862E+04  0.11543955862E+04  0.25500000920E-02 0.  1.
    10030    2    1    2    0    0  0.00000000000E+00  0.00000000000E+00  0.78353879842E+03  0.30923299707E+04  0.29914163199E+04 0.  0.
        4    1    3    3  502    0 -0.55832156947E+03  0.13468369513E+04  0.46668445000E+02  0.14587228335E+04  0.12699999809E+01 0. -1.
       -4    1    3    3    0  502  0.55832156947E+03 -0.13468369513E+04  0.73687035342E+03  0.16336071373E+04  0.12699999809E+01 0.  1.
</event>
<event>
 5   0  0.7201538E-06  0.3043266E+04  0.7818609E-02  0.8231483E-01
        2   -1    0    0  501    0  0.00000000000E+00  0.00000000000E+00  0.21459205852E+04  0.21459205852E+04  0.25500000920E-02 0. -1.
       -2   -1    0    0    0  501  0.00000000000E+00  0.00000000000E+00 -0.10789620809E+04  0.10789620809E+04  0.25500000920E-02 0.  1.
    10030    2    1    2    0    0  0.00000000000E+00  0.00000000000E+00  0.10669585044E+04  0.32248826661E+04  0.30432659693E+04 0.  0.
        3    1    3    3  502    0  0.11004076031E+04  0.90960417069E+03 -0.24328648801E+02  0.14278895383E+04  0.10100000352E+00 0.  1.
       -3    1    3    3    0  502 -0.11004076031E+04 -0.90960417069E+03  0.10912871532E+04  0.17969931278E+04  0.10100000352E+00 0. -1.
</event>
<event>
 5   0  0.2422083E-06  0.2778208E+04  0.7818609E-02  0.8310066E-01
        1   -1    0    0  501    0  0.00000000000E+00  0.00000000000E+00  0.16326976333E+04  0.16326976333E+04  0.50400001928E-02 0. -1.
       -1   -1    0    0    0  501  0.00000000000E+00  0.00000000000E+00 -0.11818534433E+04  0.11818534433E+04  0.50400001928E-02 0.  1.
    10030    2    1    2    0    0  0.00000000000E+00  0.00000000000E+00  0.45084418999E+03  0.28145510766E+04  0.27782075659E+04 0.  0.
        2    1    3    3  502    0 -0.19605973761E+03  0.13587957365E+04  0.43995644399E+03  0.14416403667E+04  0.25500000920E-02 0. -1.
       -2    1    3    3    0  502  0.19605973761E+03 -0.13587957365E+04  0.10887745993E+02  0.13729107099E+04  0.25500000920E-02 0.  1.
</event>
<event>
 5   0  0.2504260E-06  0.3010208E+04  0.7818609E-02  0.8240822E-01
        1   -1    0    0  501    0  0.00000000000E+00  0.00000000000E+00  0.14193932398E+04  0.14193932398E+04  0.50400001928E-02 0. -1.
       -1   -1    0    0    0  501  0.00000000000E+00  0.00000000000E+00 -0.15959900027E+04  0.15959900027E+04  0.50400001928E-02 0.  1.
    10030    2    1    2    0    0  0.00000000000E+00  0.00000000000E+00 -0.17659676284E+03  0.30153832425E+04  0.30102075813E+04 0.  0.
        4    1    3    3  502    0  0.33964217097E+02 -0.98515289738E+03  0.10510472114E+04  0.14409655280E+04  0.12699999809E+01 0. -1.
       -4    1    3    3    0  502 -0.33964217097E+02  0.98515289738E+03 -0.12276439743E+04  0.15744177145E+04  0.12699999809E+01 0.  1.
</event>
<event>
 5   0  0.2552990E-06  0.2993472E+04  0.7818609E-02  0.8245597E-01
       -1   -1    0    0    0  501  0.00000000000E+00  0.00000000000E+00  0.11074212735E+04  0.11074212735E+04  0.50400001928E-02 0.  1.
        1   -1    0    0  501    0  0.00000000000E+00  0.00000000000E+00 -0.20229146478E+04  0.20229146478E+04  0.50400001928E-02 0. -1.
    10030    2    1    2    0    0  0.00000000000E+00  0.00000000000E+00 -0.91549337430E+03  0.31303359213E+04  0.29934720412E+04 0.  0.
        3    1    3    3  502    0 -0.13526733035E+04  0.63496897771E+03 -0.36835109707E+03  0.15390234597E+04  0.10100000352E+00 0. -1.
       -3    1    3    3    0  502  0.13526733035E+04 -0.63496897771E+03 -0.54714227723E+03  0.15913124616E+04  0.10100000352E+00 0.  1.
</event>
<event>
 5   0  0.2552990E-06  0.3017595E+04  0.7818609E-02  0.8238724E-01
        1   -1    0    0  501    0  0.00000000000E+00  0.00000000000E+00  0.12598510506E+04  0.12598510506E+04  0.50400001928E-02 0.  1.
       -1   -1    0    0    0  501  0.00000000000E+00  0.00000000000E+00 -0.18069358692E+04  0.18069358693E+04  0.50400001928E-02 0. -1.
    10030    2    1    2    0    0  0.00000000000E+00  0.00000000000E+00 -0.54708481869E+03  0.30667869198E+04  0.30175951042E+04 0.  0.
        3    1    3    3  502    0  0.29456588192E+02  0.11469668286E+04  0.72226180568E+03  0.13557517187E+04  0.10100000352E+00 0.  1.
       -3    1    3    3    0  502 -0.29456588192E+02 -0.11469668286E+04 -0.12693466244E+04  0.17110352011E+04  0.10100000352E+00 0. -1.
</event>
<event>
 5   0  0.7201538E-06  0.3011831E+04  0.7818609E-02  0.8240361E-01
       -2   -1    0    0    0  501  0.00000000000E+00  0.00000000000E+00  0.16891719526E+04  0.16891719526E+04  0.25500000920E-02 0. -1.
        2   -1    0    0  501    0  0.00000000000E+00  0.00000000000E+00 -0.13425400573E+04  0.13425400573E+04  0.25500000920E-02 0.  1.
    10030    2    1    2    0    0  0.00000000000E+00  0.00000000000E+00  0.34663189531E+03  0.30317120099E+04  0.30118306792E+04 0.  0.
        3    1    3    3  502    0  0.99908334659E+03  0.99746006495E+03 -0.35424951166E+03  0.14555366163E+04  0.10100000352E+00 0.  1.
       -3    1    3    3    0  502 -0.99908334659E+03 -0.99746006495E+03  0.70088140697E+03  0.15761753936E+04  0.10100000352E+00 0. -1.
</event>
<event>
 5   0  0.6780150E-06  0.2964815E+04  0.7818609E-02  0.8253850E-01
        2   -1    0    0  501    0  0.00000000000E+00  0.00000000000E+00  0.13432820722E+04  0.13432820722E+04  0.25500000920E-02 0. -1.
       -2   -1    0    0    0  501  0.00000000000E+00  0.00000000000E+00 -0.16359423183E+04  0.16359423183E+04  0.25500000920E-02 0.  1.
    10030    2    1    2    0    0  0.00000000000E+00  0.00000000000E+00 -0.29266024616E+03  0.29792243905E+04  0.29648149941E+04 0.  0.
        5    1    3    3  502    0  0.69770926181E+03  0.12921003419E+04 -0.35026571256E+03  0.15096455435E+04  0.46999998093E+01 0.  1.
       -5    1    3    3    0  502 -0.69770926181E+03 -0.12921003419E+04  0.57605466405E+02  0.14695788470E+04  0.46999998093E+01 0. -1.
</event>
<event>
 5   0  0.6792811E-06  0.3034260E+04  0.7818609E-02  0.8234015E-01
       -2   -1    0    0    0  501  0.00000000000E+00  0.00000000000E+00  0.75853108278E+03  0.75853108278E+03  0.25500000920E-02 0.  1.
        2   -1    0    0  501    0  0.00000000000E+00  0.00000000000E+00 -0.30343964050E+04  0.30343964050E+04  0.25500000920E-02 0. -1.
    10030    2    1    2    0    0  0.00000000000E+00  0.00000000000E+00 -0.22758653222E+04  0.37929274878E+04  0.30342603650E+04 0.  0.
        2    1    3    3  502    0  0.96652318827E+03  0.64739561305E+03 -0.23552856194E+04  0.26269104481E+04  0.25500000920E-02 0. -1.
       -2    1    3    3    0  502 -0.96652318827E+03 -0.64739561305E+03  0.79420297188E+02  0.11660170397E+04  0.25500000920E-02 0.  1.
</event>
<event>
 5   0  0.2628425E-06  0.3129384E+04  0.7818609E-02  0.8207720E-01
       -1   -1    0    0    0  501  0.00000000000E+00  0.00000000000E+00  0.16998209423E+04  0.16998209423E+04  0.50400001928E-02 0. -1.
        1   -1    0    0  501    0  0.00000000000E+00  0.00000000000E+00 -0.14403054185E+04  0.14403054185E+04  0.50400001928E-02 0.  1.
    10030    2    1    2    0    0  0.00000000000E+00  0.00000000000E+00  0.25951552378E+03  0.31401263609E+04  0.31293841655E+04 0.  0.
        1    1    3    3  502    0 -0.69490049969E+03  0.11177326605E+04 -0.71934334242E+03  0.14998892790E+04  0.50400001928E-02 0.  1.
       -1    1    3    3    0  502  0.69490049969E+03 -0.11177326605E+04  0.97885886620E+03  0.16402370819E+04  0.50400001928E-02 0. -1.
</event>
<event>
 5   0  0.6792811E-06  0.3082145E+04  0.7818609E-02  0.8220655E-01
        2   -1    0    0  501    0  0.00000000000E+00  0.00000000000E+00  0.29347971862E+04  0.29347971862E+04  0.25500000920E-02 0. -1.
       -2   -1    0    0    0  501  0.00000000000E+00  0.00000000000E+00 -0.80922245479E+03  0.80922245479E+03  0.25500000920E-02 0.  1.
    10030    2    1    2    0    0  0.00000000000E+00  0.00000000000E+00  0.21255747314E+04  0.37440196410E+04  0.30821445672E+04 0.  0.
        2    1    3    3  502    0  0.42000453592E+03 -0.10437976124E+04  0.23420162180E+04  0.25982604241E+04  0.25500000920E-02 0. -1.
       -2    1    3    3    0  502 -0.42000453592E+03  0.10437976124E+04 -0.21644148666E+03  0.11457592169E+04  0.25500000920E-02 0.  1.
</event>
<event>
 5   0  0.2628425E-06  0.3014870E+04  0.7818609E-02  0.8239497E-01
        1   -1    0    0  501    0  0.00000000000E+00  0.00000000000E+00  0.15826541096E+04  0.15826541096E+04  0.50400001928E-02 0. -1.
       -1   -1    0    0    0  501  0.00000000000E+00  0.00000000000E+00 -0.14357909695E+04  0.14357909695E+04  0.50400001928E-02 0.  1.
    10030    2    1    2    0    0  0.00000000000E+00  0.00000000000E+00  0.14686314002E+03  0.30184450791E+04  0.30148701321E+04 0.  0.
        1    1    3    3  502    0 -0.91204139375E+03 -0.95741824679E+03  0.79809317549E+03  0.15444811167E+04  0.50400001928E-02 0. -1.
       -1    1    3    3    0  502  0.91204139375E+03  0.95741824679E+03 -0.65123003547E+03  0.14739639624E+04  0.50400001928E-02 0.  1.
</event>
<event>
 5   0  0.2672155E-06  0.2762240E+04  0.7818609E-02  0.8315088E-01
       -1   -1    0    0    0  501  0.00000000000E+00  0.00000000000E+00  0.18677233682E+04  0.18677233682E+04  0.50400001928E-02 0. -1.
        1   -1    0    0  501    0  0.00000000000E+00  0.00000000000E+00 -0.10212929338E+04  0.10212929338E+04  0.50400001928E-02 0.  1.
    10030    2    1    2    0    0  0.00000000000E+00  0.00000000000E+00  0.84643043437E+03  0.28890163020E+04  0.27622401621E+04 0.  0.
        5    1    3    3  502    0  0.33291235432E+03  0.95928358964E+03 -0.55592174391E+03  0.11576384221E+04  0.46999998093E+01 0.  1.
       -5    1    3    3    0  502 -0.33291235432E+03 -0.95928358964E+03  0.14023521783E+04  0.17313778799E+04  0.46999998093E+01 0. -1.
</event>
<event>
 5   0  0.7193153E-06  0.2990982E+04  0.7818609E-02  0.8246311E-01
       -2   -1    0    0    0  501  0.00000000000E+00  0.00000000000E+00  0.10628718016E+04  0.10628718016E+04  0.25500000920E-02 0. -1.
        2   -1    0    0  501    0  0.00000000000E+00  0.00000000000E+00 -0.21041992552E+04  0.21041992552E+04  0.25500000920E-02 0.  1.
    10030    2    1    2    0    0  0.00000000000E+00  0.00000000000E+00 -0.10413274537E+04  0.31670710568E+04  0.29909824829E+04 0.  0.
        4    1    3    3  502    0  0.78989707116E+03  0.38093551712E+03 -0.18033622251E+04  0.20052845631E+04  0.12699999809E+01 0.  1.
       -4    1    3    3    0  502 -0.78989707116E+03 -0.38093551712E+03  0.76203477142E+03  0.11617864937E+04  0.12699999809E+01 0. -1.
</event>
<event>
 5   0  0.2552990E-06  0.3046379E+04  0.7818609E-02  0.8230610E-01
       -1   -1    0    0    0  501  0.00000000000E+00  0.00000000000E+00  0.30841832624E+04  0.30841832624E+04  0.50400001928E-02 0. -1.
        1   -1    0    0  501    0  0.00000000000E+00  0.00000000000E+00 -0.75225945321E+03  0.75225945323E+03  0.50400001928E-02 0.  1.
    10030    2    1    2    0    0  0.00000000000E+00  0.00000000000E+00  0.23319238092E+04  0.38364427156E+04  0.30463788435E+04 0.  0.
        3    1    3    3  502    0  0.76377232436E+03  0.10008840424E+04  0.22456174492E+04  0.25744736876E+04  0.10100000352E+00 0. -1.
       -3    1    3    3    0  502 -0.76377232436E+03 -0.10008840424E+04  0.86306360000E+02  0.12619690280E+04  0.10100000352E+00 0.  1.
</event>
<event>
 5   0  0.2298500E-06  0.2941378E+04  0.7818609E-02  0.8260672E-01
       -3   -1    0    0    0  501  0.00000000000E+00  0.00000000000E+00  0.16369122104E+04  0.16369122135E+04  0.10100000352E+00 0. -1.
        3   -1    0    0  501    0  0.00000000000E+00  0.00000000000E+00 -0.13213448687E+04  0.13213448726E+04  0.10100000352E+00 0.  1.
    10030    2    1    2    0    0  0.00000000000E+00  0.00000000000E+00  0.31556734168E+03  0.29582570861E+04  0.29413776093E+04 0.  0.
        5    1    3    3  502    0  0.30234239080E+03  0.14176643638E+04  0.40764505838E+03  0.15057821068E+04  0.46999998093E+01 0.  1.
       -5    1    3    3    0  502 -0.30234239080E+03 -0.14176643638E+04 -0.92077716701E+02  0.14524749793E+04  0.46999998093E+01 0. -1.
</event>
<event>
 5   0  0.2628425E-06  0.3002783E+04  0.7818609E-02  0.8242937E-01
       -1   -1    0    0    0  501  0.00000000000E+00  0.00000000000E+00  0.10494238205E+04  0.10494238206E+04  0.50400001928E-02 0.  1.
        1   -1    0    0  501    0  0.00000000000E+00  0.00000000000E+00 -0.21480136028E+04  0.21480136028E+04  0.50400001928E-02 0. -1.
    10030    2    1    2    0    0  0.00000000000E+00  0.00000000000E+00 -0.10985897822E+04  0.31974374233E+04  0.30027831368E+04 0.  0.
        1    1    3    3  502    0  0.13445743488E+04  0.32830613200E+03 -0.11688284389E+04  0.18115808057E+04  0.50400001928E-02 0. -1.
       -1    1    3    3    0  502 -0.13445743488E+04 -0.32830613200E+03  0.70238656640E+02  0.13858566177E+04  0.50400001928E-02 0.  1.
</event>
<event>
 5   0  0.2422083E-06  0.2999399E+04  0.7818609E-02  0.8243903E-01
        1   -1    0    0  501    0  0.00000000000E+00  0.00000000000E+00  0.19603162492E+04  0.19603162492E+04  0.50400001928E-02 0.  1.
       -1   -1    0    0    0  501  0.00000000000E+00  0.00000000000E+00 -0.11473141223E+04  0.11473141223E+04  0.50400001928E-02 0. -1.
    10030    2    1    2    0    0  0.00000000000E+00  0.00000000000E+00  0.81300212694E+03  0.31076303716E+04  0.29993989511E+04 0.  0.
        2    1    3    3  502    0  0.39705271976E+03  0.12668824710E+04 -0.31613080325E+03  0.13647639878E+04  0.25500000920E-02 0. -1.
       -2    1    3    3    0  502 -0.39705271976E+03 -0.12668824710E+04  0.11291329302E+04  0.17428663838E+04  0.25500000920E-02 0.  1.
</event>
<event>
 5   0  0.2504260E-06  0.2986238E+04  0.7818609E-02  0.8247672E-01
        1   -1    0    0  501    0  0.00000000000E+00  0.00000000000E+00  0.13058423482E+04  0.13058423482E+04  0.50400001928E-02 0.  1.
       -1   -1    0    0    0  501  0.00000000000E+00  0.00000000000E+00 -0.17072538415E+04  0.17072538415E+04  0.50400001928E-02 0. -1.
    10030    2    1    2    0    0  0.00000000000E+00  0.00000000000E+00 -0.40141149328E+03  0.30130961897E+04  0.29862380116E+04 0.  0.
        4    1    3    3  502    0  0.13760097112E+04 -0.12320703047E+03 -0.77220982167E+03  0.15826851611E+04  0.12699999809E+01 0. -1.
       -4    1    3    3    0  502 -0.13760097112E+04  0.12320703047E+03  0.37079832839E+03  0.14304110286E+04  0.12699999809E+01 0.  1.
</event>
<event>
 5   0  0.2298500E-06  0.2971417E+04  0.7818609E-02  0.8251940E-01
        3   -1    0    0  501    0  0.00000000000E+00  0.00000000000E+00  0.23255452401E+04  0.23255452423E+04  0.10100000352E+00 0.  1.
       -3   -1    0    0    0  501  0.00000000000E+00  0.00000000000E+00 -0.94916627772E+03  0.94916628309E+03  0.10100000352E+00 0. -1.
    10030    2    1    2    0    0  0.00000000000E+00  0.00000000000E+00  0.13763789623E+04  0.32747115254E+04  0.29714165858E+04 0.  0.
        4    1    3    3  502    0  0.70328739470E+03 -0.21492843813E+03  0.21108942476E+04  0.22353262694E+04  0.12699999809E+01 0.  1.
       -4    1    3    3    0  502 -0.70328739470E+03  0.21492843813E+03 -0.73451528530E+03  0.10393852560E+04  0.12699999809E+01 0. -1.
</event>
<event>
 5   0  0.7217255E-06  0.2951855E+04  0.7818609E-02  0.8257614E-01
        2   -1    0    0  501    0  0.00000000000E+00  0.00000000000E+00  0.12470077703E+04  0.12470077703E+04  0.25500000920E-02 0.  1.
       -2   -1    0    0    0  501  0.00000000000E+00  0.00000000000E+00 -0.17468711915E+04  0.17468711915E+04  0.25500000920E-02 0. -1.
    10030    2    1    2    0    0  0.00000000000E+00  0.00000000000E+00 -0.49986342121E+03  0.29938789618E+04  0.29518549758E+04 0.  0.
        1    1    3    3  502    0 -0.10183695155E+03 -0.14544275165E+04 -0.17249453897E+02  0.14580904324E+04  0.50400001928E-02 0. -1.
       -1    1    3    3    0  502  0.10183695155E+03  0.14544275165E+04 -0.48261396732E+03  0.15357885294E+04  0.50400001928E-02 0.  1.
</event>
<event>
 5   0  0.2422083E-06  0.2973718E+04  0.7818609E-02  0.8251276E-01
        1   -1    0    0  501    0  0.00000000000E+00  0.00000000000E+00  0.13448968144E+04  0.13448968144E+04  0.50400001928E-02 0.  1.
       -1   -1    0    0    0  501  0.00000000000E+00  0.00000000000E+00 -0.16438064242E+04  0.16438064242E+04  0.50400001928E-02 0. -1.
    10030    2    1    2    0    0  0.00000000000E+00  0.00000000000E+00 -0.29890960975E+03  0.29887032386E+04  0.29737182270E+04 0.  0.
        2    1    3    3  502    0  0.10182281646E+04  0.60456372523E+03  0.75422246237E+03  0.14039720139E+04  0.25500000920E-02 0.  1.
       -2    1    3    3    0  502 -0.10182281646E+04 -0.60456372523E+03 -0.10531320721E+04  0.15847312247E+04  0.25500000920E-02 0. -1.
</event>
<event>
 5   0  0.7201538E-06  0.2985952E+04  0.7818609E-02  0.8247754E-01
       -2   -1    0    0    0  501  0.00000000000E+00  0.00000000000E+00  0.12082915923E+04  0.12082915923E+04  0.25500000920E-02 0.  1.
        2   -1    0    0  501    0  0.00000000000E+00  0.00000000000E+00 -0.18447347053E+04  0.18447347053E+04  0.25500000920E-02 0. -1.
    10030    2    1    2    0    0  0.00000000000E+00  0.00000000000E+00 -0.63644311297E+03  0.30530262977E+04  0.29859520656E+04 0.  0.
        3    1    3    3  502    0 -0.64269788767E+03 -0.12910178380E+04  0.76705844469E+02  0.14441853862E+04  0.10100000352E+00 0. -1.
       -3    1    3    3    0  502  0.64269788767E+03  0.12910178380E+04 -0.71314895744E+03  0.16088409115E+04  0.10100000352E+00 0.  1.
</event>
<event>
 5   0  0.2504260E-06  0.3021915E+04  0.7818609E-02  0.8237501E-01
       -1   -1    0    0    0  501  0.00000000000E+00  0.00000000000E+00  0.19528594402E+04  0.19528594402E+04  0.50400001928E-02 0. -1.
        1   -1    0    0  501    0  0.00000000000E+00  0.00000000000E+00 -0.11690507653E+04  0.11690507654E+04  0.50400001928E-02 0.  1.
    10030    2    1    2    0    0  0.00000000000E+00  0.00000000000E+00  0.78380867486E+03  0.31219102056E+04  0.30219145079E+04 0.  0.
        4    1    3    3  502    0  0.74660500608E+03 -0.52586290398E+03 -0.85168883245E+03  0.12487298784E+04  0.12699999809E+01 0.  1.
       -4    1    3    3    0  502 -0.74660500608E+03  0.52586290398E+03  0.16354975073E+04  0.18731803272E+04  0.12699999809E+01 0. -1.
</event>
<event>
 5   0  0.7217255E-06  0.2828986E+04  0.7818609E-02  0.8294325E-01
       -2   -1    0    0    0  501  0.00000000000E+00  0.00000000000E+00  0.10432473355E+04  0.10432473355E+04  0.25500000920E-02 0.  1.
        2   -1    0    0  501    0  0.00000000000E+00  0.00000000000E+00 -0.19178491636E+04  0.19178491636E+04  0.25500000920E-02 0. -1.
    10030    2    1    2    0    0  0.00000000000E+00  0.00000000000E+00 -0.87460182818E+03  0.29610964991E+04  0.28289864120E+04 0.  0.
        1    1    3    3  502    0  0.70790134519E+03  0.33670900549E+03  0.79509240039E+03  0.11165434134E+04  0.50400001928E-02 0.  1.
       -1    1    3    3    0  502 -0.70790134519E+03 -0.33670900549E+03 -0.16696942286E+04  0.18445530857E+04  0.50400001928E-02 0. -1.
</event>
<event>
 5   0  0.2552990E-06  0.3038082E+04  0.7818609E-02  0.8232939E-01
       -1   -1    0    0    0  501  0.00000000000E+00  0.00000000000E+00  0.22056280503E+04  0.22056280503E+04  0.50400001928E-02 0.  1.
        1   -1    0    0  501    0  0.00000000000E+00  0.00000000000E+00 -0.10461806818E+04  0.10461806818E+04  0.50400001928E-02 0. -1.
    10030    2    1    2    0    0  0.00000000000E+00  0.00000000000E+00  0.11594473686E+04  0.32518087321E+04  0.30380819327E+04 0.  0.
        3    1    3    3  502    0 -0.63629686594E+03 -0.13751303531E+04  0.46430321622E+03  0.15847506670E+04  0.10100000352E+00 0. -1.
       -3    1    3    3    0  502  0.63629686594E+03  0.13751303531E+04  0.69514415235E+03  0.16670580651E+04  0.10100000352E+00 0.  1.
</event>
<event>
 5   0  0.7193153E-06  0.2977329E+04  0.7818609E-02  0.8250235E-01
        2   -1    0    0  501    0  0.00000000000E+00  0.00000000000E+00  0.12444591803E+04  0.12444591803E+04  0.25500000920E-02 0.  1.
       -2   -1    0    0    0  501  0.00000000000E+00  0.00000000000E+00 -0.17807911229E+04  0.17807911229E+04  0.25500000920E-02 0. -1.
    10030    2    1    2    0    0  0.00000000000E+00  0.00000000000E+00 -0.53633194252E+03  0.30252503032E+04  0.29773289110E+04 0.  0.
        4    1    3    3  502    0 -0.22340000945E+03  0.46040777150E+03  0.11522748842E+04  0.12608020868E+04  0.12699999809E+01 0.  1.
       -4    1    3    3    0  502  0.22340000945E+03 -0.46040777150E+03 -0.16886068267E+04  0.17644482164E+04  0.12699999809E+01 0. -1.
</event>
<event>
 5   0  0.7193153E-06  0.3025195E+04  0.7818609E-02  0.8236573E-01
       -2   -1    0    0    0  501  0.00000000000E+00  0.00000000000E+00  0.10173900342E+04  0.10173900342E+04  0.25500000920E-02 0.  1.
        2   -1    0    0  501    0  0.00000000000E+00  0.00000000000E+00 -0.22488438630E+04  0.22488438630E+04  0.25500000920E-02 0. -1.
    10030    2    1    2    0    0  0.00000000000E+00  0.00000000000E+00 -0.12314538287E+04  0.32662338972E+04  0.30251950911E+04 0.  0.
        4    1    3    3  502    0 -0.74797686390E+03  0.18722101146E+03 -0.20207302104E+04  0.21628391739E+04  0.12699999809E+01 0. -1.
       -4    1    3    3    0  502  0.74797686390E+03 -0.18722101146E+03  0.78927638163E+03  0.11033947234E+04  0.12699999809E+01 0.  1.
</event>
<event>
 5   0  0.6780150E-06  0.3030840E+04  0.7818609E-02  0.8234979E-01
       -2   -1    0    0    0  501  0.00000000000E+00  0.00000000000E+00  0.15604777929E+04  0.15604777929E+04  0.25500000920E-02 0.  1.
        2   -1    0    0  501    0  0.00000000000E+00  0.00000000000E+00 -0.14716628632E+04  0.14716628632E+04  0.25500000920E-02 0. -1.
    10030    2    1    2    0    0  0.00000000000E+00  0.00000000000E+00  0.88814929662E+02  0.30321406561E+04  0.30308396306E+04 0.  0.
        5    1    3    3  502    0  0.14761730161E+04 -0.33117407741E+03  0.13226363177E+03  0.15186437374E+04  0.46999998093E+01 0. -1.
       -5    1    3    3    0  502 -0.14761730161E+04  0.33117407741E+03 -0.43448702106E+02  0.15134969186E+04  0.46999998093E+01 0.  1.
</event>
<event>
 5   0  0.6792811E-06  0.3013542E+04  0.7818609E-02  0.8239874E-01
       -2   -1    0    0    0  501  0.00000000000E+00  0.00000000000E+00  0.16358246890E+04  0.16358246890E+04  0.25500000920E-02 0. -1.
        2   -1    0    0  501    0  0.00000000000E+00  0.00000000000E+00 -0.13878984765E+04  0.13878984765E+04  0.25500000920E-02 0.  1.
    10030    2    1    2    0    0  0.00000000000E+00  0.00000000000E+00  0.24792621243E+03  0.30237231655E+04  0.30135418323E+04 0.  0.
        2    1    3    3  502    0 -0.53131761973E+02 -0.10220436169E+04 -0.98564945596E+03  0.14208803570E+04  0.25500000920E-02 0.  1.
       -2    1    3    3    0  502  0.53131761973E+02  0.10220436169E+04  0.12335756684E+04  0.16028428085E+04  0.25500000920E-02 0. -1.
</event>
<event>
 5   0  0.7201538E-06  0.2989427E+04  0.7818609E-02  0.8246757E-01
       -2   -1    0    0    0  501  0.00000000000E+00  0.00000000000E+00  0.11377796275E+04  0.11377796275E+04  0.25500000920E-02 0. -1.
        2   -1    0    0  501    0  0.00000000000E+00  0.00000000000E+00 -0.19636211900E+04  0.19636211900E+04  0.25500000920E-02 0.  1.
    10030    2    1    2    0    0  0.00000000000E+00  0.00000000000E+00 -0.82584156256E+03  0.31014008175E+04  0.29894268254E+04 0.  0.
        3    1    3    3  502    0 -0.12635496121E+04 -0.35846722021E+03  0.32732604443E+03  0.13535873521E+04  0.10100000352E+00 0. -1.
       -3    1    3    3    0  502  0.12635496121E+04  0.35846722021E+03 -0.11531676070E+04  0.17478134655E+04  0.10100000352E+00 0.  1.
</event>
<event>
 5   0  0.7201538E-06  0.2701986E+04  0.7818609E-02  0.8334361E-01
       -2   -1    0    0    0  501  0.00000000000E+00  0.00000000000E+00  0.23871614646E+04  0.23871614646E+04  0.25500000920E-02 0. -1.
        2   -1    0    0  501    0  0.00000000000E+00  0.00000000000E+00 -0.76458267750E+03  0.76458267750E+03  0.25500000920E-02 0.  1.
    10030    2    1    2    0    0  0.00000000000E+00  0.00000000000E+00  0.16225787871E+04  0.31517441421E+04  0.27019861615E+04 0.  0.
        3    1    3    3  502    0  0.31723575656E+03 -0.13010971117E+04  0.10189382127E+04  0.16827736957E+04  0.10100000352E+00 0.  1.
       -3    1    3    3    0  502 -0.31723575656E+03  0.13010971117E+04  0.60364057437E+03  0.14689704464E+04  0.10100000352E+00 0. -1.
</event>
<event>
 5   0  0.6792811E-06  0.2980427E+04  0.7818609E-02  0.8249342E-01
       -2   -1    0    0    0  501  0.00000000000E+00  0.00000000000E+00  0.83781890318E+03  0.83781890318E+03  0.25500000920E-02 0. -1.
        2   -1    0    0  501    0  0.00000000000E+00  0.00000000000E+00 -0.26506156011E+04  0.26506156011E+04  0.25500000920E-02 0.  1.
    10030    2    1    2    0    0  0.00000000000E+00  0.00000000000E+00 -0.18127966979E+04  0.34884345042E+04  0.29804267182E+04 0.  0.
        2    1    3    3  502    0  0.73380811557E+03  0.86331943592E+03  0.22654517306E+03  0.11554728531E+04  0.25500000920E-02 0. -1.
       -2    1    3    3    0  502 -0.73380811557E+03 -0.86331943592E+03 -0.20393418709E+04  0.23329616511E+04  0.25500000920E-02 0.  1.
</event>
<event>
 5   0  0.2298500E-06  0.2996055E+04  0.7818609E-02  0.8244858E-01
       -4   -1    0    0    0  501  0.00000000000E+00  0.00000000000E+00  0.14847422082E+04  0.14847427513E+04  0.12699999809E+01 0.  1.
        4   -1    0    0  501    0  0.00000000000E+00  0.00000000000E+00 -0.15114305200E+04  0.15114310536E+04  0.12699999809E+01 0. -1.
    10030    2    1    2    0    0  0.00000000000E+00  0.00000000000E+00 -0.26688311819E+02  0.29961738049E+04  0.29960549400E+04 0.  0.
        3    1    3    3  502    0  0.14037129096E+04 -0.26632840092E+03 -0.46363476060E+03  0.15020978500E+04  0.10100000352E+00 0. -1.
       -3    1    3    3    0  502 -0.14037129096E+04  0.26632840092E+03  0.43694644878E+03  0.14940759549E+04  0.10100000352E+00 0.  1.
</event>
<event>
 5   0  0.7201538E-06  0.3014134E+04  0.7818609E-02  0.8239706E-01
        2   -1    0    0  501    0  0.00000000000E+00  0.00000000000E+00  0.20726342689E+04  0.20726342689E+04  0.25500000920E-02 0.  1.
       -2   -1    0    0    0  501  0.00000000000E+00  0.00000000000E+00 -0.10958283680E+04  0.10958283680E+04  0.25500000920E-02 0. -1.
    10030    2    1    2    0    0  0.00000000000E+00  0.00000000000E+00  0.97680590085E+03  0.31684626369E+04  0.30141343224E+04 0.  0.
        3    1    3    3  502    0 -0.10757352450E+04  0.98603377461E+03  0.88422255169E+03  0.17062586126E+04  0.10100000352E+00 0.  1.
       -3    1    3    3    0  502  0.10757352450E+04 -0.98603377461E+03  0.92583349156E+02  0.14622040243E+04  0.10100000352E+00 0. -1.
</event>
<event>
 5   0  0.2504260E-06  0.2998394E+04  0.7818609E-02  0.8244190E-01
        1   -1    0    0  501    0  0.00000000000E+00  0.00000000000E+00  0.10527372826E+04  0.10527372826E+04  0.50400001928E-02 0.  1.
       -1   -1    0    0    0  501  0.00000000000E+00  0.00000000000E+00 -0.21349975868E+04  0.21349975868E+04  0.50400001928E-02 0. -1.
    10030    2    1    2    0    0  0.00000000000E+00  0.00000000000E+00 -0.10822603042E+04  0.31877348694E+04  0.29983939420E+04 0.  0.
        4    1    3    3  502    0 -0.12491634533E+04  0.48612437837E+03  0.17273492583E+03  0.13515047954E+04  0.12699999809E+01 0.  1.
       -4    1    3    3    0  502  0.12491634533E+04 -0.48612437837E+03 -0.12549952300E+04  0.18362300740E+04  0.12699999809E+01 0. -1.
</event>
<event>
 5   0  0.7217255E-06  0.2990680E+04  0.7818609E-02  0.8246397E-01
       -2   -1    0    0    0  501  0.00000000000E+00  0.00000000000E+00  0.16931734371E+04  0.16931734371E+04  0.25500000920E-02 0.  1.
        2   -1    0    0  501    0  0.00000000000E+00  0.00000000000E+00 -0.13206215656E+04  0.13206215656E+04  0.25500000920E-02 0. -1.
    10030    2    1    2    0    0  0.00000000000E+00  0.00000000000E+00  0.37255187148E+03  0.30137950027E+04  0.29906797591E+04 0.  0.
        1    1    3    3  502    0  0.72145508759E+03 -0.76271248780E+03  0.12593127515E+04  0.16395415178E+04  0.50400001928E-02 0.  1.
       -1    1    3    3    0  502 -0.72145508759E+03  0.76271248780E+03 -0.88676088004E+03  0.13742534849E+04  0.50400001928E-02 0. -1.
</event>
<event>
 5   0  0.6792811E-06  0.3030816E+04  0.7818609E-02  0.8234985E-01
       -2   -1    0    0    0  501  0.00000000000E+00  0.00000000000E+00  0.14192098136E+04  0.14192098136E+04  0.25500000920E-02 0. -1.
        2   -1    0    0  501    0  0.00000000000E+00  0.00000000000E+00 -0.16181270508E+04  0.16181270508E+04  0.25500000920E-02 0.  1.
    10030    2    1    2    0    0  0.00000000000E+00  0.00000000000E+00 -0.19891723724E+03  0.30373368644E+04  0.30308162532E+04 0.  0.
        2    1    3    3  502    0  0.11564387057E+03  0.11535695357E+04  0.87853316548E+03  0.14546190915E+04  0.25500000920E-02 0. -1.
       -2    1    3    3    0  502 -0.11564387057E+03 -0.11535695357E+04 -0.10774504027E+04  0.15827177729E+04  0.25500000920E-02 0.  1.
</event>
<event>
 5   0  0.2422083E-06  0.3001835E+04  0.7818609E-02  0.8243207E-01
       -1   -1    0    0    0  501  0.00000000000E+00  0.00000000000E+00  0.14001119476E+04  0.14001119476E+04  0.50400001928E-02 0.  1.
        1   -1    0    0  501    0  0.00000000000E+00  0.00000000000E+00 -0.16089813824E+04  0.16089813824E+04  0.50400001928E-02 0. -1.
    10030    2    1    2    0    0  0.00000000000E+00  0.00000000000E+00 -0.20886943480E+03  0.30090933300E+04  0.30018354765E+04 0.  0.
        2    1    3    3  502    0  0.12714625206E+04 -0.38878279199E+03  0.59365774807E+03  0.14560901491E+04  0.25500000920E-02 0.  1.
       -2    1    3    3    0  502 -0.12714625206E+04  0.38878279199E+03 -0.80252718287E+03  0.15530031809E+04  0.25500000920E-02 0. -1.
</event>
<event>
 5   0  0.6780150E-06  0.2961965E+04  0.7818609E-02  0.8254676E-01
       -2   -1    0    0    0  501  0.00000000000E+00  0.00000000000E+00  0.13522972638E+04  0.13522972638E+04  0.25500000920E-02 0. -1.
        2   -1    0    0  501    0  0.00000000000E+00  0.00000000000E+00 -0.16219137697E+04  0.16219137697E+04  0.25500000920E-02 0.  1.
    10030    2    1    2    0    0  0.00000000000E+00  0.00000000000E+00 -0.26961650594E+03  0.29742110335E+04  0.29619652617E+04 0.  0.
        5    1    3    3  502    0  0.58830677286E+03  0.10326427836E+04  0.75249174016E+03  0.14066704968E+04  0.46999998093E+01 0. -1.
       -5    1    3    3    0  502 -0.58830677286E+03 -0.10326427836E+04 -0.10221082461E+04  0.15675405367E+04  0.46999998093E+01 0.  1.
</event>
<event>
 5   0  0.2552990E-06  0.3014177E+04  0.7818609E-02  0.8239694E-01
        1   -1    0    0  501    0  0.00000000000E+00  0.00000000000E+00  0.14033753045E+04  0.14033753045E+04  0.50400001928E-02 0.  1.
       -1   -1    0    0    0  501  0.00000000000E+00  0.00000000000E+00 -0.16184658645E+04  0.16184658645E+04  0.50400001928E-02 0. -1.
    10030    2    1    2    0    0  0.00000000000E+00  0.00000000000E+00 -0.21509056000E+03  0.30218411690E+04  0.30141765213E+04 0.  0.
        3    1    3    3  502    0 -0.12762519928E+03  0.32569983430E+03 -0.15772014656E+04  0.16155287205E+04  0.10100000352E+00 0. -1.
       -3    1    3    3    0  502  0.12762519928E+03 -0.32569983430E+03  0.13621109056E+04  0.14063124485E+04  0.10100000352E+00 0.  1.
</event>
<event>
 5   0  0.2552990E-06  0.3028597E+04  0.7818609E-02  0.8235612E-01
       -1   -1    0    0    0  501  0.00000000000E+00  0.00000000000E+00  0.16652961791E+04  0.16652961791E+04  0.50400001928E-02 0.  1.
        1   -1    0    0  501    0  0.00000000000E+00  0.00000000000E+00 -0.13769925312E+04  0.13769925312E+04  0.50400001928E-02 0. -1.
    10030    2    1    2    0    0  0.00000000000E+00  0.00000000000E+00  0.28830364784E+03  0.30422887103E+04  0.30285972997E+04 0.  0.
        3    1    3    3  502    0  0.89597787993E+03 -0.49553375829E+03 -0.97658465476E+03  0.14149373361E+04  0.10100000352E+00 0. -1.
       -3    1    3    3    0  502 -0.89597787993E+03  0.49553375829E+03  0.12648883026E+04  0.16273513742E+04  0.10100000352E+00 0.  1.
</event>
<event>
 5   0  0.2504260E-06  0.2839721E+04  0.7818609E-02  0.8291042E-01
        1   -1    0    0  501    0  0.00000000000E+00  0.00000000000E+00  0.14607719241E+04  0.14607719241E+04  0.50400001928E-02 0.  1.
       -1   -1    0    0    0  501  0.00000000000E+00  0.00000000000E+00 -0.13800949706E+04  0.13800949706E+04  0.50400001928E-02 0. -1.
    10030    2    1    2    0    0  0.00000000000E+00  0.00000000000E+00  0.80676953488E+02  0.28408668947E+04  0.28397211030E+04 0.  0.
        4    1    3    3  502    0 -0.42706976931E+03 -0.96746787095E+03 -0.90747173962E+03  0.13935168604E+04  0.12699999809E+01 0. -1.
       -4    1    3    3    0  502  0.42706976931E+03  0.96746787095E+03  0.98814869311E+03  0.14473500343E+04  0.12699999809E+01 0.  1.
</event>
<event>
 5   0  0.7193153E-06  0.2893450E+04  0.7818609E-02  0.8274829E-01
        2   -1    0    0  501    0  0.00000000000E+00  0.00000000000E+00  0.22471699391E+04  0.22471699391E+04  0.25500000920E-02 0. -1.
       -2   -1    0    0    0  501  0.00000000000E+00  0.00000000000E+00 -0.93139987783E+03  0.93139987783E+03  0.25500000920E-02 0.  1.
    10030    2    1    2    0    0  0.00000000000E+00  0.00000000000E+00  0.13157700613E+04  0.31785698169E+04  0.28934504017E+04 0.  0.
        4    1    3    3  502    0 -0.25628642326E+03 -0.70340359847E+03  0.20178365969E+04  0.21522373238E+04  0.12699999809E+01 0. -1.
       -4    1    3    3    0  502  0.25628642326E+03  0.70340359847E+03 -0.70206653566E+03  0.10263324931E+04  0.12699999809E+01 0.  1.
</event>
<event>
 5   0  0.6792811E-06  0.3022893E+04  0.7818609E-02  0.8237224E-01
        2   -1    0    0  501    0  0.00000000000E+00  0.00000000000E+00  0.14137900960E+04  0.14137900960E+04  0.25500000920E-02 0. -1.
       -2   -1    0    0    0  501  0.00000000000E+00  0.00000000000E+00 -0.16158480225E+04  0.16158480225E+04  0.25500000920E-02 0.  1.
    10030    2    1    2    0    0  0.00000000000E+00  0.00000000000E+00 -0.20205792654E+03  0.30296381185E+04  0.30228926086E+04 0.  0.
        2    1    3    3  502    0  0.80656180376E+03  0.33872421778E+03  0.11342772917E+04  0.14324318530E+04  0.25500000920E-02 0. -1.
       -2    1    3    3    0  502 -0.80656180376E+03 -0.33872421778E+03 -0.13363352182E+04  0.15972062655E+04  0.25500000920E-02 0.  1.
</event>
<event>
 5   0  0.7193153E-06  0.3032301E+04  0.7818609E-02  0.8234567E-01
       -2   -1    0    0    0  501  0.00000000000E+00  0.00000000000E+00  0.14415887255E+04  0.14415887255E+04  0.25500000920E-02 0. -1.
        2   -1    0    0  501    0  0.00000000000E+00  0.00000000000E+00 -0.15945685613E+04  0.15945685613E+04  0.25500000920E-02 0.  1.
    10030    2    1    2    0    0  0.00000000000E+00  0.00000000000E+00 -0.15297983586E+03  0.30361572868E+04  0.30323008162E+04 0.  0.
        4    1    3    3  502    0 -0.79717344232E+02 -0.58464342962E+03 -0.14748862165E+04  0.15885382461E+04  0.12699999809E+01 0.  1.
       -4    1    3    3    0  502  0.79717344232E+02  0.58464342962E+03  0.13219063807E+04  0.14476190407E+04  0.12699999809E+01 0. -1.
</event>
<event>
 5   0  0.7217255E-06  0.2867695E+04  0.7818609E-02  0.8282554E-01
       -2   -1    0    0    0  501  0.00000000000E+00  0.00000000000E+00  0.15210872462E+04  0.15210872462E+04  0.25500000920E-02 0.  1.
        2   -1    0    0  501    0  0.00000000000E+00  0.00000000000E+00 -0.13516115423E+04  0.13516115423E+04  0.25500000920E-02 0. -1.
    10030    2    1    2    0    0  0.00000000000E+00  0.00000000000E+00  0.16947570391E+03  0.28726987885E+04  0.28676952968E+04 0.  0.
        1    1    3    3  502    0  0.16015381968E+03 -0.85075808745E+03  0.12297459408E+04  0.15038994808E+04  0.50400001928E-02 0.  1.
       -1    1    3    3    0  502 -0.16015381968E+03  0.85075808745E+03 -0.10602702369E+04  0.13687993077E+04  0.50400001928E-02 0. -1.
</event>
<event>
 5   0  0.7201538E-06  0.3019468E+04  0.7818609E-02  0.8238194E-01
        2   -1    0    0  501    0  0.00000000000E+00  0.00000000000E+00  0.17663045631E+04  0.17663045631E+04  0.25500000920E-02 0. -1.
       -2   -1    0    0    0  501  0.00000000000E+00  0.00000000000E+00 -0.12904321619E+04  0.12904321619E+04  0.25500000920E-02 0.  1.
    10030    2    1    2    0    0  0.00000000000E+00  0.00000000000E+00  0.47587240116E+03  0.30567367250E+04  0.30194676457E+04 0.  0.
        3    1    3    3  502    0 -0.13927145301E+04 -0.22543353799E+03  0.78199133432E+03  0.16130667995E+04  0.10100000352E+00 0.  1.
       -3    1    3    3    0  502  0.13927145301E+04  0.22543353799E+03 -0.30611893316E+03  0.14436699255E+04  0.10100000352E+00 0. -1.
</event>
<event>
 5   0  0.2628425E-06  0.3102516E+04  0.7818609E-02  0.8215048E-01
       -1   -1    0    0    0  501  0.00000000000E+00  0.00000000000E+00  0.11753212854E+04  0.11753212854E+04  0.50400001928E-02 0.  1.
        1   -1    0    0  501    0  0.00000000000E+00  0.00000000000E+00 -0.20474414571E+04  0.20474414571E+04  0.50400001928E-02 0. -1.
    10030    2    1    2    0    0  0.00000000000E+00  0.00000000000E+00 -0.87212017178E+03  0.32227627425E+04  0.31025160919E+04 0.  0.
        1    1    3    3  502    0 -0.31111255934E+03 -0.11224128621E+04  0.62824845744E+03  0.13233660801E+04  0.50400001928E-02 0.  1.
       -1    1    3    3    0  502  0.31111255934E+03  0.11224128621E+04 -0.15003686292E+04  0.18993966624E+04  0.50400001928E-02 0. -1.
</event>
<event>
 5   0  0.6792811E-06  0.2942335E+04  0.7818609E-02  0.8260392E-01
        2   -1    0    0  501    0  0.00000000000E+00  0.00000000000E+00  0.17536705064E+04  0.17536705064E+04  0.25500000920E-02 0. -1.
       -2   -1    0    0    0  501  0.00000000000E+00  0.00000000000E+00 -0.12341739013E+04  0.12341739013E+04  0.25500000920E-02 0.  1.
    10030    2    1    2    0    0  0.00000000000E+00  0.00000000000E+00  0.51949660507E+03  0.29878444077E+04  0.29423353789E+04 0.  0.
        2    1    3    3  502    0 -0.10193409150E+03  0.67605390568E+03  0.15825455416E+04  0.17239170032E+04  0.25500000920E-02 0. -1.
       -2    1    3    3    0  502  0.10193409150E+03 -0.67605390568E+03 -0.10630489366E+04  0.12639274045E+04  0.25500000920E-02 0.  1.
</event>
<event>
 5   0  0.2422083E-06  0.2953830E+04  0.7818609E-02  0.8257039E-01
       -1   -1    0    0    0  501  0.00000000000E+00  0.00000000000E+00  0.16815278892E+04  0.16815278892E+04  0.50400001928E-02 0.  1.
        1   -1    0    0  501    0  0.00000000000E+00  0.00000000000E+00 -0.12971995540E+04  0.12971995540E+04  0.50400001928E-02 0. -1.
    10030    2    1    2    0    0  0.00000000000E+00  0.00000000000E+00  0.38432833519E+03  0.29787274431E+04  0.29538295332E+04 0.  0.
        2    1    3    3  502    0 -0.14628417766E+04  0.15899238618E+03  0.64238334926E+02  0.14728581757E+04  0.25500000920E-02 0.  1.
       -2    1    3    3    0  502  0.14628417766E+04 -0.15899238618E+03  0.32009000026E+03  0.15058692674E+04  0.25500000920E-02 0. -1.
</event>
<event>
 5   0  0.6792811E-06  0.3077115E+04  0.7818609E-02  0.8222047E-01
        2   -1    0    0  501    0  0.00000000000E+00  0.00000000000E+00  0.15999408395E+04  0.15999408395E+04  0.25500000920E-02 0. -1.
       -2   -1    0    0    0  501  0.00000000000E+00  0.00000000000E+00 -0.14795288962E+04  0.14795288962E+04  0.25500000920E-02 0.  1.
    10030    2    1    2    0    0  0.00000000000E+00  0.00000000000E+00  0.12041194332E+03  0.30794697357E+04  0.30771146903E+04 0.  0.
        2    1    3    3  502    0  0.14661544498E+04 -0.40837683877E+03 -0.16530665813E+03  0.15309169815E+04  0.25500000920E-02 0.  1.
       -2    1    3    3    0  502 -0.14661544498E+04  0.40837683877E+03  0.28571860145E+03  0.15485527542E+04  0.25500000920E-02 0. -1.
</event>
<event>
 5   0  0.7193153E-06  0.3006631E+04  0.7818609E-02  0.8241840E-01
       -2   -1    0    0    0  501  0.00000000000E+00  0.00000000000E+00  0.14107682167E+04  0.14107682167E+04  0.25500000920E-02 0. -1.
        2   -1    0    0  501    0  0.00000000000E+00  0.00000000000E+00 -0.16019343052E+04  0.16019343052E+04  0.25500000920E-02 0.  1.
    10030    2    1    2    0    0  0.00000000000E+00  0.00000000000E+00 -0.19116608845E+03  0.30127025219E+04  0.30066313396E+04 0.  0.
        4    1    3    3  502    0 -0.37056394290E+03  0.43250689247E+03  0.12984762495E+04  0.14178935190E+04  0.12699999809E+01 0. -1.
       -4    1    3    3    0  502  0.37056394290E+03 -0.43250689247E+03 -0.14896423379E+04  0.15948090029E+04  0.12699999809E+01 0.  1.
</event>
<event>
 5   0  0.2628425E-06  0.3010885E+04  0.7818609E-02  0.8240629E-01
        1   -1    0    0  501    0  0.00000000000E+00  0.00000000000E+00  0.15225936577E+04  0.15225936577E+04  0.50400001928E-02 0. -1.
       -1   -1    0    0    0  501  0.00000000000E+00  0.00000000000E+00 -0.14884843608E+04  0.14884843608E+04  0.50400001928E-02 0.  1.
    10030    2    1    2    0    0  0.00000000000E+00  0.00000000000E+00  0.34109296915E+02  0.30110780185E+04  0.30108848184E+04 0.  0.
        1    1    3    3  502    0 -0.30964591280E+03  0.55190123135E+03 -0.13490056545E+04  0.14900643666E+04  0.50400001928E-02 0.  1.
       -1    1    3    3    0  502  0.30964591280E+03 -0.55190123135E+03  0.13831149515E+04  0.15210136520E+04  0.50400001928E-02 0. -1.
</event>
<event>
 5   0  0.2552990E-06  0.2937298E+04  0.7818609E-02  0.8261866E-01
       -1   -1    0    0    0  501  0.00000000000E+00  0.00000000000E+00  0.26560324386E+04  0.26560324386E+04  0.50400001928E-02 0. -1.
        1   -1    0    0  501    0  0.00000000000E+00  0.00000000000E+00 -0.81208701027E+03  0.81208701028E+03  0.50400001928E-02 0.  1.
    10030    2    1    2    0    0  0.00000000000E+00  0.00000000000E+00  0.18439454283E+04  0.34681194489E+04  0.29372976984E+04 0.  0.
        3    1    3    3  502    0 -0.62463976753E+03 -0.75642132271E+03 -0.36851523020E+03  0.10479272597E+04  0.10100000352E+00 0.  1.
       -3    1    3    3    0  502  0.62463976753E+03  0.75642132271E+03  0.22124606585E+04  0.24201921891E+04  0.10100000352E+00 0. -1.
</event>
<event>
 5   0  0.7201538E-06  0.2964423E+04  0.7818609E-02  0.8253964E-01
        2   -1    0    0  501    0  0.00000000000E+00  0.00000000000E+00  0.11067170050E+04  0.11067170050E+04  0.25500000920E-02 0.  1.
       -2   -1    0    0    0  501  0.00000000000E+00  0.00000000000E+00 -0.19851062558E+04  0.19851062558E+04  0.25500000920E-02 0. -1.
    10030    2    1    2    0    0  0.00000000000E+00  0.00000000000E+00 -0.87838925084E+03  0.30918232607E+04  0.29644229455E+04 0.  0.
        3    1    3    3  502    0  0.12150363592E+04  0.70626185052E+03 -0.93042620923E+03  0.16854708828E+04  0.10100000352E+00 0. -1.
       -3    1    3    3    0  502 -0.12150363592E+04 -0.70626185052E+03  0.52036958396E+02  0.14063523779E+04  0.10100000352E+00 0.  1.
</event>
<event>
 5   0  0.2672155E-06  0.3030061E+04  0.7818609E-02  0.8235199E-01
       -1   -1    0    0    0  501  0.00000000000E+00  0.00000000000E+00  0.10716335085E+04  0.10716335085E+04  0.50400001928E-02 0. -1.
        1   -1    0    0  501    0  0.00000000000E+00  0.00000000000E+00 -0.21418863734E+04  0.21418863734E+04  0.50400001928E-02 0.  1.
    10030    2    1    2    0    0  0.00000000000E+00  0.00000000000E+00 -0.10702528649E+04  0.32135198819E+04  0.30300608635E+04 0.  0.
        5    1    3    3  502    0  0.14576822601E+03  0.48830875505E+03 -0.20482555871E+04  0.21107029294E+04  0.46999998093E+01 0.  1.
       -5    1    3    3    0  502 -0.14576822601E+03 -0.48830875505E+03  0.97800272224E+03  0.11028169525E+04  0.46999998093E+01 0. -1.
</event>
<event>
 5   0  0.2504260E-06  0.2994972E+04  0.7818609E-02  0.8245168E-01
        1   -1    0    0  501    0  0.00000000000E+00  0.00000000000E+00  0.23128045012E+04  0.23128045012E+04  0.50400001928E-02 0. -1.
       -1   -1    0    0    0  501  0.00000000000E+00  0.00000000000E+00 -0.96958691554E+03  0.96958691556E+03  0.50400001928E-02 0.  1.
    10030    2    1    2    0    0  0.00000000000E+00  0.00000000000E+00  0.13432175856E+04  0.32823914167E+04  0.29949724423E+04 0.  0.
        4    1    3    3  502    0  0.82989290966E+03  0.89793635724E+03  0.16191301880E+04  0.20289396545E+04  0.12699999809E+01 0. -1.
       -4    1    3    3    0  502 -0.82989290966E+03 -0.89793635724E+03 -0.27591260234E+03  0.12534517622E+04  0.12699999809E+01 0.  1.
</event>
<event>
 5   0  0.7193153E-06  0.3006021E+04  0.7818609E-02  0.8242014E-01
       -2   -1    0    0    0  501  0.00000000000E+00  0.00000000000E+00  0.10798237398E+04  0.10798237398E+04  0.25500000920E-02 0. -1.
        2   -1    0    0  501    0  0.00000000000E+00  0.00000000000E+00 -0.20920450844E+04  0.20920450844E+04  0.25500000920E-02 0.  1.
    10030    2    1    2    0    0  0.00000000000E+00  0.00000000000E+00 -0.10122213446E+04  0.31718688242E+04  0.30060205900E+04 0.  0.
        4    1    3    3  502    0  0.11791952353E+04  0.56602998271E+03 -0.12873278497E+04  0.18352400251E+04  0.12699999809E+01 0. -1.
       -4    1    3    3    0  502 -0.11791952353E+04 -0.56602998271E+03  0.27510650509E+03  0.13366287990E+04  0.12699999809E+01 0.  1.
</event>
<event>
 5   0  0.7217255E-06  0.2773509E+04  0.7818609E-02  0.8311540E-01
       -2   -1    0    0    0  501  0.00000000000E+00  0.00000000000E+00  0.12780516183E+04  0.12780516183E+04  0.25500000920E-02 0. -1.
        2   -1    0    0  501    0  0.00000000000E+00  0.00000000000E+00 -0.15047034235E+04  0.15047034235E+04  0.25500000920E-02 0.  1.
    10030    2    1    2    0    0  0.00000000000E+00  0.00000000000E+00 -0.22665180519E+03  0.27827550419E+04  0.27735094343E+04 0.  0.
        1    1    3    3  502    0  0.21107641133E+03  0.48925415704E+03 -0.13978929238E+04  0.14960038462E+04  0.50400001928E-02 0.  1.
       -1    1    3    3    0  502 -0.21107641133E+03 -0.48925415704E+03  0.11712411186E+04  0.12867511956E+04  0.50400001928E-02 0. -1.
</event>
<event>
 5   0  0.2422083E-06  0.2972691E+04  0.7818609E-02  0.8251572E-01
        1   -1    0    0  501    0  0.00000000000E+00  0.00000000000E+00  0.17247703504E+04  0.17247703504E+04  0.50400001928E-02 0. -1.
       -1   -1    0    0    0  501  0.00000000000E+00  0.00000000000E+00 -0.12808793328E+04  0.12808793328E+04  0.50400001928E-02 0.  1.
    10030    2    1    2    0    0  0.00000000000E+00  0.00000000000E+00  0.44389101758E+03  0.30056496833E+04  0.29726908321E+04 0.  0.
        2    1    3    3  502    0 -0.22588492907E+02  0.46645621617E+03  0.16486648216E+04  0.17135306638E+04  0.25500000920E-02 0. -1.
       -2    1    3    3    0  502  0.22588492907E+02 -0.46645621617E+03 -0.12047738041E+04  0.12921190195E+04  0.25500000920E-02 0.  1.
</event>
<event>
 5   0  0.6792811E-06  0.2205356E+04  0.7818609E-02  0.8516202E-01
        2   -1    0    0  501    0  0.00000000000E+00  0.00000000000E+00  0.26297131231E+04  0.26297131231E+04  0.25500000920E-02 0.  1.
       -2   -1    0    0    0  501  0.00000000000E+00  0.00000000000E+00 -0.46236915878E+03  0.46236915879E+03  0.25500000920E-02 0. -1.
    10030    2    1    2    0    0  0.00000000000E+00  0.00000000000E+00  0.21673439643E+04  0.30920822819E+04  0.22053555220E+04 0.  0.
        2    1    3    3  502    0  0.80058025136E+03  0.10259602305E+03  0.21370462198E+04  0.22843864009E+04  0.25500000920E-02 0.  1.
       -2    1    3    3    0  502 -0.80058025136E+03 -0.10259602305E+03  0.30297744441E+02  0.80769588097E+03  0.25500000920E-02 0. -1.
</event>
<event>
 5   0  0.7217255E-06  0.2694438E+04  0.7818609E-02  0.8336812E-01
        2   -1    0    0  501    0  0.00000000000E+00  0.00000000000E+00  0.14736430054E+04  0.14736430054E+04  0.25500000920E-02 0. -1.
       -2   -1    0    0    0  501  0.00000000000E+00  0.00000000000E+00 -0.12316411212E+04  0.12316411212E+04  0.25500000920E-02 0.  1.
    10030    2    1    2    0    0  0.00000000000E+00  0.00000000000E+00  0.24200188423E+03  0.27052841266E+04  0.26944382148E+04 0.  0.
        1    1    3    3  502    0 -0.63871635365E+02  0.11299337181E+04 -0.61281004607E+03  0.12869988134E+04  0.50400001928E-02 0.  1.
       -1    1    3    3    0  502  0.63871635365E+02 -0.11299337181E+04  0.85481193030E+03  0.14182853131E+04  0.50400001928E-02 0. -1.
</event>
<event>
 5   0  0.7201538E-06  0.2905247E+04  0.7818609E-02  0.8271318E-01
        2   -1    0    0  501    0  0.00000000000E+00  0.00000000000E+00  0.20101272534E+04  0.20101272534E+04  0.25500000920E-02 0.  1.
       -2   -1    0    0    0  501  0.00000000000E+00  0.00000000000E+00 -0.10497418003E+04  0.10497418004E+04  0.25500000920E-02 0. -1.
    10030    2    1    2    0    0  0.00000000000E+00  0.00000000000E+00  0.96038545309E+03  0.30598690538E+04  0.29052467034E+04 0.  0.
        3    1    3    3  502    0 -0.13549542554E+04  0.15621984371E+03  0.10066023175E+04  0.16951560134E+04  0.10100000352E+00 0.  1.
       -3    1    3    3    0  502  0.13549542554E+04 -0.15621984371E+03 -0.46216864440E+02  0.13647130404E+04  0.10100000352E+00 0. -1.
</event>
<event>
 5   0  0.6792811E-06  0.2967246E+04  0.7818609E-02  0.8253146E-01
       -2   -1    0    0    0  501  0.00000000000E+00  0.00000000000E+00  0.12183846784E+04  0.12183846784E+04  0.25500000920E-02 0.  1.
        2   -1    0    0  501    0  0.00000000000E+00  0.00000000000E+00 -0.18066024823E+04  0.18066024823E+04  0.25500000920E-02 0. -1.
    10030    2    1    2    0    0  0.00000000000E+00  0.00000000000E+00 -0.58821780385E+03  0.30249871607E+04  0.29672457158E+04 0.  0.
        2    1    3    3  502    0 -0.10020711831E+03 -0.52046737296E+03 -0.17067904683E+04  0.17871937375E+04  0.25500000920E-02 0. -1.
       -2    1    3    3    0  502  0.10020711831E+03  0.52046737296E+03  0.11185726644E+04  0.12377934232E+04  0.25500000920E-02 0.  1.
</event>
<event>
 5   0  0.2672155E-06  0.2991358E+04  0.7818609E-02  0.8246203E-01
       -1   -1    0    0    0  501  0.00000000000E+00  0.00000000000E+00  0.83234397778E+03  0.83234397780E+03  0.50400001928E-02 0. -1.
        1   -1    0    0  501    0  0.00000000000E+00  0.00000000000E+00 -0.26876583722E+04  0.26876583723E+04  0.50400001928E-02 0.  1.
    10030    2    1    2    0    0  0.00000000000E+00  0.00000000000E+00 -0.18553143945E+04  0.35200023501E+04  0.29913583941E+04 0.  0.
        5    1    3    3  502    0  0.10654973634E+03 -0.97986801634E+03 -0.22514269145E+04  0.24577305420E+04  0.46999998093E+01 0.  1.
       -5    1    3    3    0  502 -0.10654973634E+03  0.97986801634E+03  0.39611252000E+03  0.10622718081E+04  0.46999998093E+01 0. -1.
</event>
<event>
 5   0  0.7193153E-06  0.2972825E+04  0.7818609E-02  0.8251534E-01
        2   -1    0    0  501    0  0.00000000000E+00  0.00000000000E+00  0.12311766317E+04  0.12311766317E+04  0.25500000920E-02 0.  1.
       -2   -1    0    0    0  501  0.00000000000E+00  0.00000000000E+00 -0.17945615536E+04  0.17945615536E+04  0.25500000920E-02 0. -1.
    10030    2    1    2    0    0  0.00000000000E+00  0.00000000000E+00 -0.56338492190E+03  0.30257381854E+04  0.29728250867E+04 0.  0.
        4    1    3    3  502    0 -0.57826394281E+03 -0.12694501520E+04  0.24079416011E+03  0.14155833838E+04  0.12699999809E+01 0.  1.
       -4    1    3    3    0  502  0.57826394281E+03  0.12694501520E+04 -0.80417908201E+03  0.16101548015E+04  0.12699999809E+01 0. -1.
</event>
<event>
 5   0  0.2552990E-06  0.3073794E+04  0.7818609E-02  0.8222967E-01
        1   -1    0    0  501    0  0.00000000000E+00  0.00000000000E+00  0.18474387590E+04  0.18474387590E+04  0.50400001928E-02 0. -1.
       -1   -1    0    0    0  501  0.00000000000E+00  0.00000000000E+00 -0.12785555209E+04  0.12785555209E+04  0.50400001928E-02 0.  1.
    10030    2    1    2    0    0  0.00000000000E+00  0.00000000000E+00  0.56888323809E+03  0.31259942799E+04  0.30737944139E+04 0.  0.
        3    1    3    3  502    0 -0.55754423203E+03  0.15301681199E+03  0.17326269128E+04  0.18265447557E+04  0.10100000352E+00 0. -1.
       -3    1    3    3    0  502  0.55754423203E+03 -0.15301681199E+03 -0.11637436747E+04  0.12994495242E+04  0.10100000352E+00 0.  1.
</event>
<event>
 5   0  0.2552990E-06  0.2968712E+04  0.7818609E-02  0.8252722E-01
       -1   -1    0    0    0  501  0.00000000000E+00  0.00000000000E+00  0.15927906999E+04  0.15927906999E+04  0.50400001928E-02 0.  1.
        1   -1    0    0  501    0  0.00000000000E+00  0.00000000000E+00 -0.13833036518E+04  0.13833036518E+04  0.50400001928E-02 0. -1.
    10030    2    1    2    0    0  0.00000000000E+00  0.00000000000E+00  0.20948704813E+03  0.29760943517E+04  0.29687123079E+04 0.  0.
        3    1    3    3  502    0 -0.14642214937E+04 -0.23232304323E+03  0.17837411829E+03  0.14932300276E+04  0.10100000352E+00 0.  1.
       -3    1    3    3    0  502  0.14642214937E+04  0.23232304323E+03  0.31112929845E+02  0.14828643241E+04  0.10100000352E+00 0. -1.
</event>
<event>
 5   0  0.7201538E-06  0.2950798E+04  0.7818609E-02  0.8257922E-01
        2   -1    0    0  501    0  0.00000000000E+00  0.00000000000E+00  0.21838704494E+04  0.21838704494E+04  0.25500000920E-02 0. -1.
       -2   -1    0    0    0  501  0.00000000000E+00  0.00000000000E+00 -0.99676347065E+03  0.99676347065E+03  0.25500000920E-02 0.  1.
    10030    2    1    2    0    0  0.00000000000E+00  0.00000000000E+00  0.11871069787E+04  0.31806339200E+04  0.29507980538E+04 0.  0.
        3    1    3    3  502    0 -0.11960223621E+04  0.11920992276E+03 -0.32873303232E+03  0.12460922571E+04  0.10100000352E+00 0.  1.
       -3    1    3    3    0  502  0.11960223621E+04 -0.11920992276E+03  0.15158400110E+04  0.19345416629E+04  0.10100000352E+00 0. -1.
</event>
<event>
 5   0  0.2298500E-06  0.3048217E+04  0.7818609E-02  0.8230095E-01
        3   -1    0    0  501    0  0.00000000000E+00  0.00000000000E+00  0.22008261610E+04  0.22008261633E+04  0.10100000352E+00 0. -1.
       -3   -1    0    0    0  501  0.00000000000E+00  0.00000000000E+00 -0.10554703525E+04  0.10554703573E+04  0.10100000352E+00 0.  1.
    10030    2    1    2    0    0  0.00000000000E+00  0.00000000000E+00  0.11453558085E+04  0.32562965206E+04  0.30482170366E+04 0.  0.
        5    1    3    3  502    0 -0.80957942074E+03  0.42197319801E+01  0.19521223474E+04  0.21133481478E+04  0.46999998093E+01 0. -1.
       -5    1    3    3    0  502  0.80957942074E+03 -0.42197319801E+01 -0.80676653891E+03  0.11429483728E+04  0.46999998093E+01 0.  1.
</event>
<event>
 5   0  0.2552990E-06  0.2994679E+04  0.7818609E-02  0.8245252E-01
        1   -1    0    0  501    0  0.00000000000E+00  0.00000000000E+00  0.94960620978E+03  0.94960620979E+03  0.50400001928E-02 0.  1.
       -1   -1    0    0    0  501  0.00000000000E+00  0.00000000000E+00 -0.23610052022E+04  0.23610052022E+04  0.50400001928E-02 0. -1.
    10030    2    1    2    0    0  0.00000000000E+00  0.00000000000E+00 -0.14113989925E+04  0.33106114120E+04  0.29946787483E+04 0.  0.
        3    1    3    3  502    0  0.13762559421E+04 -0.50497501931E+03 -0.36866761098E+03  0.15116203247E+04  0.10100000352E+00 0.  1.
       -3    1    3    3    0  502 -0.13762559421E+04  0.50497501931E+03 -0.10427313815E+04  0.17989910874E+04  0.10100000352E+00 0. -1.
</event>
<event>
 5   0  0.2504260E-06  0.2950598E+04  0.7818609E-02  0.8257980E-01
        1   -1    0    0  501    0  0.00000000000E+00  0.00000000000E+00  0.21989796405E+04  0.21989796406E+04  0.50400001928E-02 0.  1.
       -1   -1    0    0    0  501  0.00000000000E+00  0.00000000000E+00 -0.98978023905E+03  0.98978023907E+03  0.50400001928E-02 0. -1.
    10030    2    1    2    0    0  0.00000000000E+00  0.00000000000E+00  0.12091994015E+04  0.31887598796E+04  0.29505976305E+04 0.  0.
        4    1    3    3  502    0 -0.13040586317E+04  0.33096299782E+03  0.12587677069E+04  0.18424448903E+04  0.12699999809E+01 0.  1.
       -4    1    3    3    0  502  0.13040586317E+04 -0.33096299782E+03 -0.49568305448E+02  0.13463149893E+04  0.12699999809E+01 0. -1.
</event>
<event>
 5   0  0.2672155E-06  0.3010904E+04  0.7818609E-02  0.8240624E-01
       -1   -1    0    0    0  501  0.00000000000E+00  0.00000000000E+00  0.13163418627E+04  0.13163418627E+04  0.50400001928E-02 0. -1.
        1   -1    0    0  501    0  0.00000000000E+00  0.00000000000E+00 -0.17217306118E+04  0.17217306118E+04  0.50400001928E-02 0.  1.
    10030    2    1    2    0    0  0.00000000000E+00  0.00000000000E+00 -0.40538874907E+03  0.30380724745E+04  0.30109042366E+04 0.  0.
        5    1    3    3  502    0 -0.49509753165E+03 -0.68668333903E+03 -0.14588000648E+04  0.16866461671E+04  0.46999998093E+01 0.  1.
       -5    1    3    3    0  502  0.49509753165E+03  0.68668333903E+03  0.10534113158E+04  0.13514263073E+04  0.46999998093E+01 0. -1.
</event>
<event>
 5   0  0.2504260E-06  0.2987897E+04  0.7818609E-02  0.8247195E-01
       -1   -1    0    0    0  501  0.00000000000E+00  0.00000000000E+00  0.10309769503E+04  0.10309769503E+04  0.50400001928E-02 0.  1.
        1   -1    0    0  501    0  0.00000000000E+00  0.00000000000E+00 -0.21648225091E+04  0.21648225091E+04  0.50400001928E-02 0. -1.
    10030    2    1    2    0    0  0.00000000000E+00  0.00000000000E+00 -0.11338455587E+04  0.31957994594E+04  0.29878969918E+04 0.  0.
        4    1    3    3  502    0 -0.10493310004E+04 -0.59189229955E+03 -0.15118231295E+04  0.19331432514E+04  0.12699999809E+01 0. -1.
       -4    1    3    3    0  502  0.10493310004E+04  0.59189229955E+03  0.37797757080E+03  0.12626562080E+04  0.12699999809E+01 0.  1.
</event>
<event>
 5   0  0.7201538E-06  0.3137932E+04  0.7818609E-02  0.8205404E-01
       -2   -1    0    0    0  501  0.00000000000E+00  0.00000000000E+00  0.12316201011E+04  0.12316201011E+04  0.25500000920E-02 0.  1.
        2   -1    0    0  501    0  0.00000000000E+00  0.00000000000E+00 -0.19987122219E+04  0.19987122219E+04  0.25500000920E-02 0. -1.
    10030    2    1    2    0    0  0.00000000000E+00  0.00000000000E+00 -0.76709212073E+03  0.32303323230E+04  0.31379318978E+04 0.  0.
        3    1    3    3  502    0 -0.58090999103E+03  0.11525392220E+04 -0.13019200803E+04  0.18332482051E+04  0.10100000352E+00 0. -1.
       -3    1    3    3    0  502  0.58090999103E+03 -0.11525392220E+04  0.53482795957E+03  0.13970841179E+04  0.10100000352E+00 0.  1.
</event>
<event>
 5   0  0.2628425E-06  0.3002823E+04  0.7818609E-02  0.8242925E-01
        1   -1    0    0  501    0  0.00000000000E+00  0.00000000000E+00  0.19056271351E+04  0.19056271351E+04  0.50400001928E-02 0.  1.
       -1   -1    0    0    0  501  0.00000000000E+00  0.00000000000E+00 -0.11829370438E+04  0.11829370438E+04  0.50400001928E-02 0. -1.
    10030    2    1    2    0    0  0.00000000000E+00  0.00000000000E+00  0.72269009127E+03  0.30885641789E+04  0.30028232913E+04 0.  0.
        1    1    3    3  502    0  0.14365520923E+04  0.43438737889E+03  0.40573544967E+03  0.15546689564E+04  0.50400001928E-02 0. -1.
       -1    1    3    3    0  502 -0.14365520923E+04 -0.43438737889E+03  0.31695464159E+03  0.15338952225E+04  0.50400001928E-02 0.  1.
</event>
<event>
 5   0  0.7201538E-06  0.3312370E+04  0.7818609E-02  0.8159755E-01
       -2   -1    0    0    0  501  0.00000000000E+00  0.00000000000E+00  0.18189448255E+04  0.18189448255E+04  0.25500000920E-02 0.  1.
        2   -1    0    0  501    0  0.00000000000E+00  0.00000000000E+00 -0.15079891560E+04  0.15079891560E+04  0.25500000920E-02 0. -1.
    10030    2    1    2    0    0  0.00000000000E+00  0.00000000000E+00  0.31095566946E+03  0.33269339815E+04  0.33123701920E+04 0.  0.
        3    1    3    3  502    0  0.67964051261E+03 -0.77640189887E+03 -0.11456862914E+04  0.15418522054E+04  0.10100000352E+00 0. -1.
       -3    1    3    3    0  502 -0.67964051261E+03  0.77640189887E+03  0.14566419608E+04  0.17850817761E+04  0.10100000352E+00 0.  1.
</event>
<event>
 5   0  0.7193153E-06  0.2992642E+04  0.7818609E-02  0.8245835E-01
        2   -1    0    0  501    0  0.00000000000E+00  0.00000000000E+00  0.13390839903E+04  0.13390839903E+04  0.25500000920E-02 0.  1.
       -2   -1    0    0    0  501  0.00000000000E+00  0.00000000000E+00 -0.16720205662E+04  0.16720205662E+04  0.25500000920E-02 0. -1.
    10030    2    1    2    0    0  0.00000000000E+00  0.00000000000E+00 -0.33293657594E+03  0.30111045565E+04  0.29926416235E+04 0.  0.
        4    1    3    3  502    0 -0.88556125581E+03  0.12031346300E+04 -0.25197897608E+03  0.15150071594E+04  0.12699999809E+01 0. -1.
       -4    1    3    3    0  502  0.88556125581E+03 -0.12031346300E+04 -0.80957599861E+02  0.14960973971E+04  0.12699999809E+01 0.  1.
</event>
<event>
 5   0  0.2504260E-06  0.2270233E+04  0.7818609E-02  0.8489751E-01
        1   -1    0    0  501    0  0.00000000000E+00  0.00000000000E+00  0.98706350461E+03  0.98706350462E+03  0.50400001928E-02 0. -1.
       -1   -1    0    0    0  501  0.00000000000E+00  0.00000000000E+00 -0.13053768869E+04  0.13053768869E+04  0.50400001928E-02 0.  1.
    10030    2    1    2    0    0  0.00000000000E+00  0.00000000000E+00 -0.31831338230E+03  0.22924403915E+04  0.22702333667E+04 0.  0.
        4    1    3    3  502    0  0.29153054922E+02 -0.29754884600E+03  0.94659039677E+03  0.99268333749E+03  0.12699999809E+01 0. -1.
       -4    1    3    3    0  502 -0.29153054922E+02  0.29754884600E+03 -0.12649037791E+04  0.12997570541E+04  0.12699999809E+01 0.  1.
</event>
<event>
 5   0  0.2628425E-06  0.2994252E+04  0.7818609E-02  0.8245374E-01
       -1   -1    0    0    0  501  0.00000000000E+00  0.00000000000E+00  0.13144982020E+04  0.13144982020E+04  0.50400001928E-02 0. -1.
        1   -1    0    0  501    0  0.00000000000E+00  0.00000000000E+00 -0.17051268618E+04  0.17051268618E+04  0.50400001928E-02 0.  1.
    10030    2    1    2    0    0  0.00000000000E+00  0.00000000000E+00 -0.39062865979E+03  0.30196250639E+04  0.29942519561E+04 0.  0.
        1    1    3    3  502    0  0.37312204551E+03  0.14159072656E+04  0.11937599725E+03  0.14691031531E+04  0.50400001928E-02 0. -1.
       -1    1    3    3    0  502 -0.37312204551E+03 -0.14159072656E+04 -0.51000465704E+03  0.15505219108E+04  0.50400001928E-02 0.  1.
</event>
<event>
 5   0  0.6792811E-06  0.2203640E+04  0.7818609E-02  0.8516914E-01
        2   -1    0    0  501    0  0.00000000000E+00  0.00000000000E+00  0.15943333750E+04  0.15943333750E+04  0.25500000920E-02 0. -1.
       -2   -1    0    0    0  501  0.00000000000E+00  0.00000000000E+00 -0.76145160857E+03  0.76145160857E+03  0.25500000920E-02 0.  1.
    10030    2    1    2    0    0  0.00000000000E+00  0.00000000000E+00  0.83288176645E+03  0.23557849836E+04  0.22036403636E+04 0.  0.
        2    1    3    3  502    0 -0.13855885218E+03 -0.39950816623E+02 -0.75132003093E+03  0.76503360198E+03  0.25500000920E-02 0.  1.
       -2    1    3    3    0  502  0.13855885218E+03  0.39950816623E+02  0.15842017974E+04  0.15907513816E+04  0.25500000920E-02 0. -1.
</event>
<event>
 5   0  0.7201538E-06  0.3038779E+04  0.7818609E-02  0.8232743E-01
       -2   -1    0    0    0  501  0.00000000000E+00  0.00000000000E+00  0.12891117479E+04  0.12891117479E+04  0.25500000920E-02 0.  1.
        2   -1    0    0  501    0  0.00000000000E+00  0.00000000000E+00 -0.17908024606E+04  0.17908024606E+04  0.25500000920E-02 0. -1.
    10030    2    1    2    0    0  0.00000000000E+00  0.00000000000E+00 -0.50169071267E+03  0.30799142086E+04  0.30387790247E+04 0.  0.
        3    1    3    3  502    0 -0.92393069655E+03 -0.55799151422E+03 -0.13346863241E+04  0.17165051867E+04  0.10100000352E+00 0. -1.
       -3    1    3    3    0  502  0.92393069655E+03  0.55799151422E+03  0.83299561146E+03  0.13634090219E+04  0.10100000352E+00 0.  1.
</event>
<event>
 5   0  0.2504260E-06  0.3454418E+04  0.7818609E-02  0.8124678E-01
       -1   -1    0    0    0  501  0.00000000000E+00  0.00000000000E+00  0.95586026802E+03  0.95586026803E+03  0.50400001928E-02 0. -1.
        1   -1    0    0  501    0  0.00000000000E+00  0.00000000000E+00 -0.31210113737E+04  0.31210113738E+04  0.50400001928E-02 0.  1.
    10030    2    1    2    0    0  0.00000000000E+00  0.00000000000E+00 -0.21651511057E+04  0.40768716418E+04  0.34544179065E+04 0.  0.
        4    1    3    3  502    0  0.74020888420E+03  0.68963325702E+03 -0.27347353419E+04  0.29158673195E+04  0.12699999809E+01 0.  1.
       -4    1    3    3    0  502 -0.74020888420E+03 -0.68963325702E+03  0.56958423619E+03  0.11610043223E+04  0.12699999809E+01 0. -1.
</event>
<event>
 5   0  0.2422083E-06  0.3017236E+04  0.7818609E-02  0.8238826E-01
       -1   -1    0    0    0  501  0.00000000000E+00  0.00000000000E+00  0.15708283960E+04  0.15708283960E+04  0.50400001928E-02 0. -1.
        1   -1    0    0  501    0  0.00000000000E+00  0.00000000000E+00 -0.14488710027E+04  0.14488710027E+04  0.50400001928E-02 0.  1.
    10030    2    1    2    0    0  0.00000000000E+00  0.00000000000E+00  0.12195739326E+03  0.30196993987E+04  0.30172356309E+04 0.  0.
        2    1    3    3  502    0 -0.22546626429E+03  0.11125472592E+03 -0.14277557282E+04  0.14497237908E+04  0.25500000920E-02 0.  1.
       -2    1    3    3    0  502  0.22546626429E+03 -0.11125472592E+03  0.15497131214E+04  0.15699756078E+04  0.25500000920E-02 0. -1.
</event>
<event>
 5   0  0.2628425E-06  0.2957823E+04  0.7818609E-02  0.8255878E-01
        1   -1    0    0  501    0  0.00000000000E+00  0.00000000000E+00  0.12430888206E+04  0.12430888206E+04  0.50400001928E-02 0.  1.
       -1   -1    0    0    0  501  0.00000000000E+00  0.00000000000E+00 -0.17594710223E+04  0.17594710223E+04  0.50400001928E-02 0. -1.
    10030    2    1    2    0    0  0.00000000000E+00  0.00000000000E+00 -0.51638220169E+03  0.30025598429E+04  0.29578226844E+04 0.  0.
        1    1    3    3  502    0 -0.96489195724E+03 -0.96025844707E+03  0.32853534584E+03  0.14003743242E+04  0.50400001928E-02 0.  1.
       -1    1    3    3    0  502  0.96489195724E+03  0.96025844707E+03 -0.84491754754E+03  0.16021855187E+04  0.50400001928E-02 0. -1.
</event>
<event>
 5   0  0.6792811E-06  0.2976460E+04  0.7818609E-02  0.8250485E-01
        2   -1    0    0  501    0  0.00000000000E+00  0.00000000000E+00  0.21993083146E+04  0.21993083146E+04  0.25500000920E-02 0. -1.
       -2   -1    0    0    0  501  0.00000000000E+00  0.00000000000E+00 -0.10070568437E+04  0.10070568437E+04  0.25500000920E-02 0.  1.
    10030    2    1    2    0    0  0.00000000000E+00  0.00000000000E+00  0.11922514709E+04  0.32063651583E+04  0.29764599709E+04 0.  0.
        2    1    3    3  502    0 -0.22823922471E+03 -0.11688877245E+04  0.15574913906E+04  0.19606557801E+04  0.25500000920E-02 0. -1.
       -2    1    3    3    0  502  0.22823922471E+03  0.11688877245E+04 -0.36523991966E+03  0.12457093783E+04  0.25500000920E-02 0.  1.
</event>
<event>
 5   0  0.2672155E-06  0.2991522E+04  0.7818609E-02  0.8246156E-01
       -1   -1    0    0    0  501  0.00000000000E+00  0.00000000000E+00  0.76599197828E+03  0.76599197830E+03  0.50400001928E-02 0.  1.
        1   -1    0    0  501    0  0.00000000000E+00  0.00000000000E+00 -0.29207891440E+04  0.29207891440E+04  0.50400001928E-02 0. -1.
    10030    2    1    2    0    0  0.00000000000E+00  0.00000000000E+00 -0.21547971657E+04  0.36867811223E+04  0.29915220572E+04 0.  0.
        5    1    3    3  502    0 -0.11389619140E+04  0.67872930071E+02  0.11456406726E+03  0.11467292583E+04  0.46999998093E+01 0.  1.
       -5    1    3    3    0  502  0.11389619140E+04 -0.67872930071E+02 -0.22693612330E+04  0.25400518641E+04  0.46999998093E+01 0. -1.
</event>
<event>
 5   0  0.2552990E-06  0.2990516E+04  0.7818609E-02  0.8246444E-01
       -1   -1    0    0    0  501  0.00000000000E+00  0.00000000000E+00  0.14436721782E+04  0.14436721782E+04  0.50400001928E-02 0.  1.
        1   -1    0    0  501    0  0.00000000000E+00  0.00000000000E+00 -0.15486872323E+04  0.15486872323E+04  0.50400001928E-02 0. -1.
    10030    2    1    2    0    0  0.00000000000E+00  0.00000000000E+00 -0.10501505414E+03  0.29923594105E+04  0.29905161226E+04 0.  0.
        3    1    3    3  502    0 -0.20269625882E+03 -0.24314118928E+03  0.14097601381E+04  0.14448623008E+04  0.10100000352E+00 0.  1.
       -3    1    3    3    0  502  0.20269625882E+03  0.24314118928E+03 -0.15147751922E+04  0.15474971096E+04  0.10100000352E+00 0. -1.
</event>
<event>
 5   0  0.7201538E-06  0.3095894E+04  0.7818609E-02  0.8216866E-01
       -2   -1    0    0    0  501  0.00000000000E+00  0.00000000000E+00  0.84837436964E+03  0.84837436964E+03  0.25500000920E-02 0. -1.
        2   -1    0    0  501    0  0.00000000000E+00  0.00000000000E+00 -0.28243892901E+04  0.28243892901E+04  0.25500000920E-02 0.  1.
    10030    2    1    2    0    0  0.00000000000E+00  0.00000000000E+00 -0.19760149204E+04  0.36727636597E+04  0.30958937214E+04 0.  0.
        3    1    3    3  502    0 -0.46623348181E+03  0.52060435385E+03  0.65056700063E+03  0.95479840036E+03  0.10100000352E+00 0. -1.
       -3    1    3    3    0  502  0.46623348181E+03 -0.52060435385E+03 -0.26265819211E+04  0.27179652593E+04  0.10100000352E+00 0.  1.
</event>
<event>
 5   0  0.7201538E-06  0.3077202E+04  0.7818609E-02  0.8222023E-01
       -2   -1    0    0    0  501  0.00000000000E+00  0.00000000000E+00  0.24949820307E+04  0.24949820307E+04  0.25500000920E-02 0. -1.
        2   -1    0    0  501    0  0.00000000000E+00  0.00000000000E+00 -0.94882155591E+03  0.94882155592E+03  0.25500000920E-02 0.  1.
    10030    2    1    2    0    0  0.00000000000E+00  0.00000000000E+00  0.15461604748E+04  0.34438035866E+04  0.30772018019E+04 0.  0.
        3    1    3    3  502    0  0.79611601885E+03 -0.12244872847E+04  0.13145875676E+04  0.19650217070E+04  0.10100000352E+00 0. -1.
       -3    1    3    3    0  502 -0.79611601885E+03  0.12244872847E+04  0.23157290717E+03  0.14787818796E+04  0.10100000352E+00 0.  1.
</event>
<event>
 5   0  0.2628425E-06  0.3005020E+04  0.7818609E-02  0.8242299E-01
        1   -1    0    0  501    0  0.00000000000E+00  0.00000000000E+00  0.22153179596E+04  0.22153179596E+04  0.50400001928E-02 0. -1.
       -1   -1    0    0    0  501  0.00000000000E+00  0.00000000000E+00 -0.10190572350E+04  0.10190572350E+04  0.50400001928E-02 0.  1.
    10030    2    1    2    0    0  0.00000000000E+00  0.00000000000E+00  0.11962607245E+04  0.32343751946E+04  0.30050196636E+04 0.  0.
        1    1    3    3  502    0 -0.52528346863E+03  0.61972687983E+03  0.19585426179E+04  0.21203474513E+04  0.50400001928E-02 0. -1.
       -1    1    3    3    0  502  0.52528346863E+03 -0.61972687983E+03 -0.76228189334E+03  0.11140277433E+04  0.50400001928E-02 0.  1.
</event>
<event>
 5   0  0.7217255E-06  0.2998305E+04  0.7818609E-02  0.8244215E-01
        2   -1    0    0  501    0  0.00000000000E+00  0.00000000000E+00  0.22662598157E+04  0.22662598157E+04  0.25500000920E-02 0. -1.
       -2   -1    0    0    0  501  0.00000000000E+00  0.00000000000E+00 -0.99170360393E+03  0.99170360394E+03  0.25500000920E-02 0.  1.
    10030    2    1    2    0    0  0.00000000000E+00  0.00000000000E+00  0.12745562118E+04  0.32579634197E+04  0.29983048722E+04 0.  0.
        1    1    3    3  502    0  0.33840852589E+03  0.83972042582E+03 -0.66111204583E+03  0.11210351739E+04  0.50400001928E-02 0.  1.
       -1    1    3    3    0  502 -0.33840852589E+03 -0.83972042582E+03  0.19356682576E+04  0.21369282458E+04  0.50400001928E-02 0. -1.
</event>
<event>
 5   0  0.2422083E-06  0.2991176E+04  0.7818609E-02  0.8246255E-01
        1   -1    0    0  501    0  0.00000000000E+00  0.00000000000E+00  0.24242229894E+04  0.24242229894E+04  0.50400001928E-02 0.  1.
       -1   -1    0    0    0  501  0.00000000000E+00  0.00000000000E+00 -0.92268072055E+03  0.92268072056E+03  0.50400001928E-02 0. -1.
    10030    2    1    2    0    0  0.00000000000E+00  0.00000000000E+00  0.15015422688E+04  0.33469037099E+04  0.29911762333E+04 0.  0.
        2    1    3    3  502    0  0.12178501165E+04  0.50544696881E+03  0.15405045778E+04  0.20277548912E+04  0.25500000920E-02 0.  1.
       -2    1    3    3    0  502 -0.12178501165E+04 -0.50544696881E+03 -0.38962308988E+02  0.13191488187E+04  0.25500000920E-02 0. -1.
</event>
<event>
 5   0  0.2628425E-06  0.2946607E+04  0.7818609E-02  0.8259144E-01
       -1   -1    0    0    0  501  0.00000000000E+00  0.00000000000E+00  0.11347358001E+04  0.11347358001E+04  0.50400001928E-02 0. -1.
        1   -1    0    0  501    0  0.00000000000E+00  0.00000000000E+00 -0.19128889642E+04  0.19128889642E+04  0.50400001928E-02 0.  1.
    10030    2    1    2    0    0  0.00000000000E+00  0.00000000000E+00 -0.77815316409E+03  0.30476247643E+04  0.29466072622E+04 0.  0.
        1    1    3    3  502    0  0.11092773201E+04  0.96156591089E+03 -0.51792020479E+03  0.15567101568E+04  0.50400001928E-02 0. -1.
       -1    1    3    3    0  502 -0.11092773201E+04 -0.96156591089E+03 -0.26023295930E+03  0.14909146075E+04  0.50400001928E-02 0.  1.
</event>
<event>
 5   0  0.2422083E-06  0.3030364E+04  0.7818609E-02  0.8235113E-01
        1   -1    0    0  501    0  0.00000000000E+00  0.00000000000E+00  0.13088604760E+04  0.13088604760E+04  0.50400001928E-02 0. -1.
       -1   -1    0    0    0  501  0.00000000000E+00  0.00000000000E+00 -0.17540263837E+04  0.17540263838E+04  0.50400001928E-02 0.  1.
    10030    2    1    2    0    0  0.00000000000E+00  0.00000000000E+00 -0.44516590771E+03  0.30628868598E+04  0.30303635476E+04 0.  0.
        2    1    3    3  502    0 -0.74170614453E+03 -0.32172869967E+03 -0.15177956892E+04  0.17196921571E+04  0.25500000920E-02 0.  1.
       -2    1    3    3    0  502  0.74170614453E+03  0.32172869967E+03  0.10726297815E+04  0.13431947027E+04  0.25500000920E-02 0. -1.
</event>
<event>
 5   0  0.7201538E-06  0.3121670E+04  0.7818609E-02  0.8209816E-01
       -2   -1    0    0    0  501  0.00000000000E+00  0.00000000000E+00  0.26377444064E+04  0.26377444064E+04  0.25500000920E-02 0.  1.
        2   -1    0    0  501    0  0.00000000000E+00  0.00000000000E+00 -0.92359409364E+03  0.92359409364E+03  0.25500000920E-02 0. -1.
    10030    2    1    2    0    0  0.00000000000E+00  0.00000000000E+00  0.17141503127E+04  0.35613385000E+04  0.31216695240E+04 0.  0.
        3    1    3    3  502    0 -0.11252151576E+04  0.48964102426E+03  0.19574710603E+04  0.23103139280E+04  0.10100000352E+00 0.  1.
       -3    1    3    3    0  502  0.11252151576E+04 -0.48964102426E+03 -0.24332074763E+03  0.12510245720E+04  0.10100000352E+00 0. -1.
</event>
<event>
 5   0  0.2504260E-06  0.3027130E+04  0.7818609E-02  0.8236026E-01
        1   -1    0    0  501    0  0.00000000000E+00  0.00000000000E+00  0.17470310035E+04  0.17470310035E+04  0.50400001928E-02 0.  1.
       -1   -1    0    0    0  501  0.00000000000E+00  0.00000000000E+00 -0.13112985953E+04  0.13112985954E+04  0.50400001928E-02 0. -1.
    10030    2    1    2    0    0  0.00000000000E+00  0.00000000000E+00  0.43573240816E+03  0.30583295989E+04  0.30271301927E+04 0.  0.
        4    1    3    3  502    0  0.27405952000E+03  0.54424325931E+02  0.17207484789E+04  0.17432864275E+04  0.12699999809E+01 0.  1.
       -4    1    3    3    0  502 -0.27405952000E+03 -0.54424325931E+02 -0.12850160707E+04  0.13150431714E+04  0.12699999809E+01 0. -1.
</event>
<event>
 5   0  0.2422083E-06  0.3019633E+04  0.7818609E-02  0.8238147E-01
        1   -1    0    0  501    0  0.00000000000E+00  0.00000000000E+00  0.19274040273E+04  0.19274040273E+04  0.50400001928E-02 0. -1.
       -1   -1    0    0    0  501  0.00000000000E+00  0.00000000000E+00 -0.11827024426E+04  0.11827024426E+04  0.50400001928E-02 0.  1.
    10030    2    1    2    0    0  0.00000000000E+00  0.00000000000E+00  0.74470158468E+03  0.31101064699E+04  0.30196327267E+04 0.  0.
        2    1    3    3  502    0  0.13740623643E+04 -0.19380403229E+03 -0.24040125428E+03  0.14083323993E+04  0.25500000920E-02 0.  1.
       -2    1    3    3    0  502 -0.13740623643E+04  0.19380403229E+03  0.98510283896E+03  0.17017740706E+04  0.25500000920E-02 0. -1.
</event>
<event>
 5   0  0.6792811E-06  0.2977247E+04  0.7818609E-02  0.8250258E-01
        2   -1    0    0  501    0  0.00000000000E+00  0.00000000000E+00  0.17786223532E+04  0.17786223532E+04  0.25500000920E-02 0.  1.
       -2   -1    0    0    0  501  0.00000000000E+00  0.00000000000E+00 -0.12459082672E+04  0.12459082672E+04  0.25500000920E-02 0. -1.
    10030    2    1    2    0    0  0.00000000000E+00  0.00000000000E+00  0.53271408609E+03  0.30245306204E+04  0.29772472481E+04 0.  0.
        2    1    3    3  502    0  0.13244048880E+02  0.10105749148E+04  0.13766757438E+04  0.17078270307E+04  0.25500000920E-02 0.  1.
       -2    1    3    3    0  502 -0.13244048880E+02 -0.10105749148E+04 -0.84396165772E+03  0.13167035897E+04  0.25500000920E-02 0. -1.
</event>
<event>
 5   0  0.2552990E-06  0.3035285E+04  0.7818609E-02  0.8233726E-01
        1   -1    0    0  501    0  0.00000000000E+00  0.00000000000E+00  0.16890514424E+04  0.16890514424E+04  0.50400001928E-02 0. -1.
       -1   -1    0    0    0  501  0.00000000000E+00  0.00000000000E+00 -0.13636282318E+04  0.13636282318E+04  0.50400001928E-02 0.  1.
    10030    2    1    2    0    0  0.00000000000E+00  0.00000000000E+00  0.32542321055E+03  0.30526796742E+04  0.30352846534E+04 0.  0.
        3    1    3    3  502    0 -0.69765972235E+03 -0.11027992637E+04  0.94197002709E+03  0.16094107140E+04  0.10100000352E+00 0. -1.
       -3    1    3    3    0  502  0.69765972235E+03  0.11027992637E+04 -0.61654681654E+03  0.14432689602E+04  0.10100000352E+00 0.  1.
</event>
<event>
 5   0  0.6780150E-06  0.2980149E+04  0.7818609E-02  0.8249422E-01
       -2   -1    0    0    0  501  0.00000000000E+00  0.00000000000E+00  0.81133393971E+03  0.81133393971E+03  0.25500000920E-02 0. -1.
        2   -1    0    0  501    0  0.00000000000E+00  0.00000000000E+00 -0.27366309553E+04  0.27366309553E+04  0.25500000920E-02 0.  1.
    10030    2    1    2    0    0  0.00000000000E+00  0.00000000000E+00 -0.19252970156E+04  0.35479648950E+04  0.29801487040E+04 0.  0.
        5    1    3    3  502    0 -0.66242491865E+03  0.77457636528E+03  0.33143613501E+03  0.10717496536E+04  0.46999998093E+01 0. -1.
       -5    1    3    3    0  502  0.66242491865E+03 -0.77457636528E+03 -0.22567331506E+04  0.24762152413E+04  0.46999998093E+01 0.  1.
</event>
<event>
 5   0  0.2552990E-06  0.2977883E+04  0.7818609E-02  0.8250075E-01
       -1   -1    0    0    0  501  0.00000000000E+00  0.00000000000E+00  0.16215450381E+04  0.16215450381E+04  0.50400001928E-02 0. -1.
        1   -1    0    0  501    0  0.00000000000E+00  0.00000000000E+00 -0.13671817650E+04  0.13671817650E+04  0.50400001928E-02 0.  1.
    10030    2    1    2    0    0  0.00000000000E+00  0.00000000000E+00  0.25436327309E+03  0.29887268031E+04  0.29778830113E+04 0.  0.
        3    1    3    3  502    0  0.94345539102E+03 -0.21809949692E+03 -0.10079857884E+04  0.13977520614E+04  0.10100000352E+00 0.  1.
       -3    1    3    3    0  502 -0.94345539102E+03  0.21809949692E+03  0.12623490615E+04  0.15909747417E+04  0.10100000352E+00 0. -1.
</event>
<event>
 5   0  0.6792811E-06  0.3006779E+04  0.7818609E-02  0.8241798E-01
       -2   -1    0    0    0  501  0.00000000000E+00  0.00000000000E+00  0.15756007926E+04  0.15756007926E+04  0.25500000920E-02 0. -1.
        2   -1    0    0  501    0  0.00000000000E+00  0.00000000000E+00 -0.14344874926E+04  0.14344874926E+04  0.25500000920E-02 0.  1.
    10030    2    1    2    0    0  0.00000000000E+00  0.00000000000E+00  0.14111330005E+03  0.30100882852E+04  0.30067787616E+04 0.  0.
        2    1    3    3  502    0 -0.10573951642E+03 -0.18537481717E+03 -0.14192463191E+04  0.14352020006E+04  0.25500000920E-02 0.  1.
       -2    1    3    3    0  502  0.10573951642E+03  0.18537481717E+03  0.15603596192E+04  0.15748862846E+04  0.25500000920E-02 0. -1.
</event>
<event>
 5   0  0.6792811E-06  0.3151611E+04  0.7818609E-02  0.8201715E-01
       -2   -1    0    0    0  501  0.00000000000E+00  0.00000000000E+00  0.10157509630E+04  0.10157509630E+04  0.25500000920E-02 0.  1.
        2   -1    0    0  501    0  0.00000000000E+00  0.00000000000E+00 -0.24446570890E+04  0.24446570890E+04  0.25500000920E-02 0. -1.
    10030    2    1    2    0    0  0.00000000000E+00  0.00000000000E+00 -0.14289061260E+04  0.34604080520E+04  0.31516108849E+04 0.  0.
        2    1    3    3  502    0 -0.22592996209E+03  0.15079579844E+04 -0.27776421320E+03  0.15498821208E+04  0.25500000920E-02 0.  1.
       -2    1    3    3    0  502  0.22592996209E+03 -0.15079579844E+04 -0.11511419128E+04  0.19105259312E+04  0.25500000920E-02 0. -1.
</event>
<event>
 5   0  0.2628425E-06  0.3009323E+04  0.7818609E-02  0.8241074E-01
       -1   -1    0    0    0  501  0.00000000000E+00  0.00000000000E+00  0.20112075429E+04  0.20112075429E+04  0.50400001928E-02 0.  1.
        1   -1    0    0  501    0  0.00000000000E+00  0.00000000000E+00 -0.11256951114E+04  0.11256951114E+04  0.50400001928E-02 0. -1.
    10030    2    1    2    0    0  0.00000000000E+00  0.00000000000E+00  0.88551243154E+03  0.31369026543E+04  0.30093231791E+04 0.  0.
        1    1    3    3  502    0 -0.98886844716E+03 -0.11311029309E+04  0.35710299551E+03  0.15442723839E+04  0.50400001928E-02 0.  1.
       -1    1    3    3    0  502  0.98886844716E+03  0.11311029309E+04  0.52840943603E+03  0.15926302704E+04  0.50400001928E-02 0. -1.
</event>
<event>
 5   0  0.7201538E-06  0.2424482E+04  0.7818609E-02  0.8430394E-01
        2   -1    0    0  501    0  0.00000000000E+00  0.00000000000E+00  0.98351344841E+03  0.98351344841E+03  0.25500000920E-02 0.  1.
       -2   -1    0    0    0  501  0.00000000000E+00  0.00000000000E+00 -0.14941616513E+04  0.14941616513E+04  0.25500000920E-02 0. -1.
    10030    2    1    2    0    0  0.00000000000E+00  0.00000000000E+00 -0.51064820291E+03  0.24776750997E+04  0.24244818648E+04 0.  0.
        3    1    3    3  502    0 -0.31689704846E+01  0.84336568202E+03 -0.11452058498E+04  0.14222419501E+04  0.10100000352E+00 0. -1.
       -3    1    3    3    0  502  0.31689704846E+01 -0.84336568202E+03  0.63455764687E+03  0.10554331497E+04  0.10100000352E+00 0.  1.
</event>
<event>
 5   0  0.6792811E-06  0.2990273E+04  0.7818609E-02  0.8246514E-01
       -2   -1    0    0    0  501  0.00000000000E+00  0.00000000000E+00  0.17638723814E+04  0.17638723814E+04  0.25500000920E-02 0. -1.
        2   -1    0    0  501    0  0.00000000000E+00  0.00000000000E+00 -0.12673441673E+04  0.12673441673E+04  0.25500000920E-02 0.  1.
    10030    2    1    2    0    0  0.00000000000E+00  0.00000000000E+00  0.49652821415E+03  0.30312165487E+04  0.29902731476E+04 0.  0.
        2    1    3    3  502    0  0.10359034384E+04 -0.22110983813E+03 -0.82138429992E+03  0.13403945920E+04  0.25500000920E-02 0.  1.
       -2    1    3    3    0  502 -0.10359034384E+04  0.22110983813E+03  0.13179125141E+04  0.16908219566E+04  0.25500000920E-02 0. -1.
</event>
<event>
 5   0  0.2552990E-06  0.2906975E+04  0.7818609E-02  0.8270805E-01
        1   -1    0    0  501    0  0.00000000000E+00  0.00000000000E+00  0.21944748648E+04  0.21944748649E+04  0.50400001928E-02 0. -1.
       -1   -1    0    0    0  501  0.00000000000E+00  0.00000000000E+00 -0.96270204251E+03  0.96270204253E+03  0.50400001928E-02 0.  1.
    10030    2    1    2    0    0  0.00000000000E+00  0.00000000000E+00  0.12317728223E+04  0.31571769074E+04  0.29069746711E+04 0.  0.
        3    1    3    3  502    0 -0.42193257741E+03  0.27062111563E+03 -0.86585750978E+03  0.10004859447E+04  0.10100000352E+00 0.  1.
       -3    1    3    3    0  502  0.42193257741E+03 -0.27062111563E+03  0.20976303321E+04  0.21566909627E+04  0.10100000352E+00 0. -1.
</event>
<event>
 5   0  0.2552990E-06  0.3003679E+04  0.7818609E-02  0.8242681E-01
        1   -1    0    0  501    0  0.00000000000E+00  0.00000000000E+00  0.14938206907E+04  0.14938206907E+04  0.50400001928E-02 0. -1.
       -1   -1    0    0    0  501  0.00000000000E+00  0.00000000000E+00 -0.15099015030E+04  0.15099015030E+04  0.50400001928E-02 0.  1.
    10030    2    1    2    0    0  0.00000000000E+00  0.00000000000E+00 -0.16080812265E+02  0.30037221937E+04  0.30036791481E+04 0.  0.
        3    1    3    3  502    0 -0.10035267012E+04  0.91109308054E+03 -0.65486159147E+03  0.15053239371E+04  0.10100000352E+00 0.  1.
       -3    1    3    3    0  502  0.10035267012E+04 -0.91109308054E+03  0.63878077920E+03  0.14983982566E+04  0.10100000352E+00 0. -1.
</event>
<event>
 5   0  0.2504260E-06  0.2963540E+04  0.7818609E-02  0.8254220E-01
        1   -1    0    0  501    0  0.00000000000E+00  0.00000000000E+00  0.24750214068E+04  0.24750214068E+04  0.50400001928E-02 0.  1.
       -1   -1    0    0    0  501  0.00000000000E+00  0.00000000000E+00 -0.88712043060E+03  0.88712043061E+03  0.50400001928E-02 0. -1.
    10030    2    1    2    0    0  0.00000000000E+00  0.00000000000E+00  0.15879009762E+04  0.33621418374E+04  0.29635398132E+04 0.  0.
        4    1    3    3  502    0  0.18426748852E+03  0.86042574339E+03 -0.55860880541E+03  0.10422726983E+04  0.12699999809E+01 0. -1.
       -4    1    3    3    0  502 -0.18426748852E+03 -0.86042574339E+03  0.21465097816E+04  0.23198691391E+04  0.12699999809E+01 0.  1.
</event>
<event>
 5   0  0.7201538E-06  0.3018489E+04  0.7818609E-02  0.8238471E-01
        2   -1    0    0  501    0  0.00000000000E+00  0.00000000000E+00  0.21839314901E+04  0.21839314901E+04  0.25500000920E-02 0. -1.
       -2   -1    0    0    0  501  0.00000000000E+00  0.00000000000E+00 -0.10429900196E+04  0.10429900196E+04  0.25500000920E-02 0.  1.
    10030    2    1    2    0    0  0.00000000000E+00  0.00000000000E+00  0.11409414705E+04  0.32269215097E+04  0.30184888588E+04 0.  0.
        3    1    3    3  502    0  0.80507143617E+03 -0.81243586900E+03 -0.48222073250E+03  0.12412610135E+04  0.10100000352E+00 0.  1.
       -3    1    3    3    0  502 -0.80507143617E+03  0.81243586900E+03  0.16231622030E+04  0.19856604962E+04  0.10100000352E+00 0. -1.
</event>
<event>
 5   0  0.6792811E-06  0.2937468E+04  0.7818609E-02  0.8261816E-01
       -2   -1    0    0    0  501  0.00000000000E+00  0.00000000000E+00  0.11321987382E+04  0.11321987382E+04  0.25500000920E-02 0. -1.
        2   -1    0    0  501    0  0.00000000000E+00  0.00000000000E+00 -0.19053010437E+04  0.19053010437E+04  0.25500000920E-02 0.  1.
    10030    2    1    2    0    0  0.00000000000E+00  0.00000000000E+00 -0.77310230550E+03  0.30374997820E+04  0.29374679149E+04 0.  0.
        2    1    3    3  502    0 -0.26327274116E+03  0.51673838881E+03 -0.17818910458E+04  0.18738908180E+04  0.25500000920E-02 0.  1.
       -2    1    3    3    0  502  0.26327274116E+03 -0.51673838881E+03  0.10087887403E+04  0.11636089640E+04  0.25500000920E-02 0. -1.
</event>
<event>
 5   0  0.7193153E-06  0.2961392E+04  0.7818609E-02  0.8254842E-01
       -2   -1    0    0    0  501  0.00000000000E+00  0.00000000000E+00  0.15602710999E+04  0.15602710999E+04  0.25500000920E-02 0. -1.
        2   -1    0    0  501    0  0.00000000000E+00  0.00000000000E+00 -0.14051792838E+04  0.14051792838E+04  0.25500000920E-02 0.  1.
    10030    2    1    2    0    0  0.00000000000E+00  0.00000000000E+00  0.15509181610E+03  0.29654503836E+04  0.29613919880E+04 0.  0.
        4    1    3    3  502    0  0.56850756011E+03  0.31919305197E+03 -0.12537021626E+04  0.14131014739E+04  0.12699999809E+01 0.  1.
       -4    1    3    3    0  502 -0.56850756011E+03 -0.31919305197E+03  0.14087939786E+04  0.15523489097E+04  0.12699999809E+01 0. -1.
</event>
<event>
 5   0  0.2422083E-06  0.3008571E+04  0.7818609E-02  0.8241288E-01
        1   -1    0    0  501    0  0.00000000000E+00  0.00000000000E+00  0.13479292109E+04  0.13479292109E+04  0.50400001928E-02 0. -1.
       -1   -1    0    0    0  501  0.00000000000E+00  0.00000000000E+00 -0.16787784188E+04  0.16787784188E+04  0.50400001928E-02 0.  1.
    10030    2    1    2    0    0  0.00000000000E+00  0.00000000000E+00 -0.33084920798E+03  0.30267076297E+04  0.30085707366E+04 0.  0.
        2    1    3    3  502    0  0.12755743233E+04  0.79074877430E+03 -0.26851670413E+03  0.15246228054E+04  0.25500000920E-02 0.  1.
       -2    1    3    3    0  502 -0.12755743233E+04 -0.79074877430E+03 -0.62332503859E+02  0.15020848243E+04  0.25500000920E-02 0. -1.
</event>
<event>
 5   0  0.7201538E-06  0.2987111E+04  0.7818609E-02  0.8247421E-01
       -2   -1    0    0    0  501  0.00000000000E+00  0.00000000000E+00  0.10503438993E+04  0.10503438993E+04  0.25500000920E-02 0.  1.
        2   -1    0    0  501    0  0.00000000000E+00  0.00000000000E+00 -0.21237884461E+04  0.21237884461E+04  0.25500000920E-02 0. -1.
    10030    2    1    2    0    0  0.00000000000E+00  0.00000000000E+00 -0.10734445468E+04  0.31741323454E+04  0.29871111381E+04 0.  0.
        3    1    3    3  502    0 -0.67884237966E+03 -0.46844962325E+03 -0.18598464334E+04  0.20345271667E+04  0.10100000352E+00 0. -1.
       -3    1    3    3    0  502  0.67884237966E+03  0.46844962325E+03  0.78640188664E+03  0.11396051788E+04  0.10100000352E+00 0.  1.
</event>
<event>
 5   0  0.6792811E-06  0.3018191E+04  0.7818609E-02  0.8238555E-01
        2   -1    0    0  501    0  0.00000000000E+00  0.00000000000E+00  0.17292557135E+04  0.17292557135E+04  0.25500000920E-02 0.  1.
       -2   -1    0    0    0  501  0.00000000000E+00  0.00000000000E+00 -0.13169650120E+04  0.13169650120E+04  0.25500000920E-02 0. -1.
    10030    2    1    2    0    0  0.00000000000E+00  0.00000000000E+00  0.41229070147E+03  0.30462207255E+04  0.30181910288E+04 0.  0.
        2    1    3    3  502    0 -0.27527421920E+03  0.13759644867E+04  0.76656331398E+03  0.15989601242E+04  0.25500000920E-02 0.  1.
       -2    1    3    3    0  502  0.27527421920E+03 -0.13759644867E+04 -0.35427261250E+03  0.14472606014E+04  0.25500000920E-02 0. -1.
</event>
<event>
 5   0  0.2628425E-06  0.2290304E+04  0.7818609E-02  0.8481754E-01
       -1   -1    0    0    0  501  0.00000000000E+00  0.00000000000E+00  0.87404952429E+03  0.87404952431E+03  0.50400001928E-02 0.  1.
        1   -1    0    0  501    0  0.00000000000E+00  0.00000000000E+00 -0.15003415137E+04  0.15003415137E+04  0.50400001928E-02 0. -1.
    10030    2    1    2    0    0  0.00000000000E+00  0.00000000000E+00 -0.62629198942E+03  0.23743910380E+04  0.22903037234E+04 0.  0.
        1    1    3    3  502    0  0.95945753390E+03  0.61805679821E+03 -0.41050789793E+03  0.12128766217E+04  0.50400001928E-02 0.  1.
       -1    1    3    3    0  502 -0.95945753390E+03 -0.61805679821E+03 -0.21578409149E+03  0.11615144163E+04  0.50400001928E-02 0. -1.
</event>
<event>
 5   0  0.2552990E-06  0.2992138E+04  0.7818609E-02  0.8245979E-01
        1   -1    0    0  501    0  0.00000000000E+00  0.00000000000E+00  0.16703732028E+04  0.16703732029E+04  0.50400001928E-02 0. -1.
       -1   -1    0    0    0  501  0.00000000000E+00  0.00000000000E+00 -0.13399535116E+04  0.13399535116E+04  0.50400001928E-02 0.  1.
    10030    2    1    2    0    0  0.00000000000E+00  0.00000000000E+00  0.33041969123E+03  0.30103267145E+04  0.29921379907E+04 0.  0.
        3    1    3    3  502    0 -0.59488283994E+02 -0.81504384987E+03 -0.10955587232E+04  0.13667787895E+04  0.10100000352E+00 0.  1.
       -3    1    3    3    0  502  0.59488283994E+02  0.81504384987E+03  0.14259784144E+04  0.16435479250E+04  0.10100000352E+00 0. -1.
</event>
<event>
 5   0  0.2504260E-06  0.3332561E+04  0.7818609E-02  0.8154659E-01
        1   -1    0    0  501    0  0.00000000000E+00  0.00000000000E+00  0.21336684892E+04  0.21336684892E+04  0.50400001928E-02 0.  1.
       -1   -1    0    0    0  501  0.00000000000E+00  0.00000000000E+00 -0.13012753682E+04  0.13012753682E+04  0.50400001928E-02 0. -1.
    10030    2    1    2    0    0  0.00000000000E+00  0.00000000000E+00  0.83239312105E+03  0.34349438574E+04  0.33325607264E+04 0.  0.
        4    1    3    3  502    0 -0.97899762003E+03  0.10527618551E+04 -0.45214916817E+03  0.15070449054E+04  0.12699999809E+01 0. -1.
       -4    1    3    3    0  502  0.97899762003E+03 -0.10527618551E+04  0.12845422892E+04  0.19278989520E+04  0.12699999809E+01 0.  1.
</event>
<event>
 5   0  0.2552990E-06  0.2997974E+04  0.7818609E-02  0.8244310E-01
        1   -1    0    0  501    0  0.00000000000E+00  0.00000000000E+00  0.19495168426E+04  0.19495168426E+04  0.50400001928E-02 0. -1.
       -1   -1    0    0    0  501  0.00000000000E+00  0.00000000000E+00 -0.11525735930E+04  0.11525735930E+04  0.50400001928E-02 0.  1.
    10030    2    1    2    0    0  0.00000000000E+00  0.00000000000E+00  0.79694324955E+03  0.31020904356E+04  0.29979737370E+04 0.  0.
        3    1    3    3  502    0 -0.39813541228E+03  0.34146786955E+03  0.18514645981E+04  0.19243267084E+04  0.10100000352E+00 0. -1.
       -3    1    3    3    0  502  0.39813541228E+03 -0.34146786955E+03 -0.10545213485E+04  0.11777637272E+04  0.10100000352E+00 0.  1.
</event>
<event>
 5   0  0.7201538E-06  0.2804373E+04  0.7818609E-02  0.8301912E-01
        2   -1    0    0  501    0  0.00000000000E+00  0.00000000000E+00  0.14191761493E+04  0.14191761493E+04  0.25500000920E-02 0.  1.
       -2   -1    0    0    0  501  0.00000000000E+00  0.00000000000E+00 -0.13854005525E+04  0.13854005525E+04  0.25500000920E-02 0. -1.
    10030    2    1    2    0    0  0.00000000000E+00  0.00000000000E+00  0.33775596831E+02  0.28045767019E+04  0.28043733143E+04 0.  0.
        3    1    3    3  502    0  0.64387026228E+03  0.72732003209E+02 -0.12266928573E+04  0.13873118738E+04  0.10100000352E+00 0. -1.
       -3    1    3    3    0  502 -0.64387026228E+03 -0.72732003209E+02  0.12604684541E+04  0.14172648281E+04  0.10100000352E+00 0.  1.
</event>
<event>
 5   0  0.2422083E-06  0.3062856E+04  0.7818609E-02  0.8226006E-01
       -1   -1    0    0    0  501  0.00000000000E+00  0.00000000000E+00  0.14295883812E+04  0.14295883812E+04  0.50400001928E-02 0.  1.
        1   -1    0    0  501    0  0.00000000000E+00  0.00000000000E+00 -0.16405226247E+04  0.16405226247E+04  0.50400001928E-02 0. -1.
    10030    2    1    2    0    0  0.00000000000E+00  0.00000000000E+00 -0.21093424347E+03  0.30701110060E+04  0.30628562379E+04 0.  0.
        2    1    3    3  502    0 -0.81425829603E+02  0.35554434100E+03  0.13854126363E+04  0.14326235084E+04  0.25500000920E-02 0.  1.
       -2    1    3    3    0  502  0.81425829603E+02 -0.35554434100E+03 -0.15963468797E+04  0.16374874975E+04  0.25500000920E-02 0. -1.
</event>
<event>
 5   0  0.7217255E-06  0.2953573E+04  0.7818609E-02  0.8257114E-01
       -2   -1    0    0    0  501  0.00000000000E+00  0.00000000000E+00  0.97510101470E+03  0.97510101470E+03  0.25500000920E-02 0. -1.
        2   -1    0    0  501    0  0.00000000000E+00  0.00000000000E+00 -0.22365870784E+04  0.22365870784E+04  0.25500000920E-02 0.  1.
    10030    2    1    2    0    0  0.00000000000E+00  0.00000000000E+00 -0.12614860637E+04  0.32116880931E+04  0.29535729750E+04 0.  0.
        1    1    3    3  502    0  0.10276495614E+04 -0.65959059565E+03  0.27236429715E+03  0.12511217707E+04  0.50400001928E-02 0. -1.
       -1    1    3    3    0  502 -0.10276495614E+04  0.65959059565E+03 -0.15338503608E+04  0.19605663224E+04  0.50400001928E-02 0.  1.
</event>
<event>
 5   0  0.2422083E-06  0.2898456E+04  0.7818609E-02  0.8273337E-01
       -1   -1    0    0    0  501  0.00000000000E+00  0.00000000000E+00  0.21661669568E+04  0.21661669569E+04  0.50400001928E-02 0. -1.
        1   -1    0    0  501    0  0.00000000000E+00  0.00000000000E+00 -0.96957530149E+03  0.96957530150E+03  0.50400001928E-02 0.  1.
    10030    2    1    2    0    0  0.00000000000E+00  0.00000000000E+00  0.11965916554E+04  0.31357422584E+04  0.28984561272E+04 0.  0.
        2    1    3    3  502    0  0.77154948314E+03 -0.52338096824E+03  0.17986536365E+04  0.20259247634E+04  0.25500000920E-02 0. -1.
       -2    1    3    3    0  502 -0.77154948314E+03  0.52338096824E+03 -0.60206198119E+03  0.11098174949E+04  0.25500000920E-02 0.  1.
</event>
<event>
 5   0  0.2552990E-06  0.2942986E+04  0.7818609E-02  0.8260202E-01
        1   -1    0    0  501    0  0.00000000000E+00  0.00000000000E+00  0.17872308029E+04  0.17872308029E+04  0.50400001928E-02 0. -1.
       -1   -1    0    0    0  501  0.00000000000E+00  0.00000000000E+00 -0.12115342770E+04  0.12115342770E+04  0.50400001928E-02 0.  1.
    10030    2    1    2    0    0  0.00000000000E+00  0.00000000000E+00  0.57569652584E+03  0.29987650799E+04  0.29429858162E+04 0.  0.
        3    1    3    3  502    0 -0.37250020408E+03  0.14234524374E+04  0.30602236648E+03  0.15028715656E+04  0.10100000352E+00 0.  1.
       -3    1    3    3    0  502  0.37250020408E+03 -0.14234524374E+04  0.26967415936E+03  0.14958935143E+04  0.10100000352E+00 0. -1.
</event>
<event>
 5   0  0.7217255E-06  0.2990082E+04  0.7818609E-02  0.8246569E-01
       -2   -1    0    0    0  501  0.00000000000E+00  0.00000000000E+00  0.12653333344E+04  0.12653333344E+04  0.25500000920E-02 0. -1.
        2   -1    0    0  501    0  0.00000000000E+00  0.00000000000E+00 -0.17664495599E+04  0.17664495599E+04  0.25500000920E-02 0.  1.
    10030    2    1    2    0    0  0.00000000000E+00  0.00000000000E+00 -0.50111622546E+03  0.30317828943E+04  0.29900819465E+04 0.  0.
        1    1    3    3  502    0  0.80754793483E+03 -0.81367749954E+02 -0.15236134288E+04  0.17263117500E+04  0.50400001928E-02 0.  1.
       -1    1    3    3    0  502 -0.80754793483E+03  0.81367749954E+02  0.10224972033E+04  0.13054711443E+04  0.50400001928E-02 0. -1.
</event>
<event>
 5   0  0.2504260E-06  0.2988419E+04  0.7818609E-02  0.8247046E-01
       -1   -1    0    0    0  501  0.00000000000E+00  0.00000000000E+00  0.19820009670E+04  0.19820009670E+04  0.50400001928E-02 0.  1.
        1   -1    0    0  501    0  0.00000000000E+00  0.00000000000E+00 -0.11264688351E+04  0.11264688351E+04  0.50400001928E-02 0. -1.
    10030    2    1    2    0    0  0.00000000000E+00  0.00000000000E+00  0.85553213192E+03  0.31084698021E+04  0.29884191944E+04 0.  0.
        4    1    3    3  502    0 -0.30157925641E+03 -0.58676814795E+03 -0.96676814004E+03  0.11704226403E+04  0.12699999809E+01 0. -1.
       -4    1    3    3    0  502  0.30157925641E+03  0.58676814795E+03  0.18223002720E+04  0.19380471618E+04  0.12699999809E+01 0.  1.
</event>
<event>
 5   0  0.6792811E-06  0.2985010E+04  0.7818609E-02  0.8248024E-01
        2   -1    0    0  501    0  0.00000000000E+00  0.00000000000E+00  0.22828270350E+04  0.22828270350E+04  0.25500000920E-02 0.  1.
       -2   -1    0    0    0  501  0.00000000000E+00  0.00000000000E+00 -0.97579525257E+03  0.97579525258E+03  0.25500000920E-02 0. -1.
    10030    2    1    2    0    0  0.00000000000E+00  0.00000000000E+00  0.13070317824E+04  0.32586222876E+04  0.29850104075E+04 0.  0.
        2    1    3    3  502    0  0.63714607738E+03 -0.12667411764E+04  0.11620282123E+04  0.18332751834E+04  0.25500000920E-02 0. -1.
       -2    1    3    3    0  502 -0.63714607738E+03  0.12667411764E+04  0.14500357015E+03  0.14253471042E+04  0.25500000920E-02 0.  1.
</event>
<event>
 5   0  0.2672155E-06  0.2773029E+04  0.7818609E-02  0.8311691E-01
       -1   -1    0    0    0  501  0.00000000000E+00  0.00000000000E+00  0.15393376861E+04  0.15393376861E+04  0.50400001928E-02 0.  1.
        1   -1    0    0  501    0  0.00000000000E+00  0.00000000000E+00 -0.12488632254E+04  0.12488632254E+04  0.50400001928E-02 0. -1.
    10030    2    1    2    0    0  0.00000000000E+00  0.00000000000E+00  0.29047446067E+03  0.27882009115E+04  0.27730288333E+04 0.  0.
        5    1    3    3  502    0  0.62158928623E+03  0.11478281943E+04 -0.32477875151E+03  0.13451342430E+04  0.46999998093E+01 0. -1.
       -5    1    3    3    0  502 -0.62158928623E+03 -0.11478281943E+04  0.61525321218E+03  0.14430666684E+04  0.46999998093E+01 0.  1.
</event>
<event>
 5   0  0.7201538E-06  0.2941677E+04  0.7818609E-02  0.8260584E-01
       -2   -1    0    0    0  501  0.00000000000E+00  0.00000000000E+00  0.82830739704E+03  0.82830739704E+03  0.25500000920E-02 0. -1.
        2   -1    0    0  501    0  0.00000000000E+00  0.00000000000E+00 -0.26117907400E+04  0.26117907400E+04  0.25500000920E-02 0.  1.
    10030    2    1    2    0    0  0.00000000000E+00  0.00000000000E+00 -0.17834833429E+04  0.34400981370E+04  0.29416767935E+04 0.  0.
        3    1    3    3  502    0 -0.39579536277E+03 -0.14106114236E+04 -0.73977358015E+03  0.16412627814E+04  0.10100000352E+00 0. -1.
       -3    1    3    3    0  502  0.39579536277E+03  0.14106114236E+04 -0.10437097628E+04  0.17988353556E+04  0.10100000352E+00 0.  1.
</event>
<event>
 5   0  0.2422083E-06  0.3017570E+04  0.7818609E-02  0.8238731E-01
       -1   -1    0    0    0  501  0.00000000000E+00  0.00000000000E+00  0.16643411939E+04  0.16643411940E+04  0.50400001928E-02 0.  1.
        1   -1    0    0  501    0  0.00000000000E+00  0.00000000000E+00 -0.13677680815E+04  0.13677680815E+04  0.50400001928E-02 0. -1.
    10030    2    1    2    0    0  0.00000000000E+00  0.00000000000E+00  0.29657311244E+03  0.30321092755E+04  0.30175703881E+04 0.  0.
        2    1    3    3  502    0  0.28489787481E+03 -0.38628027812E+03 -0.12890085054E+04  0.13754716207E+04  0.25500000920E-02 0. -1.
       -2    1    3    3    0  502 -0.28489787481E+03  0.38628027812E+03  0.15855816178E+04  0.16566376548E+04  0.25500000920E-02 0.  1.
</event>
<event>
 5   0  0.6792811E-06  0.2985481E+04  0.7818609E-02  0.8247889E-01
       -2   -1    0    0    0  501  0.00000000000E+00  0.00000000000E+00  0.13423234342E+04  0.13423234342E+04  0.25500000920E-02 0. -1.
        2   -1    0    0  501    0  0.00000000000E+00  0.00000000000E+00 -0.16600129924E+04  0.16600129924E+04  0.25500000920E-02 0.  1.
    10030    2    1    2    0    0  0.00000000000E+00  0.00000000000E+00 -0.31768955822E+03  0.30023364266E+04  0.29854810941E+04 0.  0.
        2    1    3    3  502    0 -0.85358093703E+03  0.11549073675E+04 -0.56840677778E+03  0.15445056519E+04  0.25500000920E-02 0.  1.
       -2    1    3    3    0  502  0.85358093703E+03 -0.11549073675E+04  0.25071721956E+03  0.14578307747E+04  0.25500000920E-02 0. -1.
</event>
<event>
 5   0  0.7217255E-06  0.2585943E+04  0.7818609E-02  0.8372992E-01
        2   -1    0    0  501    0  0.00000000000E+00  0.00000000000E+00  0.69575826410E+03  0.69575826410E+03  0.25500000920E-02 0. -1.
       -2   -1    0    0    0  501  0.00000000000E+00  0.00000000000E+00 -0.24028107761E+04  0.24028107761E+04  0.25500000920E-02 0.  1.
    10030    2    1    2    0    0  0.00000000000E+00  0.00000000000E+00 -0.17070525120E+04  0.30985690402E+04  0.25859431197E+04 0.  0.
        1    1    3    3  502    0  0.11997611794E+04 -0.42281423336E+03 -0.57617498969E+03  0.13964871579E+04  0.50400001928E-02 0.  1.
       -1    1    3    3    0  502 -0.11997611794E+04  0.42281423336E+03 -0.11308775223E+04  0.17020818823E+04  0.50400001928E-02 0. -1.
</event>
<event>
 5   0  0.2552990E-06  0.3017765E+04  0.7818609E-02  0.8238676E-01
        1   -1    0    0  501    0  0.00000000000E+00  0.00000000000E+00  0.17422558523E+04  0.17422558523E+04  0.50400001928E-02 0. -1.
       -1   -1    0    0    0  501  0.00000000000E+00  0.00000000000E+00 -0.13067694278E+04  0.13067694278E+04  0.50400001928E-02 0.  1.
    10030    2    1    2    0    0  0.00000000000E+00  0.00000000000E+00  0.43548642452E+03  0.30490252801E+04  0.30177651885E+04 0.  0.
        3    1    3    3  502    0  0.30896630683E+03 -0.34853429268E+03  0.16678069410E+04  0.17316224573E+04  0.10100000352E+00 0. -1.
       -3    1    3    3    0  502 -0.30896630683E+03  0.34853429268E+03 -0.12323205165E+04  0.13174028228E+04  0.10100000352E+00 0.  1.
</event>
<event>
 5   0  0.2504260E-06  0.2976052E+04  0.7818609E-02  0.8250603E-01
        1   -1    0    0  501    0  0.00000000000E+00  0.00000000000E+00  0.15760902960E+04  0.15760902960E+04  0.50400001928E-02 0. -1.
       -1   -1    0    0    0  501  0.00000000000E+00  0.00000000000E+00 -0.14048822551E+04  0.14048822551E+04  0.50400001928E-02 0.  1.
    10030    2    1    2    0    0  0.00000000000E+00  0.00000000000E+00  0.17120804093E+03  0.29809725511E+04  0.29760519413E+04 0.  0.
        4    1    3    3  502    0  0.13892385682E+04 -0.52442917979E+03 -0.10522942172E+02  0.14849653562E+04  0.12699999809E+01 0.  1.
       -4    1    3    3    0  502 -0.13892385682E+04  0.52442917979E+03  0.18173098310E+03  0.14960071949E+04  0.12699999809E+01 0. -1.
</event>
<event>
 5   0  0.6792811E-06  0.3017192E+04  0.7818609E-02  0.8238839E-01
       -2   -1    0    0    0  501  0.00000000000E+00  0.00000000000E+00  0.16158220711E+04  0.16158220711E+04  0.25500000920E-02 0.  1.
        2   -1    0    0  501    0  0.00000000000E+00  0.00000000000E+00 -0.14084857191E+04  0.14084857191E+04  0.25500000920E-02 0. -1.
    10030    2    1    2    0    0  0.00000000000E+00  0.00000000000E+00  0.20733635202E+03  0.30243077902E+04  0.30171922788E+04 0.  0.
        2    1    3    3  502    0  0.32319118428E+03 -0.20745650957E+03  0.15660026712E+04  0.16124066209E+04  0.25500000920E-02 0.  1.
       -2    1    3    3    0  502 -0.32319118428E+03  0.20745650957E+03 -0.13586663192E+04  0.14119011693E+04  0.25500000920E-02 0. -1.
</event>
<event>
 5   0  0.7193153E-06  0.2998031E+04  0.7818609E-02  0.8244293E-01
       -2   -1    0    0    0  501  0.00000000000E+00  0.00000000000E+00  0.14263572704E+04  0.14263572704E+04  0.25500000920E-02 0.  1.
        2   -1    0    0  501    0  0.00000000000E+00  0.00000000000E+00 -0.15753749267E+04  0.15753749267E+04  0.25500000920E-02 0. -1.
    10030    2    1    2    0    0  0.00000000000E+00  0.00000000000E+00 -0.14901765630E+03  0.30017321972E+04  0.29980310074E+04 0.  0.
        4    1    3    3  502    0 -0.91619497428E+03  0.26612605544E+03 -0.12321410179E+04  0.15583354611E+04  0.12699999809E+01 0. -1.
       -4    1    3    3    0  502  0.91619497428E+03 -0.26612605544E+03  0.10831233616E+04  0.14433967361E+04  0.12699999809E+01 0.  1.
</event>
<event>
 5   0  0.7201538E-06  0.2984402E+04  0.7818609E-02  0.8248199E-01
        2   -1    0    0  501    0  0.00000000000E+00  0.00000000000E+00  0.15707536456E+04  0.15707536456E+04  0.25500000920E-02 0. -1.
       -2   -1    0    0    0  501  0.00000000000E+00  0.00000000000E+00 -0.14175770121E+04  0.14175770121E+04  0.25500000920E-02 0.  1.
    10030    2    1    2    0    0  0.00000000000E+00  0.00000000000E+00  0.15317663346E+03  0.29883306577E+04  0.29844022918E+04 0.  0.
        3    1    3    3  502    0  0.73539349023E+03  0.10392028905E+04 -0.70284365914E+03  0.14542130011E+04  0.10100000352E+00 0. -1.
       -3    1    3    3    0  502 -0.73539349023E+03 -0.10392028905E+04  0.85602029260E+03  0.15341176567E+04  0.10100000352E+00 0.  1.
</event>
<event>
 5   0  0.6780150E-06  0.2975367E+04  0.7818609E-02  0.8250800E-01
       -2   -1    0    0    0  501  0.00000000000E+00  0.00000000000E+00  0.98591357747E+03  0.98591357747E+03  0.25500000920E-02 0.  1.
        2   -1    0    0  501    0  0.00000000000E+00  0.00000000000E+00 -0.22448244101E+04  0.22448244101E+04  0.25500000920E-02 0. -1.
    10030    2    1    2    0    0  0.00000000000E+00  0.00000000000E+00 -0.12589108327E+04  0.32307379876E+04  0.29753674496E+04 0.  0.
        5    1    3    3  502    0 -0.82844059966E+03 -0.83498508597E+03  0.35958263526E+03  0.12299738544E+04  0.46999998093E+01 0.  1.
       -5    1    3    3    0  502  0.82844059966E+03  0.83498508597E+03 -0.16184934679E+04  0.20007641332E+04  0.46999998093E+01 0. -1.
</event>
<event>
 5   0  0.2504260E-06  0.2760422E+04  0.7818609E-02  0.8315662E-01
       -1   -1    0    0    0  501  0.00000000000E+00  0.00000000000E+00  0.20503334105E+04  0.20503334105E+04  0.50400001928E-02 0.  1.
        1   -1    0    0  501    0  0.00000000000E+00  0.00000000000E+00 -0.92910880907E+03  0.92910880908E+03  0.50400001928E-02 0. -1.
    10030    2    1    2    0    0  0.00000000000E+00  0.00000000000E+00  0.11212246014E+04  0.29794422196E+04  0.27604223106E+04 0.  0.
        4    1    3    3  502    0  0.71881989262E+03 -0.79227624251E+03  0.15019190796E+04  0.18439539629E+04  0.12699999809E+01 0.  1.
       -4    1    3    3    0  502 -0.71881989262E+03  0.79227624251E+03 -0.38069447822E+03  0.11354882567E+04  0.12699999809E+01 0. -1.
</event>
<event>
 5   0  0.2672155E-06  0.2953773E+04  0.7818609E-02  0.8257056E-01
       -1   -1    0    0    0  501  0.00000000000E+00  0.00000000000E+00  0.13125933437E+04  0.13125933437E+04  0.50400001928E-02 0. -1.
        1   -1    0    0  501    0  0.00000000000E+00  0.00000000000E+00 -0.16617439984E+04  0.16617439984E+04  0.50400001928E-02 0.  1.
    10030    2    1    2    0    0  0.00000000000E+00  0.00000000000E+00 -0.34915065468E+03  0.29743373421E+04  0.29537732555E+04 0.  0.
        5    1    3    3  502    0  0.24401410888E+02  0.14760376669E+04 -0.13080549981E+03  0.14820306311E+04  0.46999998093E+01 0. -1.
       -5    1    3    3    0  502 -0.24401410888E+02 -0.14760376669E+04 -0.21834515486E+03  0.14923067109E+04  0.46999998093E+01 0.  1.
</event>
<event>
 5   0  0.2628425E-06  0.2872591E+04  0.7818609E-02  0.8281079E-01
        1   -1    0    0  501    0  0.00000000000E+00  0.00000000000E+00  0.17151426633E+04  0.17151426633E+04  0.50400001928E-02 0. -1.
       -1   -1    0    0    0  501  0.00000000000E+00  0.00000000000E+00 -0.12027831247E+04  0.12027831247E+04  0.50400001928E-02 0.  1.
    10030    2    1    2    0    0  0.00000000000E+00  0.00000000000E+00  0.51235953861E+03  0.29179257880E+04  0.28725909224E+04 0.  0.
        1    1    3    3  502    0 -0.34628561347E+03 -0.11986791835E+04  0.97888493723E+03  0.15858629296E+04  0.50400001928E-02 0. -1.
       -1    1    3    3    0  502  0.34628561347E+03  0.11986791835E+04 -0.46652539862E+03  0.13320628584E+04  0.50400001928E-02 0.  1.
</event>
<event>
 5   0  0.7193153E-06  0.2858270E+04  0.7818609E-02  0.8285403E-01
       -2   -1    0    0    0  501  0.00000000000E+00  0.00000000000E+00  0.10324875746E+04  0.10324875746E+04  0.25500000920E-02 0.  1.
        2   -1    0    0  501    0  0.00000000000E+00  0.00000000000E+00 -0.19781610714E+04  0.19781610714E+04  0.25500000920E-02 0. -1.
    10030    2    1    2    0    0  0.00000000000E+00  0.00000000000E+00 -0.94567349672E+03  0.30106486460E+04  0.28582699150E+04 0.  0.
        4    1    3    3  502    0  0.31204647477E+03  0.13391127532E+04 -0.88326231896E+03  0.16342429150E+04  0.12699999809E+01 0. -1.
       -4    1    3    3    0  502 -0.31204647477E+03 -0.13391127532E+04 -0.62411177765E+02  0.13764057310E+04  0.12699999809E+01 0.  1.
</event>
<event>
 5   0  0.7193153E-06  0.2981511E+04  0.7818609E-02  0.8249030E-01
        2   -1    0    0  501    0  0.00000000000E+00  0.00000000000E+00  0.22715099375E+04  0.22715099375E+04  0.25500000920E-02 0.  1.
       -2   -1    0    0    0  501  0.00000000000E+00  0.00000000000E+00 -0.97835877997E+03  0.97835877997E+03  0.25500000920E-02 0. -1.
    10030    2    1    2    0    0  0.00000000000E+00  0.00000000000E+00  0.12931511575E+04  0.32498687175E+04  0.29815108191E+04 0.  0.
        4    1    3    3  502    0  0.21138915351E+03 -0.13919306882E+04  0.11236780852E+03  0.14123684195E+04  0.12699999809E+01 0. -1.
       -4    1    3    3    0  502 -0.21138915351E+03  0.13919306882E+04  0.11807833490E+04  0.18375002980E+04  0.12699999809E+01 0.  1.
</event>
<event>
 5   0  0.2298500E-06  0.3075863E+04  0.7818609E-02  0.8222394E-01
        3   -1    0    0  501    0  0.00000000000E+00  0.00000000000E+00  0.25924295141E+04  0.25924295161E+04  0.10100000352E+00 0.  1.
       -3   -1    0    0    0  501  0.00000000000E+00  0.00000000000E+00 -0.91236141149E+03  0.91236141708E+03  0.10100000352E+00 0. -1.
    10030    2    1    2    0    0  0.00000000000E+00  0.00000000000E+00  0.16800681026E+04  0.35047909332E+04  0.30758625873E+04 0.  0.
        1    1    3    3  502    0 -0.65569419581E+03 -0.12197545953E+04  0.16022710311E+04  0.21177838908E+04  0.50400001928E-02 0.  1.
       -1    1    3    3    0  502  0.65569419581E+03  0.12197545953E+04  0.77797071487E+02  0.13870070423E+04  0.50400001928E-02 0. -1.
</event>
<event>
 5   0  0.6792811E-06  0.2787931E+04  0.7818609E-02  0.8307025E-01
        2   -1    0    0  501    0  0.00000000000E+00  0.00000000000E+00  0.22527177068E+04  0.22527177068E+04  0.25500000920E-02 0.  1.
       -2   -1    0    0    0  501  0.00000000000E+00  0.00000000000E+00 -0.86257589866E+03  0.86257589867E+03  0.25500000920E-02 0. -1.
    10030    2    1    2    0    0  0.00000000000E+00  0.00000000000E+00  0.13901418082E+04  0.31152936055E+04  0.27879311329E+04 0.  0.
        2    1    3    3  502    0 -0.40583485445E+03 -0.12788379496E+04  0.27249714076E+03  0.13690811233E+04  0.25500000920E-02 0. -1.
       -2    1    3    3    0  502  0.40583485445E+03  0.12788379496E+04  0.11176446674E+04  0.17462124822E+04  0.25500000920E-02 0.  1.
</event>
<event>
 5   0  0.2422083E-06  0.2987505E+04  0.7818609E-02  0.8247308E-01
        1   -1    0    0  501    0  0.00000000000E+00  0.00000000000E+00  0.14268801341E+04  0.14268801341E+04  0.50400001928E-02 0.  1.
       -1   -1    0    0    0  501  0.00000000000E+00  0.00000000000E+00 -0.15637588935E+04  0.15637588935E+04  0.50400001928E-02 0. -1.
    10030    2    1    2    0    0  0.00000000000E+00  0.00000000000E+00 -0.13687875942E+03  0.29906390275E+04  0.29875049788E+04 0.  0.
        2    1    3    3  502    0 -0.80437165729E+03 -0.11965659808E+04 -0.45937766795E+03  0.15132123947E+04  0.25500000920E-02 0. -1.
       -2    1    3    3    0  502  0.80437165729E+03  0.11965659808E+04  0.32249890853E+03  0.14774266329E+04  0.25500000920E-02 0.  1.
</event>
<event>
 5   0  0.2552990E-06  0.2914023E+04  0.7818609E-02  0.8268717E-01
       -1   -1    0    0    0  501  0.00000000000E+00  0.00000000000E+00  0.11144196144E+04  0.11144196144E+04  0.50400001928E-02 0. -1.
        1   -1    0    0  501    0  0.00000000000E+00  0.00000000000E+00 -0.19049224320E+04  0.19049224321E+04  0.50400001928E-02 0.  1.
    10030    2    1    2    0    0  0.00000000000E+00  0.00000000000E+00 -0.79050281767E+03  0.30193420464E+04  0.29140232821E+04 0.  0.
        3    1    3    3  502    0  0.14189394499E+04 -0.27645849735E+03 -0.58365966976E+03  0.15589987439E+04  0.10100000352E+00 0.  1.
       -3    1    3    3    0  502 -0.14189394499E+04  0.27645849735E+03 -0.20684314791E+03  0.14603433025E+04  0.10100000352E+00 0. -1.
</event>
<event>
 5   0  0.6780150E-06  0.3019989E+04  0.7818609E-02  0.8238046E-01
       -2   -1    0    0    0  501  0.00000000000E+00  0.00000000000E+00  0.17300519817E+04  0.17300519817E+04  0.25500000920E-02 0. -1.
        2   -1    0    0  501    0  0.00000000000E+00  0.00000000000E+00 -0.13179275716E+04  0.13179275716E+04  0.25500000920E-02 0.  1.
    10030    2    1    2    0    0  0.00000000000E+00  0.00000000000E+00  0.41212441005E+03  0.30479795533E+04  0.30199888787E+04 0.  0.
        5    1    3    3  502    0 -0.63958732692E+03  0.96339773491E+03  0.11860686307E+04  0.16564987266E+04  0.46999998093E+01 0. -1.
       -5    1    3    3    0  502  0.63958732692E+03 -0.96339773491E+03 -0.77394422066E+03  0.13914808267E+04  0.46999998093E+01 0.  1.
</event>
<event>
 5   0  0.7217255E-06  0.2999110E+04  0.7818609E-02  0.8243985E-01
        2   -1    0    0  501    0  0.00000000000E+00  0.00000000000E+00  0.14793483238E+04  0.14793483238E+04  0.25500000920E-02 0.  1.
       -2   -1    0    0    0  501  0.00000000000E+00  0.00000000000E+00 -0.15200373766E+04  0.15200373766E+04  0.25500000920E-02 0. -1.
    10030    2    1    2    0    0  0.00000000000E+00  0.00000000000E+00 -0.40689052816E+02  0.29993857005E+04  0.29991096981E+04 0.  0.
        1    1    3    3  502    0  0.67784239784E+03 -0.89898994932E+03  0.97020687030E+03  0.14862552326E+04  0.50400001928E-02 0.  1.
       -1    1    3    3    0  502 -0.67784239784E+03  0.89898994932E+03 -0.10108959231E+04  0.15131304678E+04  0.50400001928E-02 0. -1.
</event>
<event>
 5   0  0.2504260E-06  0.2864274E+04  0.7818609E-02  0.8283587E-01
       -1   -1    0    0    0  501  0.00000000000E+00  0.00000000000E+00  0.14942993483E+04  0.14942993483E+04  0.50400001928E-02 0.  1.
        1   -1    0    0  501    0  0.00000000000E+00  0.00000000000E+00 -0.13725601393E+04  0.13725601393E+04  0.50400001928E-02 0. -1.
    10030    2    1    2    0    0  0.00000000000E+00  0.00000000000E+00  0.12173920897E+03  0.28668594876E+04  0.28642735356E+04 0.  0.
        4    1    3    3  502    0 -0.10039710830E+04  0.28773508059E+03 -0.91994607178E+03  0.13917800832E+04  0.12699999809E+01 0. -1.
       -4    1    3    3    0  502  0.10039710830E+04 -0.28773508059E+03  0.10416852808E+04  0.14750794044E+04  0.12699999809E+01 0.  1.
</event>
<event>
 5   0  0.2504260E-06  0.3004438E+04  0.7818609E-02  0.8242465E-01
        1   -1    0    0  501    0  0.00000000000E+00  0.00000000000E+00  0.23693791680E+04  0.23693791680E+04  0.50400001928E-02 0. -1.
       -1   -1    0    0    0  501  0.00000000000E+00  0.00000000000E+00 -0.95242735160E+03  0.95242735161E+03  0.50400001928E-02 0.  1.
    10030    2    1    2    0    0  0.00000000000E+00  0.00000000000E+00  0.14169518164E+04  0.33218065196E+04  0.30044377350E+04 0.  0.
        4    1    3    3  502    0  0.18764043918E+03  0.13713334451E+04  0.13540138871E+04  0.19362643341E+04  0.12699999809E+01 0. -1.
       -4    1    3    3    0  502 -0.18764043918E+03 -0.13713334451E+04  0.62937929346E+02  0.13855421856E+04  0.12699999809E+01 0.  1.
</event>
<event>
 5   0  0.2672155E-06  0.2989475E+04  0.7818609E-02  0.8246743E-01
       -1   -1    0    0    0  501  0.00000000000E+00  0.00000000000E+00  0.23039009704E+04  0.23039009704E+04  0.50400001928E-02 0.  1.
        1   -1    0    0  501    0  0.00000000000E+00  0.00000000000E+00 -0.96976387363E+03  0.96976387364E+03  0.50400001928E-02 0. -1.
    10030    2    1    2    0    0  0.00000000000E+00  0.00000000000E+00  0.13341370968E+04  0.32736648441E+04  0.29894748231E+04 0.  0.
        5    1    3    3  502    0 -0.41376067042E+03 -0.23784874397E+03 -0.88407953409E+03  0.10046833481E+04  0.46999998093E+01 0. -1.
       -5    1    3    3    0  502  0.41376067042E+03  0.23784874397E+03  0.22182166309E+04  0.22689814959E+04  0.46999998093E+01 0.  1.
</event>
<event>
 5   0  0.7193153E-06  0.2369542E+04  0.7818609E-02  0.8450995E-01
        2   -1    0    0  501    0  0.00000000000E+00  0.00000000000E+00  0.87561898628E+03  0.87561898629E+03  0.25500000920E-02 0. -1.
       -2   -1    0    0    0  501  0.00000000000E+00  0.00000000000E+00 -0.16030741316E+04  0.16030741316E+04  0.25500000920E-02 0.  1.
    10030    2    1    2    0    0  0.00000000000E+00  0.00000000000E+00 -0.72745514530E+03  0.24786931179E+04  0.23695418511E+04 0.  0.
        4    1    3    3  502    0 -0.47646548193E+03 -0.33431960612E+03  0.71574366117E+03  0.92253973134E+03  0.12699999809E+01 0. -1.
       -4    1    3    3    0  502  0.47646548193E+03  0.33431960612E+03 -0.14431988065E+04  0.15561533865E+04  0.12699999809E+01 0.  1.
</event>
<event>
 5   0  0.2672155E-06  0.3023499E+04  0.7818609E-02  0.8237052E-01
       -1   -1    0    0    0  501  0.00000000000E+00  0.00000000000E+00  0.11456287412E+04  0.11456287412E+04  0.50400001928E-02 0.  1.
        1   -1    0    0  501    0  0.00000000000E+00  0.00000000000E+00 -0.19948759176E+04  0.19948759176E+04  0.50400001928E-02 0. -1.
    10030    2    1    2    0    0  0.00000000000E+00  0.00000000000E+00 -0.84924717636E+03  0.31405046588E+04  0.30234994204E+04 0.  0.
        5    1    3    3  502    0  0.12669857560E+04 -0.81919447566E+03 -0.32590567242E+03  0.15435572850E+04  0.46999998093E+01 0.  1.
       -5    1    3    3    0  502 -0.12669857560E+04  0.81919447566E+03 -0.52334150394E+03  0.15969473738E+04  0.46999998093E+01 0. -1.
</event>
<event>
 5   0  0.7201538E-06  0.2505411E+04  0.7818609E-02  0.8401060E-01
       -2   -1    0    0    0  501  0.00000000000E+00  0.00000000000E+00  0.13167539852E+04  0.13167539852E+04  0.25500000920E-02 0.  1.
        2   -1    0    0  501    0  0.00000000000E+00  0.00000000000E+00 -0.11917720800E+04  0.11917720800E+04  0.25500000920E-02 0. -1.
    10030    2    1    2    0    0  0.00000000000E+00  0.00000000000E+00  0.12498190525E+03  0.25085260652E+04  0.25054106536E+04 0.  0.
        3    1    3    3  502    0 -0.58334095454E+03  0.61493251379E+03  0.98604889570E+03  0.13002773168E+04  0.10100000352E+00 0.  1.
       -3    1    3    3    0  502  0.58334095454E+03 -0.61493251379E+03 -0.86106699046E+03  0.12082487484E+04  0.10100000352E+00 0. -1.
</event>
<event>
 5   0  0.7201538E-06  0.2993466E+04  0.7818609E-02  0.8245599E-01
        2   -1    0    0  501    0  0.00000000000E+00  0.00000000000E+00  0.10281533754E+04  0.10281533754E+04  0.25500000920E-02 0. -1.
       -2   -1    0    0    0  501  0.00000000000E+00  0.00000000000E+00 -0.21788668837E+04  0.21788668837E+04  0.25500000920E-02 0.  1.
    10030    2    1    2    0    0  0.00000000000E+00  0.00000000000E+00 -0.11507135083E+04  0.32070202590E+04  0.29934657780E+04 0.  0.
        3    1    3    3  502    0  0.21093220696E+03 -0.75693059911E+03  0.78940326999E+03  0.11138194920E+04  0.10100000352E+00 0. -1.
       -3    1    3    3    0  502 -0.21093220696E+03  0.75693059911E+03 -0.19401167783E+04  0.20932007671E+04  0.10100000352E+00 0.  1.
</event>
<event>
 5   0  0.2298500E-06  0.2981653E+04  0.7818609E-02  0.8248989E-01
       -3   -1    0    0    0  501  0.00000000000E+00  0.00000000000E+00  0.16804682700E+04  0.16804682731E+04  0.10100000352E+00 0.  1.
        3   -1    0    0  501    0  0.00000000000E+00  0.00000000000E+00 -0.13225858162E+04  0.13225858200E+04  0.10100000352E+00 0. -1.
    10030    2    1    2    0    0  0.00000000000E+00  0.00000000000E+00  0.35788245387E+03  0.30030540931E+04  0.29816529032E+04 0.  0.
        5    1    3    3  502    0 -0.47021018416E+03 -0.83472743078E+03 -0.97148045909E+03  0.13644280389E+04  0.46999998093E+01 0. -1.
       -5    1    3    3    0  502  0.47021018416E+03  0.83472743078E+03  0.13293629130E+04  0.16386260541E+04  0.46999998093E+01 0.  1.
</event>
<event>
 5   0  0.2672155E-06  0.3008811E+04  0.7818609E-02  0.8241219E-01
        1   -1    0    0  501    0  0.00000000000E+00  0.00000000000E+00  0.19308361196E+04  0.19308361196E+04  0.50400001928E-02 0.  1.
       -1   -1    0    0    0  501  0.00000000000E+00  0.00000000000E+00 -0.11721536294E+04  0.11721536294E+04  0.50400001928E-02 0. -1.
    10030    2    1    2    0    0  0.00000000000E+00  0.00000000000E+00  0.75868249021E+03  0.31029897490E+04  0.30088114367E+04 0.  0.
        5    1    3    3  502    0 -0.64880342547E+03  0.13525843543E+04  0.49594737560E+03  0.15800051297E+04  0.46999998093E+01 0.  1.
       -5    1    3    3    0  502  0.64880342547E+03 -0.13525843543E+04  0.26273511461E+03  0.15229846194E+04  0.46999998093E+01 0. -1.
</event>
<event>
 5   0  0.7201538E-06  0.3129524E+04  0.7818609E-02  0.8207682E-01
        2   -1    0    0  501    0  0.00000000000E+00  0.00000000000E+00  0.26014216301E+04  0.26014216301E+04  0.25500000920E-02 0.  1.
       -2   -1    0    0    0  501  0.00000000000E+00  0.00000000000E+00 -0.94120871266E+03  0.94120871267E+03  0.25500000920E-02 0. -1.
    10030    2    1    2    0    0  0.00000000000E+00  0.00000000000E+00  0.16602129175E+04  0.35426303428E+04  0.31295243751E+04 0.  0.
        3    1    3    3  502    0 -0.13656291729E+04 -0.69624348031E+03  0.47432125469E+03  0.16045805323E+04  0.10100000352E+00 0. -1.
       -3    1    3    3    0  502  0.13656291729E+04  0.69624348031E+03  0.11858916628E+04  0.19380498105E+04  0.10100000352E+00 0.  1.
</event>
<event>
 5   0  0.6792811E-06  0.2823561E+04  0.7818609E-02  0.8295991E-01
       -2   -1    0    0    0  501  0.00000000000E+00  0.00000000000E+00  0.12431674424E+04  0.12431674425E+04  0.25500000920E-02 0. -1.
        2   -1    0    0  501    0  0.00000000000E+00  0.00000000000E+00 -0.16032626671E+04  0.16032626671E+04  0.25500000920E-02 0.  1.
    10030    2    1    2    0    0  0.00000000000E+00  0.00000000000E+00 -0.36009522469E+03  0.28464301096E+04  0.28235608366E+04 0.  0.
        2    1    3    3  502    0  0.46915697767E+03  0.10292590806E+04 -0.10316628059E+04  0.15309509038E+04  0.25500000920E-02 0.  1.
       -2    1    3    3    0  502 -0.46915697767E+03 -0.10292590806E+04  0.67156758125E+03  0.13154792058E+04  0.25500000920E-02 0. -1.
</event>
<event>
 5   0  0.7217255E-06  0.2980021E+04  0.7818609E-02  0.8249459E-01
       -2   -1    0    0    0  501  0.00000000000E+00  0.00000000000E+00  0.72782636366E+03  0.72782636367E+03  0.25500000920E-02 0. -1.
        2   -1    0    0  501    0  0.00000000000E+00  0.00000000000E+00 -0.30503588960E+04  0.30503588960E+04  0.25500000920E-02 0.  1.
    10030    2    1    2    0    0  0.00000000000E+00  0.00000000000E+00 -0.23225325323E+04  0.37781852597E+04  0.29800212235E+04 0.  0.
        1    1    3    3  502    0  0.10830817503E+04 -0.38120898300E+03 -0.23652089874E+04  0.26291823674E+04  0.50400001928E-02 0.  1.
       -1    1    3    3    0  502 -0.10830817503E+04  0.38120898300E+03  0.42676455111E+02  0.11490028923E+04  0.50400001928E-02 0. -1.
</event>
<event>
 5   0  0.2628425E-06  0.2928078E+04  0.7818609E-02  0.8264572E-01
       -1   -1    0    0    0  501  0.00000000000E+00  0.00000000000E+00  0.79860067291E+03  0.79860067293E+03  0.50400001928E-02 0. -1.
        1   -1    0    0  501    0  0.00000000000E+00  0.00000000000E+00 -0.26839572721E+04  0.26839572721E+04  0.50400001928E-02 0.  1.
    10030    2    1    2    0    0  0.00000000000E+00  0.00000000000E+00 -0.18853565992E+04  0.34825579450E+04  0.29280779249E+04 0.  0.
        1    1    3    3  502    0 -0.13083880356E+04  0.10680652710E+03 -0.17135889612E+04  0.21586278081E+04  0.50400001928E-02 0.  1.
       -1    1    3    3    0  502  0.13083880356E+04 -0.10680652710E+03 -0.17176763799E+03  0.13239301369E+04  0.50400001928E-02 0. -1.
</event>
<event>
 5   0  0.7193153E-06  0.3079924E+04  0.7818609E-02  0.8221269E-01
       -2   -1    0    0    0  501  0.00000000000E+00  0.00000000000E+00  0.12034998664E+04  0.12034998664E+04  0.25500000920E-02 0. -1.
        2   -1    0    0  501    0  0.00000000000E+00  0.00000000000E+00 -0.19704888327E+04  0.19704888327E+04  0.25500000920E-02 0.  1.
    10030    2    1    2    0    0  0.00000000000E+00  0.00000000000E+00 -0.76698896632E+03  0.31739886991E+04  0.30799240555E+04 0.  0.
        4    1    3    3  502    0  0.57777517289E+03  0.12156971872E+03  0.10822228484E+04  0.12328062513E+04  0.12699999809E+01 0. -1.
       -4    1    3    3    0  502 -0.57777517289E+03 -0.12156971872E+03 -0.18492118147E+04  0.19411824477E+04  0.12699999809E+01 0.  1.
</event>
<event>
 5   0  0.7193153E-06  0.2986342E+04  0.7818609E-02  0.8247642E-01
        2   -1    0    0  501    0  0.00000000000E+00  0.00000000000E+00  0.26771873042E+04  0.26771873042E+04  0.25500000920E-02 0. -1.
       -2   -1    0    0    0  501  0.00000000000E+00  0.00000000000E+00 -0.83279945223E+03  0.83279945224E+03  0.25500000920E-02 0.  1.
    10030    2    1    2    0    0  0.00000000000E+00  0.00000000000E+00  0.18443878520E+04  0.35099867565E+04  0.29863423250E+04 0.  0.
        4    1    3    3  502    0 -0.93572960680E+03 -0.56144563701E+03 -0.27570690095E+03  0.11255340992E+04  0.12699999809E+01 0.  1.
       -4    1    3    3    0  502  0.93572960680E+03  0.56144563701E+03  0.21200947529E+04  0.23844526573E+04  0.12699999809E+01 0. -1.
</event>
<event>
 5   0  0.6780150E-06  0.2997287E+04  0.7818609E-02  0.8244506E-01
       -2   -1    0    0    0  501  0.00000000000E+00  0.00000000000E+00  0.10194018319E+04  0.10194018319E+04  0.25500000920E-02 0.  1.
        2   -1    0    0  501    0  0.00000000000E+00  0.00000000000E+00 -0.22031870956E+04  0.22031870956E+04  0.25500000920E-02 0. -1.
    10030    2    1    2    0    0  0.00000000000E+00  0.00000000000E+00 -0.11837852637E+04  0.32225889275E+04  0.29972874145E+04 0.  0.
        5    1    3    3  502    0  0.95248877794E+03 -0.10650959590E+04 -0.10778005043E+04  0.17897877782E+04  0.46999998093E+01 0. -1.
       -5    1    3    3    0  502 -0.95248877794E+03  0.10650959590E+04 -0.10598475935E+03  0.14328011492E+04  0.46999998093E+01 0.  1.
</event>
<event>
 5   0  0.2504260E-06  0.2997293E+04  0.7818609E-02  0.8244504E-01
       -1   -1    0    0    0  501  0.00000000000E+00  0.00000000000E+00  0.17171240581E+04  0.17171240581E+04  0.50400001928E-02 0.  1.
        1   -1    0    0  501    0  0.00000000000E+00  0.00000000000E+00 -0.13079667198E+04  0.13079667198E+04  0.50400001928E-02 0. -1.
    10030    2    1    2    0    0  0.00000000000E+00  0.00000000000E+00  0.40915733825E+03  0.30250907779E+04  0.29972928598E+04 0.  0.
        4    1    3    3  502    0  0.73552566383E+03  0.47649345513E+03  0.14315406198E+04  0.16784975943E+04  0.12699999809E+01 0.  1.
       -4    1    3    3    0  502 -0.73552566383E+03 -0.47649345513E+03 -0.10223832816E+04  0.13465931837E+04  0.12699999809E+01 0. -1.
</event>
<event>
 5   0  0.2422083E-06  0.2920727E+04  0.7818609E-02  0.8266737E-01
       -1   -1    0    0    0  501  0.00000000000E+00  0.00000000000E+00  0.14901290651E+04  0.14901290651E+04  0.50400001928E-02 0.  1.
        1   -1    0    0  501    0  0.00000000000E+00  0.00000000000E+00 -0.14311920610E+04  0.14311920610E+04  0.50400001928E-02 0. -1.
    10030    2    1    2    0    0  0.00000000000E+00  0.00000000000E+00  0.58937004078E+02  0.29213211261E+04  0.29207265451E+04 0.  0.
        2    1    3    3  502    0 -0.60918785798E+03 -0.17732863255E+03 -0.12861340499E+04  0.14341185741E+04  0.25500000920E-02 0. -1.
       -2    1    3    3    0  502  0.60918785798E+03  0.17732863255E+03  0.13450710540E+04  0.14872025520E+04  0.25500000920E-02 0.  1.
</event>
<event>
 5   0  0.7201538E-06  0.3008658E+04  0.7818609E-02  0.8241263E-01
       -2   -1    0    0    0  501  0.00000000000E+00  0.00000000000E+00  0.11189396625E+04  0.11189396625E+04  0.25500000920E-02 0. -1.
        2   -1    0    0  501    0  0.00000000000E+00  0.00000000000E+00 -0.20224556419E+04  0.20224556419E+04  0.25500000920E-02 0.  1.
    10030    2    1    2    0    0  0.00000000000E+00  0.00000000000E+00 -0.90351597940E+03  0.31413953044E+04  0.30086580619E+04 0.  0.
        3    1    3    3  502    0  0.22967215708E+03  0.10632381764E+04 -0.15367277136E+04  0.18827524520E+04  0.10100000352E+00 0.  1.
       -3    1    3    3    0  502 -0.22967215708E+03 -0.10632381764E+04  0.63321173417E+03  0.12586428524E+04  0.10100000352E+00 0. -1.
</event>
<event>
 5   0  0.7193153E-06  0.2977316E+04  0.7818609E-02  0.8250238E-01
        2   -1    0    0  501    0  0.00000000000E+00  0.00000000000E+00  0.11206953343E+04  0.11206953343E+04  0.25500000920E-02 0.  1.
       -2   -1    0    0    0  501  0.00000000000E+00  0.00000000000E+00 -0.19774348543E+04  0.19774348543E+04  0.25500000920E-02 0. -1.
    10030    2    1    2    0    0  0.00000000000E+00  0.00000000000E+00 -0.85673952007E+03  0.30981301886E+04  0.29773155796E+04 0.  0.
        4    1    3    3  502    0  0.32172438648E+03 -0.11991077832E+04  0.42638435895E+03  0.13126961914E+04  0.12699999809E+01 0.  1.
       -4    1    3    3    0  502 -0.32172438648E+03  0.11991077832E+04 -0.12831238790E+04  0.17854339972E+04  0.12699999809E+01 0. -1.
</event>
<event>
 5   0  0.7193153E-06  0.3046372E+04  0.7818609E-02  0.8230612E-01
       -2   -1    0    0    0  501  0.00000000000E+00  0.00000000000E+00  0.11161935083E+04  0.11161935083E+04  0.25500000920E-02 0.  1.
        2   -1    0    0  501    0  0.00000000000E+00  0.00000000000E+00 -0.20785782088E+04  0.20785782088E+04  0.25500000920E-02 0. -1.
    10030    2    1    2    0    0  0.00000000000E+00  0.00000000000E+00 -0.96238470052E+03  0.31947717172E+04  0.30463719427E+04 0.  0.
        4    1    3    3  502    0  0.12950631605E+04  0.58653919219E+03  0.92135722785E+02  0.14246780050E+04  0.12699999809E+01 0.  1.
       -4    1    3    3    0  502 -0.12950631605E+04 -0.58653919219E+03 -0.10545204233E+04  0.17700937121E+04  0.12699999809E+01 0. -1.
</event>
<event>
 5   0  0.2552990E-06  0.2997847E+04  0.7818609E-02  0.8244346E-01
       -1   -1    0    0    0  501  0.00000000000E+00  0.00000000000E+00  0.11572752925E+04  0.11572752925E+04  0.50400001928E-02 0.  1.
        1   -1    0    0  501    0  0.00000000000E+00  0.00000000000E+00 -0.19414322578E+04  0.19414322578E+04  0.50400001928E-02 0. -1.
    10030    2    1    2    0    0  0.00000000000E+00  0.00000000000E+00 -0.78415696537E+03  0.30987075503E+04  0.29978469501E+04 0.  0.
        3    1    3    3  502    0  0.12492372768E+04  0.26971390742E+03 -0.12016485098E+04  0.17542230522E+04  0.10100000352E+00 0. -1.
       -3    1    3    3    0  502 -0.12492372768E+04 -0.26971390742E+03  0.41749154447E+03  0.13444844981E+04  0.10100000352E+00 0.  1.
</event>
<event>
 5   0  0.2628425E-06  0.2740059E+04  0.7818609E-02  0.8322123E-01
       -1   -1    0    0    0  501  0.00000000000E+00  0.00000000000E+00  0.15401554701E+04  0.15401554701E+04  0.50400001928E-02 0.  1.
        1   -1    0    0  501    0  0.00000000000E+00  0.00000000000E+00 -0.12186956989E+04  0.12186956989E+04  0.50400001928E-02 0. -1.
    10030    2    1    2    0    0  0.00000000000E+00  0.00000000000E+00  0.32145977116E+03  0.27588511690E+04  0.27400590118E+04 0.  0.
        1    1    3    3  502    0 -0.40713549374E+03 -0.12099759682E+04  0.66131133401E+03  0.14377530505E+04  0.50400001928E-02 0.  1.
       -1    1    3    3    0  502  0.40713549374E+03  0.12099759682E+04 -0.33985156285E+03  0.13210981185E+04  0.50400001928E-02 0. -1.
</event>
<event>
 5   0  0.2504260E-06  0.3018643E+04  0.7818609E-02  0.8238427E-01
       -1   -1    0    0    0  501  0.00000000000E+00  0.00000000000E+00  0.81076303952E+03  0.81076303954E+03  0.50400001928E-02 0. -1.
        1   -1    0    0  501    0  0.00000000000E+00  0.00000000000E+00 -0.28097614834E+04  0.28097614834E+04  0.50400001928E-02 0.  1.
    10030    2    1    2    0    0  0.00000000000E+00  0.00000000000E+00 -0.19989984439E+04  0.36205245230E+04  0.30186425828E+04 0.  0.
        4    1    3    3  502    0 -0.14941648673E+04  0.42553529853E+02 -0.12502536914E+04  0.19487112048E+04  0.12699999809E+01 0. -1.
       -4    1    3    3    0  502  0.14941648673E+04 -0.42553529853E+02 -0.74874475250E+03  0.16718133182E+04  0.12699999809E+01 0.  1.
</event>
<event>
 5   0  0.7217255E-06  0.2966114E+04  0.7818609E-02  0.8253474E-01
        2   -1    0    0  501    0  0.00000000000E+00  0.00000000000E+00  0.21230432230E+04  0.21230432230E+04  0.25500000920E-02 0.  1.
       -2   -1    0    0    0  501  0.00000000000E+00  0.00000000000E+00 -0.10359929356E+04  0.10359929356E+04  0.25500000920E-02 0. -1.
    10030    2    1    2    0    0  0.00000000000E+00  0.00000000000E+00  0.10870502874E+04  0.31590361586E+04  0.29661138083E+04 0.  0.
        1    1    3    3  502    0 -0.31594581140E+03  0.14030529620E+04  0.15792927669E+03  0.14468313745E+04  0.50400001928E-02 0. -1.
       -1    1    3    3    0  502  0.31594581140E+03 -0.14030529620E+04  0.92912101075E+03  0.17122047841E+04  0.50400001928E-02 0.  1.
</event>
<event>
 5   0  0.7193153E-06  0.3014164E+04  0.7818609E-02  0.8239698E-01
       -2   -1    0    0    0  501  0.00000000000E+00  0.00000000000E+00  0.26374668790E+04  0.26374668790E+04  0.25500000920E-02 0.  1.
        2   -1    0    0  501    0  0.00000000000E+00  0.00000000000E+00 -0.86116597735E+03  0.86116597735E+03  0.25500000920E-02 0. -1.
    10030    2    1    2    0    0  0.00000000000E+00  0.00000000000E+00  0.17763009016E+04  0.34986328563E+04  0.30141643901E+04 0.  0.
        4    1    3    3  502    0 -0.13649589270E+04  0.53721902207E+02  0.14919593169E+03  0.13741397142E+04  0.12699999809E+01 0.  1.
       -4    1    3    3    0  502  0.13649589270E+04 -0.53721902207E+02  0.16271049699E+04  0.21244931422E+04  0.12699999809E+01 0. -1.
</event>
<event>
 5   0  0.2672155E-06  0.3010690E+04  0.7818609E-02  0.8240685E-01
        1   -1    0    0  501    0  0.00000000000E+00  0.00000000000E+00  0.14712977385E+04  0.14712977385E+04  0.50400001928E-02 0. -1.
       -1   -1    0    0    0  501  0.00000000000E+00  0.00000000000E+00 -0.15401801714E+04  0.15401801714E+04  0.50400001928E-02 0.  1.
    10030    2    1    2    0    0  0.00000000000E+00  0.00000000000E+00 -0.68882432842E+02  0.30114779099E+04  0.30106900226E+04 0.  0.
        5    1    3    3  502    0  0.56766768288E+03 -0.11088077960E+04 -0.87984887909E+03  0.15250762167E+04  0.46999998093E+01 0.  1.
       -5    1    3    3    0  502 -0.56766768288E+03  0.11088077960E+04  0.81096644625E+03  0.14864016932E+04  0.46999998093E+01 0. -1.
</event>
<event>
 5   0  0.7217255E-06  0.2945542E+04  0.7818609E-02  0.8259455E-01
       -2   -1    0    0    0  501  0.00000000000E+00  0.00000000000E+00  0.89693642237E+03  0.89693642238E+03  0.25500000920E-02 0. -1.
        2   -1    0    0  501    0  0.00000000000E+00  0.00000000000E+00 -0.24182917276E+04  0.24182917276E+04  0.25500000920E-02 0.  1.
    10030    2    1    2    0    0  0.00000000000E+00  0.00000000000E+00 -0.15213553052E+04  0.33152281500E+04  0.29455416686E+04 0.  0.
        1    1    3    3  502    0  0.82276641460E+03 -0.48498884841E+03  0.50114343187E+03  0.10785654804E+04  0.50400001928E-02 0. -1.
       -1    1    3    3    0  502 -0.82276641460E+03  0.48498884841E+03 -0.20224987371E+04  0.22366626696E+04  0.50400001928E-02 0.  1.
</event>
<event>
 5   0  0.2552990E-06  0.3206446E+04  0.7818609E-02  0.8187117E-01
        1   -1    0    0  501    0  0.00000000000E+00  0.00000000000E+00  0.18095098777E+04  0.18095098777E+04  0.50400001928E-02 0. -1.
       -1   -1    0    0    0  501  0.00000000000E+00  0.00000000000E+00 -0.14204529284E+04  0.14204529284E+04  0.50400001928E-02 0.  1.
    10030    2    1    2    0    0  0.00000000000E+00  0.00000000000E+00  0.38905694930E+03  0.32299628062E+04  0.32064457612E+04 0.  0.
        3    1    3    3  502    0 -0.44190721942E+03  0.13876695396E+04 -0.48077243404E+03  0.15336397508E+04  0.10100000352E+00 0.  1.
       -3    1    3    3    0  502  0.44190721942E+03 -0.13876695396E+04  0.86982938335E+03  0.16963230553E+04  0.10100000352E+00 0. -1.
</event>
<event>
 5   0  0.2298500E-06  0.3028309E+04  0.7818609E-02  0.8235693E-01
        3   -1    0    0  501    0  0.00000000000E+00  0.00000000000E+00  0.20892848212E+04  0.20892848236E+04  0.10100000352E+00 0.  1.
       -3   -1    0    0    0  501  0.00000000000E+00  0.00000000000E+00 -0.10973441679E+04  0.10973441726E+04  0.10100000352E+00 0. -1.
    10030    2    1    2    0    0  0.00000000000E+00  0.00000000000E+00  0.99194065326E+03  0.31866289962E+04  0.30283094458E+04 0.  0.
        4    1    3    3  502    0 -0.24493993474E+03 -0.44923096807E+03  0.19955554567E+04  0.20601085476E+04  0.12699999809E+01 0.  1.
       -4    1    3    3    0  502  0.24493993474E+03  0.44923096807E+03 -0.10036148035E+04  0.11265204485E+04  0.12699999809E+01 0. -1.
</event>
<event>
 5   0  0.2672155E-06  0.2958623E+04  0.7818609E-02  0.8255646E-01
       -1   -1    0    0    0  501  0.00000000000E+00  0.00000000000E+00  0.12202137781E+04  0.12202137781E+04  0.50400001928E-02 0. -1.
        1   -1    0    0  501    0  0.00000000000E+00  0.00000000000E+00 -0.17934252479E+04  0.17934252479E+04  0.50400001928E-02 0.  1.
    10030    2    1    2    0    0  0.00000000000E+00  0.00000000000E+00 -0.57321146981E+03  0.30136390260E+04  0.29586227860E+04 0.  0.
        5    1    3    3  502    0  0.12197819408E+04  0.51266788548E+03 -0.96045383095E+03  0.16349892952E+04  0.46999998093E+01 0.  1.
       -5    1    3    3    0  502 -0.12197819408E+04 -0.51266788548E+03  0.38724236114E+03  0.13786497308E+04  0.46999998093E+01 0. -1.
</event>
<event>
 5   0  0.2298500E-06  0.2958453E+04  0.7818609E-02  0.8255695E-01
        4   -1    0    0  501    0  0.00000000000E+00  0.00000000000E+00  0.14876056990E+04  0.14876062411E+04  0.12699999809E+01 0. -1.
       -4   -1    0    0    0  501  0.00000000000E+00  0.00000000000E+00 -0.14708932698E+04  0.14708938180E+04  0.12699999809E+01 0.  1.
    10030    2    1    2    0    0  0.00000000000E+00  0.00000000000E+00  0.16712429220E+02  0.29585000591E+04  0.29584528549E+04 0.  0.
        3    1    3    3  502    0 -0.79555767296E+03 -0.10891043328E+04 -0.59914879097E+03  0.14758182620E+04  0.10100000352E+00 0.  1.
       -3    1    3    3    0  502  0.79555767296E+03  0.10891043328E+04  0.61586122019E+03  0.14826817971E+04  0.10100000352E+00 0. -1.
</event>
<event>
 5   0  0.6780150E-06  0.3004103E+04  0.7818609E-02  0.8242560E-01
       -2   -1    0    0    0  501  0.00000000000E+00  0.00000000000E+00  0.20589928581E+04  0.20589928581E+04  0.25500000920E-02 0. -1.
        2   -1    0    0  501    0  0.00000000000E+00  0.00000000000E+00 -0.10957582437E+04  0.10957582437E+04  0.25500000920E-02 0.  1.
    10030    2    1    2    0    0  0.00000000000E+00  0.00000000000E+00  0.96323461442E+03  0.31547511018E+04  0.30041027932E+04 0.  0.
        5    1    3    3  502    0 -0.29046498702E+03  0.12759841940E+04 -0.29267030870E+03  0.13409636727E+04  0.46999998093E+01 0.  1.
       -5    1    3    3    0  502  0.29046498702E+03 -0.12759841940E+04  0.12559049231E+04  0.18137874291E+04  0.46999998093E+01 0. -1.
</event>
<event>
 5   0  0.6792811E-06  0.2631194E+04  0.7818609E-02  0.8357682E-01
       -2   -1    0    0    0  501  0.00000000000E+00  0.00000000000E+00  0.16022026447E+04  0.16022026447E+04  0.25500000920E-02 0.  1.
        2   -1    0    0  501    0  0.00000000000E+00  0.00000000000E+00 -0.10802597355E+04  0.10802597355E+04  0.25500000920E-02 0. -1.
    10030    2    1    2    0    0  0.00000000000E+00  0.00000000000E+00  0.52194290919E+03  0.26824623802E+04  0.26311936494E+04 0.  0.
        2    1    3    3  502    0  0.23451577319E+03 -0.28576087543E+03 -0.10262219199E+04  0.10907741997E+04  0.25500000920E-02 0. -1.
       -2    1    3    3    0  502 -0.23451577319E+03  0.28576087543E+03  0.15481648291E+04  0.15916881805E+04  0.25500000920E-02 0.  1.
</event>
<event>
 5   0  0.2628425E-06  0.2820483E+04  0.7818609E-02  0.8296937E-01
        1   -1    0    0  501    0  0.00000000000E+00  0.00000000000E+00  0.92058266053E+03  0.92058266054E+03  0.50400001928E-02 0.  1.
       -1   -1    0    0    0  501  0.00000000000E+00  0.00000000000E+00 -0.21603499785E+04  0.21603499785E+04  0.50400001928E-02 0. -1.
    10030    2    1    2    0    0  0.00000000000E+00  0.00000000000E+00 -0.12397673179E+04  0.30809326390E+04  0.28204827465E+04 0.  0.
        1    1    3    3  502    0  0.10036305182E+04  0.50659051811E+03  0.31013055423E+03  0.11662285929E+04  0.50400001928E-02 0. -1.
       -1    1    3    3    0  502 -0.10036305182E+04 -0.50659051811E+03 -0.15498978722E+04  0.19147040461E+04  0.50400001928E-02 0.  1.
</event>
<event>
 5   0  0.6780150E-06  0.2988956E+04  0.7818609E-02  0.8246891E-01
       -2   -1    0    0    0  501  0.00000000000E+00  0.00000000000E+00  0.11298549744E+04  0.11298549744E+04  0.25500000920E-02 0. -1.
        2   -1    0    0  501    0  0.00000000000E+00  0.00000000000E+00 -0.19767714831E+04  0.19767714831E+04  0.25500000920E-02 0.  1.
    10030    2    1    2    0    0  0.00000000000E+00  0.00000000000E+00 -0.84691650863E+03  0.31066264575E+04  0.29889564021E+04 0.  0.
        5    1    3    3  502    0  0.11208072490E+04  0.96423337839E+03 -0.19696155328E+03  0.14915665727E+04  0.46999998093E+01 0. -1.
       -5    1    3    3    0  502 -0.11208072490E+04 -0.96423337839E+03 -0.64995495535E+03  0.16150598848E+04  0.46999998093E+01 0.  1.
</event>
<event>
 5   0  0.2672155E-06  0.2987299E+04  0.7818609E-02  0.8247367E-01
        1   -1    0    0  501    0  0.00000000000E+00  0.00000000000E+00  0.28313785197E+04  0.28313785197E+04  0.50400001928E-02 0.  1.
       -1   -1    0    0    0  501  0.00000000000E+00  0.00000000000E+00 -0.78795163111E+03  0.78795163113E+03  0.50400001928E-02 0. -1.
    10030    2    1    2    0    0  0.00000000000E+00  0.00000000000E+00  0.20434268886E+04  0.36193301508E+04  0.29872993308E+04 0.  0.
        5    1    3    3  502    0 -0.75625735476E+03 -0.53047474843E+03  0.24437707851E+04  0.26125402170E+04  0.46999998093E+01 0.  1.
       -5    1    3    3    0  502  0.75625735476E+03  0.53047474843E+03 -0.40034389652E+03  0.10067899338E+04  0.46999998093E+01 0. -1.
</event>
<event>
 5   0  0.7201538E-06  0.2985362E+04  0.7818609E-02  0.8247923E-01
       -2   -1    0    0    0  501  0.00000000000E+00  0.00000000000E+00  0.91395105412E+03  0.91395105412E+03  0.25500000920E-02 0.  1.
        2   -1    0    0  501    0  0.00000000000E+00  0.00000000000E+00 -0.24378734273E+04  0.24378734273E+04  0.25500000920E-02 0. -1.
    10030    2    1    2    0    0  0.00000000000E+00  0.00000000000E+00 -0.15239223732E+04  0.33518244814E+04  0.29853622820E+04 0.  0.
        3    1    3    3  502    0  0.27803448949E+03 -0.48969550868E+02  0.88370358706E+03  0.92770320375E+03  0.10100000352E+00 0.  1.
       -3    1    3    3    0  502 -0.27803448949E+03  0.48969550868E+02 -0.24076259603E+04  0.24241212777E+04  0.10100000352E+00 0. -1.
</event>
<event>
 5   0  0.6780150E-06  0.2968757E+04  0.7818609E-02  0.8252709E-01
        2   -1    0    0  501    0  0.00000000000E+00  0.00000000000E+00  0.26302749061E+04  0.26302749061E+04  0.25500000920E-02 0.  1.
       -2   -1    0    0    0  501  0.00000000000E+00  0.00000000000E+00 -0.83769951999E+03  0.83769951999E+03  0.25500000920E-02 0. -1.
    10030    2    1    2    0    0  0.00000000000E+00  0.00000000000E+00  0.17925753861E+04  0.34679744260E+04  0.29687573335E+04 0.  0.
        5    1    3    3  502    0  0.10448680509E+03 -0.31382004865E+03  0.25866706665E+04  0.26077361336E+04  0.46999998093E+01 0.  1.
       -5    1    3    3    0  502 -0.10448680509E+03  0.31382004865E+03 -0.79409528045E+03  0.86023829246E+03  0.46999998093E+01 0. -1.
</event>
<event>
 5   0  0.2504260E-06  0.3061397E+04  0.7818609E-02  0.8226413E-01
       -1   -1    0    0    0  501  0.00000000000E+00  0.00000000000E+00  0.17032678622E+04  0.17032678622E+04  0.50400001928E-02 0. -1.
        1   -1    0    0  501    0  0.00000000000E+00  0.00000000000E+00 -0.13756128901E+04  0.13756128901E+04  0.50400001928E-02 0.  1.
    10030    2    1    2    0    0  0.00000000000E+00  0.00000000000E+00  0.32765497206E+03  0.30788807523E+04  0.30613965615E+04 0.  0.
        4    1    3    3  502    0  0.92421714621E+03 -0.12049709763E+04  0.35702674190E+03  0.15600006713E+04  0.12699999809E+01 0.  1.
       -4    1    3    3    0  502 -0.92421714621E+03  0.12049709763E+04 -0.29371769844E+02  0.15188800811E+04  0.12699999809E+01 0. -1.
</event>
<event>
 5   0  0.7201538E-06  0.2155823E+04  0.7818609E-02  0.8537044E-01
       -2   -1    0    0    0  501  0.00000000000E+00  0.00000000000E+00  0.94588988490E+03  0.94588988491E+03  0.25500000920E-02 0.  1.
        2   -1    0    0  501    0  0.00000000000E+00  0.00000000000E+00 -0.12283594828E+04  0.12283594828E+04  0.25500000920E-02 0. -1.
    10030    2    1    2    0    0  0.00000000000E+00  0.00000000000E+00 -0.28246959790E+03  0.21742493677E+04  0.21558226363E+04 0.  0.
        3    1    3    3  502    0  0.60636463632E+03 -0.22589123261E+03 -0.10106868444E+04  0.12000803426E+04  0.10100000352E+00 0. -1.
       -3    1    3    3    0  502 -0.60636463632E+03  0.22589123261E+03  0.72821724649E+03  0.97416902508E+03  0.10100000352E+00 0.  1.
</event>
<event>
 5   0  0.6792811E-06  0.3021275E+04  0.7818609E-02  0.8237682E-01
       -2   -1    0    0    0  501  0.00000000000E+00  0.00000000000E+00  0.11188872223E+04  0.11188872224E+04  0.25500000920E-02 0.  1.
        2   -1    0    0  501    0  0.00000000000E+00  0.00000000000E+00 -0.20395494469E+04  0.20395494469E+04  0.25500000920E-02 0. -1.
    10030    2    1    2    0    0  0.00000000000E+00  0.00000000000E+00 -0.92066222450E+03  0.31584366692E+04  0.30212751053E+04 0.  0.
        2    1    3    3  502    0  0.87999217645E+03  0.10907000788E+04  0.12919668175E+03  0.14073751010E+04  0.25500000920E-02 0.  1.
       -2    1    3    3    0  502 -0.87999217645E+03 -0.10907000788E+04 -0.10498589062E+04  0.17510615682E+04  0.25500000920E-02 0. -1.
</event>
<event>
 5   0  0.7193153E-06  0.2993285E+04  0.7818609E-02  0.8245651E-01
       -2   -1    0    0    0  501  0.00000000000E+00  0.00000000000E+00  0.96691687572E+03  0.96691687573E+03  0.25500000920E-02 0. -1.
        2   -1    0    0  501    0  0.00000000000E+00  0.00000000000E+00 -0.23165783818E+04  0.23165783818E+04  0.25500000920E-02 0.  1.
    10030    2    1    2    0    0  0.00000000000E+00  0.00000000000E+00 -0.13496615061E+04  0.32834952576E+04  0.29932849723E+04 0.  0.
        4    1    3    3  502    0  0.91514334831E+03 -0.43072008337E+03 -0.18849303695E+04  0.21391519930E+04  0.12699999809E+01 0.  1.
       -4    1    3    3    0  502 -0.91514334831E+03  0.43072008337E+03  0.53526886342E+03  0.11443432646E+04  0.12699999809E+01 0. -1.
</event>
<event>
 5   0  0.6780150E-06  0.2993416E+04  0.7818609E-02  0.8245614E-01
       -2   -1    0    0    0  501  0.00000000000E+00  0.00000000000E+00  0.17693598269E+04  0.17693598269E+04  0.25500000920E-02 0.  1.
        2   -1    0    0  501    0  0.00000000000E+00  0.00000000000E+00 -0.12660706471E+04  0.12660706471E+04  0.25500000920E-02 0. -1.
    10030    2    1    2    0    0  0.00000000000E+00  0.00000000000E+00  0.50328917987E+03  0.30354304740E+04  0.29934158020E+04 0.  0.
        5    1    3    3  502    0  0.10380256341E+04 -0.80024422353E+03  0.98443846323E+03  0.16392160359E+04  0.46999998093E+01 0.  1.
       -5    1    3    3    0  502 -0.10380256341E+04  0.80024422353E+03 -0.48114928336E+03  0.13962144381E+04  0.46999998093E+01 0. -1.
</event>
<event>
 5   0  0.7217255E-06  0.2992418E+04  0.7818609E-02  0.8245899E-01
        2   -1    0    0  501    0  0.00000000000E+00  0.00000000000E+00  0.13820242986E+04  0.13820242986E+04  0.25500000920E-02 0.  1.
       -2   -1    0    0    0  501  0.00000000000E+00  0.00000000000E+00 -0.16198279052E+04  0.16198279052E+04  0.25500000920E-02 0. -1.
    10030    2    1    2    0    0  0.00000000000E+00  0.00000000000E+00 -0.23780360666E+03  0.30018522038E+04  0.29924181021E+04 0.  0.
        1    1    3    3  502    0 -0.10904659702E+04 -0.10088584572E+04  0.59789242951E+02  0.14867703832E+04  0.50400001928E-02 0. -1.
       -1    1    3    3    0  502  0.10904659702E+04  0.10088584572E+04 -0.29759284961E+03  0.15150818206E+04  0.50400001928E-02 0.  1.
</event>
<event>
 5   0  0.7217255E-06  0.3080656E+04  0.7818609E-02  0.8221067E-01
        2   -1    0    0  501    0  0.00000000000E+00  0.00000000000E+00  0.30390040580E+04  0.30390040580E+04  0.25500000920E-02 0.  1.
       -2   -1    0    0    0  501  0.00000000000E+00  0.00000000000E+00 -0.78071972808E+03  0.78071972808E+03  0.25500000920E-02 0. -1.
    10030    2    1    2    0    0  0.00000000000E+00  0.00000000000E+00  0.22582843299E+04  0.38197237861E+04  0.30806560482E+04 0.  0.
        1    1    3    3  502    0  0.10460221435E+04 -0.10308425596E+04  0.55313716430E+03  0.15693181418E+04  0.50400001928E-02 0. -1.
       -1    1    3    3    0  502 -0.10460221435E+04  0.10308425596E+04  0.17051471656E+04  0.22504056443E+04  0.50400001928E-02 0.  1.
</event>
<event>
 5   0  0.2628425E-06  0.2526992E+04  0.7818609E-02  0.8393432E-01
        1   -1    0    0  501    0  0.00000000000E+00  0.00000000000E+00  0.18207525739E+04  0.18207525739E+04  0.50400001928E-02 0.  1.
       -1   -1    0    0    0  501  0.00000000000E+00  0.00000000000E+00 -0.87679235295E+03  0.87679235296E+03  0.50400001928E-02 0. -1.
    10030    2    1    2    0    0  0.00000000000E+00  0.00000000000E+00  0.94396022092E+03  0.26975449268E+04  0.25269918349E+04 0.  0.
        1    1    3    3  502    0 -0.10185135845E+04 -0.52693339829E+03 -0.94287408361E+02  0.11506167230E+04  0.50400001928E-02 0. -1.
       -1    1    3    3    0  502  0.10185135845E+04  0.52693339829E+03  0.10382476293E+04  0.15469282038E+04  0.50400001928E-02 0.  1.
</event>
<event>
 5   0  0.2422083E-06  0.2903600E+04  0.7818609E-02  0.8271807E-01
       -1   -1    0    0    0  501  0.00000000000E+00  0.00000000000E+00  0.14340636313E+04  0.14340636313E+04  0.50400001928E-02 0. -1.
        1   -1    0    0  501    0  0.00000000000E+00  0.00000000000E+00 -0.14697555901E+04  0.14697555901E+04  0.50400001928E-02 0.  1.
    10030    2    1    2    0    0  0.00000000000E+00  0.00000000000E+00 -0.35691958797E+02  0.29038192214E+04  0.29035998613E+04 0.  0.
        2    1    3    3  502    0  0.59614643805E+03  0.61191438070E+03 -0.11917716392E+04  0.14663387824E+04  0.25500000920E-02 0.  1.
       -2    1    3    3    0  502 -0.59614643805E+03 -0.61191438070E+03  0.11560796804E+04  0.14374804389E+04  0.25500000920E-02 0. -1.
</event>
<event>
 5   0  0.7217255E-06  0.3000480E+04  0.7818609E-02  0.8243594E-01
       -2   -1    0    0    0  501  0.00000000000E+00  0.00000000000E+00  0.13934951209E+04  0.13934951209E+04  0.25500000920E-02 0. -1.
        2   -1    0    0  501    0  0.00000000000E+00  0.00000000000E+00 -0.16151619355E+04  0.16151619355E+04  0.25500000920E-02 0.  1.
    10030    2    1    2    0    0  0.00000000000E+00  0.00000000000E+00 -0.22166681457E+03  0.30086570564E+04  0.30004801460E+04 0.  0.
        1    1    3    3  502    0 -0.45529433638E+03  0.32212119057E+03  0.12856806965E+04  0.14014384922E+04  0.50400001928E-02 0. -1.
       -1    1    3    3    0  502  0.45529433638E+03 -0.32212119057E+03 -0.15073475110E+04  0.16072185642E+04  0.50400001928E-02 0.  1.
</event>
<event>
 5   0  0.2672155E-06  0.2598779E+04  0.7818609E-02  0.8368616E-01
       -1   -1    0    0    0  501  0.00000000000E+00  0.00000000000E+00  0.83593793829E+03  0.83593793830E+03  0.50400001928E-02 0. -1.
        1   -1    0    0  501    0  0.00000000000E+00  0.00000000000E+00 -0.20197822278E+04  0.20197822278E+04  0.50400001928E-02 0.  1.
    10030    2    1    2    0    0  0.00000000000E+00  0.00000000000E+00 -0.11838442895E+04  0.28557201661E+04  0.25987786295E+04 0.  0.
        5    1    3    3  502    0 -0.68172720825E+02  0.75084118585E+03  0.57100254568E+03  0.94576741507E+03  0.46999998093E+01 0. -1.
       -5    1    3    3    0  502  0.68172720825E+02 -0.75084118585E+03 -0.17548468352E+04  0.19099527511E+04  0.46999998093E+01 0.  1.
</event>
<event>
 5   0  0.6780150E-06  0.3010691E+04  0.7818609E-02  0.8240685E-01
       -2   -1    0    0    0  501  0.00000000000E+00  0.00000000000E+00  0.18801406269E+04  0.18801406269E+04  0.25500000920E-02 0.  1.
        2   -1    0    0  501    0  0.00000000000E+00  0.00000000000E+00 -0.12052633826E+04  0.12052633826E+04  0.25500000920E-02 0. -1.
    10030    2    1    2    0    0  0.00000000000E+00  0.00000000000E+00  0.67487724427E+03  0.30854040094E+04  0.30106907192E+04 0.  0.
        5    1    3    3  502    0 -0.10327154446E+04 -0.47926454604E+02 -0.78390136086E+03  0.12974288297E+04  0.46999998093E+01 0. -1.
       -5    1    3    3    0  502  0.10327154446E+04  0.47926454604E+02  0.14587786051E+04  0.17879751797E+04  0.46999998093E+01 0.  1.
</event>
<event>
 5   0  0.2552990E-06  0.2839170E+04  0.7818609E-02  0.8291210E-01
        1   -1    0    0  501    0  0.00000000000E+00  0.00000000000E+00  0.13802491421E+04  0.13802491422E+04  0.50400001928E-02 0.  1.
       -1   -1    0    0    0  501  0.00000000000E+00  0.00000000000E+00 -0.14600414535E+04  0.14600414535E+04  0.50400001928E-02 0. -1.
    10030    2    1    2    0    0  0.00000000000E+00  0.00000000000E+00 -0.79792311356E+02  0.28402905957E+04  0.28391695713E+04 0.  0.
        3    1    3    3  502    0  0.77965476167E+03 -0.65941956911E+03  0.94666016702E+03  0.13924299614E+04  0.10100000352E+00 0.  1.
       -3    1    3    3    0  502 -0.77965476167E+03  0.65941956911E+03 -0.10264524784E+04  0.14478606342E+04  0.10100000352E+00 0. -1.
</event>
<event>
 5   0  0.6792811E-06  0.2911247E+04  0.7818609E-02  0.8269539E-01
       -2   -1    0    0    0  501  0.00000000000E+00  0.00000000000E+00  0.73625180816E+03  0.73625180816E+03  0.25500000920E-02 0.  1.
        2   -1    0    0  501    0  0.00000000000E+00  0.00000000000E+00 -0.28778738960E+04  0.28778738960E+04  0.25500000920E-02 0. -1.
    10030    2    1    2    0    0  0.00000000000E+00  0.00000000000E+00 -0.21416220878E+04  0.36141257041E+04  0.29112470589E+04 0.  0.
        2    1    3    3  502    0  0.87715271476E+03  0.10933517780E+04 -0.58359721336E+03  0.15183546038E+04  0.25500000920E-02 0.  1.
       -2    1    3    3    0  502 -0.87715271476E+03 -0.10933517780E+04 -0.15580248744E+04  0.20957711003E+04  0.25500000920E-02 0. -1.
</event>
<event>
 5   0  0.2504260E-06  0.2546780E+04  0.7818609E-02  0.8386507E-01
       -1   -1    0    0    0  501  0.00000000000E+00  0.00000000000E+00  0.95971074338E+03  0.95971074339E+03  0.50400001928E-02 0.  1.
        1   -1    0    0  501    0  0.00000000000E+00  0.00000000000E+00 -0.16895945798E+04  0.16895945798E+04  0.50400001928E-02 0. -1.
    10030    2    1    2    0    0  0.00000000000E+00  0.00000000000E+00 -0.72988383641E+03  0.26493053232E+04  0.25467799828E+04 0.  0.
        4    1    3    3  502    0 -0.25245556582E+03 -0.26842419567E+03  0.90303478875E+03  0.97532497360E+03  0.12699999809E+01 0.  1.
       -4    1    3    3    0  502  0.25245556582E+03  0.26842419567E+03 -0.16329186252E+04  0.16739803496E+04  0.12699999809E+01 0. -1.
</event>
<event>
 5   0  0.2672155E-06  0.2957058E+04  0.7818609E-02  0.8256101E-01
       -1   -1    0    0    0  501  0.00000000000E+00  0.00000000000E+00  0.16279388436E+04  0.16279388436E+04  0.50400001928E-02 0. -1.
        1   -1    0    0  501    0  0.00000000000E+00  0.00000000000E+00 -0.13428314640E+04  0.13428314640E+04  0.50400001928E-02 0.  1.
    10030    2    1    2    0    0  0.00000000000E+00  0.00000000000E+00  0.28510737967E+03  0.29707703076E+04  0.29570576597E+04 0.  0.
        5    1    3    3  502    0  0.53791256543E+03 -0.49575749473E+03 -0.11482781343E+04  0.13615029142E+04  0.46999998093E+01 0.  1.
       -5    1    3    3    0  502 -0.53791256543E+03  0.49575749473E+03  0.14333855140E+04  0.16092673934E+04  0.46999998093E+01 0. -1.
</event>
<event>
 5   0  0.2628425E-06  0.2999541E+04  0.7818609E-02  0.8243862E-01
        1   -1    0    0  501    0  0.00000000000E+00  0.00000000000E+00  0.19052598773E+04  0.19052598773E+04  0.50400001928E-02 0. -1.
       -1   -1    0    0    0  501  0.00000000000E+00  0.00000000000E+00 -0.11805798456E+04  0.11805798456E+04  0.50400001928E-02 0.  1.
    10030    2    1    2    0    0  0.00000000000E+00  0.00000000000E+00  0.72468003176E+03  0.30858397229E+04  0.29995409061E+04 0.  0.
        1    1    3    3  502    0 -0.12201807897E+04 -0.58312923644E+03 -0.30472122518E+03  0.13862668902E+04  0.50400001928E-02 0.  1.
       -1    1    3    3    0  502  0.12201807897E+04  0.58312923644E+03  0.10294012569E+04  0.16995728327E+04  0.50400001928E-02 0. -1.
</event>
<event>
 5   0  0.2422083E-06  0.3028386E+04  0.7818609E-02  0.8235671E-01
       -1   -1    0    0    0  501  0.00000000000E+00  0.00000000000E+00  0.12962781768E+04  0.12962781768E+04  0.50400001928E-02 0. -1.
        1   -1    0    0  501    0  0.00000000000E+00  0.00000000000E+00 -0.17687408776E+04  0.17687408776E+04  0.50400001928E-02 0.  1.
    10030    2    1    2    0    0  0.00000000000E+00  0.00000000000E+00 -0.47246270082E+03  0.30650190545E+04  0.30283858408E+04 0.  0.
        2    1    3    3  502    0 -0.11340060642E+04  0.43821087436E+03  0.67734026684E+03  0.13916854390E+04  0.25500000920E-02 0. -1.
       -2    1    3    3    0  502  0.11340060642E+04 -0.43821087436E+03 -0.11498029677E+04  0.16733336154E+04  0.25500000920E-02 0.  1.
</event>
<event>
 5   0  0.7201538E-06  0.3009204E+04  0.7818609E-02  0.8241107E-01
        2   -1    0    0  501    0  0.00000000000E+00  0.00000000000E+00  0.21034714902E+04  0.21034714902E+04  0.25500000920E-02 0.  1.
       -2   -1    0    0    0  501  0.00000000000E+00  0.00000000000E+00 -0.10762341465E+04  0.10762341466E+04  0.25500000920E-02 0. -1.
    10030    2    1    2    0    0  0.00000000000E+00  0.00000000000E+00  0.10272373436E+04  0.31797056367E+04  0.30092044424E+04 0.  0.
        3    1    3    3  502    0  0.53229697390E+03  0.60603691555E+03 -0.82846710682E+03  0.11562778942E+04  0.10100000352E+00 0. -1.
       -3    1    3    3    0  502 -0.53229697390E+03 -0.60603691555E+03  0.18557044504E+04  0.20234277425E+04  0.10100000352E+00 0.  1.
</event>
<event>
 5   0  0.7217255E-06  0.2998088E+04  0.7818609E-02  0.8244277E-01
        2   -1    0    0  501    0  0.00000000000E+00  0.00000000000E+00  0.15326384025E+04  0.15326384025E+04  0.25500000920E-02 0.  1.
       -2   -1    0    0    0  501  0.00000000000E+00  0.00000000000E+00 -0.14661864372E+04  0.14661864372E+04  0.25500000920E-02 0. -1.
    10030    2    1    2    0    0  0.00000000000E+00  0.00000000000E+00  0.66451965302E+02  0.29988248397E+04  0.29980884836E+04 0.  0.
        1    1    3    3  502    0  0.13500411670E+04 -0.42713156936E+03 -0.45891224760E+03  0.14885069638E+04  0.50400001928E-02 0.  1.
       -1    1    3    3    0  502 -0.13500411670E+04  0.42713156936E+03  0.52536421290E+03  0.15103178759E+04  0.50400001928E-02 0. -1.
</event>
<event>
 5   0  0.2422083E-06  0.2731848E+04  0.7818609E-02  0.8324745E-01
        1   -1    0    0  501    0  0.00000000000E+00  0.00000000000E+00  0.10165291996E+04  0.10165291996E+04  0.50400001928E-02 0. -1.
       -1   -1    0    0    0  501  0.00000000000E+00  0.00000000000E+00 -0.18354103385E+04  0.18354103386E+04  0.50400001928E-02 0.  1.
    10030    2    1    2    0    0  0.00000000000E+00  0.00000000000E+00 -0.81888113895E+03  0.28519395382E+04  0.27318478745E+04 0.  0.
        2    1    3    3  502    0 -0.18407860690E+02  0.77271703381E+03  0.76626299749E+03  0.10883884624E+04  0.25500000920E-02 0. -1.
       -2    1    3    3    0  502  0.18407860690E+02 -0.77271703381E+03 -0.15851441364E+04  0.17635510758E+04  0.25500000920E-02 0.  1.
</event>
<event>
 5   0  0.2504260E-06  0.3016939E+04  0.7818609E-02  0.8238910E-01
        1   -1    0    0  501    0  0.00000000000E+00  0.00000000000E+00  0.21143454971E+04  0.21143454971E+04  0.50400001928E-02 0.  1.
       -1   -1    0    0    0  501  0.00000000000E+00  0.00000000000E+00 -0.10762099066E+04  0.10762099066E+04  0.50400001928E-02 0. -1.
    10030    2    1    2    0    0  0.00000000000E+00  0.00000000000E+00  0.10381355906E+04  0.31905554037E+04  0.30169385608E+04 0.  0.
        4    1    3    3  502    0  0.26190513982E+03  0.11217173524E+04 -0.51096044061E+03  0.12601294798E+04  0.12699999809E+01 0. -1.
       -4    1    3    3    0  502 -0.26190513982E+03 -0.11217173524E+04  0.15490960312E+04  0.19304259239E+04  0.12699999809E+01 0.  1.
</event>
<event>
 5   0  0.2552990E-06  0.2968320E+04  0.7818609E-02  0.8252835E-01
       -1   -1    0    0    0  501  0.00000000000E+00  0.00000000000E+00  0.12556565835E+04  0.12556565835E+04  0.50400001928E-02 0. -1.
        1   -1    0    0  501    0  0.00000000000E+00  0.00000000000E+00 -0.17542468478E+04  0.17542468478E+04  0.50400001928E-02 0.  1.
    10030    2    1    2    0    0  0.00000000000E+00  0.00000000000E+00 -0.49859026438E+03  0.30099034313E+04  0.29683204703E+04 0.  0.
        3    1    3    3  502    0 -0.22112070211E+03  0.95067356221E+03 -0.13830174195E+04  0.16927527225E+04  0.10100000352E+00 0.  1.
       -3    1    3    3    0  502  0.22112070211E+03 -0.95067356221E+03  0.88442715511E+03  0.13171507088E+04  0.10100000352E+00 0. -1.
</event>
<event>
 5   0  0.2504260E-06  0.2997321E+04  0.7818609E-02  0.8244496E-01
       -1   -1    0    0    0  501  0.00000000000E+00  0.00000000000E+00  0.10296541885E+04  0.10296541885E+04  0.50400001928E-02 0.  1.
        1   -1    0    0  501    0  0.00000000000E+00  0.00000000000E+00 -0.21812982505E+04  0.21812982505E+04  0.50400001928E-02 0. -1.
    10030    2    1    2    0    0  0.00000000000E+00  0.00000000000E+00 -0.11516440620E+04  0.32109524390E+04  0.29973207235E+04 0.  0.
        4    1    3    3  502    0 -0.12359567610E+04 -0.66783889397E+03 -0.16720159945E+02  0.14049480702E+04  0.12699999809E+01 0.  1.
       -4    1    3    3    0  502  0.12359567610E+04  0.66783889397E+03 -0.11349239021E+04  0.18060043687E+04  0.12699999809E+01 0. -1.
</event>
<event>
 5   0  0.6792811E-06  0.2215197E+04  0.7818609E-02  0.8512129E-01
        2   -1    0    0  501    0  0.00000000000E+00  0.00000000000E+00  0.85073139631E+03  0.85073139631E+03  0.25500000920E-02 0. -1.
       -2   -1    0    0    0  501  0.00000000000E+00  0.00000000000E+00 -0.14420234421E+04  0.14420234421E+04  0.25500000920E-02 0.  1.
    10030    2    1    2    0    0  0.00000000000E+00  0.00000000000E+00 -0.59129204575E+03  0.22927548384E+04  0.22151971618E+04 0.  0.
        2    1    3    3  502    0 -0.53510255745E+03 -0.80230484788E+03 -0.85946313766E+03  0.12917835349E+04  0.25500000920E-02 0.  1.
       -2    1    3    3    0  502  0.53510255745E+03  0.80230484788E+03  0.26817109191E+03  0.10009713035E+04  0.25500000920E-02 0. -1.
</event>
<event>
 5   0  0.7217255E-06  0.2934434E+04  0.7818609E-02  0.8262705E-01
       -2   -1    0    0    0  501  0.00000000000E+00  0.00000000000E+00  0.18368636542E+04  0.18368636542E+04  0.25500000920E-02 0. -1.
        2   -1    0    0  501    0  0.00000000000E+00  0.00000000000E+00 -0.11719574447E+04  0.11719574447E+04  0.25500000920E-02 0.  1.
    10030    2    1    2    0    0  0.00000000000E+00  0.00000000000E+00  0.66490620952E+03  0.30088210989E+04  0.29344342109E+04 0.  0.
        1    1    3    3  502    0 -0.46039750606E+03 -0.35576802370E+03 -0.10486092499E+04  0.11992156225E+04  0.50400001928E-02 0.  1.
       -1    1    3    3    0  502  0.46039750606E+03  0.35576802370E+03  0.17135154595E+04  0.18096054764E+04  0.50400001928E-02 0. -1.
</event>
<event>
 5   0  0.2628425E-06  0.3043033E+04  0.7818609E-02  0.8231548E-01
        1   -1    0    0  501    0  0.00000000000E+00  0.00000000000E+00  0.14345423027E+04  0.14345423027E+04  0.50400001928E-02 0. -1.
       -1   -1    0    0    0  501  0.00000000000E+00  0.00000000000E+00 -0.16137639307E+04  0.16137639307E+04  0.50400001928E-02 0.  1.
    10030    2    1    2    0    0  0.00000000000E+00  0.00000000000E+00 -0.17922162793E+03  0.30483062334E+04  0.30430331087E+04 0.  0.
        1    1    3    3  502    0 -0.38385726614E+03  0.84717108503E+02 -0.15620181413E+04  0.16107215970E+04  0.50400001928E-02 0.  1.
       -1    1    3    3    0  502  0.38385726614E+03 -0.84717108503E+02  0.13827965134E+04  0.14375846364E+04  0.50400001928E-02 0. -1.
</event>
<event>
 5   0  0.6792811E-06  0.3002288E+04  0.7818609E-02  0.8243078E-01
       -2   -1    0    0    0  501  0.00000000000E+00  0.00000000000E+00  0.15531800352E+04  0.15531800352E+04  0.25500000920E-02 0.  1.
        2   -1    0    0  501    0  0.00000000000E+00  0.00000000000E+00 -0.14508517924E+04  0.14508517924E+04  0.25500000920E-02 0. -1.
    10030    2    1    2    0    0  0.00000000000E+00  0.00000000000E+00  0.10232824279E+03  0.30040318276E+04  0.30022884858E+04 0.  0.
        2    1    3    3  502    0  0.15924268269E+03  0.62353680938E+03  0.14081513372E+04  0.15482398306E+04  0.25500000920E-02 0.  1.
       -2    1    3    3    0  502 -0.15924268269E+03 -0.62353680938E+03 -0.13058230944E+04  0.14557919970E+04  0.25500000920E-02 0. -1.
</event>
<event>
 5   0  0.2552990E-06  0.3021816E+04  0.7818609E-02  0.8237528E-01
       -1   -1    0    0    0  501  0.00000000000E+00  0.00000000000E+00  0.11691850336E+04  0.11691850336E+04  0.50400001928E-02 0. -1.
        1   -1    0    0  501    0  0.00000000000E+00  0.00000000000E+00 -0.19525081820E+04  0.19525081820E+04  0.50400001928E-02 0.  1.
    10030    2    1    2    0    0  0.00000000000E+00  0.00000000000E+00 -0.78332314839E+03  0.31216932156E+04  0.30218162382E+04 0.  0.
        3    1    3    3  502    0 -0.36413655183E+02 -0.79848156150E+03 -0.17162036406E+04  0.18932125355E+04  0.10100000352E+00 0.  1.
       -3    1    3    3    0  502  0.36413655183E+02  0.79848156150E+03  0.93288049223E+03  0.12284806801E+04  0.10100000352E+00 0. -1.
</event>
<event>
 5   0  0.7217255E-06  0.2993231E+04  0.7818609E-02  0.8245666E-01
       -2   -1    0    0    0  501  0.00000000000E+00  0.00000000000E+00  0.13632674229E+04  0.13632674229E+04  0.25500000920E-02 0. -1.
        2   -1    0    0  501    0  0.00000000000E+00  0.00000000000E+00 -0.16430074412E+04  0.16430074412E+04  0.25500000920E-02 0.  1.
    10030    2    1    2    0    0  0.00000000000E+00  0.00000000000E+00 -0.27974001832E+03  0.30062748641E+04  0.29932313777E+04 0.  0.
        1    1    3    3  502    0  0.61896399688E+03  0.34581524319E+03 -0.14636248013E+04  0.16263155201E+04  0.50400001928E-02 0.  1.
       -1    1    3    3    0  502 -0.61896399688E+03 -0.34581524319E+03  0.11838847829E+04  0.13799593440E+04  0.50400001928E-02 0. -1.
</event>
<event>
 5   0  0.2552990E-06  0.2815280E+04  0.7818609E-02  0.8298540E-01
        1   -1    0    0  501    0  0.00000000000E+00  0.00000000000E+00  0.12156264691E+04  0.12156264691E+04  0.50400001928E-02 0.  1.
       -1   -1    0    0    0  501  0.00000000000E+00  0.00000000000E+00 -0.16299826032E+04  0.16299826032E+04  0.50400001928E-02 0. -1.
    10030    2    1    2    0    0  0.00000000000E+00  0.00000000000E+00 -0.41435613407E+03  0.28456090723E+04  0.28152797350E+04 0.  0.
        3    1    3    3  502    0  0.86496631805E+03  0.11079034149E+04 -0.28437677528E+03  0.14340456299E+04  0.10100000352E+00 0.  1.
       -3    1    3    3    0  502 -0.86496631805E+03 -0.11079034149E+04 -0.12997935879E+03  0.14115634424E+04  0.10100000352E+00 0. -1.
</event>
<event>
 5   0  0.6780150E-06  0.2992203E+04  0.7818609E-02  0.8245961E-01
       -2   -1    0    0    0  501  0.00000000000E+00  0.00000000000E+00  0.89260775544E+03  0.89260775545E+03  0.25500000920E-02 0.  1.
        2   -1    0    0  501    0  0.00000000000E+00  0.00000000000E+00 -0.25076186086E+04  0.25076186086E+04  0.25500000920E-02 0. -1.
    10030    2    1    2    0    0  0.00000000000E+00  0.00000000000E+00 -0.16150108532E+04  0.34002263641E+04  0.29922030799E+04 0.  0.
        5    1    3    3  502    0 -0.12885461662E+04 -0.43135838146E+03 -0.96142302124E+02  0.13622359222E+04  0.46999998093E+01 0.  1.
       -5    1    3    3    0  502  0.12885461662E+04  0.43135838146E+03 -0.15188685511E+04  0.20379904418E+04  0.46999998093E+01 0. -1.
</event>
<event>
 5   0  0.7217255E-06  0.2966212E+04  0.7818609E-02  0.8253446E-01
        2   -1    0    0  501    0  0.00000000000E+00  0.00000000000E+00  0.20657153140E+04  0.20657153140E+04  0.25500000920E-02 0. -1.
       -2   -1    0    0    0  501  0.00000000000E+00  0.00000000000E+00 -0.10648140914E+04  0.10648140914E+04  0.25500000920E-02 0.  1.
    10030    2    1    2    0    0  0.00000000000E+00  0.00000000000E+00  0.10009012226E+04  0.31305294054E+04  0.29662115738E+04 0.  0.
        1    1    3    3  502    0 -0.28610169251E+03 -0.12262900636E+04 -0.32651252937E+03  0.13008658387E+04  0.50400001928E-02 0.  1.
       -1    1    3    3    0  502  0.28610169251E+03  0.12262900636E+04  0.13274137520E+04  0.18296635667E+04  0.50400001928E-02 0. -1.
</event>
<event>
 5   0  0.2422083E-06  0.3015101E+04  0.7818609E-02  0.8239432E-01
        1   -1    0    0  501    0  0.00000000000E+00  0.00000000000E+00  0.25699376344E+04  0.25699376344E+04  0.50400001928E-02 0.  1.
       -1   -1    0    0    0  501  0.00000000000E+00  0.00000000000E+00 -0.88434390249E+03  0.88434390250E+03  0.50400001928E-02 0. -1.
    10030    2    1    2    0    0  0.00000000000E+00  0.00000000000E+00  0.16855937319E+04  0.34542815369E+04  0.30151011106E+04 0.  0.
        2    1    3    3  502    0 -0.12525357679E+04  0.58499182566E+03  0.15317640215E+04  0.20633376610E+04  0.25500000920E-02 0.  1.
       -2    1    3    3    0  502  0.12525357679E+04 -0.58499182566E+03  0.15382971045E+03  0.13909438759E+04  0.25500000920E-02 0. -1.
</event>
<event>
 5   0  0.6792811E-06  0.2999143E+04  0.7818609E-02  0.8243976E-01
        2   -1    0    0  501    0  0.00000000000E+00  0.00000000000E+00  0.21961522861E+04  0.21961522861E+04  0.25500000920E-02 0.  1.
       -2   -1    0    0    0  501  0.00000000000E+00  0.00000000000E+00 -0.10239339860E+04  0.10239339860E+04  0.25500000920E-02 0. -1.
    10030    2    1    2    0    0  0.00000000000E+00  0.00000000000E+00  0.11722183001E+04  0.32200862721E+04  0.29991431870E+04 0.  0.
        2    1    3    3  502    0  0.11374056288E+04 -0.54218288983E+03  0.14590626534E+04  0.19278271906E+04  0.25500000920E-02 0.  1.
       -2    1    3    3    0  502 -0.11374056288E+04  0.54218288983E+03 -0.28684435324E+03  0.12922590814E+04  0.25500000920E-02 0. -1.
</event>
<event>
 5   0  0.7217255E-06  0.3007346E+04  0.7818609E-02  0.8241636E-01
       -2   -1    0    0    0  501  0.00000000000E+00  0.00000000000E+00  0.17651166674E+04  0.17651166674E+04  0.25500000920E-02 0.  1.
        2   -1    0    0  501    0  0.00000000000E+00  0.00000000000E+00 -0.12809532195E+04  0.12809532195E+04  0.25500000920E-02 0. -1.
    10030    2    1    2    0    0  0.00000000000E+00  0.00000000000E+00  0.48416344792E+03  0.30460698868E+04  0.30073455922E+04 0.  0.
        1    1    3    3  502    0  0.86198322605E+03  0.35643717159E+03  0.14366618998E+04  0.17129097914E+04  0.50400001928E-02 0.  1.
       -1    1    3    3    0  502 -0.86198322605E+03 -0.35643717159E+03 -0.95249845184E+03  0.13331600954E+04  0.50400001928E-02 0. -1.
</event>
<event>
 5   0  0.2422083E-06  0.3026767E+04  0.7818609E-02  0.8236128E-01
       -1   -1    0    0    0  501  0.00000000000E+00  0.00000000000E+00  0.15991777687E+04  0.15991777687E+04  0.50400001928E-02 0. -1.
        1   -1    0    0  501    0  0.00000000000E+00  0.00000000000E+00 -0.14321918976E+04  0.14321918976E+04  0.50400001928E-02 0.  1.
    10030    2    1    2    0    0  0.00000000000E+00  0.00000000000E+00  0.16698587111E+03  0.30313696663E+04  0.30267668844E+04 0.  0.
        2    1    3    3  502    0  0.11346860911E+04  0.18848340977E+03  0.10684980437E+04  0.15699447731E+04  0.25500000920E-02 0. -1.
       -2    1    3    3    0  502 -0.11346860911E+04 -0.18848340977E+03 -0.90151217257E+03  0.14614248932E+04  0.25500000920E-02 0.  1.
</event>
<event>
 5   0  0.2504260E-06  0.2982793E+04  0.7818609E-02  0.8248662E-01
       -1   -1    0    0    0  501  0.00000000000E+00  0.00000000000E+00  0.96201371504E+03  0.96201371505E+03  0.50400001928E-02 0. -1.
        1   -1    0    0  501    0  0.00000000000E+00  0.00000000000E+00 -0.23120915365E+04  0.23120915365E+04  0.50400001928E-02 0.  1.
    10030    2    1    2    0    0  0.00000000000E+00  0.00000000000E+00 -0.13500778214E+04  0.32741052515E+04  0.29827931665E+04 0.  0.
        4    1    3    3  502    0 -0.11910629446E+04 -0.22739762618E+03 -0.16281259679E+04  0.20300582255E+04  0.12699999809E+01 0.  1.
       -4    1    3    3    0  502  0.11910629446E+04  0.22739762618E+03  0.27804814650E+03  0.12440470261E+04  0.12699999809E+01 0. -1.
</event>
<event>
 5   0  0.6780150E-06  0.2888265E+04  0.7818609E-02  0.8276378E-01
       -2   -1    0    0    0  501  0.00000000000E+00  0.00000000000E+00  0.10580716495E+04  0.10580716495E+04  0.25500000920E-02 0. -1.
        2   -1    0    0  501    0  0.00000000000E+00  0.00000000000E+00 -0.19710562055E+04  0.19710562055E+04  0.25500000920E-02 0.  1.
    10030    2    1    2    0    0  0.00000000000E+00  0.00000000000E+00 -0.91298455602E+03  0.30291278549E+04  0.28882650090E+04 0.  0.
        5    1    3    3  502    0 -0.13973139203E+04 -0.35699720625E+03 -0.37826632833E+03  0.14909864862E+04  0.46999998093E+01 0. -1.
       -5    1    3    3    0  502  0.13973139203E+04  0.35699720625E+03 -0.53471822769E+03  0.15381413687E+04  0.46999998093E+01 0.  1.
</event>
<event>
 5   0  0.2552990E-06  0.2912255E+04  0.7818609E-02  0.8269241E-01
        1   -1    0    0  501    0  0.00000000000E+00  0.00000000000E+00  0.16390242257E+04  0.16390242257E+04  0.50400001928E-02 0.  1.
       -1   -1    0    0    0  501  0.00000000000E+00  0.00000000000E+00 -0.12936398376E+04  0.12936398376E+04  0.50400001928E-02 0. -1.
    10030    2    1    2    0    0  0.00000000000E+00  0.00000000000E+00  0.34538438813E+03  0.29326640633E+04  0.29122548193E+04 0.  0.
        3    1    3    3  502    0  0.90973818918E+03 -0.13681392622E+03 -0.96391856109E+03  0.13324716229E+04  0.10100000352E+00 0. -1.
       -3    1    3    3    0  502 -0.90973818918E+03  0.13681392622E+03  0.13093029492E+04  0.16001924404E+04  0.10100000352E+00 0.  1.
</event>
<event>
 5   0  0.2552990E-06  0.3017119E+04  0.7818609E-02  0.8238859E-01
       -1   -1    0    0    0  501  0.00000000000E+00  0.00000000000E+00  0.16799500330E+04  0.16799500330E+04  0.50400001928E-02 0. -1.
        1   -1    0    0  501    0  0.00000000000E+00  0.00000000000E+00 -0.13546544413E+04  0.13546544413E+04  0.50400001928E-02 0.  1.
    10030    2    1    2    0    0  0.00000000000E+00  0.00000000000E+00  0.32529559169E+03  0.30346044743E+04  0.30171190055E+04 0.  0.
        3    1    3    3  502    0  0.11798732870E+04 -0.67578513954E+02 -0.78038071871E+03  0.14162139335E+04  0.10100000352E+00 0.  1.
       -3    1    3    3    0  502 -0.11798732870E+04  0.67578513954E+02  0.11056763104E+04  0.16183905408E+04  0.10100000352E+00 0. -1.
</event>
<event>
 5   0  0.7201538E-06  0.2999079E+04  0.7818609E-02  0.8243994E-01
       -2   -1    0    0    0  501  0.00000000000E+00  0.00000000000E+00  0.14477365803E+04  0.14477365803E+04  0.25500000920E-02 0.  1.
        2   -1    0    0  501    0  0.00000000000E+00  0.00000000000E+00 -0.15531959272E+04  0.15531959272E+04  0.25500000920E-02 0. -1.
    10030    2    1    2    0    0  0.00000000000E+00  0.00000000000E+00 -0.10545934697E+03  0.30009325075E+04  0.29990788987E+04 0.  0.
        3    1    3    3  502    0 -0.60651788476E+02  0.37695215573E+03 -0.15037455778E+04  0.15514581336E+04  0.10100000352E+00 0. -1.
       -3    1    3    3    0  502  0.60651788476E+02 -0.37695215573E+03  0.13982862308E+04  0.14494743739E+04  0.10100000352E+00 0.  1.
</event>
<event>
 5   0  0.6780150E-06  0.3052169E+04  0.7818609E-02  0.8228989E-01
       -2   -1    0    0    0  501  0.00000000000E+00  0.00000000000E+00  0.94503661759E+03  0.94503661759E+03  0.25500000920E-02 0. -1.
        2   -1    0    0  501    0  0.00000000000E+00  0.00000000000E+00 -0.24643845310E+04  0.24643845310E+04  0.25500000920E-02 0.  1.
    10030    2    1    2    0    0  0.00000000000E+00  0.00000000000E+00 -0.15193479134E+04  0.34094211486E+04  0.30521688168E+04 0.  0.
        5    1    3    3  502    0  0.28831307901E+03  0.14694131561E+04 -0.10884205993E+04  0.18512106702E+04  0.46999998093E+01 0. -1.
       -5    1    3    3    0  502 -0.28831307901E+03 -0.14694131561E+04 -0.43092731413E+03  0.15582104783E+04  0.46999998093E+01 0.  1.
</event>
<event>
 5   0  0.2672155E-06  0.2869786E+04  0.7818609E-02  0.8281924E-01
        1   -1    0    0  501    0  0.00000000000E+00  0.00000000000E+00  0.20745058735E+04  0.20745058735E+04  0.50400001928E-02 0. -1.
       -1   -1    0    0    0  501  0.00000000000E+00  0.00000000000E+00 -0.99248575489E+03  0.99248575491E+03  0.50400001928E-02 0.  1.
    10030    2    1    2    0    0  0.00000000000E+00  0.00000000000E+00  0.10820201186E+04  0.30669916284E+04  0.28697857257E+04 0.  0.
        5    1    3    3  502    0  0.12484208422E+04 -0.21187524688E+03  0.12622559278E+04  0.17879479402E+04  0.46999998093E+01 0. -1.
       -5    1    3    3    0  502 -0.12484208422E+04  0.21187524688E+03 -0.18023580925E+03  0.12790436882E+04  0.46999998093E+01 0.  1.
</event>
<event>
 5   0  0.2422083E-06  0.2958800E+04  0.7818609E-02  0.8255594E-01
       -1   -1    0    0    0  501  0.00000000000E+00  0.00000000000E+00  0.10368425716E+04  0.10368425716E+04  0.50400001928E-02 0. -1.
        1   -1    0    0  501    0  0.00000000000E+00  0.00000000000E+00 -0.21108555796E+04  0.21108555796E+04  0.50400001928E-02 0.  1.
    10030    2    1    2    0    0  0.00000000000E+00  0.00000000000E+00 -0.10740130080E+04  0.31476981512E+04  0.29588003835E+04 0.  0.
        2    1    3    3  502    0 -0.11547770944E+03  0.87151413100E+03 -0.18028241615E+04  0.20057534592E+04  0.25500000920E-02 0.  1.
       -2    1    3    3    0  502  0.11547770944E+03 -0.87151413100E+03  0.72881115351E+03  0.11419446919E+04  0.25500000920E-02 0. -1.
</event>
<event>
 5   0  0.7193153E-06  0.2998362E+04  0.7818609E-02  0.8244199E-01
       -2   -1    0    0    0  501  0.00000000000E+00  0.00000000000E+00  0.85258944199E+03  0.85258944200E+03  0.25500000920E-02 0. -1.
        2   -1    0    0  501    0  0.00000000000E+00  0.00000000000E+00 -0.26361386537E+04  0.26361386537E+04  0.25500000920E-02 0.  1.
    10030    2    1    2    0    0  0.00000000000E+00  0.00000000000E+00 -0.17835492117E+04  0.34887280957E+04  0.29983622088E+04 0.  0.
        4    1    3    3  502    0 -0.19918071465E+02 -0.14752176381E+04 -0.58200380763E+03  0.15859993236E+04  0.12699999809E+01 0. -1.
       -4    1    3    3    0  502  0.19918071465E+02  0.14752176381E+04 -0.12015454041E+04  0.19027287721E+04  0.12699999809E+01 0.  1.
</event>
<event>
 5   0  0.6780150E-06  0.2465745E+04  0.7818609E-02  0.8415292E-01
        2   -1    0    0  501    0  0.00000000000E+00  0.00000000000E+00  0.22698506291E+04  0.22698506291E+04  0.25500000920E-02 0.  1.
       -2   -1    0    0    0  501  0.00000000000E+00  0.00000000000E+00 -0.66963653323E+03  0.66963653323E+03  0.25500000920E-02 0. -1.
    10030    2    1    2    0    0  0.00000000000E+00  0.00000000000E+00  0.16002140959E+04  0.29394871623E+04  0.24657452474E+04 0.  0.
        5    1    3    3  502    0  0.72047506088E+03 -0.70333446507E+03  0.16482709245E+04  0.19314716704E+04  0.46999998093E+01 0. -1.
       -5    1    3    3    0  502 -0.72047506088E+03  0.70333446507E+03 -0.48056828647E+02  0.10080154919E+04  0.46999998093E+01 0.  1.
</event>
<event>
 5   0  0.2628425E-06  0.3005182E+04  0.7818609E-02  0.8242253E-01
        1   -1    0    0  501    0  0.00000000000E+00  0.00000000000E+00  0.16135975989E+04  0.16135975989E+04  0.50400001928E-02 0.  1.
       -1   -1    0    0    0  501  0.00000000000E+00  0.00000000000E+00 -0.13992206723E+04  0.13992206723E+04  0.50400001928E-02 0. -1.
    10030    2    1    2    0    0  0.00000000000E+00  0.00000000000E+00  0.21437692661E+03  0.30128182712E+04  0.30051816032E+04 0.  0.
        1    1    3    3  502    0  0.56408447466E+03  0.45612451414E+03 -0.12120346743E+04  0.14125398822E+04  0.50400001928E-02 0. -1.
       -1    1    3    3    0  502 -0.56408447466E+03 -0.45612451414E+03  0.14264116009E+04  0.16002783890E+04  0.50400001928E-02 0.  1.
</event>
<event>
 5   0  0.6792811E-06  0.2769765E+04  0.7818609E-02  0.8312717E-01
       -2   -1    0    0    0  501  0.00000000000E+00  0.00000000000E+00  0.75903513839E+03  0.75903513840E+03  0.25500000920E-02 0. -1.
        2   -1    0    0  501    0  0.00000000000E+00  0.00000000000E+00 -0.25267596647E+04  0.25267596647E+04  0.25500000920E-02 0.  1.
    10030    2    1    2    0    0  0.00000000000E+00  0.00000000000E+00 -0.17677245263E+04  0.32857948031E+04  0.27697648794E+04 0.  0.
        2    1    3    3  502    0 -0.88596686436E+03 -0.92524689767E+03 -0.25963384584E+03  0.13070687971E+04  0.25500000920E-02 0. -1.
       -2    1    3    3    0  502  0.88596686436E+03  0.92524689767E+03 -0.15080906805E+04  0.19787260060E+04  0.25500000920E-02 0.  1.
</event>
<event>
 5   0  0.2422083E-06  0.3029355E+04  0.7818609E-02  0.8235398E-01
        1   -1    0    0  501    0  0.00000000000E+00  0.00000000000E+00  0.25687055719E+04  0.25687055719E+04  0.50400001928E-02 0. -1.
       -1   -1    0    0    0  501  0.00000000000E+00  0.00000000000E+00 -0.89315333510E+03  0.89315333512E+03  0.50400001928E-02 0.  1.
    10030    2    1    2    0    0  0.00000000000E+00  0.00000000000E+00  0.16755522368E+04  0.34618589070E+04  0.30293550129E+04 0.  0.
        2    1    3    3  502    0 -0.12904121258E+04 -0.23054745316E+03  0.17050273688E+04  0.21506821966E+04  0.25500000920E-02 0. -1.
       -2    1    3    3    0  502  0.12904121258E+04  0.23054745316E+03 -0.29475132006E+02  0.13111767104E+04  0.25500000920E-02 0.  1.
</event>
<event>
 5   0  0.7217255E-06  0.2911639E+04  0.7818609E-02  0.8269423E-01
       -2   -1    0    0    0  501  0.00000000000E+00  0.00000000000E+00  0.16646718502E+04  0.16646718502E+04  0.25500000920E-02 0.  1.
        2   -1    0    0  501    0  0.00000000000E+00  0.00000000000E+00 -0.12731705263E+04  0.12731705263E+04  0.25500000920E-02 0. -1.
    10030    2    1    2    0    0  0.00000000000E+00  0.00000000000E+00  0.39150132387E+03  0.29378423764E+04  0.29116394939E+04 0.  0.
        1    1    3    3  502    0 -0.42363205565E+03  0.65027389587E+02  0.15995724698E+04  0.16559966081E+04  0.50400001928E-02 0.  1.
       -1    1    3    3    0  502  0.42363205565E+03 -0.65027389587E+02 -0.12080711460E+04  0.12818457683E+04  0.50400001928E-02 0. -1.
</event>
<event>
 5   0  0.2552990E-06  0.2718361E+04  0.7818609E-02  0.8329072E-01
       -1   -1    0    0    0  501  0.00000000000E+00  0.00000000000E+00  0.10250005190E+04  0.10250005190E+04  0.50400001928E-02 0.  1.
        1   -1    0    0  501    0  0.00000000000E+00  0.00000000000E+00 -0.18023130567E+04  0.18023130567E+04  0.50400001928E-02 0. -1.
    10030    2    1    2    0    0  0.00000000000E+00  0.00000000000E+00 -0.77731253772E+03  0.28273135757E+04  0.27183611375E+04 0.  0.
        3    1    3    3  502    0 -0.73012733810E+03 -0.58464461797E+02 -0.15794766830E+04  0.17410487142E+04  0.10100000352E+00 0. -1.
       -3    1    3    3    0  502  0.73012733810E+03  0.58464461797E+02  0.80216414524E+03  0.10862648615E+04  0.10100000352E+00 0.  1.
</event>
<event>
 5   0  0.2552990E-06  0.2925006E+04  0.7818609E-02  0.8265476E-01
       -1   -1    0    0    0  501  0.00000000000E+00  0.00000000000E+00  0.16513330339E+04  0.16513330339E+04  0.50400001928E-02 0. -1.
        1   -1    0    0  501    0  0.00000000000E+00  0.00000000000E+00 -0.12952659823E+04  0.12952659824E+04  0.50400001928E-02 0.  1.
    10030    2    1    2    0    0  0.00000000000E+00  0.00000000000E+00  0.35606705155E+03  0.29465990162E+04  0.29250063277E+04 0.  0.
        3    1    3    3  502    0 -0.27108762260E+03 -0.13917998262E+04 -0.18282902041E+03  0.14296928748E+04  0.10100000352E+00 0. -1.
       -3    1    3    3    0  502  0.27108762260E+03  0.13917998262E+04  0.53889607196E+03  0.15169061414E+04  0.10100000352E+00 0.  1.
</event>
<event>
 5   0  0.7193153E-06  0.3008758E+04  0.7818609E-02  0.8241234E-01
        2   -1    0    0  501    0  0.00000000000E+00  0.00000000000E+00  0.25739415549E+04  0.25739415549E+04  0.25500000920E-02 0.  1.
       -2   -1    0    0    0  501  0.00000000000E+00  0.00000000000E+00 -0.87925716492E+03  0.87925716493E+03  0.25500000920E-02 0. -1.
    10030    2    1    2    0    0  0.00000000000E+00  0.00000000000E+00  0.16946843900E+04  0.34531987198E+04  0.30087582517E+04 0.  0.
        4    1    3    3  502    0  0.11863728288E+04 -0.83633805603E+03  0.13009630514E+04  0.19492173575E+04  0.12699999809E+01 0. -1.
       -4    1    3    3    0  502 -0.11863728288E+04  0.83633805603E+03  0.39372133859E+03  0.15039813623E+04  0.12699999809E+01 0.  1.
</event>
<event>
 5   0  0.7217255E-06  0.3023364E+04  0.7818609E-02  0.8237090E-01
       -2   -1    0    0    0  501  0.00000000000E+00  0.00000000000E+00  0.98531765074E+03  0.98531765074E+03  0.25500000920E-02 0. -1.
        2   -1    0    0  501    0  0.00000000000E+00  0.00000000000E+00 -0.23192342930E+04  0.23192342930E+04  0.25500000920E-02 0.  1.
    10030    2    1    2    0    0  0.00000000000E+00  0.00000000000E+00 -0.13339166423E+04  0.33045519438E+04  0.30233640106E+04 0.  0.
        1    1    3    3  502    0  0.29336438154E+03 -0.10951127830E+04 -0.17598801377E+04  0.20934451908E+04  0.50400001928E-02 0.  1.
       -1    1    3    3    0  502 -0.29336438154E+03  0.10951127830E+04  0.42596349535E+03  0.12111067530E+04  0.50400001928E-02 0. -1.
</event>
<event>
 5   0  0.2422083E-06  0.2885267E+04  0.7818609E-02  0.8277274E-01
       -1   -1    0    0    0  501  0.00000000000E+00  0.00000000000E+00  0.10643402178E+04  0.10643402178E+04  0.50400001928E-02 0. -1.
        1   -1    0    0  501    0  0.00000000000E+00  0.00000000000E+00 -0.19553821479E+04  0.19553821479E+04  0.50400001928E-02 0.  1.
    10030    2    1    2    0    0  0.00000000000E+00  0.00000000000E+00 -0.89104193012E+03  0.30197223657E+04  0.28852673091E+04 0.  0.
        2    1    3    3  502    0  0.64714382478E+03  0.45700651721E+02 -0.17940966175E+04  0.19077909614E+04  0.25500000920E-02 0.  1.
       -2    1    3    3    0  502 -0.64714382478E+03 -0.45700651721E+02  0.90305468738E+03  0.11119314043E+04  0.25500000920E-02 0. -1.
</event>
<event>
 5   0  0.2504260E-06  0.2997429E+04  0.7818609E-02  0.8244465E-01
       -1   -1    0    0    0  501  0.00000000000E+00  0.00000000000E+00  0.10006583393E+04  0.10006583394E+04  0.50400001928E-02 0.  1.
        1   -1    0    0  501    0  0.00000000000E+00  0.00000000000E+00 -0.22446678231E+04  0.22446678231E+04  0.50400001928E-02 0. -1.
    10030    2    1    2    0    0  0.00000000000E+00  0.00000000000E+00 -0.12440094837E+04  0.32453261625E+04  0.29974292827E+04 0.  0.
        4    1    3    3  502    0  0.62236204422E+03  0.54504755816E+03 -0.19750513108E+04  0.21413175028E+04  0.12699999809E+01 0. -1.
       -4    1    3    3    0  502 -0.62236204422E+03 -0.54504755816E+03  0.73104182705E+03  0.11040086596E+04  0.12699999809E+01 0.  1.
</event>
<event>
 5   0  0.2672155E-06  0.2962882E+04  0.7818609E-02  0.8254410E-01
       -1   -1    0    0    0  501  0.00000000000E+00  0.00000000000E+00  0.12974190538E+04  0.12974190538E+04  0.50400001928E-02 0. -1.
        1   -1    0    0  501    0  0.00000000000E+00  0.00000000000E+00 -0.16915637139E+04  0.16915637139E+04  0.50400001928E-02 0.  1.
    10030    2    1    2    0    0  0.00000000000E+00  0.00000000000E+00 -0.39414466011E+03  0.29889827677E+04  0.29628817008E+04 0.  0.
        5    1    3    3  502    0  0.17217674338E+03 -0.23453219820E+03  0.12683060637E+04  0.13012580621E+04  0.46999998093E+01 0. -1.
       -5    1    3    3    0  502 -0.17217674338E+03  0.23453219820E+03 -0.16624507238E+04  0.16877247056E+04  0.46999998093E+01 0.  1.
</event>
<event>
 5   0  0.6792811E-06  0.2975457E+04  0.7818609E-02  0.8250774E-01
       -2   -1    0    0    0  501  0.00000000000E+00  0.00000000000E+00  0.11028363006E+04  0.11028363006E+04  0.25500000920E-02 0. -1.
        2   -1    0    0  501    0  0.00000000000E+00  0.00000000000E+00 -0.20069490842E+04  0.20069490842E+04  0.25500000920E-02 0.  1.
    10030    2    1    2    0    0  0.00000000000E+00  0.00000000000E+00 -0.90411278362E+03  0.31097853848E+04  0.29754571437E+04 0.  0.
        2    1    3    3  502    0 -0.26259067494E+03  0.99064200608E+03 -0.15791723616E+04  0.18825808865E+04  0.25500000920E-02 0.  1.
       -2    1    3    3    0  502  0.26259067494E+03 -0.99064200608E+03  0.67505957793E+03  0.12272044983E+04  0.25500000920E-02 0. -1.
</event>
<event>
 5   0  0.2504260E-06  0.2996529E+04  0.7818609E-02  0.8244723E-01
        1   -1    0    0  501    0  0.00000000000E+00  0.00000000000E+00  0.23668561400E+04  0.23668561400E+04  0.50400001928E-02 0.  1.
       -1   -1    0    0    0  501  0.00000000000E+00  0.00000000000E+00 -0.94842939713E+03  0.94842939714E+03  0.50400001928E-02 0. -1.
    10030    2    1    2    0    0  0.00000000000E+00  0.00000000000E+00  0.14184267428E+04  0.33152855371E+04  0.29965286195E+04 0.  0.
        4    1    3    3  502    0  0.88505910085E+03  0.11324041785E+04  0.11774670622E+04  0.18579825432E+04  0.12699999809E+01 0.  1.
       -4    1    3    3    0  502 -0.88505910085E+03 -0.11324041785E+04  0.24095968064E+03  0.14573029939E+04  0.12699999809E+01 0. -1.
</event>
<event>
 5   0  0.6780150E-06  0.3010034E+04  0.7818609E-02  0.8240871E-01
       -2   -1    0    0    0  501  0.00000000000E+00  0.00000000000E+00  0.18463603431E+04  0.18463603431E+04  0.25500000920E-02 0. -1.
        2   -1    0    0  501    0  0.00000000000E+00  0.00000000000E+00 -0.12267790105E+04  0.12267790105E+04  0.25500000920E-02 0.  1.
    10030    2    1    2    0    0  0.00000000000E+00  0.00000000000E+00  0.61958133261E+03  0.30731393537E+04  0.30100339632E+04 0.  0.
        5    1    3    3  502    0 -0.36343260266E+03  0.14604693608E+04  0.30966901192E+03  0.15365451499E+04  0.46999998093E+01 0. -1.
       -5    1    3    3    0  502  0.36343260266E+03 -0.14604693608E+04  0.30991232069E+03  0.15365942038E+04  0.46999998093E+01 0.  1.
</event>
<event>
 5   0  0.2672155E-06  0.2964778E+04  0.7818609E-02  0.8253861E-01
        1   -1    0    0  501    0  0.00000000000E+00  0.00000000000E+00  0.25186913584E+04  0.25186913584E+04  0.50400001928E-02 0.  1.
       -1   -1    0    0    0  501  0.00000000000E+00  0.00000000000E+00 -0.87246754495E+03  0.87246754496E+03  0.50400001928E-02 0. -1.
    10030    2    1    2    0    0  0.00000000000E+00  0.00000000000E+00  0.16462238134E+04  0.33911589034E+04  0.29647775404E+04 0.  0.
        5    1    3    3  502    0 -0.11265388010E+04  0.85782773660E+03  0.13249541308E+04  0.19391966467E+04  0.46999998093E+01 0.  1.
       -5    1    3    3    0  502  0.11265388010E+04 -0.85782773660E+03  0.32126968265E+03  0.14519622567E+04  0.46999998093E+01 0. -1.
</event>
<event>
 5   0  0.2628425E-06  0.2929142E+04  0.7818609E-02  0.8264259E-01
        1   -1    0    0  501    0  0.00000000000E+00  0.00000000000E+00  0.12247766948E+04  0.12247766948E+04  0.50400001928E-02 0.  1.
       -1   -1    0    0    0  501  0.00000000000E+00  0.00000000000E+00 -0.17513139978E+04  0.17513139978E+04  0.50400001928E-02 0. -1.
    10030    2    1    2    0    0  0.00000000000E+00  0.00000000000E+00 -0.52653730302E+03  0.29760906926E+04  0.29291422429E+04 0.  0.
        1    1    3    3  502    0 -0.39293614482E+03  0.10379334301E+04  0.70769697830E+03  0.13162597131E+04  0.50400001928E-02 0.  1.
       -1    1    3    3    0  502  0.39293614482E+03 -0.10379334301E+04 -0.12342342813E+04  0.16598309795E+04  0.50400001928E-02 0. -1.
</event>
<event>
 5   0  0.6792811E-06  0.2796417E+04  0.7818609E-02  0.8304382E-01
       -2   -1    0    0    0  501  0.00000000000E+00  0.00000000000E+00  0.17751232182E+04  0.17751232183E+04  0.25500000920E-02 0.  1.
        2   -1    0    0  501    0  0.00000000000E+00  0.00000000000E+00 -0.11013245497E+04  0.11013245497E+04  0.25500000920E-02 0. -1.
    10030    2    1    2    0    0  0.00000000000E+00  0.00000000000E+00  0.67379866857E+03  0.28764477679E+04  0.27964168351E+04 0.  0.
        2    1    3    3  502    0 -0.67257960447E+03 -0.30028272271E+03 -0.88558049165E+03  0.11518619037E+04  0.25500000920E-02 0. -1.
       -2    1    3    3    0  502  0.67257960447E+03  0.30028272271E+03  0.15593791602E+04  0.17245858643E+04  0.25500000920E-02 0.  1.
</event>
<event>
 5   0  0.2672155E-06  0.3067388E+04  0.7818609E-02  0.8224745E-01
       -1   -1    0    0    0  501  0.00000000000E+00  0.00000000000E+00  0.13814152742E+04  0.13814152742E+04  0.50400001928E-02 0.  1.
        1   -1    0    0  501    0  0.00000000000E+00  0.00000000000E+00 -0.17027590640E+04  0.17027590640E+04  0.50400001928E-02 0. -1.
    10030    2    1    2    0    0  0.00000000000E+00  0.00000000000E+00 -0.32134378980E+03  0.30841743382E+04  0.30673880611E+04 0.  0.
        5    1    3    3  502    0 -0.84803960574E+03 -0.12766272217E+04 -0.21796665371E+03  0.15480567781E+04  0.46999998093E+01 0. -1.
       -5    1    3    3    0  502  0.84803960574E+03  0.12766272217E+04 -0.10337713609E+03  0.15361175601E+04  0.46999998093E+01 0.  1.
</event>
<event>
 5   0  0.7217255E-06  0.2529000E+04  0.7818609E-02  0.8392726E-01
        2   -1    0    0  501    0  0.00000000000E+00  0.00000000000E+00  0.10214812814E+04  0.10214812814E+04  0.25500000920E-02 0.  1.
       -2   -1    0    0    0  501  0.00000000000E+00  0.00000000000E+00 -0.15653353429E+04  0.15653353429E+04  0.25500000920E-02 0. -1.
    10030    2    1    2    0    0  0.00000000000E+00  0.00000000000E+00 -0.54385406151E+03  0.25868166242E+04  0.25290003968E+04 0.  0.
        1    1    3    3  502    0  0.10605575460E+04 -0.58050652823E+03  0.10693313565E+03  0.12137564967E+04  0.50400001928E-02 0. -1.
       -1    1    3    3    0  502 -0.10605575460E+04  0.58050652823E+03 -0.65078719716E+03  0.13730601275E+04  0.50400001928E-02 0.  1.
</event>
<event>
 5   0  0.2628425E-06  0.2927214E+04  0.7818609E-02  0.8264826E-01
        1   -1    0    0  501    0  0.00000000000E+00  0.00000000000E+00  0.97769512846E+03  0.97769512847E+03  0.50400001928E-02 0.  1.
       -1   -1    0    0    0  501  0.00000000000E+00  0.00000000000E+00 -0.21910158086E+04  0.21910158086E+04  0.50400001928E-02 0. -1.
    10030    2    1    2    0    0  0.00000000000E+00  0.00000000000E+00 -0.12133206802E+04  0.31687109371E+04  0.29272140219E+04 0.  0.
        1    1    3    3  502    0  0.14858947432E+03 -0.42419340329E+03  0.90113772574E+03  0.10070094717E+04  0.50400001928E-02 0.  1.
       -1    1    3    3    0  502 -0.14858947432E+03  0.42419340329E+03 -0.21144584059E+04  0.21617014654E+04  0.50400001928E-02 0. -1.
</event>
<event>
 5   0  0.2422083E-06  0.2991365E+04  0.7818609E-02  0.8246201E-01
       -1   -1    0    0    0  501  0.00000000000E+00  0.00000000000E+00  0.12399408457E+04  0.12399408458E+04  0.50400001928E-02 0. -1.
        1   -1    0    0  501    0  0.00000000000E+00  0.00000000000E+00 -0.18041718838E+04  0.18041718838E+04  0.50400001928E-02 0.  1.
    10030    2    1    2    0    0  0.00000000000E+00  0.00000000000E+00 -0.56423103805E+03  0.30441127296E+04  0.29913651810E+04 0.  0.
        2    1    3    3  502    0 -0.45663466136E+03  0.13560605749E+03 -0.17249178903E+04  0.17894820326E+04  0.25500000920E-02 0.  1.
       -2    1    3    3    0  502  0.45663466136E+03 -0.13560605749E+03  0.11606868522E+04  0.12546306970E+04  0.25500000920E-02 0. -1.
</event>
<event>
 5   0  0.7193153E-06  0.2993565E+04  0.7818609E-02  0.8245571E-01
       -2   -1    0    0    0  501  0.00000000000E+00  0.00000000000E+00  0.12912871907E+04  0.12912871907E+04  0.25500000920E-02 0.  1.
        2   -1    0    0  501    0  0.00000000000E+00  0.00000000000E+00 -0.17349805836E+04  0.17349805836E+04  0.25500000920E-02 0. -1.
    10030    2    1    2    0    0  0.00000000000E+00  0.00000000000E+00 -0.44369339296E+03  0.30262677743E+04  0.29935652347E+04 0.  0.
        4    1    3    3  502    0  0.11166997961E+03  0.92805094532E+03  0.95994404170E+03  0.13398667537E+04  0.12699999809E+01 0.  1.
       -4    1    3    3    0  502 -0.11166997961E+03 -0.92805094532E+03 -0.14036374347E+04  0.16864010206E+04  0.12699999809E+01 0. -1.
</event>
<event>
 5   0  0.6792811E-06  0.3056608E+04  0.7818609E-02  0.8227748E-01
        2   -1    0    0  501    0  0.00000000000E+00  0.00000000000E+00  0.14840098345E+04  0.14840098345E+04  0.25500000920E-02 0.  1.
       -2   -1    0    0    0  501  0.00000000000E+00  0.00000000000E+00 -0.15739200628E+04  0.15739200628E+04  0.25500000920E-02 0. -1.
    10030    2    1    2    0    0  0.00000000000E+00  0.00000000000E+00 -0.89910228303E+02  0.30579298974E+04  0.30566078270E+04 0.  0.
        2    1    3    3  502    0  0.18428106053E+03  0.41766100365E+03  0.14142067254E+04  0.14860622078E+04  0.25500000920E-02 0.  1.
       -2    1    3    3    0  502 -0.18428106053E+03 -0.41766100365E+03 -0.15041169537E+04  0.15718676896E+04  0.25500000920E-02 0. -1.
</event>
<event>
 5   0  0.7193153E-06  0.3020912E+04  0.7818609E-02  0.8237784E-01
       -2   -1    0    0    0  501  0.00000000000E+00  0.00000000000E+00  0.18496833825E+04  0.18496833825E+04  0.25500000920E-02 0.  1.
        2   -1    0    0  501    0  0.00000000000E+00  0.00000000000E+00 -0.12334421164E+04  0.12334421164E+04  0.25500000920E-02 0. -1.
    10030    2    1    2    0    0  0.00000000000E+00  0.00000000000E+00  0.61624126612E+03  0.30831254989E+04  0.30209120384E+04 0.  0.
        4    1    3    3  502    0 -0.10085565433E+04 -0.25320986357E+03 -0.80996553085E+03  0.13180847128E+04  0.12699999809E+01 0. -1.
       -4    1    3    3    0  502  0.10085565433E+04  0.25320986357E+03  0.14262067970E+04  0.17650407861E+04  0.12699999809E+01 0.  1.
</event>
<event>
 5   0  0.2422083E-06  0.3017330E+04  0.7818609E-02  0.8238799E-01
        1   -1    0    0  501    0  0.00000000000E+00  0.00000000000E+00  0.21749569773E+04  0.21749569773E+04  0.50400001928E-02 0.  1.
       -1   -1    0    0    0  501  0.00000000000E+00  0.00000000000E+00 -0.10464897910E+04  0.10464897910E+04  0.50400001928E-02 0. -1.
    10030    2    1    2    0    0  0.00000000000E+00  0.00000000000E+00  0.11284671863E+04  0.32214467683E+04  0.30173301262E+04 0.  0.
        2    1    3    3  502    0 -0.24692477832E+03 -0.26151059716E+02 -0.10245238328E+04  0.10541844279E+04  0.25500000920E-02 0. -1.
       -2    1    3    3    0  502  0.24692477832E+03  0.26151059716E+02  0.21529910191E+04  0.21672623405E+04  0.25500000920E-02 0.  1.
</event>
<event>
 5   0  0.7217255E-06  0.2994163E+04  0.7818609E-02  0.8245400E-01
       -2   -1    0    0    0  501  0.00000000000E+00  0.00000000000E+00  0.14099558546E+04  0.14099558546E+04  0.25500000920E-02 0.  1.
        2   -1    0    0  501    0  0.00000000000E+00  0.00000000000E+00 -0.15895905283E+04  0.15895905283E+04  0.25500000920E-02 0. -1.
    10030    2    1    2    0    0  0.00000000000E+00  0.00000000000E+00 -0.17963467375E+03  0.29995463829E+04  0.29941626354E+04 0.  0.
        1    1    3    3  502    0  0.76048419058E+03  0.81238048660E+03  0.91345941531E+03  0.14396896758E+04  0.50400001928E-02 0.  1.
       -1    1    3    3    0  502 -0.76048419058E+03 -0.81238048660E+03 -0.10930940891E+04  0.15598567071E+04  0.50400001928E-02 0. -1.
</event>
<event>
 5   0  0.2504260E-06  0.2993451E+04  0.7818609E-02  0.8245603E-01
       -1   -1    0    0    0  501  0.00000000000E+00  0.00000000000E+00  0.91029935990E+03  0.91029935991E+03  0.50400001928E-02 0.  1.
        1   -1    0    0  501    0  0.00000000000E+00  0.00000000000E+00 -0.24609352074E+04  0.24609352074E+04  0.50400001928E-02 0. -1.
    10030    2    1    2    0    0  0.00000000000E+00  0.00000000000E+00 -0.15506358475E+04  0.33712345673E+04  0.29934513486E+04 0.  0.
        4    1    3    3  502    0 -0.64796290332E+02  0.21727931189E+03  0.89084533147E+03  0.91924745097E+03  0.12699999809E+01 0.  1.
       -4    1    3    3    0  502  0.64796290332E+02 -0.21727931189E+03 -0.24414811790E+04  0.24519871163E+04  0.12699999809E+01 0. -1.
</event>
<event>
 5   0  0.2422083E-06  0.2902274E+04  0.7818609E-02  0.8272201E-01
        1   -1    0    0  501    0  0.00000000000E+00  0.00000000000E+00  0.23680032698E+04  0.23680032698E+04  0.50400001928E-02 0. -1.
       -1   -1    0    0    0  501  0.00000000000E+00  0.00000000000E+00 -0.88927157342E+03  0.88927157344E+03  0.50400001928E-02 0.  1.
    10030    2    1    2    0    0  0.00000000000E+00  0.00000000000E+00  0.14787316964E+04  0.32572748432E+04  0.29022735871E+04 0.  0.
        2    1    3    3  502    0 -0.18541163937E+03 -0.22453138923E+03 -0.85614541990E+03  0.90431012423E+03  0.25500000920E-02 0.  1.
       -2    1    3    3    0  502  0.18541163937E+03  0.22453138923E+03  0.23348771163E+04  0.23529647190E+04  0.25500000920E-02 0. -1.
</event>
<event>
 5   0  0.2628425E-06  0.3033740E+04  0.7818609E-02  0.8234161E-01
        1   -1    0    0  501    0  0.00000000000E+00  0.00000000000E+00  0.23518408770E+04  0.23518408770E+04  0.50400001928E-02 0.  1.
       -1   -1    0    0    0  501  0.00000000000E+00  0.00000000000E+00 -0.97833800164E+03  0.97833800165E+03  0.50400001928E-02 0. -1.
    10030    2    1    2    0    0  0.00000000000E+00  0.00000000000E+00  0.13735028753E+04  0.33301788786E+04  0.30337404660E+04 0.  0.
        1    1    3    3  502    0 -0.44188243654E+03  0.12940326011E+04 -0.34000179479E+02  0.13678217986E+04  0.50400001928E-02 0. -1.
       -1    1    3    3    0  502  0.44188243654E+03 -0.12940326011E+04  0.14075030548E+04  0.19623570801E+04  0.50400001928E-02 0.  1.
</event>
<event>
 5   0  0.7217255E-06  0.2934487E+04  0.7818609E-02  0.8262690E-01
       -2   -1    0    0    0  501  0.00000000000E+00  0.00000000000E+00  0.11397696195E+04  0.11397696196E+04  0.25500000920E-02 0. -1.
        2   -1    0    0  501    0  0.00000000000E+00  0.00000000000E+00 -0.18888061407E+04  0.18888061407E+04  0.25500000920E-02 0.  1.
    10030    2    1    2    0    0  0.00000000000E+00  0.00000000000E+00 -0.74903652113E+03  0.30285757602E+04  0.29344872509E+04 0.  0.
        1    1    3    3  502    0  0.91558445122E+03 -0.11456033906E+04 -0.42183404966E+03  0.15259901642E+04  0.50400001928E-02 0. -1.
       -1    1    3    3    0  502 -0.91558445122E+03  0.11456033906E+04 -0.32720247147E+03  0.15025855960E+04  0.50400001928E-02 0.  1.
</event>
<event>
 5   0  0.2552990E-06  0.3000556E+04  0.7818609E-02  0.8243572E-01
        1   -1    0    0  501    0  0.00000000000E+00  0.00000000000E+00  0.98179736005E+03  0.98179736006E+03  0.50400001928E-02 0. -1.
       -1   -1    0    0    0  501  0.00000000000E+00  0.00000000000E+00 -0.22925646825E+04  0.22925646825E+04  0.50400001928E-02 0.  1.
    10030    2    1    2    0    0  0.00000000000E+00  0.00000000000E+00 -0.13107673224E+04  0.32743620426E+04  0.30005559172E+04 0.  0.
        3    1    3    3  502    0 -0.10455249039E+04  0.10310281866E+04 -0.31958206501E+03  0.15027555199E+04  0.10100000352E+00 0.  1.
       -3    1    3    3    0  502  0.10455249039E+04 -0.10310281866E+04 -0.99118525743E+03  0.17716065226E+04  0.10100000352E+00 0. -1.
</event>
<event>
 5   0  0.2672155E-06  0.2816810E+04  0.7818609E-02  0.8298068E-01
       -1   -1    0    0    0  501  0.00000000000E+00  0.00000000000E+00  0.36120221000E+04  0.36120221000E+04  0.50400001928E-02 0. -1.
        1   -1    0    0  501    0  0.00000000000E+00  0.00000000000E+00 -0.54916739192E+03  0.54916739194E+03  0.50400001928E-02 0.  1.
    10030    2    1    2    0    0  0.00000000000E+00  0.00000000000E+00  0.30628547081E+04  0.41611894920E+04  0.28168100797E+04 0.  0.
        5    1    3    3  502    0  0.79445808526E+03 -0.33441850233E+03  0.31768326439E+04  0.32916997314E+04  0.46999998093E+01 0. -1.
       -5    1    3    3    0  502 -0.79445808526E+03  0.33441850233E+03 -0.11397793583E+03  0.86948976060E+03  0.46999998093E+01 0.  1.
</event>
<event>
 5   0  0.2552990E-06  0.2607016E+04  0.7818609E-02  0.8365822E-01
       -1   -1    0    0    0  501  0.00000000000E+00  0.00000000000E+00  0.17255951191E+04  0.17255951191E+04  0.50400001928E-02 0. -1.
        1   -1    0    0  501    0  0.00000000000E+00  0.00000000000E+00 -0.98466515560E+03  0.98466515561E+03  0.50400001928E-02 0.  1.
    10030    2    1    2    0    0  0.00000000000E+00  0.00000000000E+00  0.74092996350E+03  0.27102602747E+04  0.26070162151E+04 0.  0.
        3    1    3    3  502    0 -0.24933755054E+03 -0.11691795338E+04 -0.16971163703E+03  0.12074568507E+04  0.10100000352E+00 0.  1.
       -3    1    3    3    0  502  0.24933755054E+03  0.11691795338E+04  0.91064160053E+03  0.15028034240E+04  0.10100000352E+00 0. -1.
</event>
<event>
 5   0  0.6792811E-06  0.3038949E+04  0.7818609E-02  0.8232695E-01
        2   -1    0    0  501    0  0.00000000000E+00  0.00000000000E+00  0.25763036816E+04  0.25763036816E+04  0.25500000920E-02 0. -1.
       -2   -1    0    0    0  501  0.00000000000E+00  0.00000000000E+00 -0.89616883188E+03  0.89616883188E+03  0.25500000920E-02 0.  1.
    10030    2    1    2    0    0  0.00000000000E+00  0.00000000000E+00  0.16801348497E+04  0.34724725135E+04  0.30389492006E+04 0.  0.
        2    1    3    3  502    0  0.76930977033E+03  0.12757302108E+04  0.49826634447E+03  0.15708578687E+04  0.25500000920E-02 0. -1.
       -2    1    3    3    0  502 -0.76930977033E+03 -0.12757302108E+04  0.11818685052E+04  0.19016146448E+04  0.25500000920E-02 0.  1.
</event>
<event>
 5   0  0.6792811E-06  0.3034731E+04  0.7818609E-02  0.8233882E-01
        2   -1    0    0  501    0  0.00000000000E+00  0.00000000000E+00  0.15445445307E+04  0.15445445307E+04  0.25500000920E-02 0.  1.
       -2   -1    0    0    0  501  0.00000000000E+00  0.00000000000E+00 -0.14906644528E+04  0.14906644529E+04  0.25500000920E-02 0. -1.
    10030    2    1    2    0    0  0.00000000000E+00  0.00000000000E+00  0.53880077853E+02  0.30352089836E+04  0.30347307148E+04 0.  0.
        2    1    3    3  502    0  0.34693601550E+02 -0.46401603853E+03 -0.14175462412E+04  0.14919624244E+04  0.25500000920E-02 0. -1.
       -2    1    3    3    0  502 -0.34693601550E+02  0.46401603853E+03  0.14714263190E+04  0.15432465591E+04  0.25500000920E-02 0.  1.
</event>
<event>
 5   0  0.7193153E-06  0.2882502E+04  0.7818609E-02  0.8278103E-01
       -2   -1    0    0    0  501  0.00000000000E+00  0.00000000000E+00  0.12590141374E+04  0.12590141374E+04  0.25500000920E-02 0. -1.
        2   -1    0    0  501    0  0.00000000000E+00  0.00000000000E+00 -0.16498659153E+04  0.16498659153E+04  0.25500000920E-02 0.  1.
    10030    2    1    2    0    0  0.00000000000E+00  0.00000000000E+00 -0.39085177788E+03  0.29088800528E+04  0.28825020467E+04 0.  0.
        4    1    3    3  502    0  0.50789983547E+02 -0.11189976189E+04 -0.11106250008E+04  0.15774107895E+04  0.12699999809E+01 0.  1.
       -4    1    3    3    0  502 -0.50789983547E+02  0.11189976189E+04  0.71977322296E+03  0.13314692632E+04  0.12699999809E+01 0. -1.
</event>
<event>
 5   0  0.2298500E-06  0.3008337E+04  0.7818609E-02  0.8241354E-01
        3   -1    0    0  501    0  0.00000000000E+00  0.00000000000E+00  0.20024075340E+04  0.20024075365E+04  0.10100000352E+00 0. -1.
       -3   -1    0    0    0  501  0.00000000000E+00  0.00000000000E+00 -0.11299011306E+04  0.11299011351E+04  0.10100000352E+00 0.  1.
    10030    2    1    2    0    0  0.00000000000E+00  0.00000000000E+00  0.87250640336E+03  0.31323086716E+04  0.30083367814E+04 0.  0.
        5    1    3    3  502    0  0.21908772541E+03 -0.11786962444E+04 -0.50957322282E+03  0.13026938348E+04  0.46999998093E+01 0.  1.
       -5    1    3    3    0  502 -0.21908772541E+03  0.11786962444E+04  0.13820796262E+04  0.18296148368E+04  0.46999998093E+01 0. -1.
</event>
<event>
 5   0  0.2552990E-06  0.2999949E+04  0.7818609E-02  0.8243745E-01
       -1   -1    0    0    0  501  0.00000000000E+00  0.00000000000E+00  0.16927079876E+04  0.16927079876E+04  0.50400001928E-02 0. -1.
        1   -1    0    0  501    0  0.00000000000E+00  0.00000000000E+00 -0.13291862536E+04  0.13291862536E+04  0.50400001928E-02 0.  1.
    10030    2    1    2    0    0  0.00000000000E+00  0.00000000000E+00  0.36352173399E+03  0.30218942412E+04  0.29999494586E+04 0.  0.
        3    1    3    3  502    0 -0.74789933583E+03 -0.94915899459E+03 -0.71337216356E+03  0.14032662141E+04  0.10100000352E+00 0.  1.
       -3    1    3    3    0  502  0.74789933583E+03  0.94915899459E+03  0.10768938975E+04  0.16186280272E+04  0.10100000352E+00 0. -1.
</event>
<event>
 5   0  0.2504260E-06  0.2606805E+04  0.7818609E-02  0.8365893E-01
       -1   -1    0    0    0  501  0.00000000000E+00  0.00000000000E+00  0.22785621962E+04  0.22785621962E+04  0.50400001928E-02 0. -1.
        1   -1    0    0  501    0  0.00000000000E+00  0.00000000000E+00 -0.74558354534E+03  0.74558354536E+03  0.50400001928E-02 0.  1.
    10030    2    1    2    0    0  0.00000000000E+00  0.00000000000E+00  0.15329786508E+04  0.30241457415E+04  0.26068053096E+04 0.  0.
        4    1    3    3  502    0 -0.79443340213E+03 -0.58131132180E+03  0.17575469372E+04  0.20144528122E+04  0.12699999809E+01 0. -1.
       -4    1    3    3    0  502  0.79443340213E+03  0.58131132180E+03 -0.22456828641E+03  0.10096929293E+04  0.12699999809E+01 0.  1.
</event>
<event>
 5   0  0.6780150E-06  0.2998750E+04  0.7818609E-02  0.8244088E-01
       -2   -1    0    0    0  501  0.00000000000E+00  0.00000000000E+00  0.79588911281E+03  0.79588911282E+03  0.25500000920E-02 0.  1.
        2   -1    0    0  501    0  0.00000000000E+00  0.00000000000E+00 -0.28246716490E+04  0.28246716490E+04  0.25500000920E-02 0. -1.
    10030    2    1    2    0    0  0.00000000000E+00  0.00000000000E+00 -0.20287825362E+04  0.36205607618E+04  0.29987500148E+04 0.  0.
        5    1    3    3  502    0 -0.85766692012E+03 -0.34212832522E+03  0.41185366846E+03  0.10110835134E+04  0.46999998093E+01 0.  1.
       -5    1    3    3    0  502  0.85766692012E+03  0.34212832522E+03 -0.24406362047E+04  0.26094772485E+04  0.46999998093E+01 0. -1.
</event>
<event>
 5   0  0.2672155E-06  0.3005628E+04  0.7818609E-02  0.8242126E-01
       -1   -1    0    0    0  501  0.00000000000E+00  0.00000000000E+00  0.20020826563E+04  0.20020826563E+04  0.50400001928E-02 0.  1.
        1   -1    0    0  501    0  0.00000000000E+00  0.00000000000E+00 -0.11280502209E+04  0.11280502209E+04  0.50400001928E-02 0. -1.
    10030    2    1    2    0    0  0.00000000000E+00  0.00000000000E+00  0.87403243540E+03  0.31301328771E+04  0.30056279095E+04 0.  0.
        5    1    3    3  502    0  0.86478407371E+03  0.87360535550E+03 -0.46331263101E+03  0.13136660517E+04  0.46999998093E+01 0. -1.
       -5    1    3    3    0  502 -0.86478407371E+03 -0.87360535550E+03  0.13373450664E+04  0.18164668254E+04  0.46999998093E+01 0.  1.
</event>
<event>
 5   0  0.2422083E-06  0.3131141E+04  0.7818609E-02  0.8207243E-01
       -1   -1    0    0    0  501  0.00000000000E+00  0.00000000000E+00  0.14531517067E+04  0.14531517067E+04  0.50400001928E-02 0. -1.
        1   -1    0    0  501    0  0.00000000000E+00  0.00000000000E+00 -0.16866866062E+04  0.16866866062E+04  0.50400001928E-02 0.  1.
    10030    2    1    2    0    0  0.00000000000E+00  0.00000000000E+00 -0.23353489951E+03  0.31398383128E+04  0.31311413385E+04 0.  0.
        2    1    3    3  502    0  0.54573456481E+03  0.76490389601E+03  0.11389516664E+04  0.14765212778E+04  0.25500000920E-02 0. -1.
       -2    1    3    3    0  502 -0.54573456481E+03 -0.76490389601E+03 -0.13724865659E+04  0.16633170350E+04  0.25500000920E-02 0.  1.
</event>
<event>
 5   0  0.6780150E-06  0.2831886E+04  0.7818609E-02  0.8293437E-01
        2   -1    0    0  501    0  0.00000000000E+00  0.00000000000E+00  0.13957478595E+04  0.13957478595E+04  0.25500000920E-02 0.  1.
       -2   -1    0    0    0  501  0.00000000000E+00  0.00000000000E+00 -0.14364308091E+04  0.14364308091E+04  0.25500000920E-02 0. -1.
    10030    2    1    2    0    0  0.00000000000E+00  0.00000000000E+00 -0.40682949567E+02  0.28321786686E+04  0.28318864576E+04 0.  0.
        5    1    3    3  502    0  0.68824359424E+03 -0.11695102007E+04 -0.42466005415E+03  0.14218971855E+04  0.46999998093E+01 0. -1.
       -5    1    3    3    0  502 -0.68824359424E+03  0.11695102007E+04  0.38397710458E+03  0.14102814831E+04  0.46999998093E+01 0.  1.
</event>
<event>
 5   0  0.2552990E-06  0.3017104E+04  0.7818609E-02  0.8238863E-01
        1   -1    0    0  501    0  0.00000000000E+00  0.00000000000E+00  0.23198610587E+04  0.23198610587E+04  0.50400001928E-02 0.  1.
       -1   -1    0    0    0  501  0.00000000000E+00  0.00000000000E+00 -0.98097670387E+03  0.98097670388E+03  0.50400001928E-02 0. -1.
    10030    2    1    2    0    0  0.00000000000E+00  0.00000000000E+00  0.13388843548E+04  0.33008377626E+04  0.30171043435E+04 0.  0.
        3    1    3    3  502    0  0.44849499207E+03 -0.11821535593E+04 -0.23079844064E+03  0.12852636796E+04  0.10100000352E+00 0. -1.
       -3    1    3    3    0  502 -0.44849499207E+03  0.11821535593E+04  0.15696827955E+04  0.20155740830E+04  0.10100000352E+00 0.  1.
</event>
<event>
 5   0  0.2552990E-06  0.2965158E+04  0.7818609E-02  0.8253751E-01
        1   -1    0    0  501    0  0.00000000000E+00  0.00000000000E+00  0.11511800770E+04  0.11511800770E+04  0.50400001928E-02 0. -1.
       -1   -1    0    0    0  501  0.00000000000E+00  0.00000000000E+00 -0.19093799546E+04  0.19093799546E+04  0.50400001928E-02 0.  1.
    10030    2    1    2    0    0  0.00000000000E+00  0.00000000000E+00 -0.75819987762E+03  0.30605600315E+04  0.29651577786E+04 0.  0.
        3    1    3    3  502    0  0.76800335444E+03 -0.40057913417E+03 -0.16210367087E+04  0.18379479907E+04  0.10100000352E+00 0.  1.
       -3    1    3    3    0  502 -0.76800335444E+03  0.40057913417E+03  0.86283683111E+03  0.12226120409E+04  0.10100000352E+00 0. -1.
</event>
<event>
 5   0  0.2552990E-06  0.3031021E+04  0.7818609E-02  0.8234928E-01
        1   -1    0    0  501    0  0.00000000000E+00  0.00000000000E+00  0.14648099112E+04  0.14648099112E+04  0.50400001928E-02 0.  1.
       -1   -1    0    0    0  501  0.00000000000E+00  0.00000000000E+00 -0.15679661642E+04  0.15679661642E+04  0.50400001928E-02 0. -1.
    10030    2    1    2    0    0  0.00000000000E+00  0.00000000000E+00 -0.10315625304E+03  0.30327760754E+04  0.30310211993E+04 0.  0.
        3    1    3    3  502    0  0.10195337700E+04 -0.12793594765E+03 -0.11662049813E+04  0.15543007378E+04  0.10100000352E+00 0. -1.
       -3    1    3    3    0  502 -0.10195337700E+04  0.12793594765E+03  0.10630487283E+04  0.14784753376E+04  0.10100000352E+00 0.  1.
</event>
<event>
 5   0  0.2422083E-06  0.2996351E+04  0.7818609E-02  0.8244774E-01
       -1   -1    0    0    0  501  0.00000000000E+00  0.00000000000E+00  0.88799345015E+03  0.88799345017E+03  0.50400001928E-02 0. -1.
        1   -1    0    0  501    0  0.00000000000E+00  0.00000000000E+00 -0.25276420147E+04  0.25276420147E+04  0.50400001928E-02 0.  1.
    10030    2    1    2    0    0  0.00000000000E+00  0.00000000000E+00 -0.16396485645E+04  0.34156354648E+04  0.29963508162E+04 0.  0.
        2    1    3    3  502    0  0.10254148996E+04 -0.37098701939E+03  0.35127043599E+03  0.11456430526E+04  0.25500000920E-02 0. -1.
       -2    1    3    3    0  502 -0.10254148996E+04  0.37098701939E+03 -0.19909190005E+04  0.22699924122E+04  0.25500000920E-02 0.  1.
</event>
<event>
 5   0  0.2504260E-06  0.3057752E+04  0.7818609E-02  0.8227429E-01
       -1   -1    0    0    0  501  0.00000000000E+00  0.00000000000E+00  0.12530249416E+04  0.12530249416E+04  0.50400001928E-02 0.  1.
        1   -1    0    0  501    0  0.00000000000E+00  0.00000000000E+00 -0.18654556439E+04  0.18654556439E+04  0.50400001928E-02 0. -1.
    10030    2    1    2    0    0  0.00000000000E+00  0.00000000000E+00 -0.61243070231E+03  0.31184805856E+04  0.30577524095E+04 0.  0.
        4    1    3    3  502    0  0.49548621340E+03 -0.10552768675E+04 -0.13149727624E+04  0.17573476700E+04  0.12699999809E+01 0. -1.
       -4    1    3    3    0  502 -0.49548621340E+03  0.10552768675E+04  0.70254206008E+03  0.13611329155E+04  0.12699999809E+01 0.  1.
</event>
<event>
 5   0  0.2504260E-06  0.2983734E+04  0.7818609E-02  0.8248391E-01
       -1   -1    0    0    0  501  0.00000000000E+00  0.00000000000E+00  0.12358837937E+04  0.12358837937E+04  0.50400001928E-02 0.  1.
        1   -1    0    0  501    0  0.00000000000E+00  0.00000000000E+00 -0.18008707483E+04  0.18008707483E+04  0.50400001928E-02 0. -1.
    10030    2    1    2    0    0  0.00000000000E+00  0.00000000000E+00 -0.56498695463E+03  0.30367545421E+04  0.29837338839E+04 0.  0.
        4    1    3    3  502    0  0.12958959882E+04 -0.53489015796E+03 -0.80166733789E+03  0.16149693579E+04  0.12699999809E+01 0. -1.
       -4    1    3    3    0  502 -0.12958959882E+04  0.53489015796E+03  0.23668038326E+03  0.14217851842E+04  0.12699999809E+01 0.  1.
</event>
<event>
 5   0  0.7201538E-06  0.3019722E+04  0.7818609E-02  0.8238121E-01
       -2   -1    0    0    0  501  0.00000000000E+00  0.00000000000E+00  0.17354634136E+04  0.17354634136E+04  0.25500000920E-02 0. -1.
        2   -1    0    0  501    0  0.00000000000E+00  0.00000000000E+00 -0.13135860765E+04  0.13135860766E+04  0.25500000920E-02 0.  1.
    10030    2    1    2    0    0  0.00000000000E+00  0.00000000000E+00  0.42187733708E+03  0.30490494902E+04  0.30197222233E+04 0.  0.
        3    1    3    3  502    0 -0.13784640990E+04  0.58081510512E+03  0.41828911918E+03  0.15532144913E+04  0.10100000352E+00 0.  1.
       -3    1    3    3    0  502  0.13784640990E+04 -0.58081510512E+03  0.35882179015E+01  0.14958349989E+04  0.10100000352E+00 0. -1.
</event>
<event>
 5   0  0.7193153E-06  0.3019929E+04  0.7818609E-02  0.8238063E-01
        2   -1    0    0  501    0  0.00000000000E+00  0.00000000000E+00  0.18896302602E+04  0.18896302602E+04  0.25500000920E-02 0. -1.
       -2   -1    0    0    0  501  0.00000000000E+00  0.00000000000E+00 -0.12065811291E+04  0.12065811291E+04  0.25500000920E-02 0.  1.
    10030    2    1    2    0    0  0.00000000000E+00  0.00000000000E+00  0.68304913113E+03  0.30962113893E+04  0.30199286170E+04 0.  0.
        4    1    3    3  502    0  0.12705593488E+04  0.36865850534E+03  0.10877562613E+04  0.17127304076E+04  0.12699999809E+01 0. -1.
       -4    1    3    3    0  502 -0.12705593488E+04 -0.36865850534E+03 -0.40470713014E+03  0.13834809816E+04  0.12699999809E+01 0.  1.
</event>
<event>
 5   0  0.7193153E-06  0.3016352E+04  0.7818609E-02  0.8239077E-01
        2   -1    0    0  501    0  0.00000000000E+00  0.00000000000E+00  0.25616125252E+04  0.25616125252E+04  0.25500000920E-02 0. -1.
       -2   -1    0    0    0  501  0.00000000000E+00  0.00000000000E+00 -0.88795414470E+03  0.88795414471E+03  0.25500000920E-02 0.  1.
    10030    2    1    2    0    0  0.00000000000E+00  0.00000000000E+00  0.16736583805E+04  0.34495666699E+04  0.30163517427E+04 0.  0.
        4    1    3    3  502    0 -0.93688515203E+03 -0.10157118497E+04  0.14574778060E+03  0.13894849327E+04  0.12699999809E+01 0.  1.
       -4    1    3    3    0  502  0.93688515203E+03  0.10157118497E+04  0.15279105999E+04  0.20600817372E+04  0.12699999809E+01 0. -1.
</event>
<event>
 5   0  0.2672155E-06  0.2841723E+04  0.7818609E-02  0.8290431E-01
       -1   -1    0    0    0  501  0.00000000000E+00  0.00000000000E+00  0.78661817579E+03  0.78661817580E+03  0.50400001928E-02 0.  1.
        1   -1    0    0  501    0  0.00000000000E+00  0.00000000000E+00 -0.25664894415E+04  0.25664894415E+04  0.50400001928E-02 0. -1.
    10030    2    1    2    0    0  0.00000000000E+00  0.00000000000E+00 -0.17798712657E+04  0.33531076173E+04  0.28417228877E+04 0.  0.
        5    1    3    3  502    0 -0.21491435840E+03  0.56469038206E+03 -0.24073431726E+04  0.24820126207E+04  0.46999998093E+01 0. -1.
       -5    1    3    3    0  502  0.21491435840E+03 -0.56469038206E+03  0.62747190689E+03  0.87109499653E+03  0.46999998093E+01 0.  1.
</event>
<event>
 5   0  0.2552990E-06  0.3005330E+04  0.7818609E-02  0.8242211E-01
       -1   -1    0    0    0  501  0.00000000000E+00  0.00000000000E+00  0.17807221809E+04  0.17807221809E+04  0.50400001928E-02 0. -1.
        1   -1    0    0  501    0  0.00000000000E+00  0.00000000000E+00 -0.12680257287E+04  0.12680257287E+04  0.50400001928E-02 0.  1.
    10030    2    1    2    0    0  0.00000000000E+00  0.00000000000E+00  0.51269645228E+03  0.30487479096E+04  0.30053296265E+04 0.  0.
        3    1    3    3  502    0  0.10720181517E+04 -0.34550441918E+03  0.12654071353E+04  0.16940635907E+04  0.10100000352E+00 0. -1.
       -3    1    3    3    0  502 -0.10720181517E+04  0.34550441918E+03 -0.75271068298E+03  0.13546843189E+04  0.10100000352E+00 0.  1.
</event>
<event>
 5   0  0.7193153E-06  0.3011203E+04  0.7818609E-02  0.8240539E-01
        2   -1    0    0  501    0  0.00000000000E+00  0.00000000000E+00  0.24232867050E+04  0.24232867050E+04  0.25500000920E-02 0.  1.
       -2   -1    0    0    0  501  0.00000000000E+00  0.00000000000E+00 -0.93543839003E+03  0.93543839003E+03  0.25500000920E-02 0. -1.
    10030    2    1    2    0    0  0.00000000000E+00  0.00000000000E+00  0.14878483149E+04  0.33587250950E+04  0.30112026925E+04 0.  0.
        4    1    3    3  502    0  0.10416183888E+04 -0.10232536307E+04  0.33437437258E+03  0.14979401506E+04  0.12699999809E+01 0. -1.
       -4    1    3    3    0  502 -0.10416183888E+04  0.10232536307E+04  0.11534739424E+04  0.18607849444E+04  0.12699999809E+01 0.  1.
</event>
<event>
 5   0  0.6780150E-06  0.2690380E+04  0.7818609E-02  0.8338133E-01
        2   -1    0    0  501    0  0.00000000000E+00  0.00000000000E+00  0.16777913898E+04  0.16777913898E+04  0.25500000920E-02 0.  1.
       -2   -1    0    0    0  501  0.00000000000E+00  0.00000000000E+00 -0.10785227721E+04  0.10785227721E+04  0.25500000920E-02 0. -1.
    10030    2    1    2    0    0  0.00000000000E+00  0.00000000000E+00  0.59926861769E+03  0.27563141618E+04  0.26903800628E+04 0.  0.
        5    1    3    3  502    0  0.27762703888E+03 -0.10104121466E+04 -0.56454517656E+03  0.11902700640E+04  0.46999998093E+01 0. -1.
       -5    1    3    3    0  502 -0.27762703888E+03  0.10104121466E+04  0.11638137943E+04  0.15660440979E+04  0.46999998093E+01 0.  1.
</event>
<event>
 5   0  0.2672155E-06  0.2713817E+04  0.7818609E-02  0.8330536E-01
        1   -1    0    0  501    0  0.00000000000E+00  0.00000000000E+00  0.16816959480E+04  0.16816959480E+04  0.50400001928E-02 0.  1.
       -1   -1    0    0    0  501  0.00000000000E+00  0.00000000000E+00 -0.10948472717E+04  0.10948472717E+04  0.50400001928E-02 0. -1.
    10030    2    1    2    0    0  0.00000000000E+00  0.00000000000E+00  0.58684867632E+03  0.27765432197E+04  0.27138166633E+04 0.  0.
        5    1    3    3  502    0  0.94996952310E+03  0.80491558838E+03 -0.25834323813E+03  0.12716503127E+04  0.46999998093E+01 0. -1.
       -5    1    3    3    0  502 -0.94996952310E+03 -0.80491558838E+03  0.84519191444E+03  0.15048929070E+04  0.46999998093E+01 0.  1.
</event>
<event>
 5   0  0.2552990E-06  0.3161707E+04  0.7818609E-02  0.8199004E-01
       -1   -1    0    0    0  501  0.00000000000E+00  0.00000000000E+00  0.14607434169E+04  0.14607434169E+04  0.50400001928E-02 0. -1.
        1   -1    0    0  501    0  0.00000000000E+00  0.00000000000E+00 -0.17108401360E+04  0.17108401360E+04  0.50400001928E-02 0.  1.
    10030    2    1    2    0    0  0.00000000000E+00  0.00000000000E+00 -0.25009671912E+03  0.31715835529E+04  0.31617074286E+04 0.  0.
        3    1    3    3  502    0 -0.13839998457E+04 -0.43156106943E+03  0.50731584110E+03  0.15359263987E+04  0.10100000352E+00 0. -1.
       -3    1    3    3    0  502  0.13839998457E+04  0.43156106943E+03 -0.75741256022E+03  0.16356571542E+04  0.10100000352E+00 0.  1.
</event>
<event>
 5   0  0.6792811E-06  0.2998166E+04  0.7818609E-02  0.8244255E-01
       -2   -1    0    0    0  501  0.00000000000E+00  0.00000000000E+00  0.14151363593E+04  0.14151363593E+04  0.25500000920E-02 0. -1.
        2   -1    0    0  501    0  0.00000000000E+00  0.00000000000E+00 -0.15880090974E+04  0.15880090974E+04  0.25500000920E-02 0.  1.
    10030    2    1    2    0    0  0.00000000000E+00  0.00000000000E+00 -0.17287273814E+03  0.30031454567E+04  0.29981657143E+04 0.  0.
        2    1    3    3  502    0 -0.11599004356E+04 -0.51670670492E+03  0.71168978335E+03  0.14556294814E+04  0.25500000920E-02 0. -1.
       -2    1    3    3    0  502  0.11599004356E+04  0.51670670492E+03 -0.88456252149E+03  0.15475159753E+04  0.25500000920E-02 0.  1.
</event>
<event>
 5   0  0.6780150E-06  0.3012323E+04  0.7818609E-02  0.8240221E-01
        2   -1    0    0  501    0  0.00000000000E+00  0.00000000000E+00  0.14143999414E+04  0.14143999414E+04  0.25500000920E-02 0. -1.
       -2   -1    0    0    0  501  0.00000000000E+00  0.00000000000E+00 -0.16038758599E+04  0.16038758599E+04  0.25500000920E-02 0.  1.
    10030    2    1    2    0    0  0.00000000000E+00  0.00000000000E+00 -0.18947591845E+03  0.30182758013E+04  0.30123226402E+04 0.  0.
        5    1    3    3  502    0  0.17964524227E+03  0.10070573866E+04 -0.12023921755E+04  0.15786722354E+04  0.46999998093E+01 0.  1.
       -5    1    3    3    0  502 -0.17964524227E+03 -0.10070573866E+04  0.10129162571E+04  0.14396035659E+04  0.46999998093E+01 0. -1.
</event>
<event>
 5   0  0.7217255E-06  0.2969711E+04  0.7818609E-02  0.8252433E-01
        2   -1    0    0  501    0  0.00000000000E+00  0.00000000000E+00  0.16589280208E+04  0.16589280208E+04  0.25500000920E-02 0.  1.
       -2   -1    0    0    0  501  0.00000000000E+00  0.00000000000E+00 -0.13290488098E+04  0.13290488098E+04  0.25500000920E-02 0. -1.
    10030    2    1    2    0    0  0.00000000000E+00  0.00000000000E+00  0.32987921104E+03  0.29879768306E+04  0.29697113069E+04 0.  0.
        1    1    3    3  502    0 -0.38623274172E+03 -0.14221261584E+04 -0.18328374106E+02  0.14737552274E+04  0.50400001928E-02 0.  1.
       -1    1    3    3    0  502  0.38623274172E+03  0.14221261584E+04  0.34820758515E+03  0.15142216031E+04  0.50400001928E-02 0. -1.
</event>
<event>
 5   0  0.7193153E-06  0.2217228E+04  0.7818609E-02  0.8511292E-01
       -2   -1    0    0    0  501  0.00000000000E+00  0.00000000000E+00  0.10720409798E+04  0.10720409798E+04  0.25500000920E-02 0. -1.
        2   -1    0    0  501    0  0.00000000000E+00  0.00000000000E+00 -0.11464345137E+04  0.11464345137E+04  0.25500000920E-02 0.  1.
    10030    2    1    2    0    0  0.00000000000E+00  0.00000000000E+00 -0.74393533877E+02  0.22184754934E+04  0.22172278000E+04 0.  0.
        4    1    3    3  502    0 -0.96174978362E+03 -0.21002547243E+03 -0.54733641915E+03  0.11263445805E+04  0.12699999809E+01 0.  1.
       -4    1    3    3    0  502  0.96174978362E+03  0.21002547243E+03  0.47294288528E+03  0.10921309129E+04  0.12699999809E+01 0. -1.
</event>
<event>
 5   0  0.6780150E-06  0.2967788E+04  0.7818609E-02  0.8252990E-01
        2   -1    0    0  501    0  0.00000000000E+00  0.00000000000E+00  0.21928940493E+04  0.21928940493E+04  0.25500000920E-02 0. -1.
       -2   -1    0    0    0  501  0.00000000000E+00  0.00000000000E+00 -0.10041256315E+04  0.10041256315E+04  0.25500000920E-02 0.  1.
    10030    2    1    2    0    0  0.00000000000E+00  0.00000000000E+00  0.11887684177E+04  0.31970196808E+04  0.29677878105E+04 0.  0.
        5    1    3    3  502    0 -0.40992757324E+03 -0.22985775112E+02  0.21304808540E+04  0.21696865489E+04  0.46999998093E+01 0. -1.
       -5    1    3    3    0  502  0.40992757324E+03  0.22985775112E+02 -0.94171243631E+03  0.10273331319E+04  0.46999998093E+01 0.  1.
</event>
<event>
 5   0  0.7201538E-06  0.2163837E+04  0.7818609E-02  0.8533633E-01
       -2   -1    0    0    0  501  0.00000000000E+00  0.00000000000E+00  0.56894182098E+03  0.56894182098E+03  0.25500000920E-02 0. -1.
        2   -1    0    0  501    0  0.00000000000E+00  0.00000000000E+00 -0.20574109146E+04  0.20574109146E+04  0.25500000920E-02 0.  1.
    10030    2    1    2    0    0  0.00000000000E+00  0.00000000000E+00 -0.14884690937E+04  0.26263527356E+04  0.21638365116E+04 0.  0.
        3    1    3    3  502    0 -0.40269695145E+03 -0.50999901306E+03 -0.17941676492E+04  0.19082194297E+04  0.10100000352E+00 0.  1.
       -3    1    3    3    0  502  0.40269695145E+03  0.50999901306E+03  0.30569855557E+03  0.71813330595E+03  0.10100000352E+00 0. -1.
</event>
<event>
 5   0  0.2504260E-06  0.2973806E+04  0.7818609E-02  0.8251250E-01
       -1   -1    0    0    0  501  0.00000000000E+00  0.00000000000E+00  0.88074354945E+03  0.88074354947E+03  0.50400001928E-02 0. -1.
        1   -1    0    0  501    0  0.00000000000E+00  0.00000000000E+00 -0.25102440568E+04  0.25102440568E+04  0.50400001928E-02 0.  1.
    10030    2    1    2    0    0  0.00000000000E+00  0.00000000000E+00 -0.16295005073E+04  0.33909876062E+04  0.29738064904E+04 0.  0.
        4    1    3    3  502    0  0.14186217915E+04 -0.20096009128E+03 -0.36148594109E+03  0.14776827955E+04  0.12699999809E+01 0. -1.
       -4    1    3    3    0  502 -0.14186217915E+04  0.20096009128E+03 -0.12680145662E+04  0.19133048107E+04  0.12699999809E+01 0.  1.
</event>
<event>
 5   0  0.6780150E-06  0.2938815E+04  0.7818609E-02  0.8261422E-01
       -2   -1    0    0    0  501  0.00000000000E+00  0.00000000000E+00  0.11889012895E+04  0.11889012895E+04  0.25500000920E-02 0. -1.
        2   -1    0    0  501    0  0.00000000000E+00  0.00000000000E+00 -0.18160955845E+04  0.18160955845E+04  0.25500000920E-02 0.  1.
    10030    2    1    2    0    0  0.00000000000E+00  0.00000000000E+00 -0.62719429492E+03  0.30049968740E+04  0.29388149872E+04 0.  0.
        5    1    3    3  502    0  0.11450367362E+03 -0.17258184941E+03  0.11738937285E+04  0.11920336245E+04  0.46999998093E+01 0. -1.
       -5    1    3    3    0  502 -0.11450367362E+03  0.17258184941E+03 -0.18010880234E+04  0.18129632495E+04  0.46999998093E+01 0.  1.
</event>
<event>
 5   0  0.2672155E-06  0.3013545E+04  0.7818609E-02  0.8239874E-01
        1   -1    0    0  501    0  0.00000000000E+00  0.00000000000E+00  0.23795866196E+04  0.23795866196E+04  0.50400001928E-02 0.  1.
       -1   -1    0    0    0  501  0.00000000000E+00  0.00000000000E+00 -0.95410001723E+03  0.95410001724E+03  0.50400001928E-02 0. -1.
    10030    2    1    2    0    0  0.00000000000E+00  0.00000000000E+00  0.14254866024E+04  0.33336866369E+04  0.30135451779E+04 0.  0.
        5    1    3    3  502    0 -0.57827805481E+03 -0.75503029649E+03  0.20056018203E+04  0.22196704730E+04  0.46999998093E+01 0.  1.
       -5    1    3    3    0  502  0.57827805481E+03  0.75503029649E+03 -0.58011521789E+03  0.11140161638E+04  0.46999998093E+01 0. -1.
</event>
<event>
 5   0  0.2672155E-06  0.2922320E+04  0.7818609E-02  0.8266267E-01
        1   -1    0    0  501    0  0.00000000000E+00  0.00000000000E+00  0.23893851914E+04  0.23893851914E+04  0.50400001928E-02 0.  1.
       -1   -1    0    0    0  501  0.00000000000E+00  0.00000000000E+00 -0.89353049133E+03  0.89353049134E+03  0.50400001928E-02 0. -1.
    10030    2    1    2    0    0  0.00000000000E+00  0.00000000000E+00  0.14958547000E+04  0.32829156827E+04  0.29223199852E+04 0.  0.
        5    1    3    3  502    0  0.89603720294E+03 -0.89870584734E+02  0.20405659134E+04  0.22304463069E+04  0.46999998093E+01 0.  1.
       -5    1    3    3    0  502 -0.89603720294E+03  0.89870584734E+02 -0.54471121337E+03  0.10524693758E+04  0.46999998093E+01 0. -1.
</event>
<event>
 5   0  0.2672155E-06  0.2872714E+04  0.7818609E-02  0.8281043E-01
        1   -1    0    0  501    0  0.00000000000E+00  0.00000000000E+00  0.11429412658E+04  0.11429412658E+04  0.50400001928E-02 0.  1.
       -1   -1    0    0    0  501  0.00000000000E+00  0.00000000000E+00 -0.18050979262E+04  0.18050979262E+04  0.50400001928E-02 0. -1.
    10030    2    1    2    0    0  0.00000000000E+00  0.00000000000E+00 -0.66215666042E+03  0.29480391920E+04  0.28727136360E+04 0.  0.
        5    1    3    3  502    0  0.11372188350E+04 -0.87508395697E+03 -0.39646889302E+03  0.14887069166E+04  0.46999998093E+01 0.  1.
       -5    1    3    3    0  502 -0.11372188350E+04  0.87508395697E+03 -0.26568776740E+03  0.14593322754E+04  0.46999998093E+01 0. -1.
</event>
<event>
 5   0  0.2628425E-06  0.2445554E+04  0.7818609E-02  0.8422643E-01
        1   -1    0    0  501    0  0.00000000000E+00  0.00000000000E+00  0.28156294915E+04  0.28156294915E+04  0.50400001928E-02 0.  1.
       -1   -1    0    0    0  501  0.00000000000E+00  0.00000000000E+00 -0.53103013428E+03  0.53103013430E+03  0.50400001928E-02 0. -1.
    10030    2    1    2    0    0  0.00000000000E+00  0.00000000000E+00  0.22845993572E+04  0.33466596258E+04  0.24455544214E+04 0.  0.
        1    1    3    3  502    0 -0.73417066818E+03 -0.13514975803E+03  0.24676029726E+04  0.25780489634E+04  0.50400001928E-02 0.  1.
       -1    1    3    3    0  502  0.73417066818E+03  0.13514975803E+03 -0.18300361540E+03  0.76861066242E+03  0.50400001928E-02 0. -1.
</event>
<event>
 5   0  0.7201538E-06  0.3026472E+04  0.7818609E-02  0.8236212E-01
        2   -1    0    0  501    0  0.00000000000E+00  0.00000000000E+00  0.12588416889E+04  0.12588416889E+04  0.25500000920E-02 0. -1.
       -2   -1    0    0    0  501  0.00000000000E+00  0.00000000000E+00 -0.18190392474E+04  0.18190392474E+04  0.25500000920E-02 0.  1.
    10030    2    1    2    0    0  0.00000000000E+00  0.00000000000E+00 -0.56019755844E+03  0.30778809363E+04  0.30264715022E+04 0.  0.
        3    1    3    3  502    0  0.15937090249E+03  0.10100801048E+03 -0.18070291232E+04  0.18168533142E+04  0.10100000352E+00 0.  1.
       -3    1    3    3    0  502 -0.15937090249E+03 -0.10100801048E+03  0.12468315648E+04  0.12610276222E+04  0.10100000352E+00 0. -1.
</event>
<event>
 5   0  0.2298500E-06  0.2998981E+04  0.7818609E-02  0.8244022E-01
        4   -1    0    0  501    0  0.00000000000E+00  0.00000000000E+00  0.11592626670E+04  0.11592633627E+04  0.12699999809E+01 0.  1.
       -4   -1    0    0    0  501  0.00000000000E+00  0.00000000000E+00 -0.19395686459E+04  0.19395690616E+04  0.12699999809E+01 0. -1.
    10030    2    1    2    0    0  0.00000000000E+00  0.00000000000E+00 -0.78030597881E+03  0.30988324243E+04  0.29989806558E+04 0.  0.
        5    1    3    3  502    0 -0.18297155557E+03 -0.17312733272E+03  0.11372368536E+04  0.11648096045E+04  0.46999998093E+01 0.  1.
       -5    1    3    3    0  502  0.18297155557E+03  0.17312733272E+03 -0.19175428324E+04  0.19340228198E+04  0.46999998093E+01 0. -1.
</event>
<event>
 5   0  0.2504260E-06  0.2160561E+04  0.7818609E-02  0.8535025E-01
       -1   -1    0    0    0  501  0.00000000000E+00  0.00000000000E+00  0.86334494563E+03  0.86334494564E+03  0.50400001928E-02 0.  1.
        1   -1    0    0  501    0  0.00000000000E+00  0.00000000000E+00 -0.13517257112E+04  0.13517257113E+04  0.50400001928E-02 0. -1.
    10030    2    1    2    0    0  0.00000000000E+00  0.00000000000E+00 -0.48838076562E+03  0.22150706569E+04  0.21605606316E+04 0.  0.
        4    1    3    3  502    0 -0.32137329362E+03 -0.73522462086E+03 -0.98574249234E+03  0.12710334028E+04  0.12699999809E+01 0. -1.
       -4    1    3    3    0  502  0.32137329362E+03  0.73522462086E+03  0.49736172672E+03  0.94403725408E+03  0.12699999809E+01 0.  1.
</event>
<event>
 5   0  0.6792811E-06  0.3069175E+04  0.7818609E-02  0.8224249E-01
        2   -1    0    0  501    0  0.00000000000E+00  0.00000000000E+00  0.17037800016E+04  0.17037800016E+04  0.25500000920E-02 0. -1.
       -2   -1    0    0    0  501  0.00000000000E+00  0.00000000000E+00 -0.13821967178E+04  0.13821967178E+04  0.25500000920E-02 0.  1.
    10030    2    1    2    0    0  0.00000000000E+00  0.00000000000E+00  0.32158328379E+03  0.30859767195E+04  0.30691752157E+04 0.  0.
        2    1    3    3  502    0  0.57413848418E+03 -0.85591403257E+03  0.13040009879E+04  0.16621198532E+04  0.25500000920E-02 0. -1.
       -2    1    3    3    0  502 -0.57413848418E+03  0.85591403257E+03 -0.98241770408E+03  0.14238568662E+04  0.25500000920E-02 0.  1.
</event>
<event>
 5   0  0.6792811E-06  0.2996722E+04  0.7818609E-02  0.8244668E-01
        2   -1    0    0  501    0  0.00000000000E+00  0.00000000000E+00  0.76265923634E+03  0.76265923634E+03  0.25500000920E-02 0.  1.
       -2   -1    0    0    0  501  0.00000000000E+00  0.00000000000E+00 -0.29437590280E+04  0.29437590280E+04  0.25500000920E-02 0. -1.
    10030    2    1    2    0    0  0.00000000000E+00  0.00000000000E+00 -0.21810997916E+04  0.37064182643E+04  0.29967215501E+04 0.  0.
        2    1    3    3  502    0 -0.21599275060E+03 -0.57626058504E+03 -0.27802330187E+04  0.28475295905E+04  0.25500000920E-02 0. -1.
       -2    1    3    3    0  502  0.21599275060E+03  0.57626058504E+03  0.59913322712E+03  0.85888867382E+03  0.25500000920E-02 0.  1.
</event>
<event>
 5   0  0.2628425E-06  0.2998922E+04  0.7818609E-02  0.8244039E-01
        1   -1    0    0  501    0  0.00000000000E+00  0.00000000000E+00  0.19861132835E+04  0.19861132835E+04  0.50400001928E-02 0.  1.
       -1   -1    0    0    0  501  0.00000000000E+00  0.00000000000E+00 -0.11320520966E+04  0.11320520966E+04  0.50400001928E-02 0. -1.
    10030    2    1    2    0    0  0.00000000000E+00  0.00000000000E+00  0.85406118690E+03  0.31181653802E+04  0.29989222776E+04 0.  0.
        1    1    3    3  502    0 -0.43705494575E+03  0.11018252800E+04 -0.52782407563E+03  0.12975493163E+04  0.50400001928E-02 0. -1.
       -1    1    3    3    0  502  0.43705494575E+03 -0.11018252800E+04  0.13818852625E+04  0.18206160639E+04  0.50400001928E-02 0.  1.
</event>
<event>
 5   0  0.6780150E-06  0.2768596E+04  0.7818609E-02  0.8313085E-01
        2   -1    0    0  501    0  0.00000000000E+00  0.00000000000E+00  0.13257067757E+04  0.13257067757E+04  0.25500000920E-02 0. -1.
       -2   -1    0    0    0  501  0.00000000000E+00  0.00000000000E+00 -0.14454782517E+04  0.14454782517E+04  0.25500000920E-02 0.  1.
    10030    2    1    2    0    0  0.00000000000E+00  0.00000000000E+00 -0.11977147606E+03  0.27711850274E+04  0.27685955374E+04 0.  0.
        5    1    3    3  502    0  0.36333635577E+01  0.86513397186E+03 -0.11415389806E+04  0.14323419022E+04  0.46999998093E+01 0.  1.
       -5    1    3    3    0  502 -0.36333635577E+01 -0.86513397186E+03  0.10217675045E+04  0.13388431252E+04  0.46999998093E+01 0. -1.
</event>
<event>
 5   0  0.2552990E-06  0.3025704E+04  0.7818609E-02  0.8236429E-01
       -1   -1    0    0    0  501  0.00000000000E+00  0.00000000000E+00  0.99019613351E+03  0.99019613353E+03  0.50400001928E-02 0.  1.
        1   -1    0    0  501    0  0.00000000000E+00  0.00000000000E+00 -0.23113814479E+04  0.23113814479E+04  0.50400001928E-02 0. -1.
    10030    2    1    2    0    0  0.00000000000E+00  0.00000000000E+00 -0.13211853144E+04  0.33015775814E+04  0.30257038671E+04 0.  0.
        3    1    3    3  502    0  0.11118048627E+04 -0.40692163418E+03  0.36709984136E+03  0.12395392582E+04  0.10100000352E+00 0.  1.
       -3    1    3    3    0  502 -0.11118048627E+04  0.40692163418E+03 -0.16882851557E+04  0.20620383232E+04  0.10100000352E+00 0. -1.
</event>
<event>
 5   0  0.7193153E-06  0.3053558E+04  0.7818609E-02  0.8228600E-01
        2   -1    0    0  501    0  0.00000000000E+00  0.00000000000E+00  0.20322883025E+04  0.20322883025E+04  0.25500000920E-02 0. -1.
       -2   -1    0    0    0  501  0.00000000000E+00  0.00000000000E+00 -0.11470098623E+04  0.11470098623E+04  0.25500000920E-02 0.  1.
    10030    2    1    2    0    0  0.00000000000E+00  0.00000000000E+00  0.88527844021E+03  0.31792981648E+04  0.30535584003E+04 0.  0.
        4    1    3    3  502    0  0.98065311632E+03  0.59598955018E+03  0.14911676296E+04  0.18816127633E+04  0.12699999809E+01 0. -1.
       -4    1    3    3    0  502 -0.98065311632E+03 -0.59598955018E+03 -0.60588918943E+03  0.12976854015E+04  0.12699999809E+01 0.  1.
</event>
<event>
 5   0  0.2422083E-06  0.2964056E+04  0.7818609E-02  0.8254070E-01
       -1   -1    0    0    0  501  0.00000000000E+00  0.00000000000E+00  0.85661021166E+03  0.85661021168E+03  0.50400001928E-02 0. -1.
        1   -1    0    0  501    0  0.00000000000E+00  0.00000000000E+00 -0.25640677252E+04  0.25640677252E+04  0.50400001928E-02 0.  1.
    10030    2    1    2    0    0  0.00000000000E+00  0.00000000000E+00 -0.17074575135E+04  0.34206779369E+04  0.29640557328E+04 0.  0.
        2    1    3    3  502    0  0.65002859655E+03  0.12771557627E+04 -0.12897449206E+04  0.19279797662E+04  0.25500000920E-02 0.  1.
       -2    1    3    3    0  502 -0.65002859655E+03 -0.12771557627E+04 -0.41771259289E+03  0.14926981707E+04  0.25500000920E-02 0. -1.
</event>
<event>
 5   0  0.2628425E-06  0.2363401E+04  0.7818609E-02  0.8453334E-01
       -1   -1    0    0    0  501  0.00000000000E+00  0.00000000000E+00  0.10796848222E+04  0.10796848222E+04  0.50400001928E-02 0.  1.
        1   -1    0    0  501    0  0.00000000000E+00  0.00000000000E+00 -0.12933554470E+04  0.12933554470E+04  0.50400001928E-02 0. -1.
    10030    2    1    2    0    0  0.00000000000E+00  0.00000000000E+00 -0.21367062480E+03  0.23730402693E+04  0.23634011474E+04 0.  0.
        1    1    3    3  502    0  0.58245070966E+03  0.10281112689E+04 -0.11932128299E+03  0.11876443824E+04  0.50400001928E-02 0.  1.
       -1    1    3    3    0  502 -0.58245070966E+03 -0.10281112689E+04 -0.94349341804E+02  0.11853958869E+04  0.50400001928E-02 0. -1.
</event>
<event>
 5   0  0.2628425E-06  0.2962218E+04  0.7818609E-02  0.8254603E-01
       -1   -1    0    0    0  501  0.00000000000E+00  0.00000000000E+00  0.99185636924E+03  0.99185636926E+03  0.50400001928E-02 0.  1.
        1   -1    0    0  501    0  0.00000000000E+00  0.00000000000E+00 -0.22116957995E+04  0.22116957995E+04  0.50400001928E-02 0. -1.
    10030    2    1    2    0    0  0.00000000000E+00  0.00000000000E+00 -0.12198394303E+04  0.32035521688E+04  0.29622184697E+04 0.  0.
        1    1    3    3  502    0 -0.13444489166E+04 -0.60756791231E+03 -0.46890114059E+03  0.15480794350E+04  0.50400001928E-02 0.  1.
       -1    1    3    3    0  502  0.13444489166E+04  0.60756791231E+03 -0.75093828970E+03  0.16554727338E+04  0.50400001928E-02 0. -1.
</event>
<event>
 5   0  0.2552990E-06  0.3033341E+04  0.7818609E-02  0.8234274E-01
        1   -1    0    0  501    0  0.00000000000E+00  0.00000000000E+00  0.15470157127E+04  0.15470157127E+04  0.50400001928E-02 0.  1.
       -1   -1    0    0    0  501  0.00000000000E+00  0.00000000000E+00 -0.14869205554E+04  0.14869205554E+04  0.50400001928E-02 0. -1.
    10030    2    1    2    0    0  0.00000000000E+00  0.00000000000E+00  0.60095157299E+02  0.30339362681E+04  0.30333410376E+04 0.  0.
        3    1    3    3  502    0  0.22413344851E+03 -0.14688605249E+04 -0.27415418837E+03  0.15109426109E+04  0.10100000352E+00 0.  1.
       -3    1    3    3    0  502 -0.22413344851E+03  0.14688605249E+04  0.33424934567E+03  0.15229936571E+04  0.10100000352E+00 0. -1.
</event>
<event>
 5   0  0.7193153E-06  0.2285019E+04  0.7818609E-02  0.8483852E-01
       -2   -1    0    0    0  501  0.00000000000E+00  0.00000000000E+00  0.93993779246E+03  0.93993779246E+03  0.25500000920E-02 0. -1.
        2   -1    0    0  501    0  0.00000000000E+00  0.00000000000E+00 -0.13887383417E+04  0.13887383417E+04  0.25500000920E-02 0.  1.
    10030    2    1    2    0    0  0.00000000000E+00  0.00000000000E+00 -0.44880054924E+03  0.23286761342E+04  0.22850187318E+04 0.  0.
        4    1    3    3  502    0 -0.79300087732E+03 -0.39889694575E+02  0.61280902044E+03  0.10029845899E+04  0.12699999809E+01 0. -1.
       -4    1    3    3    0  502  0.79300087732E+03  0.39889694575E+02 -0.10616095697E+04  0.13256915443E+04  0.12699999809E+01 0.  1.
</event>
<event>
 5   0  0.7217255E-06  0.3105542E+04  0.7818609E-02  0.8214219E-01
       -2   -1    0    0    0  501  0.00000000000E+00  0.00000000000E+00  0.14763457773E+04  0.14763457773E+04  0.25500000920E-02 0. -1.
        2   -1    0    0  501    0  0.00000000000E+00  0.00000000000E+00 -0.16331524473E+04  0.16331524473E+04  0.25500000920E-02 0.  1.
    10030    2    1    2    0    0  0.00000000000E+00  0.00000000000E+00 -0.15680666999E+03  0.31094982245E+04  0.31055419618E+04 0.  0.
        1    1    3    3  502    0  0.12445987714E+04  0.86341899355E+03  0.26346868393E+03  0.15375090919E+04  0.50400001928E-02 0. -1.
       -1    1    3    3    0  502 -0.12445987714E+04 -0.86341899355E+03 -0.42027535392E+03  0.15719891327E+04  0.50400001928E-02 0.  1.
</event>
<event>
 5   0  0.2422083E-06  0.2757551E+04  0.7818609E-02  0.8316570E-01
        1   -1    0    0  501    0  0.00000000000E+00  0.00000000000E+00  0.11258275307E+04  0.11258275307E+04  0.50400001928E-02 0. -1.
       -1   -1    0    0    0  501  0.00000000000E+00  0.00000000000E+00 -0.16885551619E+04  0.16885551619E+04  0.50400001928E-02 0.  1.
    10030    2    1    2    0    0  0.00000000000E+00  0.00000000000E+00 -0.56272763119E+03  0.28143826926E+04  0.27575510065E+04 0.  0.
        2    1    3    3  502    0 -0.59331751469E+03 -0.11742562177E+04 -0.70231858426E+03  0.14913600276E+04  0.25500000920E-02 0. -1.
       -2    1    3    3    0  502  0.59331751469E+03  0.11742562177E+04  0.13959095308E+03  0.13230226651E+04  0.25500000920E-02 0.  1.
</event>
<event>
 5   0  0.2422083E-06  0.3004893E+04  0.7818609E-02  0.8242335E-01
        1   -1    0    0  501    0  0.00000000000E+00  0.00000000000E+00  0.13219308738E+04  0.13219308738E+04  0.50400001928E-02 0. -1.
       -1   -1    0    0    0  501  0.00000000000E+00  0.00000000000E+00 -0.17076124373E+04  0.17076124373E+04  0.50400001928E-02 0.  1.
    10030    2    1    2    0    0  0.00000000000E+00  0.00000000000E+00 -0.38568156357E+03  0.30295433111E+04  0.30048930772E+04 0.  0.
        2    1    3    3  502    0  0.68082869774E+03 -0.62031450703E+03  0.10039215826E+04  0.13624156294E+04  0.25500000920E-02 0. -1.
       -2    1    3    3    0  502 -0.68082869774E+03  0.62031450703E+03 -0.13896031462E+04  0.16671276817E+04  0.25500000920E-02 0.  1.
</event>
<event>
 5   0  0.2298500E-06  0.2969027E+04  0.7818609E-02  0.8252631E-01
        3   -1    0    0  501    0  0.00000000000E+00  0.00000000000E+00  0.15163475339E+04  0.15163475372E+04  0.10100000352E+00 0. -1.
       -3   -1    0    0    0  501  0.00000000000E+00  0.00000000000E+00 -0.14533473000E+04  0.14533473035E+04  0.10100000352E+00 0.  1.
    10030    2    1    2    0    0  0.00000000000E+00  0.00000000000E+00  0.63000233875E+02  0.29696948408E+04  0.29690265101E+04 0.  0.
        4    1    3    3  502    0 -0.58960015349E+03 -0.44400263912E+03 -0.12568159472E+04  0.14575165943E+04  0.12699999809E+01 0.  1.
       -4    1    3    3    0  502  0.58960015349E+03  0.44400263912E+03  0.13198161811E+04  0.15121782465E+04  0.12699999809E+01 0. -1.
</event>
<event>
 5   0  0.7193153E-06  0.2985636E+04  0.7818609E-02  0.8247845E-01
       -2   -1    0    0    0  501  0.00000000000E+00  0.00000000000E+00  0.10778850986E+04  0.10778850986E+04  0.25500000920E-02 0.  1.
        2   -1    0    0  501    0  0.00000000000E+00  0.00000000000E+00 -0.20674794846E+04  0.20674794846E+04  0.25500000920E-02 0. -1.
    10030    2    1    2    0    0  0.00000000000E+00  0.00000000000E+00 -0.98959438597E+03  0.31453645832E+04  0.29856358305E+04 0.  0.
        4    1    3    3  502    0  0.10740040566E+04  0.96921746457E+03 -0.10680547238E+03  0.14506123635E+04  0.12699999809E+01 0.  1.
       -4    1    3    3    0  502 -0.10740040566E+04 -0.96921746457E+03 -0.88278891360E+03  0.16947522197E+04  0.12699999809E+01 0. -1.
</event>
<event>
 5   0  0.2552990E-06  0.3094781E+04  0.7818609E-02  0.8217172E-01
       -1   -1    0    0    0  501  0.00000000000E+00  0.00000000000E+00  0.16142728776E+04  0.16142728776E+04  0.50400001928E-02 0. -1.
        1   -1    0    0  501    0  0.00000000000E+00  0.00000000000E+00 -0.14832790010E+04  0.14832790010E+04  0.50400001928E-02 0.  1.
    10030    2    1    2    0    0  0.00000000000E+00  0.00000000000E+00  0.13099387657E+03  0.30975518786E+04  0.30947808073E+04 0.  0.
        3    1    3    3  502    0 -0.89425214269E+03  0.12467355011E+04  0.26662648124E+03  0.15572816043E+04  0.10100000352E+00 0. -1.
       -3    1    3    3    0  502  0.89425214269E+03 -0.12467355011E+04 -0.13563260467E+03  0.15402702743E+04  0.10100000352E+00 0.  1.
</event>
<event>
 5   0  0.7193153E-06  0.2925787E+04  0.7818609E-02  0.8265246E-01
       -2   -1    0    0    0  501  0.00000000000E+00  0.00000000000E+00  0.96569492182E+03  0.96569492183E+03  0.25500000920E-02 0.  1.
        2   -1    0    0  501    0  0.00000000000E+00  0.00000000000E+00 -0.22160800190E+04  0.22160800190E+04  0.25500000920E-02 0. -1.
    10030    2    1    2    0    0  0.00000000000E+00  0.00000000000E+00 -0.12503850971E+04  0.31817749408E+04  0.29257868827E+04 0.  0.
        4    1    3    3  502    0 -0.12659060332E+04  0.71529976880E+03 -0.80015323794E+03  0.16596441369E+04  0.12699999809E+01 0. -1.
       -4    1    3    3    0  502  0.12659060332E+04 -0.71529976880E+03 -0.45023185920E+03  0.15221308039E+04  0.12699999809E+01 0.  1.
</event>
<event>
 5   0  0.2552990E-06  0.2943569E+04  0.7818609E-02  0.8260031E-01
       -1   -1    0    0    0  501  0.00000000000E+00  0.00000000000E+00  0.91351154576E+03  0.91351154578E+03  0.50400001928E-02 0. -1.
        1   -1    0    0  501    0  0.00000000000E+00  0.00000000000E+00 -0.23712342757E+04  0.23712342757E+04  0.50400001928E-02 0.  1.
    10030    2    1    2    0    0  0.00000000000E+00  0.00000000000E+00 -0.14577227299E+04  0.32847458215E+04  0.29435691863E+04 0.  0.
        3    1    3    3  502    0  0.93364445212E+03 -0.44255959912E+03 -0.18984876080E+04  0.21614361359E+04  0.10100000352E+00 0.  1.
       -3    1    3    3    0  502 -0.93364445212E+03  0.44255959912E+03  0.44076487806E+03  0.11233096856E+04  0.10100000352E+00 0. -1.
</event>
<event>
 5   0  0.2552990E-06  0.3134411E+04  0.7818609E-02  0.8206357E-01
       -1   -1    0    0    0  501  0.00000000000E+00  0.00000000000E+00  0.14921133973E+04  0.14921133973E+04  0.50400001928E-02 0. -1.
        1   -1    0    0  501    0  0.00000000000E+00  0.00000000000E+00 -0.16460767334E+04  0.16460767334E+04  0.50400001928E-02 0.  1.
    10030    2    1    2    0    0  0.00000000000E+00  0.00000000000E+00 -0.15396333617E+03  0.31381901307E+04  0.31344110432E+04 0.  0.
        3    1    3    3  502    0 -0.83082623015E+03 -0.98870127231E+03 -0.96593205850E+03  0.16127080276E+04  0.10100000352E+00 0. -1.
       -3    1    3    3    0  502  0.83082623015E+03  0.98870127231E+03  0.81196872232E+03  0.15254821031E+04  0.10100000352E+00 0.  1.
</event>
<event>
 5   0  0.7193153E-06  0.2982746E+04  0.7818609E-02  0.8248675E-01
        2   -1    0    0  501    0  0.00000000000E+00  0.00000000000E+00  0.22224919770E+04  0.22224919770E+04  0.25500000920E-02 0. -1.
       -2   -1    0    0    0  501  0.00000000000E+00  0.00000000000E+00 -0.10007656011E+04  0.10007656011E+04  0.25500000920E-02 0.  1.
    10030    2    1    2    0    0  0.00000000000E+00  0.00000000000E+00  0.12217263760E+04  0.32232575781E+04  0.29827460631E+04 0.  0.
        4    1    3    3  502    0 -0.58764542156E+03 -0.13673261736E+04  0.71498553727E+03  0.16510947695E+04  0.12699999809E+01 0. -1.
       -4    1    3    3    0  502  0.58764542156E+03  0.13673261736E+04  0.50674083870E+03  0.15721628086E+04  0.12699999809E+01 0.  1.
</event>
<event>
 5   0  0.7217255E-06  0.3000588E+04  0.7818609E-02  0.8243563E-01
       -2   -1    0    0    0  501  0.00000000000E+00  0.00000000000E+00  0.12160669957E+04  0.12160669957E+04  0.25500000920E-02 0. -1.
        2   -1    0    0  501    0  0.00000000000E+00  0.00000000000E+00 -0.18509525659E+04  0.18509525659E+04  0.25500000920E-02 0.  1.
    10030    2    1    2    0    0  0.00000000000E+00  0.00000000000E+00 -0.63488557021E+03  0.30670195616E+04  0.30005881597E+04 0.  0.
        1    1    3    3  502    0  0.69628323806E+03  0.56391019975E+03 -0.15474453648E+04  0.17881253362E+04  0.50400001928E-02 0.  1.
       -1    1    3    3    0  502 -0.69628323806E+03 -0.56391019975E+03  0.91255979457E+03  0.12788942254E+04  0.50400001928E-02 0. -1.
</event>
<event>
 5   0  0.6792811E-06  0.2833164E+04  0.7818609E-02  0.8293046E-01
        2   -1    0    0  501    0  0.00000000000E+00  0.00000000000E+00  0.21390085052E+04  0.21390085052E+04  0.25500000920E-02 0. -1.
       -2   -1    0    0    0  501  0.00000000000E+00  0.00000000000E+00 -0.93814723063E+03  0.93814723064E+03  0.25500000920E-02 0.  1.
    10030    2    1    2    0    0  0.00000000000E+00  0.00000000000E+00  0.12008612746E+04  0.30771557358E+04  0.28331642420E+04 0.  0.
        2    1    3    3  502    0 -0.13394503025E+03 -0.32597470886E+03  0.20906345277E+04  0.21201305408E+04  0.25500000920E-02 0. -1.
       -2    1    3    3    0  502  0.13394503025E+03  0.32597470886E+03 -0.88977325309E+03  0.95702519500E+03  0.25500000920E-02 0.  1.
</event>
<event>
 5   0  0.7193153E-06  0.3011751E+04  0.7818609E-02  0.8240383E-01
       -2   -1    0    0    0  501  0.00000000000E+00  0.00000000000E+00  0.14224432084E+04  0.14224432084E+04  0.25500000920E-02 0. -1.
        2   -1    0    0  501    0  0.00000000000E+00  0.00000000000E+00 -0.15942019263E+04  0.15942019263E+04  0.25500000920E-02 0.  1.
    10030    2    1    2    0    0  0.00000000000E+00  0.00000000000E+00 -0.17175871788E+03  0.30166451347E+04  0.30117514525E+04 0.  0.
        4    1    3    3  502    0  0.97757038277E+03  0.31215698462E+03 -0.11897473279E+04  0.15711734957E+04  0.12699999809E+01 0. -1.
       -4    1    3    3    0  502 -0.97757038277E+03 -0.31215698462E+03  0.10179886100E+04  0.14454716391E+04  0.12699999809E+01 0.  1.
</event>
<event>
 5   0  0.2628425E-06  0.3075965E+04  0.7818609E-02  0.8222365E-01
       -1   -1    0    0    0  501  0.00000000000E+00  0.00000000000E+00  0.99523691961E+03  0.99523691962E+03  0.50400001928E-02 0.  1.
        1   -1    0    0  501    0  0.00000000000E+00  0.00000000000E+00 -0.23767105481E+04  0.23767105481E+04  0.50400001928E-02 0. -1.
    10030    2    1    2    0    0  0.00000000000E+00  0.00000000000E+00 -0.13814736284E+04  0.33719474677E+04  0.30759649443E+04 0.  0.
        1    1    3    3  502    0  0.11338057697E+04 -0.91613129423E+03 -0.12284211508E+04  0.19062608939E+04  0.50400001928E-02 0. -1.
       -1    1    3    3    0  502 -0.11338057697E+04  0.91613129423E+03 -0.15305247764E+03  0.14656865738E+04  0.50400001928E-02 0.  1.
</event>
<event>
 5   0  0.2552990E-06  0.3054870E+04  0.7818609E-02  0.8228234E-01
       -1   -1    0    0    0  501  0.00000000000E+00  0.00000000000E+00  0.14448393491E+04  0.14448393491E+04  0.50400001928E-02 0. -1.
        1   -1    0    0  501    0  0.00000000000E+00  0.00000000000E+00 -0.16147521048E+04  0.16147521049E+04  0.50400001928E-02 0.  1.
    10030    2    1    2    0    0  0.00000000000E+00  0.00000000000E+00 -0.16991275579E+03  0.30595914539E+04  0.30548698042E+04 0.  0.
        3    1    3    3  502    0  0.41189144228E+03 -0.13735767150E+04  0.44186976980E+03  0.15005387219E+04  0.10100000352E+00 0. -1.
       -3    1    3    3    0  502 -0.41189144228E+03  0.13735767150E+04 -0.61178252559E+03  0.15590527320E+04  0.10100000352E+00 0.  1.
</event>
<event>
 5   0  0.6792811E-06  0.2986724E+04  0.7818609E-02  0.8247532E-01
       -2   -1    0    0    0  501  0.00000000000E+00  0.00000000000E+00  0.11032674372E+04  0.11032674372E+04  0.25500000920E-02 0. -1.
        2   -1    0    0  501    0  0.00000000000E+00  0.00000000000E+00 -0.20213862052E+04  0.20213862052E+04  0.25500000920E-02 0.  1.
    10030    2    1    2    0    0  0.00000000000E+00  0.00000000000E+00 -0.91811876804E+03  0.31246536424E+04  0.29867236753E+04 0.  0.
        2    1    3    3  502    0 -0.21627679201E+02  0.10101792664E+04 -0.16094778652E+04  0.19003549419E+04  0.25500000920E-02 0.  1.
       -2    1    3    3    0  502  0.21627679201E+02 -0.10101792664E+04  0.69135909715E+03  0.12242987004E+04  0.25500000920E-02 0. -1.
</event>
<event>
 5   0  0.2422083E-06  0.2960507E+04  0.7818609E-02  0.8255099E-01
       -1   -1    0    0    0  501  0.00000000000E+00  0.00000000000E+00  0.17550405653E+04  0.17550405653E+04  0.50400001928E-02 0. -1.
        1   -1    0    0  501    0  0.00000000000E+00  0.00000000000E+00 -0.12484898536E+04  0.12484898536E+04  0.50400001928E-02 0.  1.
    10030    2    1    2    0    0  0.00000000000E+00  0.00000000000E+00  0.50655071165E+03  0.30035304189E+04  0.29605069421E+04 0.  0.
        2    1    3    3  502    0 -0.30518564789E+03 -0.98944577728E+03 -0.81992982996E+03  0.13207672588E+04  0.25500000920E-02 0.  1.
       -2    1    3    3    0  502  0.30518564789E+03  0.98944577728E+03  0.13264805416E+04  0.16827631601E+04  0.25500000920E-02 0. -1.
</event>
<event>
 5   0  0.2504260E-06  0.2991038E+04  0.7818609E-02  0.8246295E-01
       -1   -1    0    0    0  501  0.00000000000E+00  0.00000000000E+00  0.10085417312E+04  0.10085417312E+04  0.50400001928E-02 0.  1.
        1   -1    0    0  501    0  0.00000000000E+00  0.00000000000E+00 -0.22176349736E+04  0.22176349736E+04  0.50400001928E-02 0. -1.
    10030    2    1    2    0    0  0.00000000000E+00  0.00000000000E+00 -0.12090932424E+04  0.32261767048E+04  0.29910382247E+04 0.  0.
        4    1    3    3  502    0 -0.14392648771E+04 -0.10534276289E+03 -0.18127422510E+03  0.14544560639E+04  0.12699999809E+01 0.  1.
       -4    1    3    3    0  502  0.14392648771E+04  0.10534276289E+03 -0.10278190173E+04  0.17717206409E+04  0.12699999809E+01 0. -1.
</event>
<event>
 5   0  0.2504260E-06  0.2978086E+04  0.7818609E-02  0.8250016E-01
        1   -1    0    0  501    0  0.00000000000E+00  0.00000000000E+00  0.17073553358E+04  0.17073553358E+04  0.50400001928E-02 0. -1.
       -1   -1    0    0    0  501  0.00000000000E+00  0.00000000000E+00 -0.12986453662E+04  0.12986453662E+04  0.50400001928E-02 0.  1.
    10030    2    1    2    0    0  0.00000000000E+00  0.00000000000E+00  0.40870996959E+03  0.30060007021E+04  0.29780860266E+04 0.  0.
        4    1    3    3  502    0  0.60046482373E+03  0.10453176910E+03 -0.11669680092E+04  0.13165488380E+04  0.12699999809E+01 0.  1.
       -4    1    3    3    0  502 -0.60046482373E+03 -0.10453176910E+03  0.15756779788E+04  0.16894518641E+04  0.12699999809E+01 0. -1.
</event>
<event>
 5   0  0.6792811E-06  0.2988540E+04  0.7818609E-02  0.8247011E-01
        2   -1    0    0  501    0  0.00000000000E+00  0.00000000000E+00  0.17874875960E+04  0.17874875960E+04  0.25500000920E-02 0.  1.
       -2   -1    0    0    0  501  0.00000000000E+00  0.00000000000E+00 -0.12491517123E+04  0.12491517123E+04  0.25500000920E-02 0. -1.
    10030    2    1    2    0    0  0.00000000000E+00  0.00000000000E+00  0.53833588371E+03  0.30366393084E+04  0.29885402399E+04 0.  0.
        2    1    3    3  502    0  0.14084853743E+04 -0.46809821452E+03  0.44485595056E+03  0.15494656514E+04  0.25500000920E-02 0.  1.
       -2    1    3    3    0  502 -0.14084853743E+04  0.46809821452E+03  0.93479933147E+02  0.14871736570E+04  0.25500000920E-02 0. -1.
</event>
<event>
 5   0  0.2628425E-06  0.3072816E+04  0.7818609E-02  0.8223238E-01
        1   -1    0    0  501    0  0.00000000000E+00  0.00000000000E+00  0.17184275924E+04  0.17184275924E+04  0.50400001928E-02 0. -1.
       -1   -1    0    0    0  501  0.00000000000E+00  0.00000000000E+00 -0.13736685485E+04  0.13736685485E+04  0.50400001928E-02 0.  1.
    10030    2    1    2    0    0  0.00000000000E+00  0.00000000000E+00  0.34475904382E+03  0.30920961409E+04  0.30728162565E+04 0.  0.
        1    1    3    3  502    0  0.71246790866E+03 -0.83397311530E+03 -0.91020904865E+03  0.14253428325E+04  0.50400001928E-02 0.  1.
       -1    1    3    3    0  502 -0.71246790866E+03  0.83397311530E+03  0.12549680925E+04  0.16667533084E+04  0.50400001928E-02 0. -1.
</event>
<event>
 5   0  0.6792811E-06  0.3014403E+04  0.7818609E-02  0.8239630E-01
        2   -1    0    0  501    0  0.00000000000E+00  0.00000000000E+00  0.17779591655E+04  0.17779591655E+04  0.25500000920E-02 0. -1.
       -2   -1    0    0    0  501  0.00000000000E+00  0.00000000000E+00 -0.12776760887E+04  0.12776760887E+04  0.25500000920E-02 0.  1.
    10030    2    1    2    0    0  0.00000000000E+00  0.00000000000E+00  0.50028307681E+03  0.30556352541E+04  0.30144027019E+04 0.  0.
        2    1    3    3  502    0  0.76711071897E+03 -0.86932159113E+03  0.12263708033E+04  0.16876505062E+04  0.25500000920E-02 0. -1.
       -2    1    3    3    0  502 -0.76711071897E+03  0.86932159113E+03 -0.72608772649E+03  0.13679847479E+04  0.25500000920E-02 0.  1.
</event>
<event>
 5   0  0.6792811E-06  0.2959410E+04  0.7818609E-02  0.8255417E-01
       -2   -1    0    0    0  501  0.00000000000E+00  0.00000000000E+00  0.14933511393E+04  0.14933511393E+04  0.25500000920E-02 0.  1.
        2   -1    0    0  501    0  0.00000000000E+00  0.00000000000E+00 -0.14661837780E+04  0.14661837780E+04  0.25500000920E-02 0. -1.
    10030    2    1    2    0    0  0.00000000000E+00  0.00000000000E+00  0.27167361221E+02  0.29595349173E+04  0.29594102218E+04 0.  0.
        2    1    3    3  502    0 -0.82036759083E+03 -0.80744999935E+03  0.94343398426E+03  0.14883031170E+04  0.25500000920E-02 0.  1.
       -2    1    3    3    0  502  0.82036759083E+03  0.80744999935E+03 -0.91626662304E+03  0.14712318002E+04  0.25500000920E-02 0. -1.
</event>
<event>
 5   0  0.6792811E-06  0.2355463E+04  0.7818609E-02  0.8456368E-01
       -2   -1    0    0    0  501  0.00000000000E+00  0.00000000000E+00  0.10446747666E+04  0.10446747666E+04  0.25500000920E-02 0. -1.
        2   -1    0    0  501    0  0.00000000000E+00  0.00000000000E+00 -0.13277352872E+04  0.13277352872E+04  0.25500000920E-02 0.  1.
    10030    2    1    2    0    0  0.00000000000E+00  0.00000000000E+00 -0.28306052062E+03  0.23724100538E+04  0.23554630553E+04 0.  0.
        2    1    3    3  502    0 -0.10931540676E+03 -0.11433257668E+04  0.12093604530E+03  0.11548892563E+04  0.25500000920E-02 0.  1.
       -2    1    3    3    0  502  0.10931540676E+03  0.11433257668E+04 -0.40399656592E+03  0.12175207975E+04  0.25500000920E-02 0. -1.
</event>
<event>
 5   0  0.7217255E-06  0.2989148E+04  0.7818609E-02  0.8246837E-01
       -2   -1    0    0    0  501  0.00000000000E+00  0.00000000000E+00  0.12473696765E+04  0.12473696765E+04  0.25500000920E-02 0. -1.
        2   -1    0    0  501    0  0.00000000000E+00  0.00000000000E+00 -0.17907689540E+04  0.17907689540E+04  0.25500000920E-02 0.  1.
    10030    2    1    2    0    0  0.00000000000E+00  0.00000000000E+00 -0.54339927751E+03  0.30381386304E+04  0.29891476315E+04 0.  0.
        1    1    3    3  502    0  0.97476468686E+03  0.94186195437E+03 -0.91168682347E+03  0.16335369601E+04  0.50400001928E-02 0.  1.
       -1    1    3    3    0  502 -0.97476468686E+03 -0.94186195437E+03  0.36828754596E+03  0.14046016704E+04  0.50400001928E-02 0. -1.
</event>
<event>
 5   0  0.2422083E-06  0.2896656E+04  0.7818609E-02  0.8273873E-01
        1   -1    0    0  501    0  0.00000000000E+00  0.00000000000E+00  0.22576985734E+04  0.22576985734E+04  0.50400001928E-02 0. -1.
       -1   -1    0    0    0  501  0.00000000000E+00  0.00000000000E+00 -0.92911179189E+03  0.92911179190E+03  0.50400001928E-02 0.  1.
    10030    2    1    2    0    0  0.00000000000E+00  0.00000000000E+00  0.13285867815E+04  0.31868103653E+04  0.28966562565E+04 0.  0.
        2    1    3    3  502    0 -0.50633947846E+03 -0.52390602057E+03 -0.71280715659E+03  0.10192895704E+04  0.25500000920E-02 0.  1.
       -2    1    3    3    0  502  0.50633947846E+03  0.52390602057E+03  0.20413939381E+04  0.21675207949E+04  0.25500000920E-02 0. -1.
</event>
<event>
 5   0  0.7193153E-06  0.2960507E+04  0.7818609E-02  0.8255099E-01
        2   -1    0    0  501    0  0.00000000000E+00  0.00000000000E+00  0.27404313434E+04  0.27404313434E+04  0.25500000920E-02 0. -1.
       -2   -1    0    0    0  501  0.00000000000E+00  0.00000000000E+00 -0.79956394255E+03  0.79956394255E+03  0.25500000920E-02 0.  1.
    10030    2    1    2    0    0  0.00000000000E+00  0.00000000000E+00  0.19408674008E+04  0.35399952859E+04  0.29605067737E+04 0.  0.
        4    1    3    3  502    0  0.12201848600E+04 -0.62452081154E+03  0.30223973566E+03  0.14036480354E+04  0.12699999809E+01 0.  1.
       -4    1    3    3    0  502 -0.12201848600E+04  0.62452081154E+03  0.16386276652E+04  0.21363472505E+04  0.12699999809E+01 0. -1.
</event>
<event>
 5   0  0.6780150E-06  0.2924344E+04  0.7818609E-02  0.8265671E-01
       -2   -1    0    0    0  501  0.00000000000E+00  0.00000000000E+00  0.10857071840E+04  0.10857071840E+04  0.25500000920E-02 0.  1.
        2   -1    0    0  501    0  0.00000000000E+00  0.00000000000E+00 -0.19691739105E+04  0.19691739105E+04  0.25500000920E-02 0. -1.
    10030    2    1    2    0    0  0.00000000000E+00  0.00000000000E+00 -0.88346672645E+03  0.30548810945E+04  0.29243435238E+04 0.  0.
        5    1    3    3  502    0 -0.18275284514E+03  0.63704782376E+03  0.91978564438E+03  0.11336914279E+04  0.46999998093E+01 0.  1.
       -5    1    3    3    0  502  0.18275284514E+03 -0.63704782376E+03 -0.18032523708E+04  0.19211896666E+04  0.46999998093E+01 0. -1.
</event>
<event>
 5   0  0.2552990E-06  0.2952554E+04  0.7818609E-02  0.8257411E-01
        1   -1    0    0  501    0  0.00000000000E+00  0.00000000000E+00  0.15011492576E+04  0.15011492576E+04  0.50400001928E-02 0.  1.
       -1   -1    0    0    0  501  0.00000000000E+00  0.00000000000E+00 -0.14518164288E+04  0.14518164288E+04  0.50400001928E-02 0. -1.
    10030    2    1    2    0    0  0.00000000000E+00  0.00000000000E+00  0.49332828795E+02  0.29529656865E+04  0.29525535757E+04 0.  0.
        3    1    3    3  502    0  0.89622329808E+03  0.51549886771E+03 -0.10292538236E+04  0.14588758433E+04  0.10100000352E+00 0. -1.
       -3    1    3    3    0  502 -0.89622329808E+03 -0.51549886771E+03  0.10785866524E+04  0.14940898432E+04  0.10100000352E+00 0.  1.
</event>
<event>
 5   0  0.6780150E-06  0.3005939E+04  0.7818609E-02  0.8242037E-01
       -2   -1    0    0    0  501  0.00000000000E+00  0.00000000000E+00  0.13794783676E+04  0.13794783676E+04  0.25500000920E-02 0.  1.
        2   -1    0    0  501    0  0.00000000000E+00  0.00000000000E+00 -0.16375155127E+04  0.16375155127E+04  0.25500000920E-02 0. -1.
    10030    2    1    2    0    0  0.00000000000E+00  0.00000000000E+00 -0.25803714512E+03  0.30169938803E+04  0.30059389391E+04 0.  0.
        5    1    3    3  502    0  0.70453058205E+03 -0.69012582756E+03 -0.12673227838E+04  0.16058537067E+04  0.46999998093E+01 0. -1.
       -5    1    3    3    0  502 -0.70453058205E+03  0.69012582756E+03  0.10092856387E+04  0.14111401736E+04  0.46999998093E+01 0.  1.
</event>
<event>
 5   0  0.2672155E-06  0.3059357E+04  0.7818609E-02  0.8226981E-01
        1   -1    0    0  501    0  0.00000000000E+00  0.00000000000E+00  0.15395126493E+04  0.15395126493E+04  0.50400001928E-02 0. -1.
       -1   -1    0    0    0  501  0.00000000000E+00  0.00000000000E+00 -0.15199074478E+04  0.15199074478E+04  0.50400001928E-02 0.  1.
    10030    2    1    2    0    0  0.00000000000E+00  0.00000000000E+00  0.19605201545E+02  0.30594200971E+04  0.30593572800E+04 0.  0.
        5    1    3    3  502    0  0.57285752281E+03  0.27645127103E+03 -0.13813778621E+04  0.15207951652E+04  0.46999998093E+01 0.  1.
       -5    1    3    3    0  502 -0.57285752281E+03 -0.27645127103E+03  0.14009830636E+04  0.15386249319E+04  0.46999998093E+01 0. -1.
</event>
<event>
 5   0  0.6780150E-06  0.3035287E+04  0.7818609E-02  0.8233726E-01
        2   -1    0    0  501    0  0.00000000000E+00  0.00000000000E+00  0.19016443299E+04  0.19016443299E+04  0.25500000920E-02 0. -1.
       -2   -1    0    0    0  501  0.00000000000E+00  0.00000000000E+00 -0.12111839705E+04  0.12111839705E+04  0.25500000920E-02 0.  1.
    10030    2    1    2    0    0  0.00000000000E+00  0.00000000000E+00  0.69046035938E+03  0.31128283004E+04  0.30352865631E+04 0.  0.
        5    1    3    3  502    0  0.24147325832E+03 -0.14758487490E+04  0.80209816110E+02  0.14976296501E+04  0.46999998093E+01 0. -1.
       -5    1    3    3    0  502 -0.24147325832E+03  0.14758487490E+04  0.61025054327E+03  0.16151986503E+04  0.46999998093E+01 0.  1.
</event>
<event>
 5   0  0.6792811E-06  0.2992660E+04  0.7818609E-02  0.8245830E-01
        2   -1    0    0  501    0  0.00000000000E+00  0.00000000000E+00  0.24065765539E+04  0.24065765539E+04  0.25500000920E-02 0.  1.
       -2   -1    0    0    0  501  0.00000000000E+00  0.00000000000E+00 -0.93036857377E+03  0.93036857378E+03  0.25500000920E-02 0. -1.
    10030    2    1    2    0    0  0.00000000000E+00  0.00000000000E+00  0.14762079802E+04  0.33369451277E+04  0.29926598177E+04 0.  0.
        2    1    3    3  502    0 -0.38864837894E+03  0.11549780905E+04  0.17063193857E+04  0.20967946485E+04  0.25500000920E-02 0.  1.
       -2    1    3    3    0  502  0.38864837894E+03 -0.11549780905E+04 -0.23011140552E+03  0.12401504792E+04  0.25500000920E-02 0. -1.
</event>
<event>
 5   0  0.2628425E-06  0.3090718E+04  0.7818609E-02  0.8218290E-01
        1   -1    0    0  501    0  0.00000000000E+00  0.00000000000E+00  0.80504465047E+03  0.80504465049E+03  0.50400001928E-02 0. -1.
       -1   -1    0    0    0  501  0.00000000000E+00  0.00000000000E+00 -0.29664613956E+04  0.29664613956E+04  0.50400001928E-02 0.  1.
    10030    2    1    2    0    0  0.00000000000E+00  0.00000000000E+00 -0.21614167451E+04  0.37715060461E+04  0.30907176367E+04 0.  0.
        1    1    3    3  502    0  0.12431767051E+04 -0.27845551620E+03 -0.13333750239E+02  0.12740500710E+04  0.50400001928E-02 0. -1.
       -1    1    3    3    0  502 -0.12431767051E+04  0.27845551620E+03 -0.21480829949E+04  0.24974559751E+04  0.50400001928E-02 0.  1.
</event>
<event>
 5   0  0.2552990E-06  0.2981957E+04  0.7818609E-02  0.8248902E-01
       -1   -1    0    0    0  501  0.00000000000E+00  0.00000000000E+00  0.18893088043E+04  0.18893088043E+04  0.50400001928E-02 0.  1.
        1   -1    0    0  501    0  0.00000000000E+00  0.00000000000E+00 -0.11766296926E+04  0.11766296926E+04  0.50400001928E-02 0. -1.
    10030    2    1    2    0    0  0.00000000000E+00  0.00000000000E+00  0.71267911167E+03  0.30659384969E+04  0.29819569666E+04 0.  0.
        3    1    3    3  502    0  0.88070016266E+03  0.55068373764E+03  0.14561049072E+04  0.17886103171E+04  0.10100000352E+00 0.  1.
       -3    1    3    3    0  502 -0.88070016266E+03 -0.55068373764E+03 -0.74342579549E+03  0.12773281798E+04  0.10100000352E+00 0. -1.
</event>
<event>
 5   0  0.7193153E-06  0.3028278E+04  0.7818609E-02  0.8235702E-01
        2   -1    0    0  501    0  0.00000000000E+00  0.00000000000E+00  0.17776588540E+04  0.17776588540E+04  0.25500000920E-02 0. -1.
       -2   -1    0    0    0  501  0.00000000000E+00  0.00000000000E+00 -0.12896830276E+04  0.12896830276E+04  0.25500000920E-02 0.  1.
    10030    2    1    2    0    0  0.00000000000E+00  0.00000000000E+00  0.48797582640E+03  0.30673418816E+04  0.30282776972E+04 0.  0.
        4    1    3    3  502    0 -0.27884704915E+03  0.34169991989E+03  0.17111551232E+04  0.17670789401E+04  0.12699999809E+01 0. -1.
       -4    1    3    3    0  502  0.27884704915E+03 -0.34169991989E+03 -0.12231792968E+04  0.13002629415E+04  0.12699999809E+01 0.  1.
</event>
<event>
 5   0  0.7193153E-06  0.3021989E+04  0.7818609E-02  0.8237479E-01
       -2   -1    0    0    0  501  0.00000000000E+00  0.00000000000E+00  0.10265102733E+04  0.10265102733E+04  0.25500000920E-02 0. -1.
        2   -1    0    0  501    0  0.00000000000E+00  0.00000000000E+00 -0.22241422112E+04  0.22241422112E+04  0.25500000920E-02 0.  1.
    10030    2    1    2    0    0  0.00000000000E+00  0.00000000000E+00 -0.11976319379E+04  0.32506524845E+04  0.30219892979E+04 0.  0.
        4    1    3    3  502    0 -0.14228046557E+04  0.38423140984E+03 -0.95734763556E+03  0.17574194072E+04  0.12699999809E+01 0. -1.
       -4    1    3    3    0  502  0.14228046557E+04 -0.38423140984E+03 -0.24028430237E+03  0.14932330774E+04  0.12699999809E+01 0.  1.
</event>
<event>
 5   0  0.7217255E-06  0.3027615E+04  0.7818609E-02  0.8235889E-01
       -2   -1    0    0    0  501  0.00000000000E+00  0.00000000000E+00  0.11086774846E+04  0.11086774846E+04  0.25500000920E-02 0.  1.
        2   -1    0    0  501    0  0.00000000000E+00  0.00000000000E+00 -0.20669790753E+04  0.20669790753E+04  0.25500000920E-02 0. -1.
    10030    2    1    2    0    0  0.00000000000E+00  0.00000000000E+00 -0.95830159067E+03  0.31756565599E+04  0.30276150098E+04 0.  0.
        1    1    3    3  502    0 -0.61908614906E+03 -0.12929926257E+04  0.30957925477E+02  0.14338953878E+04  0.50400001928E-02 0.  1.
       -1    1    3    3    0  502  0.61908614906E+03  0.12929926257E+04 -0.98925951615E+03  0.17417611720E+04  0.50400001928E-02 0. -1.
</event>
<event>
 5   0  0.6780150E-06  0.2978591E+04  0.7818609E-02  0.8249871E-01
       -2   -1    0    0    0  501  0.00000000000E+00  0.00000000000E+00  0.13354695260E+04  0.13354695260E+04  0.25500000920E-02 0.  1.
        2   -1    0    0  501    0  0.00000000000E+00  0.00000000000E+00 -0.16608399994E+04  0.16608399994E+04  0.25500000920E-02 0. -1.
    10030    2    1    2    0    0  0.00000000000E+00  0.00000000000E+00 -0.32537047336E+03  0.29963095254E+04  0.29785910808E+04 0.  0.
        5    1    3    3  502    0  0.33285087352E+03  0.12497377448E+04  0.58018242095E+03  0.14174864608E+04  0.46999998093E+01 0.  1.
       -5    1    3    3    0  502 -0.33285087352E+03 -0.12497377448E+04 -0.90555289431E+03  0.15788230646E+04  0.46999998093E+01 0. -1.
</event>
<event>
 5   0  0.2552990E-06  0.3079371E+04  0.7818609E-02  0.8221422E-01
       -1   -1    0    0    0  501  0.00000000000E+00  0.00000000000E+00  0.12368144305E+04  0.12368144305E+04  0.50400001928E-02 0. -1.
        1   -1    0    0  501    0  0.00000000000E+00  0.00000000000E+00 -0.19167239134E+04  0.19167239134E+04  0.50400001928E-02 0.  1.
    10030    2    1    2    0    0  0.00000000000E+00  0.00000000000E+00 -0.67990948292E+03  0.31535383440E+04  0.30793712316E+04 0.  0.
        3    1    3    3  502    0  0.86589406410E+03  0.56283010856E+03  0.82951351707E+03  0.13246293620E+04  0.10100000352E+00 0. -1.
       -3    1    3    3    0  502 -0.86589406410E+03 -0.56283010856E+03 -0.15094230000E+04  0.18289089820E+04  0.10100000352E+00 0.  1.
</event>
<event>
 5   0  0.2628425E-06  0.3067091E+04  0.7818609E-02  0.8224828E-01
       -1   -1    0    0    0  501  0.00000000000E+00  0.00000000000E+00  0.12696256175E+04  0.12696256175E+04  0.50400001928E-02 0.  1.
        1   -1    0    0  501    0  0.00000000000E+00  0.00000000000E+00 -0.18523274280E+04  0.18523274280E+04  0.50400001928E-02 0. -1.
    10030    2    1    2    0    0  0.00000000000E+00  0.00000000000E+00 -0.58270181050E+03  0.31219530455E+04  0.30670913613E+04 0.  0.
        1    1    3    3  502    0 -0.69387714373E+03 -0.24337870983E+02 -0.16831807493E+04  0.18207567815E+04  0.50400001928E-02 0. -1.
       -1    1    3    3    0  502  0.69387714373E+03  0.24337870983E+02  0.11004789388E+04  0.13011962640E+04  0.50400001928E-02 0.  1.
</event>
<event>
 5   0  0.6792811E-06  0.2980316E+04  0.7818609E-02  0.8249374E-01
       -2   -1    0    0    0  501  0.00000000000E+00  0.00000000000E+00  0.88163253334E+03  0.88163253334E+03  0.25500000920E-02 0. -1.
        2   -1    0    0  501    0  0.00000000000E+00  0.00000000000E+00 -0.25187040318E+04  0.25187040318E+04  0.25500000920E-02 0.  1.
    10030    2    1    2    0    0  0.00000000000E+00  0.00000000000E+00 -0.16370714984E+04  0.34003365651E+04  0.29803163700E+04 0.  0.
        2    1    3    3  502    0  0.13784767949E+04 -0.49502177864E+03 -0.50539926980E+03  0.15494106161E+04  0.25500000920E-02 0. -1.
       -2    1    3    3    0  502 -0.13784767949E+04  0.49502177864E+03 -0.11316722286E+04  0.18509259490E+04  0.25500000920E-02 0.  1.
</event>
<event>
 5   0  0.2672155E-06  0.3046723E+04  0.7818609E-02  0.8230513E-01
       -1   -1    0    0    0  501  0.00000000000E+00  0.00000000000E+00  0.19905214985E+04  0.19905214985E+04  0.50400001928E-02 0.  1.
        1   -1    0    0  501    0  0.00000000000E+00  0.00000000000E+00 -0.11658402472E+04  0.11658402472E+04  0.50400001928E-02 0. -1.
    10030    2    1    2    0    0  0.00000000000E+00  0.00000000000E+00  0.82468125135E+03  0.31563617457E+04  0.30467228793E+04 0.  0.
        5    1    3    3  502    0 -0.14134447241E+04  0.12022239933E+01 -0.17624208057E+03  0.14243983974E+04  0.46999998093E+01 0. -1.
       -5    1    3    3    0  502  0.14134447241E+04 -0.12022239933E+01  0.10009233319E+04  0.17319633483E+04  0.46999998093E+01 0.  1.
</event>
<event>
 5   0  0.2552990E-06  0.3027523E+04  0.7818609E-02  0.8235915E-01
       -1   -1    0    0    0  501  0.00000000000E+00  0.00000000000E+00  0.10086831588E+04  0.10086831588E+04  0.50400001928E-02 0.  1.
        1   -1    0    0  501    0  0.00000000000E+00  0.00000000000E+00 -0.22717475145E+04  0.22717475145E+04  0.50400001928E-02 0. -1.
    10030    2    1    2    0    0  0.00000000000E+00  0.00000000000E+00 -0.12630643557E+04  0.32804306733E+04  0.30275227225E+04 0.  0.
        3    1    3    3  502    0  0.98809992353E+03 -0.18361601322E+03 -0.18580919550E+04  0.21124776976E+04  0.10100000352E+00 0. -1.
       -3    1    3    3    0  502 -0.98809992353E+03  0.18361601322E+03  0.59502759936E+03  0.11679529757E+04  0.10100000352E+00 0.  1.
</event>
<event>
 5   0  0.2422083E-06  0.2866621E+04  0.7818609E-02  0.8282879E-01
        1   -1    0    0  501    0  0.00000000000E+00  0.00000000000E+00  0.26612963392E+04  0.26612963392E+04  0.50400001928E-02 0. -1.
       -1   -1    0    0    0  501  0.00000000000E+00  0.00000000000E+00 -0.77194652282E+03  0.77194652284E+03  0.50400001928E-02 0.  1.
    10030    2    1    2    0    0  0.00000000000E+00  0.00000000000E+00  0.18893498164E+04  0.34332428621E+04  0.28666206274E+04 0.  0.
        2    1    3    3  502    0 -0.72074816989E+03  0.27813817271E+03  0.23905956867E+04  0.25123269104E+04  0.25500000920E-02 0. -1.
       -2    1    3    3    0  502  0.72074816989E+03 -0.27813817271E+03 -0.50124587030E+03  0.92091595166E+03  0.25500000920E-02 0.  1.
</event>
<event>
 5   0  0.6792811E-06  0.3022073E+04  0.7818609E-02  0.8237456E-01
        2   -1    0    0  501    0  0.00000000000E+00  0.00000000000E+00  0.19012926033E+04  0.19012926033E+04  0.25500000920E-02 0. -1.
       -2   -1    0    0    0  501  0.00000000000E+00  0.00000000000E+00 -0.12008839340E+04  0.12008839340E+04  0.25500000920E-02 0.  1.
    10030    2    1    2    0    0  0.00000000000E+00  0.00000000000E+00  0.70040866930E+03  0.31021765373E+04  0.30220732891E+04 0.  0.
        2    1    3    3  502    0 -0.13089130736E+04 -0.17772002138E+03  0.11034065388E+04  0.17211460804E+04  0.25500000920E-02 0.  1.
       -2    1    3    3    0  502  0.13089130736E+04  0.17772002138E+03 -0.40299786948E+03  0.13810304569E+04  0.25500000920E-02 0. -1.
</event>
<event>
 5   0  0.7201538E-06  0.2972478E+04  0.7818609E-02  0.8251634E-01
       -2   -1    0    0    0  501  0.00000000000E+00  0.00000000000E+00  0.17090143599E+04  0.17090143599E+04  0.25500000920E-02 0. -1.
        2   -1    0    0  501    0  0.00000000000E+00  0.00000000000E+00 -0.12925032099E+04  0.12925032099E+04  0.25500000920E-02 0.  1.
    10030    2    1    2    0    0  0.00000000000E+00  0.00000000000E+00  0.41651114999E+03  0.30015175698E+04  0.29724781217E+04 0.  0.
        3    1    3    3  502    0  0.44272854978E+03  0.40850711322E+02 -0.12237773540E+04  0.13020400807E+04  0.10100000352E+00 0.  1.
       -3    1    3    3    0  502 -0.44272854978E+03 -0.40850711322E+02  0.16402885040E+04  0.16994774891E+04  0.10100000352E+00 0. -1.
</event>
<event>
 5   0  0.2672155E-06  0.2993218E+04  0.7818609E-02  0.8245670E-01
       -1   -1    0    0    0  501  0.00000000000E+00  0.00000000000E+00  0.14897961572E+04  0.14897961572E+04  0.50400001928E-02 0.  1.
        1   -1    0    0  501    0  0.00000000000E+00  0.00000000000E+00 -0.15034529059E+04  0.15034529060E+04  0.50400001928E-02 0. -1.
    10030    2    1    2    0    0  0.00000000000E+00  0.00000000000E+00 -0.13656748739E+02  0.29932490632E+04  0.29932179084E+04 0.  0.
        5    1    3    3  502    0  0.14882700919E+04 -0.13037090829E+03 -0.95552641613E+02  0.14970293375E+04  0.46999998093E+01 0. -1.
       -5    1    3    3    0  502 -0.14882700919E+04  0.13037090829E+03  0.81895892874E+02  0.14962197256E+04  0.46999998093E+01 0.  1.
</event>
<event>
 5   0  0.2628425E-06  0.2968223E+04  0.7818609E-02  0.8252864E-01
        1   -1    0    0  501    0  0.00000000000E+00  0.00000000000E+00  0.17660371419E+04  0.17660371419E+04  0.50400001928E-02 0.  1.
       -1   -1    0    0    0  501  0.00000000000E+00  0.00000000000E+00 -0.12471919101E+04  0.12471919101E+04  0.50400001928E-02 0. -1.
    10030    2    1    2    0    0  0.00000000000E+00  0.00000000000E+00  0.51884523183E+03  0.30132290520E+04  0.29682231967E+04 0.  0.
        1    1    3    3  502    0  0.14435279455E+04  0.34469357812E+03  0.26023735936E+03  0.15067548160E+04  0.50400001928E-02 0. -1.
       -1    1    3    3    0  502 -0.14435279455E+04 -0.34469357812E+03  0.25860787248E+03  0.15064742361E+04  0.50400001928E-02 0.  1.
</event>
<event>
 5   0  0.2552990E-06  0.2948115E+04  0.7818609E-02  0.8258704E-01
       -1   -1    0    0    0  501  0.00000000000E+00  0.00000000000E+00  0.83095523076E+03  0.83095523077E+03  0.50400001928E-02 0. -1.
        1   -1    0    0  501    0  0.00000000000E+00  0.00000000000E+00 -0.26148768458E+04  0.26148768459E+04  0.50400001928E-02 0.  1.
    10030    2    1    2    0    0  0.00000000000E+00  0.00000000000E+00 -0.17839216151E+04  0.34458320766E+04  0.29481150540E+04 0.  0.
        3    1    3    3  502    0  0.84425815629E+03 -0.45749729899E+03  0.41522825016E+03  0.10461788198E+04  0.10100000352E+00 0. -1.
       -3    1    3    3    0  502 -0.84425815629E+03  0.45749729899E+03 -0.21991498652E+04  0.23996532568E+04  0.10100000352E+00 0.  1.
</event>
<event>
 5   0  0.6780150E-06  0.3207047E+04  0.7818609E-02  0.8186959E-01
        2   -1    0    0  501    0  0.00000000000E+00  0.00000000000E+00  0.19274934297E+04  0.19274934297E+04  0.25500000920E-02 0.  1.
       -2   -1    0    0    0  501  0.00000000000E+00  0.00000000000E+00 -0.13340059580E+04  0.13340059580E+04  0.25500000920E-02 0. -1.
    10030    2    1    2    0    0  0.00000000000E+00  0.00000000000E+00  0.59348747170E+03  0.32614993876E+04  0.32070470649E+04 0.  0.
        5    1    3    3  502    0  0.11730734662E+03 -0.12641444534E+04  0.12928866531E+04  0.18120155078E+04  0.46999998093E+01 0.  1.
       -5    1    3    3    0  502 -0.11730734662E+03  0.12641444534E+04 -0.69939918145E+03  0.14494838798E+04  0.46999998093E+01 0. -1.
</event>
<event>
 5   0  0.2298500E-06  0.3029991E+04  0.7818609E-02  0.8235218E-01
        3   -1    0    0  501    0  0.00000000000E+00  0.00000000000E+00  0.14897193479E+04  0.14897193513E+04  0.10100000352E+00 0.  1.
       -3   -1    0    0    0  501  0.00000000000E+00  0.00000000000E+00 -0.15407000005E+04  0.15407000038E+04  0.10100000352E+00 0. -1.
    10030    2    1    2    0    0  0.00000000000E+00  0.00000000000E+00 -0.50980652642E+02  0.30304193551E+04  0.30299905018E+04 0.  0.
        5    1    3    3  502    0 -0.11392684528E+04  0.94951163967E+03 -0.33486169879E+03  0.15204142228E+04  0.46999998093E+01 0. -1.
       -5    1    3    3    0  502  0.11392684528E+04 -0.94951163967E+03  0.28388104615E+03  0.15100051324E+04  0.46999998093E+01 0.  1.
</event>
<event>
 5   0  0.6792811E-06  0.3010731E+04  0.7818609E-02  0.8240673E-01
       -2   -1    0    0    0  501  0.00000000000E+00  0.00000000000E+00  0.75807795980E+03  0.75807795981E+03  0.25500000920E-02 0. -1.
        2   -1    0    0  501    0  0.00000000000E+00  0.00000000000E+00 -0.29893040134E+04  0.29893040134E+04  0.25500000920E-02 0.  1.
    10030    2    1    2    0    0  0.00000000000E+00  0.00000000000E+00 -0.22312260536E+04  0.37473819732E+04  0.30107311323E+04 0.  0.
        2    1    3    3  502    0  0.70108853506E+03  0.13290279549E+04 -0.10023199091E+04  0.18062352114E+04  0.25500000920E-02 0.  1.
       -2    1    3    3    0  502 -0.70108853506E+03 -0.13290279549E+04 -0.12289061446E+04  0.19411467618E+04  0.25500000920E-02 0. -1.
</event>
<event>
 5   0  0.6792811E-06  0.3013269E+04  0.7818609E-02  0.8239952E-01
        2   -1    0    0  501    0  0.00000000000E+00  0.00000000000E+00  0.18812338923E+04  0.18812338923E+04  0.25500000920E-02 0. -1.
       -2   -1    0    0    0  501  0.00000000000E+00  0.00000000000E+00 -0.12066272314E+04  0.12066272314E+04  0.25500000920E-02 0.  1.
    10030    2    1    2    0    0  0.00000000000E+00  0.00000000000E+00  0.67460666091E+03  0.30878611236E+04  0.30132693494E+04 0.  0.
        2    1    3    3  502    0  0.44156568772E+03  0.49460686444E+03  0.17236911132E+04  0.18468154376E+04  0.25500000920E-02 0. -1.
       -2    1    3    3    0  502 -0.44156568772E+03 -0.49460686444E+03 -0.10490844522E+04  0.12410456861E+04  0.25500000920E-02 0.  1.
</event>
<event>
 5   0  0.6780150E-06  0.2978764E+04  0.7818609E-02  0.8249821E-01
       -2   -1    0    0    0  501  0.00000000000E+00  0.00000000000E+00  0.12316009525E+04  0.12316009525E+04  0.25500000920E-02 0.  1.
        2   -1    0    0  501    0  0.00000000000E+00  0.00000000000E+00 -0.18011184198E+04  0.18011184198E+04  0.25500000920E-02 0. -1.
    10030    2    1    2    0    0  0.00000000000E+00  0.00000000000E+00 -0.56951746725E+03  0.30327193723E+04  0.29787642817E+04 0.  0.
        5    1    3    3  502    0 -0.10401898628E+04  0.51369519358E+03 -0.12356783416E+04  0.16949338502E+04  0.46999998093E+01 0. -1.
       -5    1    3    3    0  502  0.10401898628E+04 -0.51369519358E+03  0.66616087439E+03  0.13377855221E+04  0.46999998093E+01 0.  1.
</event>
<event>
 5   0  0.7217255E-06  0.3021524E+04  0.7818609E-02  0.8237611E-01
       -2   -1    0    0    0  501  0.00000000000E+00  0.00000000000E+00  0.12106319646E+04  0.12106319646E+04  0.25500000920E-02 0.  1.
        2   -1    0    0  501    0  0.00000000000E+00  0.00000000000E+00 -0.18852984273E+04  0.18852984273E+04  0.25500000920E-02 0. -1.
    10030    2    1    2    0    0  0.00000000000E+00  0.00000000000E+00 -0.67466646268E+03  0.30959303920E+04  0.30215244755E+04 0.  0.
        1    1    3    3  502    0 -0.19896122588E+03  0.14929396558E+04 -0.21632262593E+03  0.15215945136E+04  0.50400001928E-02 0.  1.
       -1    1    3    3    0  502  0.19896122588E+03 -0.14929396558E+04 -0.45834383675E+03  0.15743358784E+04  0.50400001928E-02 0. -1.
</event>
<event>
 5   0  0.6792811E-06  0.2900916E+04  0.7818609E-02  0.8272605E-01
        2   -1    0    0  501    0  0.00000000000E+00  0.00000000000E+00  0.24332406601E+04  0.24332406602E+04  0.25500000920E-02 0.  1.
       -2   -1    0    0    0  501  0.00000000000E+00  0.00000000000E+00 -0.86461977228E+03  0.86461977228E+03  0.25500000920E-02 0. -1.
    10030    2    1    2    0    0  0.00000000000E+00  0.00000000000E+00  0.15686208879E+04  0.32978604324E+04  0.29009157075E+04 0.  0.
        2    1    3    3  502    0 -0.10186102669E+04  0.66270991326E+02 -0.38716364691E+03  0.10917208479E+04  0.25500000920E-02 0. -1.
       -2    1    3    3    0  502  0.10186102669E+04 -0.66270991326E+02  0.19557845348E+04  0.22061395846E+04  0.25500000920E-02 0.  1.
</event>
<event>
 5   0  0.7217255E-06  0.3005377E+04  0.7818609E-02  0.8242197E-01
       -2   -1    0    0    0  501  0.00000000000E+00  0.00000000000E+00  0.10283509409E+04  0.10283509409E+04  0.25500000920E-02 0.  1.
        2   -1    0    0  501    0  0.00000000000E+00  0.00000000000E+00 -0.21958186450E+04  0.21958186450E+04  0.25500000920E-02 0. -1.
    10030    2    1    2    0    0  0.00000000000E+00  0.00000000000E+00 -0.11674677042E+04  0.32241695859E+04  0.30053766284E+04 0.  0.
        1    1    3    3  502    0 -0.19561412756E+03  0.59209555653E+03  0.88299676960E+03  0.10809835013E+04  0.50400001928E-02 0.  1.
       -1    1    3    3    0  502  0.19561412756E+03 -0.59209555653E+03 -0.20504644737E+04  0.21431860846E+04  0.50400001928E-02 0. -1.
</event>
<event>
 5   0  0.2504260E-06  0.3040319E+04  0.7818609E-02  0.8232310E-01
        1   -1    0    0  501    0  0.00000000000E+00  0.00000000000E+00  0.15717985123E+04  0.15717985123E+04  0.50400001928E-02 0.  1.
       -1   -1    0    0    0  501  0.00000000000E+00  0.00000000000E+00 -0.14702167974E+04  0.14702167974E+04  0.50400001928E-02 0. -1.
    10030    2    1    2    0    0  0.00000000000E+00  0.00000000000E+00  0.10158171488E+03  0.30420153096E+04  0.30403187825E+04 0.  0.
        4    1    3    3  502    0 -0.26828739690E+03 -0.29628409195E+03 -0.14166974502E+04  0.14720039636E+04  0.12699999809E+01 0. -1.
       -4    1    3    3    0  502  0.26828739690E+03  0.29628409195E+03  0.15182791651E+04  0.15700113460E+04  0.12699999809E+01 0.  1.
</event>
<event>
 5   0  0.2504260E-06  0.2997094E+04  0.7818609E-02  0.8244561E-01
        1   -1    0    0  501    0  0.00000000000E+00  0.00000000000E+00  0.18380247886E+04  0.18380247886E+04  0.50400001928E-02 0.  1.
       -1   -1    0    0    0  501  0.00000000000E+00  0.00000000000E+00 -0.12217695707E+04  0.12217695707E+04  0.50400001928E-02 0. -1.
    10030    2    1    2    0    0  0.00000000000E+00  0.00000000000E+00  0.61625521786E+03  0.30597943593E+04  0.29970937636E+04 0.  0.
        4    1    3    3  502    0  0.78145565428E+03  0.79778442680E+03  0.13282862919E+04  0.17353613507E+04  0.12699999809E+01 0. -1.
       -4    1    3    3    0  502 -0.78145565428E+03 -0.79778442680E+03 -0.71203107402E+03  0.13244330087E+04  0.12699999809E+01 0.  1.
</event>
<event>
 5   0  0.2504260E-06  0.2989654E+04  0.7818609E-02  0.8246691E-01
       -1   -1    0    0    0  501  0.00000000000E+00  0.00000000000E+00  0.10945228619E+04  0.10945228619E+04  0.50400001928E-02 0.  1.
        1   -1    0    0  501    0  0.00000000000E+00  0.00000000000E+00 -0.20415361600E+04  0.20415361600E+04  0.50400001928E-02 0. -1.
    10030    2    1    2    0    0  0.00000000000E+00  0.00000000000E+00 -0.94701329816E+03  0.31360590219E+04  0.29896541610E+04 0.  0.
        4    1    3    3  502    0  0.10544356887E+04 -0.70589617544E+02  0.63547341378E+03  0.12331445934E+04  0.12699999809E+01 0. -1.
       -4    1    3    3    0  502 -0.10544356887E+04  0.70589617544E+02 -0.15824867119E+04  0.19029144285E+04  0.12699999809E+01 0.  1.
</event>
<event>
 5   0  0.7193153E-06  0.2812380E+04  0.7818609E-02  0.8299435E-01
       -2   -1    0    0    0  501  0.00000000000E+00  0.00000000000E+00  0.21060432451E+04  0.21060432451E+04  0.25500000920E-02 0.  1.
        2   -1    0    0  501    0  0.00000000000E+00  0.00000000000E+00 -0.93890271891E+03  0.93890271892E+03  0.25500000920E-02 0. -1.
    10030    2    1    2    0    0  0.00000000000E+00  0.00000000000E+00  0.11671405261E+04  0.30449459640E+04  0.28123795825E+04 0.  0.
        4    1    3    3  502    0 -0.29327968728E+03  0.59738506336E+03  0.19247505179E+04  0.20365529843E+04  0.12699999809E+01 0.  1.
       -4    1    3    3    0  502  0.29327968728E+03 -0.59738506336E+03 -0.75760999176E+03  0.10083929797E+04  0.12699999809E+01 0. -1.
</event>
<event>
 5   0  0.2672155E-06  0.2974245E+04  0.7818609E-02  0.8251124E-01
        1   -1    0    0  501    0  0.00000000000E+00  0.00000000000E+00  0.15080509918E+04  0.15080509918E+04  0.50400001928E-02 0.  1.
       -1   -1    0    0    0  501  0.00000000000E+00  0.00000000000E+00 -0.14664847386E+04  0.14664847386E+04  0.50400001928E-02 0. -1.
    10030    2    1    2    0    0  0.00000000000E+00  0.00000000000E+00  0.41566253248E+02  0.29745357304E+04  0.29742452922E+04 0.  0.
        5    1    3    3  502    0 -0.83575681553E+03  0.58821037375E+03 -0.10596143515E+04  0.14721703578E+04  0.46999998093E+01 0. -1.
       -5    1    3    3    0  502  0.83575681553E+03 -0.58821037375E+03  0.11011806047E+04  0.15023653726E+04  0.46999998093E+01 0.  1.
</event>
<event>
 5   0  0.2422083E-06  0.2739807E+04  0.7818609E-02  0.8322203E-01
        1   -1    0    0  501    0  0.00000000000E+00  0.00000000000E+00  0.12576247308E+04  0.12576247309E+04  0.50400001928E-02 0. -1.
       -1   -1    0    0    0  501  0.00000000000E+00  0.00000000000E+00 -0.14922063130E+04  0.14922063130E+04  0.50400001928E-02 0.  1.
    10030    2    1    2    0    0  0.00000000000E+00  0.00000000000E+00 -0.23458158213E+03  0.27498310438E+04  0.27398069733E+04 0.  0.
        2    1    3    3  502    0 -0.13649316168E+04  0.21850082963E+02 -0.23299449773E+01  0.13651084841E+04  0.25500000920E-02 0.  1.
       -2    1    3    3    0  502  0.13649316168E+04 -0.21850082963E+02 -0.23225163715E+03  0.13847225598E+04  0.25500000920E-02 0. -1.
</event>
<event>
 5   0  0.2504260E-06  0.3028055E+04  0.7818609E-02  0.8235765E-01
       -1   -1    0    0    0  501  0.00000000000E+00  0.00000000000E+00  0.13273596129E+04  0.13273596129E+04  0.50400001928E-02 0.  1.
        1   -1    0    0  501    0  0.00000000000E+00  0.00000000000E+00 -0.17269464303E+04  0.17269464303E+04  0.50400001928E-02 0. -1.
    10030    2    1    2    0    0  0.00000000000E+00  0.00000000000E+00 -0.39958681743E+03  0.30543060432E+04  0.30280547850E+04 0.  0.
        4    1    3    3  502    0  0.12449486028E+04  0.62563914440E+03 -0.79734463256E+03  0.16053290748E+04  0.12699999809E+01 0. -1.
       -4    1    3    3    0  502 -0.12449486028E+04 -0.62563914440E+03  0.39775781513E+03  0.14489769684E+04  0.12699999809E+01 0.  1.
</event>
<event>
 5   0  0.2504260E-06  0.2939400E+04  0.7818609E-02  0.8261250E-01
       -1   -1    0    0    0  501  0.00000000000E+00  0.00000000000E+00  0.76756713205E+03  0.76756713207E+03  0.50400001928E-02 0. -1.
        1   -1    0    0  501    0  0.00000000000E+00  0.00000000000E+00 -0.28141099372E+04  0.28141099372E+04  0.50400001928E-02 0.  1.
    10030    2    1    2    0    0  0.00000000000E+00  0.00000000000E+00 -0.20465428052E+04  0.35816770693E+04  0.29394001387E+04 0.  0.
        4    1    3    3  502    0 -0.10965389518E+04  0.95336065499E+03 -0.75430851245E+03  0.16371552022E+04  0.12699999809E+01 0. -1.
       -4    1    3    3    0  502  0.10965389518E+04 -0.95336065499E+03 -0.12922342927E+04  0.19445218671E+04  0.12699999809E+01 0.  1.
</event>
<event>
 5   0  0.7201538E-06  0.3030561E+04  0.7818609E-02  0.8235057E-01
       -2   -1    0    0    0  501  0.00000000000E+00  0.00000000000E+00  0.13637564210E+04  0.13637564210E+04  0.25500000920E-02 0. -1.
        2   -1    0    0  501    0  0.00000000000E+00  0.00000000000E+00 -0.16836400358E+04  0.16836400358E+04  0.25500000920E-02 0.  1.
    10030    2    1    2    0    0  0.00000000000E+00  0.00000000000E+00 -0.31988361488E+03  0.30473964568E+04  0.30305609444E+04 0.  0.
        3    1    3    3  502    0  0.62677611075E+03  0.11077004334E+04  0.66695627141E+03  0.14368991688E+04  0.10100000352E+00 0. -1.
       -3    1    3    3    0  502 -0.62677611075E+03 -0.11077004334E+04 -0.98683988629E+03  0.16104972880E+04  0.10100000352E+00 0.  1.
</event>
<event>
 5   0  0.2422083E-06  0.2921052E+04  0.7818609E-02  0.8266641E-01
       -1   -1    0    0    0  501  0.00000000000E+00  0.00000000000E+00  0.13780443620E+04  0.13780443620E+04  0.50400001928E-02 0. -1.
        1   -1    0    0  501    0  0.00000000000E+00  0.00000000000E+00 -0.15479446982E+04  0.15479446982E+04  0.50400001928E-02 0.  1.
    10030    2    1    2    0    0  0.00000000000E+00  0.00000000000E+00 -0.16990033618E+03  0.29259890603E+04  0.29210521831E+04 0.  0.
        2    1    3    3  502    0  0.12104185064E+04 -0.25704543988E+03  0.69221621240E+03  0.14178676255E+04  0.25500000920E-02 0.  1.
       -2    1    3    3    0  502 -0.12104185064E+04  0.25704543988E+03 -0.86211654857E+03  0.15081214348E+04  0.25500000920E-02 0. -1.
</event>
<event>
 5   0  0.7201538E-06  0.2562054E+04  0.7818609E-02  0.8381206E-01
        2   -1    0    0  501    0  0.00000000000E+00  0.00000000000E+00  0.17057097490E+04  0.17057097491E+04  0.25500000920E-02 0. -1.
       -2   -1    0    0    0  501  0.00000000000E+00  0.00000000000E+00 -0.96208062898E+03  0.96208062898E+03  0.25500000920E-02 0.  1.
    10030    2    1    2    0    0  0.00000000000E+00  0.00000000000E+00  0.74362912007E+03  0.26677903780E+04  0.25620541042E+04 0.  0.
        3    1    3    3  502    0 -0.10016175280E+04 -0.30978978354E+03  0.11382791394E+04  0.15475421777E+04  0.10100000352E+00 0. -1.
       -3    1    3    3    0  502  0.10016175280E+04  0.30978978354E+03 -0.39465001930E+03  0.11202482003E+04  0.10100000352E+00 0.  1.
</event>
<event>
 5   0  0.2672155E-06  0.3001234E+04  0.7818609E-02  0.8243379E-01
        1   -1    0    0  501    0  0.00000000000E+00  0.00000000000E+00  0.15165157509E+04  0.15165157509E+04  0.50400001928E-02 0.  1.
       -1   -1    0    0    0  501  0.00000000000E+00  0.00000000000E+00 -0.14848850820E+04  0.14848850820E+04  0.50400001928E-02 0. -1.
    10030    2    1    2    0    0  0.00000000000E+00  0.00000000000E+00  0.31630668876E+02  0.30014008330E+04  0.30012341563E+04 0.  0.
        5    1    3    3  502    0 -0.13985385611E+04  0.15452327030E+03  0.53742073545E+03  0.15061974256E+04  0.46999998093E+01 0.  1.
       -5    1    3    3    0  502  0.13985385611E+04 -0.15452327030E+03 -0.50579006658E+03  0.14952034074E+04  0.46999998093E+01 0. -1.
</event>
<event>
 5   0  0.7201538E-06  0.2991640E+04  0.7818609E-02  0.8246122E-01
       -2   -1    0    0    0  501  0.00000000000E+00  0.00000000000E+00  0.14528314245E+04  0.14528314245E+04  0.25500000920E-02 0. -1.
        2   -1    0    0  501    0  0.00000000000E+00  0.00000000000E+00 -0.15400805659E+04  0.15400805659E+04  0.25500000920E-02 0.  1.
    10030    2    1    2    0    0  0.00000000000E+00  0.00000000000E+00 -0.87249141386E+02  0.29929119903E+04  0.29916399799E+04 0.  0.
        3    1    3    3  502    0  0.10050706270E+04  0.87003484690E+03 -0.72973672737E+03  0.15164574843E+04  0.10100000352E+00 0.  1.
       -3    1    3    3    0  502 -0.10050706270E+04 -0.87003484690E+03  0.64248758598E+03  0.14764545061E+04  0.10100000352E+00 0. -1.
</event>
<event>
 5   0  0.2552990E-06  0.2937982E+04  0.7818609E-02  0.8261665E-01
        1   -1    0    0  501    0  0.00000000000E+00  0.00000000000E+00  0.20016669991E+04  0.20016669991E+04  0.50400001928E-02 0. -1.
       -1   -1    0    0    0  501  0.00000000000E+00  0.00000000000E+00 -0.10780690302E+04  0.10780690302E+04  0.50400001928E-02 0.  1.
    10030    2    1    2    0    0  0.00000000000E+00  0.00000000000E+00  0.92359796889E+03  0.30797360292E+04  0.29379824373E+04 0.  0.
        3    1    3    3  502    0 -0.61188555809E+03 -0.10564883936E+04 -0.39453963957E+03  0.12830561949E+04  0.10100000352E+00 0.  1.
       -3    1    3    3    0  502  0.61188555809E+03  0.10564883936E+04  0.13181376085E+04  0.17966798343E+04  0.10100000352E+00 0. -1.
</event>
<event>
 5   0  0.2672155E-06  0.3095260E+04  0.7818609E-02  0.8217040E-01
       -1   -1    0    0    0  501  0.00000000000E+00  0.00000000000E+00  0.18722807790E+04  0.18722807790E+04  0.50400001928E-02 0.  1.
        1   -1    0    0  501    0  0.00000000000E+00  0.00000000000E+00 -0.12792727904E+04  0.12792727904E+04  0.50400001928E-02 0. -1.
    10030    2    1    2    0    0  0.00000000000E+00  0.00000000000E+00  0.59300798858E+03  0.31515535693E+04  0.30952595087E+04 0.  0.
        5    1    3    3  502    0 -0.37309932726E+03  0.49734719620E+03  0.17395229093E+04  0.18473005667E+04  0.46999998093E+01 0.  1.
       -5    1    3    3    0  502  0.37309932726E+03 -0.49734719620E+03 -0.11465149207E+04  0.13042530027E+04  0.46999998093E+01 0. -1.
</event>
<event>
 5   0  0.6780150E-06  0.2856256E+04  0.7818609E-02  0.8286013E-01
       -2   -1    0    0    0  501  0.00000000000E+00  0.00000000000E+00  0.11637371997E+04  0.11637371997E+04  0.25500000920E-02 0.  1.
        2   -1    0    0  501    0  0.00000000000E+00  0.00000000000E+00 -0.17525860609E+04  0.17525860609E+04  0.25500000920E-02 0. -1.
    10030    2    1    2    0    0  0.00000000000E+00  0.00000000000E+00 -0.58884886117E+03  0.29163232606E+04  0.28562560072E+04 0.  0.
        5    1    3    3  502    0  0.68663200742E+03 -0.71863510242E+03 -0.13414794783E+04  0.16695775528E+04  0.46999998093E+01 0. -1.
       -5    1    3    3    0  502 -0.68663200742E+03  0.71863510242E+03  0.75263061713E+03  0.12467457078E+04  0.46999998093E+01 0.  1.
</event>
<event>
 5   0  0.2552990E-06  0.2991428E+04  0.7818609E-02  0.8246183E-01
        1   -1    0    0  501    0  0.00000000000E+00  0.00000000000E+00  0.14545101538E+04  0.14545101539E+04  0.50400001928E-02 0. -1.
       -1   -1    0    0    0  501  0.00000000000E+00  0.00000000000E+00 -0.15380853745E+04  0.15380853745E+04  0.50400001928E-02 0.  1.
    10030    2    1    2    0    0  0.00000000000E+00  0.00000000000E+00 -0.83575220633E+02  0.29925955283E+04  0.29914282841E+04 0.  0.
        3    1    3    3  502    0 -0.30458413015E+02  0.13760450851E+04  0.54387484515E+03  0.14799417720E+04  0.10100000352E+00 0. -1.
       -3    1    3    3    0  502  0.30458413015E+02 -0.13760450851E+04 -0.62745006578E+03  0.15126537563E+04  0.10100000352E+00 0.  1.
</event>
<event>
 5   0  0.2422083E-06  0.2946936E+04  0.7818609E-02  0.8259048E-01
       -1   -1    0    0    0  501  0.00000000000E+00  0.00000000000E+00  0.12918123842E+04  0.12918123842E+04  0.50400001928E-02 0. -1.
        1   -1    0    0  501    0  0.00000000000E+00  0.00000000000E+00 -0.16806679980E+04  0.16806679980E+04  0.50400001928E-02 0.  1.
    10030    2    1    2    0    0  0.00000000000E+00  0.00000000000E+00 -0.38885561376E+03  0.29724803822E+04  0.29469358551E+04 0.  0.
        2    1    3    3  502    0  0.10496785390E+04 -0.10230048388E+04 -0.34654552811E+03  0.15061400129E+04  0.25500000920E-02 0. -1.
       -2    1    3    3    0  502 -0.10496785390E+04  0.10230048388E+04 -0.42310085649E+02  0.14663403693E+04  0.25500000920E-02 0.  1.
</event>
<event>
 5   0  0.6792811E-06  0.3084093E+04  0.7818609E-02  0.8220117E-01
       -2   -1    0    0    0  501  0.00000000000E+00  0.00000000000E+00  0.10410045674E+04  0.10410045674E+04  0.25500000920E-02 0.  1.
        2   -1    0    0  501    0  0.00000000000E+00  0.00000000000E+00 -0.22842425629E+04  0.22842425629E+04  0.25500000920E-02 0. -1.
    10030    2    1    2    0    0  0.00000000000E+00  0.00000000000E+00 -0.12432379955E+04  0.33252471304E+04  0.30840926972E+04 0.  0.
        2    1    3    3  502    0  0.56012201874E+03  0.76429489540E+03  0.69006983600E+03  0.11722114748E+04  0.25500000920E-02 0.  1.
       -2    1    3    3    0  502 -0.56012201874E+03 -0.76429489540E+03 -0.19333078315E+04  0.21530356556E+04  0.25500000920E-02 0. -1.
</event>
<event>
 5   0  0.6792811E-06  0.3086518E+04  0.7818609E-02  0.8219448E-01
       -2   -1    0    0    0  501  0.00000000000E+00  0.00000000000E+00  0.96081553068E+03  0.96081553068E+03  0.25500000920E-02 0. -1.
        2   -1    0    0  501    0  0.00000000000E+00  0.00000000000E+00 -0.24787781123E+04  0.24787781123E+04  0.25500000920E-02 0.  1.
    10030    2    1    2    0    0  0.00000000000E+00  0.00000000000E+00 -0.15179625816E+04  0.34395936430E+04  0.30865181078E+04 0.  0.
        2    1    3    3  502    0 -0.71691080508E+03 -0.11211229025E+04 -0.16298996716E+04  0.21041508037E+04  0.25500000920E-02 0. -1.
       -2    1    3    3    0  502  0.71691080508E+03  0.11211229025E+04  0.11193708998E+03  0.13354428393E+04  0.25500000920E-02 0.  1.
</event>
<event>
 5   0  0.7193153E-06  0.2927763E+04  0.7818609E-02  0.8264665E-01
        2   -1    0    0  501    0  0.00000000000E+00  0.00000000000E+00  0.21824993878E+04  0.21824993878E+04  0.25500000920E-02 0. -1.
       -2   -1    0    0    0  501  0.00000000000E+00  0.00000000000E+00 -0.98187835171E+03  0.98187835172E+03  0.25500000920E-02 0.  1.
    10030    2    1    2    0    0  0.00000000000E+00  0.00000000000E+00  0.12006210361E+04  0.31643777396E+04  0.29277629013E+04 0.  0.
        4    1    3    3  502    0  0.42436252639E+03 -0.11222516851E+03 -0.90907334834E+03  0.10095018612E+04  0.12699999809E+01 0.  1.
       -4    1    3    3    0  502 -0.42436252639E+03  0.11222516851E+03  0.21096943845E+04  0.21548758783E+04  0.12699999809E+01 0. -1.
</event>
<event>
 5   0  0.7217255E-06  0.3003361E+04  0.7818609E-02  0.8242772E-01
        2   -1    0    0  501    0  0.00000000000E+00  0.00000000000E+00  0.20363577058E+04  0.20363577058E+04  0.25500000920E-02 0. -1.
       -2   -1    0    0    0  501  0.00000000000E+00  0.00000000000E+00 -0.11073909831E+04  0.11073909831E+04  0.25500000920E-02 0.  1.
    10030    2    1    2    0    0  0.00000000000E+00  0.00000000000E+00  0.92896672270E+03  0.31437486890E+04  0.30033608920E+04 0.  0.
        1    1    3    3  502    0 -0.62723504250E+03 -0.10239213728E+04  0.14084147393E+04  0.18508027594E+04  0.50400001928E-02 0. -1.
       -1    1    3    3    0  502  0.62723504250E+03  0.10239213728E+04 -0.47944801656E+03  0.12929459296E+04  0.50400001928E-02 0.  1.
</event>
<event>
 5   0  0.2422083E-06  0.3031824E+04  0.7818609E-02  0.8234701E-01
        1   -1    0    0  501    0  0.00000000000E+00  0.00000000000E+00  0.16110016208E+04  0.16110016208E+04  0.50400001928E-02 0.  1.
       -1   -1    0    0    0  501  0.00000000000E+00  0.00000000000E+00 -0.14264352259E+04  0.14264352259E+04  0.50400001928E-02 0. -1.
    10030    2    1    2    0    0  0.00000000000E+00  0.00000000000E+00  0.18456639487E+03  0.30374368468E+04  0.30318241776E+04 0.  0.
        2    1    3    3  502    0  0.11744315460E+04 -0.94264001925E+03  0.26618390961E+03  0.15292853023E+04  0.25500000920E-02 0.  1.
       -2    1    3    3    0  502 -0.11744315460E+04  0.94264001925E+03 -0.81617514736E+02  0.15081515444E+04  0.25500000920E-02 0. -1.
</event>
<event>
 5   0  0.6792811E-06  0.3014326E+04  0.7818609E-02  0.8239652E-01
       -2   -1    0    0    0  501  0.00000000000E+00  0.00000000000E+00  0.14376353760E+04  0.14376353760E+04  0.25500000920E-02 0.  1.
        2   -1    0    0  501    0  0.00000000000E+00  0.00000000000E+00 -0.15800530577E+04  0.15800530577E+04  0.25500000920E-02 0. -1.
    10030    2    1    2    0    0  0.00000000000E+00  0.00000000000E+00 -0.14241768167E+03  0.30176884338E+04  0.30143259092E+04 0.  0.
        2    1    3    3  502    0 -0.13352477800E+04 -0.68667221737E+03  0.59837155685E+02  0.15026595933E+04  0.25500000920E-02 0.  1.
       -2    1    3    3    0  502  0.13352477800E+04  0.68667221737E+03 -0.20225483736E+03  0.15150288404E+04  0.25500000920E-02 0. -1.
</event>
<event>
 5   0  0.7201538E-06  0.3040892E+04  0.7818609E-02  0.8232150E-01
       -2   -1    0    0    0  501  0.00000000000E+00  0.00000000000E+00  0.13947342523E+04  0.13947342523E+04  0.25500000920E-02 0.  1.
        2   -1    0    0  501    0  0.00000000000E+00  0.00000000000E+00 -0.16574880270E+04  0.16574880270E+04  0.25500000920E-02 0. -1.
    10030    2    1    2    0    0  0.00000000000E+00  0.00000000000E+00 -0.26275377468E+03  0.30522222793E+04  0.30408915298E+04 0.  0.
        3    1    3    3  502    0 -0.11175878564E+04 -0.75656939764E+03  0.57148619009E+03  0.14656044302E+04  0.10100000352E+00 0.  1.
       -3    1    3    3    0  502  0.11175878564E+04  0.75656939764E+03 -0.83423996477E+03  0.15866178491E+04  0.10100000352E+00 0. -1.
</event>
<event>
 5   0  0.2552990E-06  0.2970808E+04  0.7818609E-02  0.8252116E-01
        1   -1    0    0  501    0  0.00000000000E+00  0.00000000000E+00  0.21879486548E+04  0.21879486548E+04  0.50400001928E-02 0. -1.
       -1   -1    0    0    0  501  0.00000000000E+00  0.00000000000E+00 -0.10084446070E+04  0.10084446071E+04  0.50400001928E-02 0.  1.
    10030    2    1    2    0    0  0.00000000000E+00  0.00000000000E+00  0.11795040478E+04  0.31963932619E+04  0.29708079854E+04 0.  0.
        3    1    3    3  502    0  0.92366463227E+02  0.43376058832E+02  0.21841729106E+04  0.21865553640E+04  0.10100000352E+00 0. -1.
       -3    1    3    3    0  502 -0.92366463227E+02 -0.43376058832E+02 -0.10046688628E+04  0.10098378979E+04  0.10100000352E+00 0.  1.
</event>
<event>
 5   0  0.6780150E-06  0.2954214E+04  0.7818609E-02  0.8256928E-01
       -2   -1    0    0    0  501  0.00000000000E+00  0.00000000000E+00  0.19772578275E+04  0.19772578275E+04  0.25500000920E-02 0. -1.
        2   -1    0    0  501    0  0.00000000000E+00  0.00000000000E+00 -0.11034701315E+04  0.11034701315E+04  0.25500000920E-02 0.  1.
    10030    2    1    2    0    0  0.00000000000E+00  0.00000000000E+00  0.87378769594E+03  0.30807279590E+04  0.29542139089E+04 0.  0.
        5    1    3    3  502    0  0.18685504445E+03  0.11282798863E+04 -0.53796206743E+03  0.12638653352E+04  0.46999998093E+01 0.  1.
       -5    1    3    3    0  502 -0.18685504445E+03 -0.11282798863E+04  0.14117497634E+04  0.18168626238E+04  0.46999998093E+01 0. -1.
</event>
<event>
 5   0  0.2504260E-06  0.2973509E+04  0.7818609E-02  0.8251336E-01
       -1   -1    0    0    0  501  0.00000000000E+00  0.00000000000E+00  0.78568945114E+03  0.78568945116E+03  0.50400001928E-02 0.  1.
        1   -1    0    0  501    0  0.00000000000E+00  0.00000000000E+00 -0.28133751076E+04  0.28133751076E+04  0.50400001928E-02 0. -1.
    10030    2    1    2    0    0  0.00000000000E+00  0.00000000000E+00 -0.20276856565E+04  0.35990645588E+04  0.29735091351E+04 0.  0.
        4    1    3    3  502    0 -0.30070560754E+03  0.55760481675E+03  0.61414259093E+03  0.88233765020E+03  0.12699999809E+01 0.  1.
       -4    1    3    3    0  502  0.30070560754E+03 -0.55760481675E+03 -0.26418282474E+04  0.27167269086E+04  0.12699999809E+01 0. -1.
</event>
<event>
 5   0  0.7217255E-06  0.2975720E+04  0.7818609E-02  0.8250698E-01
       -2   -1    0    0    0  501  0.00000000000E+00  0.00000000000E+00  0.97028638329E+03  0.97028638329E+03  0.25500000920E-02 0.  1.
        2   -1    0    0  501    0  0.00000000000E+00  0.00000000000E+00 -0.22815194998E+04  0.22815194998E+04  0.25500000920E-02 0. -1.
    10030    2    1    2    0    0  0.00000000000E+00  0.00000000000E+00 -0.13112331165E+04  0.32518058830E+04  0.29757199491E+04 0.  0.
        1    1    3    3  502    0 -0.89000306082E+03  0.91170249328E+03 -0.14952954588E+04  0.19644885832E+04  0.50400001928E-02 0. -1.
       -1    1    3    3    0  502  0.89000306082E+03 -0.91170249328E+03  0.18406234233E+03  0.12873172998E+04  0.50400001928E-02 0.  1.
</event>
<event>
 5   0  0.6792811E-06  0.2798100E+04  0.7818609E-02  0.8303858E-01
        2   -1    0    0  501    0  0.00000000000E+00  0.00000000000E+00  0.17181960611E+04  0.17181960611E+04  0.25500000920E-02 0. -1.
       -2   -1    0    0    0  501  0.00000000000E+00  0.00000000000E+00 -0.11391836197E+04  0.11391836197E+04  0.25500000920E-02 0.  1.
    10030    2    1    2    0    0  0.00000000000E+00  0.00000000000E+00  0.57901244146E+03  0.28573796808E+04  0.27980999326E+04 0.  0.
        2    1    3    3  502    0 -0.77792464244E+03  0.92825587828E+03  0.10047118339E+04  0.15736173595E+04  0.25500000920E-02 0. -1.
       -2    1    3    3    0  502  0.77792464244E+03 -0.92825587828E+03 -0.42569939243E+03  0.12837623213E+04  0.25500000920E-02 0.  1.
</event>
<event>
 5   0  0.2672155E-06  0.2989702E+04  0.7818609E-02  0.8246678E-01
       -1   -1    0    0    0  501  0.00000000000E+00  0.00000000000E+00  0.11354478608E+04  0.11354478608E+04  0.50400001928E-02 0. -1.
        1   -1    0    0  501    0  0.00000000000E+00  0.00000000000E+00 -0.19680157850E+04  0.19680157850E+04  0.50400001928E-02 0.  1.
    10030    2    1    2    0    0  0.00000000000E+00  0.00000000000E+00 -0.83256792419E+03  0.31034636458E+04  0.29897018668E+04 0.  0.
        5    1    3    3  502    0  0.77846516626E+03  0.10606219785E+04  0.32038890372E+03  0.13541041821E+04  0.46999998093E+01 0. -1.
       -5    1    3    3    0  502 -0.77846516626E+03 -0.10606219785E+04 -0.11529568279E+04  0.17493594637E+04  0.46999998093E+01 0.  1.
</event>
<event>
 5   0  0.7193153E-06  0.2995850E+04  0.7818609E-02  0.8244917E-01
        2   -1    0    0  501    0  0.00000000000E+00  0.00000000000E+00  0.21170665610E+04  0.21170665610E+04  0.25500000920E-02 0. -1.
       -2   -1    0    0    0  501  0.00000000000E+00  0.00000000000E+00 -0.10598526529E+04  0.10598526529E+04  0.25500000920E-02 0.  1.
    10030    2    1    2    0    0  0.00000000000E+00  0.00000000000E+00  0.10572139080E+04  0.31769192139E+04  0.29958495363E+04 0.  0.
        4    1    3    3  502    0  0.61322907311E+03  0.13486763770E+04  0.76286376316E+03  0.16664154944E+04  0.12699999809E+01 0. -1.
       -4    1    3    3    0  502 -0.61322907311E+03 -0.13486763770E+04  0.29435014488E+03  0.15105037195E+04  0.12699999809E+01 0.  1.
</event>
<event>
 5   0  0.6780150E-06  0.2919654E+04  0.7818609E-02  0.8267054E-01
        2   -1    0    0  501    0  0.00000000000E+00  0.00000000000E+00  0.24332679759E+04  0.24332679759E+04  0.25500000920E-02 0.  1.
       -2   -1    0    0    0  501  0.00000000000E+00  0.00000000000E+00 -0.87581598881E+03  0.87581598881E+03  0.25500000920E-02 0. -1.
    10030    2    1    2    0    0  0.00000000000E+00  0.00000000000E+00  0.15574519871E+04  0.33090839647E+04  0.29196540880E+04 0.  0.
        5    1    3    3  502    0 -0.12354131574E+03  0.13936783170E+04  0.12507782504E+04  0.18767178876E+04  0.46999998093E+01 0.  1.
       -5    1    3    3    0  502  0.12354131574E+03 -0.13936783170E+04  0.30667373667E+03  0.14323660771E+04  0.46999998093E+01 0. -1.
</event>
<event>
 5   0  0.2504260E-06  0.2981146E+04  0.7818609E-02  0.8249135E-01
        1   -1    0    0  501    0  0.00000000000E+00  0.00000000000E+00  0.92632547498E+03  0.92632547500E+03  0.50400001928E-02 0. -1.
       -1   -1    0    0    0  501  0.00000000000E+00  0.00000000000E+00 -0.23985173935E+04  0.23985173935E+04  0.50400001928E-02 0.  1.
    10030    2    1    2    0    0  0.00000000000E+00  0.00000000000E+00 -0.14721919186E+04  0.33248428685E+04  0.29811459299E+04 0.  0.
        4    1    3    3  502    0 -0.55913789997E+03 -0.43149502205E+03  0.72786126354E+03  0.10142025326E+04  0.12699999809E+01 0. -1.
       -4    1    3    3    0  502  0.55913789997E+03  0.43149502205E+03 -0.22000531821E+04  0.23106403360E+04  0.12699999809E+01 0.  1.
</event>
<event>
 5   0  0.7201538E-06  0.3537585E+04  0.7818609E-02  0.8104940E-01
        2   -1    0    0  501    0  0.00000000000E+00  0.00000000000E+00  0.21883306767E+04  0.21883306767E+04  0.25500000920E-02 0. -1.
       -2   -1    0    0    0  501  0.00000000000E+00  0.00000000000E+00 -0.14296861689E+04  0.14296861689E+04  0.25500000920E-02 0.  1.
    10030    2    1    2    0    0  0.00000000000E+00  0.00000000000E+00  0.75864450786E+03  0.36180168456E+04  0.35375845440E+04 0.  0.
        3    1    3    3  502    0 -0.15255889663E+04 -0.76752421579E+03 -0.91704230772E+02  0.17102411503E+04  0.10100000352E+00 0. -1.
       -3    1    3    3    0  502  0.15255889663E+04  0.76752421579E+03  0.85034873863E+03  0.19077756953E+04  0.10100000352E+00 0.  1.
</event>
<event>
 5   0  0.2298500E-06  0.2938092E+04  0.7818609E-02  0.8261633E-01
       -3   -1    0    0    0  501  0.00000000000E+00  0.00000000000E+00  0.10636539477E+04  0.10636539525E+04  0.10100000352E+00 0.  1.
        3   -1    0    0  501    0  0.00000000000E+00  0.00000000000E+00 -0.20289461901E+04  0.20289461926E+04  0.10100000352E+00 0. -1.
    10030    2    1    2    0    0  0.00000000000E+00  0.00000000000E+00 -0.96529224236E+03  0.30926001451E+04  0.29380923308E+04 0.  0.
        2    1    3    3  502    0 -0.83162391987E+03 -0.14278520217E+03 -0.17484286555E+04  0.19413883489E+04  0.25500000920E-02 0. -1.
       -2    1    3    3    0  502  0.83162391987E+03  0.14278520217E+03  0.78313641314E+03  0.11512117962E+04  0.25500000920E-02 0.  1.
</event>
<event>
 5   0  0.2552990E-06  0.2962397E+04  0.7818609E-02  0.8254551E-01
        1   -1    0    0  501    0  0.00000000000E+00  0.00000000000E+00  0.22345886930E+04  0.22345886930E+04  0.50400001928E-02 0.  1.
       -1   -1    0    0    0  501  0.00000000000E+00  0.00000000000E+00 -0.98181322682E+03  0.98181322683E+03  0.50400001928E-02 0. -1.
    10030    2    1    2    0    0  0.00000000000E+00  0.00000000000E+00  0.12527754662E+04  0.32164019199E+04  0.29623968238E+04 0.  0.
        3    1    3    3  502    0 -0.14202740263E+02 -0.12664259620E+04  0.14603008429E+04  0.19330067246E+04  0.10100000352E+00 0.  1.
       -3    1    3    3    0  502  0.14202740263E+02  0.12664259620E+04 -0.20752537672E+03  0.12833951953E+04  0.10100000352E+00 0. -1.
</event>
<event>
 5   0  0.2552990E-06  0.2969141E+04  0.7818609E-02  0.8252598E-01
        1   -1    0    0  501    0  0.00000000000E+00  0.00000000000E+00  0.13424181807E+04  0.13424181807E+04  0.50400001928E-02 0.  1.
       -1   -1    0    0    0  501  0.00000000000E+00  0.00000000000E+00 -0.16417758724E+04  0.16417758724E+04  0.50400001928E-02 0. -1.
    10030    2    1    2    0    0  0.00000000000E+00  0.00000000000E+00 -0.29935769170E+03  0.29841940530E+04  0.29691411416E+04 0.  0.
        3    1    3    3  502    0  0.93727536107E+03  0.11126751554E+04 -0.44684428870E+03  0.15219070052E+04  0.10100000352E+00 0.  1.
       -3    1    3    3    0  502 -0.93727536107E+03 -0.11126751554E+04  0.14748659700E+03  0.14622870479E+04  0.10100000352E+00 0. -1.
</event>
<event>
 5   0  0.2628425E-06  0.2966159E+04  0.7818609E-02  0.8253461E-01
        1   -1    0    0  501    0  0.00000000000E+00  0.00000000000E+00  0.24603471326E+04  0.24603471326E+04  0.50400001928E-02 0.  1.
       -1   -1    0    0    0  501  0.00000000000E+00  0.00000000000E+00 -0.89398986633E+03  0.89398986634E+03  0.50400001928E-02 0. -1.
    10030    2    1    2    0    0  0.00000000000E+00  0.00000000000E+00  0.15663572663E+04  0.33543369989E+04  0.29661594052E+04 0.  0.
        1    1    3    3  502    0 -0.13423453916E+04 -0.24028541080E+03  0.14424830473E+04  0.19850404456E+04  0.50400001928E-02 0.  1.
       -1    1    3    3    0  502  0.13423453916E+04  0.24028541080E+03  0.12387421897E+03  0.13692965534E+04  0.50400001928E-02 0. -1.
</event>
<event>
 5   0  0.7201538E-06  0.2997474E+04  0.7818609E-02  0.8244453E-01
       -2   -1    0    0    0  501  0.00000000000E+00  0.00000000000E+00  0.14727115678E+04  0.14727115678E+04  0.25500000920E-02 0. -1.
        2   -1    0    0  501    0  0.00000000000E+00  0.00000000000E+00 -0.15252220849E+04  0.15252220849E+04  0.25500000920E-02 0.  1.
    10030    2    1    2    0    0  0.00000000000E+00  0.00000000000E+00 -0.52510517034E+02  0.29979336527E+04  0.29974737416E+04 0.  0.
        3    1    3    3  502    0  0.50357510294E+03  0.10722096206E+04 -0.94454145995E+03  0.15150511327E+04  0.10100000352E+00 0.  1.
       -3    1    3    3    0  502 -0.50357510294E+03 -0.10722096206E+04  0.89203094291E+03  0.14828825200E+04  0.10100000352E+00 0. -1.
</event>
<event>
 5   0  0.2298500E-06  0.2968213E+04  0.7818609E-02  0.8252866E-01
        3   -1    0    0  501    0  0.00000000000E+00  0.00000000000E+00  0.25262722074E+04  0.25262722094E+04  0.10100000352E+00 0. -1.
       -3   -1    0    0    0  501  0.00000000000E+00  0.00000000000E+00 -0.87186661752E+03  0.87186662337E+03  0.10100000352E+00 0.  1.
    10030    2    1    2    0    0  0.00000000000E+00  0.00000000000E+00  0.16544055898E+04  0.33981388327E+04  0.29682132118E+04 0.  0.
        3    1    3    3  502    0 -0.97934312515E+03 -0.48818366761E+03 -0.32057672793E+03  0.11402656264E+04  0.10100000352E+00 0.  1.
       -3    1    3    3    0  502  0.97934312515E+03  0.48818366761E+03  0.19749823178E+04  0.22578732063E+04  0.10100000352E+00 0. -1.
</event>
<event>
 5   0  0.7201538E-06  0.2982955E+04  0.7818609E-02  0.8248615E-01
        2   -1    0    0  501    0  0.00000000000E+00  0.00000000000E+00  0.23451716086E+04  0.23451716086E+04  0.25500000920E-02 0. -1.
       -2   -1    0    0    0  501  0.00000000000E+00  0.00000000000E+00 -0.94854673550E+03  0.94854673550E+03  0.25500000920E-02 0.  1.
    10030    2    1    2    0    0  0.00000000000E+00  0.00000000000E+00  0.13966248731E+04  0.32937183441E+04  0.29829548260E+04 0.  0.
        3    1    3    3  502    0 -0.19840800963E+03 -0.62641596996E+03 -0.78011052094E+03  0.10199682058E+04  0.10100000352E+00 0.  1.
       -3    1    3    3    0  502  0.19840800963E+03  0.62641596996E+03  0.21767353940E+04  0.22737501383E+04  0.10100000352E+00 0. -1.
</event>
<event>
 5   0  0.6780150E-06  0.2971106E+04  0.7818609E-02  0.8252030E-01
       -2   -1    0    0    0  501  0.00000000000E+00  0.00000000000E+00  0.12363031034E+04  0.12363031034E+04  0.25500000920E-02 0.  1.
        2   -1    0    0  501    0  0.00000000000E+00  0.00000000000E+00 -0.17850537308E+04  0.17850537308E+04  0.25500000920E-02 0. -1.
    10030    2    1    2    0    0  0.00000000000E+00  0.00000000000E+00 -0.54875062734E+03  0.30213568342E+04  0.29711058326E+04 0.  0.
        5    1    3    3  502    0  0.30967593085E+02  0.44080300546E+03 -0.17166648580E+04  0.17726326766E+04  0.46999998093E+01 0. -1.
       -5    1    3    3    0  502 -0.30967593085E+02 -0.44080300546E+03  0.11679142307E+04  0.12487241576E+04  0.46999998093E+01 0.  1.
</event>
<event>
 5   0  0.2422083E-06  0.2994564E+04  0.7818609E-02  0.8245285E-01
       -1   -1    0    0    0  501  0.00000000000E+00  0.00000000000E+00  0.13358124618E+04  0.13358124618E+04  0.50400001928E-02 0. -1.
        1   -1    0    0  501    0  0.00000000000E+00  0.00000000000E+00 -0.16782694538E+04  0.16782694538E+04  0.50400001928E-02 0.  1.
    10030    2    1    2    0    0  0.00000000000E+00  0.00000000000E+00 -0.34245699193E+03  0.30140819156E+04  0.29945639086E+04 0.  0.
        2    1    3    3  502    0  0.40353867574E+03  0.11666531708E+04  0.68160169508E+03  0.14101432390E+04  0.25500000920E-02 0. -1.
       -2    1    3    3    0  502 -0.40353867574E+03 -0.11666531708E+04 -0.10240586870E+04  0.16039386766E+04  0.25500000920E-02 0.  1.
</event>
<event>
 5   0  0.2504260E-06  0.3029678E+04  0.7818609E-02  0.8235307E-01
       -1   -1    0    0    0  501  0.00000000000E+00  0.00000000000E+00  0.11793792188E+04  0.11793792188E+04  0.50400001928E-02 0.  1.
        1   -1    0    0  501    0  0.00000000000E+00  0.00000000000E+00 -0.19457161813E+04  0.19457161813E+04  0.50400001928E-02 0. -1.
    10030    2    1    2    0    0  0.00000000000E+00  0.00000000000E+00 -0.76633696250E+03  0.31250954001E+04  0.30296780224E+04 0.  0.
        4    1    3    3  502    0 -0.25251166337E+03 -0.81149243190E+02 -0.19215785085E+04  0.19397971329E+04  0.12699999809E+01 0. -1.
       -4    1    3    3    0  502  0.25251166337E+03  0.81149243190E+02  0.11552415460E+04  0.11852982672E+04  0.12699999809E+01 0.  1.
</event>
<event>
 5   0  0.6792811E-06  0.3054509E+04  0.7818609E-02  0.8228335E-01
        2   -1    0    0  501    0  0.00000000000E+00  0.00000000000E+00  0.14819651366E+04  0.14819651366E+04  0.25500000920E-02 0.  1.
       -2   -1    0    0    0  501  0.00000000000E+00  0.00000000000E+00 -0.15739276292E+04  0.15739276292E+04  0.25500000920E-02 0. -1.
    10030    2    1    2    0    0  0.00000000000E+00  0.00000000000E+00 -0.91962492613E+02  0.30558927658E+04  0.30545087160E+04 0.  0.
        2    1    3    3  502    0  0.77857261506E+03 -0.28230021571E+03 -0.13297762930E+04  0.15665802623E+04  0.25500000920E-02 0. -1.
       -2    1    3    3    0  502 -0.77857261506E+03  0.28230021571E+03  0.12378138004E+04  0.14893125035E+04  0.25500000920E-02 0.  1.
</event>
<event>
 5   0  0.7201538E-06  0.3041220E+04  0.7818609E-02  0.8232057E-01
        2   -1    0    0  501    0  0.00000000000E+00  0.00000000000E+00  0.22678992715E+04  0.22678992715E+04  0.25500000920E-02 0. -1.
       -2   -1    0    0    0  501  0.00000000000E+00  0.00000000000E+00 -0.10195576899E+04  0.10195576899E+04  0.25500000920E-02 0.  1.
    10030    2    1    2    0    0  0.00000000000E+00  0.00000000000E+00  0.12483415816E+04  0.32874569614E+04  0.30412195857E+04 0.  0.
        3    1    3    3  502    0  0.52825009767E+03  0.12953829069E+04 -0.20060932281E+02  0.13990952406E+04  0.10100000352E+00 0.  1.
       -3    1    3    3    0  502 -0.52825009767E+03 -0.12953829069E+04  0.12684025139E+04  0.18883617208E+04  0.10100000352E+00 0. -1.
</event>
<event>
 5   0  0.2628425E-06  0.2838201E+04  0.7818609E-02  0.8291506E-01
       -1   -1    0    0    0  501  0.00000000000E+00  0.00000000000E+00  0.97996442701E+03  0.97996442702E+03  0.50400001928E-02 0. -1.
        1   -1    0    0  501    0  0.00000000000E+00  0.00000000000E+00 -0.20550195356E+04  0.20550195356E+04  0.50400001928E-02 0.  1.
    10030    2    1    2    0    0  0.00000000000E+00  0.00000000000E+00 -0.10750551086E+04  0.30349839626E+04  0.28382008680E+04 0.  0.
        1    1    3    3  502    0  0.55360630749E+03  0.34401156107E+03  0.81043629986E+03  0.10400148528E+04  0.50400001928E-02 0. -1.
       -1    1    3    3    0  502 -0.55360630749E+03 -0.34401156107E+03 -0.18854914085E+04  0.19949691099E+04  0.50400001928E-02 0.  1.
</event>
<event>
 5   0  0.6780150E-06  0.2947637E+04  0.7818609E-02  0.8258843E-01
        2   -1    0    0  501    0  0.00000000000E+00  0.00000000000E+00  0.17901061435E+04  0.17901061435E+04  0.25500000920E-02 0.  1.
       -2   -1    0    0    0  501  0.00000000000E+00  0.00000000000E+00 -0.12134148816E+04  0.12134148816E+04  0.25500000920E-02 0. -1.
    10030    2    1    2    0    0  0.00000000000E+00  0.00000000000E+00  0.57669126184E+03  0.30035210251E+04  0.29476373143E+04 0.  0.
        5    1    3    3  502    0 -0.28479639596E+03  0.13113835010E+04 -0.33253706340E+03  0.13825478880E+04  0.46999998093E+01 0. -1.
       -5    1    3    3    0  502  0.28479639596E+03 -0.13113835010E+04  0.90922832524E+03  0.16209731372E+04  0.46999998093E+01 0.  1.
</event>
<event>
 5   0  0.2504260E-06  0.2835884E+04  0.7818609E-02  0.8292214E-01
       -1   -1    0    0    0  501  0.00000000000E+00  0.00000000000E+00  0.15417706171E+04  0.15417706171E+04  0.50400001928E-02 0.  1.
        1   -1    0    0  501    0  0.00000000000E+00  0.00000000000E+00 -0.13040586497E+04  0.13040586497E+04  0.50400001928E-02 0. -1.
    10030    2    1    2    0    0  0.00000000000E+00  0.00000000000E+00  0.23771196739E+03  0.28458292668E+04  0.28358838545E+04 0.  0.
        4    1    3    3  502    0 -0.34962727631E+03  0.41092568520E+03 -0.11970239256E+04  0.13129992545E+04  0.12699999809E+01 0. -1.
       -4    1    3    3    0  502  0.34962727631E+03 -0.41092568520E+03  0.14347358930E+04  0.15328300123E+04  0.12699999809E+01 0.  1.
</event>
<event>
 5   0  0.2672155E-06  0.3344545E+04  0.7818609E-02  0.8151653E-01
       -1   -1    0    0    0  501  0.00000000000E+00  0.00000000000E+00  0.16459942580E+04  0.16459942580E+04  0.50400001928E-02 0.  1.
        1   -1    0    0  501    0  0.00000000000E+00  0.00000000000E+00 -0.16989699736E+04  0.16989699736E+04  0.50400001928E-02 0. -1.
    10030    2    1    2    0    0  0.00000000000E+00  0.00000000000E+00 -0.52975715612E+02  0.33449642316E+04  0.33445447051E+04 0.  0.
        5    1    3    3  502    0  0.11987542890E+04 -0.50203019532E+03 -0.10789632297E+04  0.16891506456E+04  0.46999998093E+01 0. -1.
       -5    1    3    3    0  502 -0.11987542890E+04  0.50203019532E+03  0.10259875141E+04  0.16558135860E+04  0.46999998093E+01 0.  1.
</event>
<event>
 5   0  0.6792811E-06  0.3018198E+04  0.7818609E-02  0.8238553E-01
        2   -1    0    0  501    0  0.00000000000E+00  0.00000000000E+00  0.22138725219E+04  0.22138725219E+04  0.25500000920E-02 0.  1.
       -2   -1    0    0    0  501  0.00000000000E+00  0.00000000000E+00 -0.10286862606E+04  0.10286862606E+04  0.25500000920E-02 0. -1.
    10030    2    1    2    0    0  0.00000000000E+00  0.00000000000E+00  0.11851862613E+04  0.32425587825E+04  0.30181983010E+04 0.  0.
        2    1    3    3  502    0  0.32436565210E+03 -0.98019507183E+03  0.17750386664E+04  0.20534745487E+04  0.25500000920E-02 0.  1.
       -2    1    3    3    0  502 -0.32436565210E+03  0.98019507183E+03 -0.58985240513E+03  0.11890842338E+04  0.25500000920E-02 0. -1.
</event>
<event>
 5   0  0.2628425E-06  0.3029681E+04  0.7818609E-02  0.8235306E-01
        1   -1    0    0  501    0  0.00000000000E+00  0.00000000000E+00  0.21464894051E+04  0.21464894051E+04  0.50400001928E-02 0. -1.
       -1   -1    0    0    0  501  0.00000000000E+00  0.00000000000E+00 -0.10690670359E+04  0.10690670360E+04  0.50400001928E-02 0.  1.
    10030    2    1    2    0    0  0.00000000000E+00  0.00000000000E+00  0.10774223692E+04  0.32155564411E+04  0.30296805548E+04 0.  0.
        1    1    3    3  502    0 -0.16445792572E+03 -0.11002478600E+04  0.16299692369E+04  0.19734212617E+04  0.50400001928E-02 0. -1.
       -1    1    3    3    0  502  0.16445792572E+03  0.11002478600E+04 -0.55254686770E+03  0.12421351794E+04  0.50400001928E-02 0.  1.
</event>
<event>
 5   0  0.2422083E-06  0.3000365E+04  0.7818609E-02  0.8243627E-01
        1   -1    0    0  501    0  0.00000000000E+00  0.00000000000E+00  0.88129962476E+03  0.88129962477E+03  0.50400001928E-02 0. -1.
       -1   -1    0    0    0  501  0.00000000000E+00  0.00000000000E+00 -0.25536685583E+04  0.25536685583E+04  0.50400001928E-02 0.  1.
    10030    2    1    2    0    0  0.00000000000E+00  0.00000000000E+00 -0.16723689335E+04  0.34349681830E+04  0.30003647393E+04 0.  0.
        2    1    3    3  502    0 -0.65780175408E+03  0.11687554027E+04 -0.16057544455E+04  0.20921614847E+04  0.25500000920E-02 0.  1.
       -2    1    3    3    0  502  0.65780175408E+03 -0.11687554027E+04 -0.66614487984E+02  0.13428066983E+04  0.25500000920E-02 0. -1.
</event>
<event>
 5   0  0.6780150E-06  0.2976823E+04  0.7818609E-02  0.8250380E-01
        2   -1    0    0  501    0  0.00000000000E+00  0.00000000000E+00  0.79317430090E+03  0.79317430091E+03  0.25500000920E-02 0. -1.
       -2   -1    0    0    0  501  0.00000000000E+00  0.00000000000E+00 -0.27930420748E+04  0.27930420748E+04  0.25500000920E-02 0.  1.
    10030    2    1    2    0    0  0.00000000000E+00  0.00000000000E+00 -0.19998677739E+04  0.35862163757E+04  0.29768232699E+04 0.  0.
        5    1    3    3  502    0 -0.10765744085E+04 -0.10127457226E+04 -0.12109503882E+04  0.19107823760E+04  0.46999998093E+01 0.  1.
       -5    1    3    3    0  502  0.10765744085E+04  0.10127457226E+04 -0.78891738569E+03  0.16754339997E+04  0.46999998093E+01 0. -1.
</event>
<event>
 5   0  0.7193153E-06  0.2899183E+04  0.7818609E-02  0.8273121E-01
        2   -1    0    0  501    0  0.00000000000E+00  0.00000000000E+00  0.12172607786E+04  0.12172607786E+04  0.25500000920E-02 0. -1.
       -2   -1    0    0    0  501  0.00000000000E+00  0.00000000000E+00 -0.17262653677E+04  0.17262653677E+04  0.25500000920E-02 0.  1.
    10030    2    1    2    0    0  0.00000000000E+00  0.00000000000E+00 -0.50900458905E+03  0.29435261463E+04  0.28991827300E+04 0.  0.
        4    1    3    3  502    0  0.10403931475E+04  0.97089487770E+02 -0.12745931500E+04  0.16481606660E+04  0.12699999809E+01 0.  1.
       -4    1    3    3    0  502 -0.10403931475E+04 -0.97089487770E+02  0.76558856092E+03  0.12953654803E+04  0.12699999809E+01 0. -1.
</event>
<event>
 5   0  0.2422083E-06  0.2980199E+04  0.7818609E-02  0.8249408E-01
        1   -1    0    0  501    0  0.00000000000E+00  0.00000000000E+00  0.14514146255E+04  0.14514146255E+04  0.50400001928E-02 0.  1.
       -1   -1    0    0    0  501  0.00000000000E+00  0.00000000000E+00 -0.15298159277E+04  0.15298159277E+04  0.50400001928E-02 0. -1.
    10030    2    1    2    0    0  0.00000000000E+00  0.00000000000E+00 -0.78401302205E+02  0.29812305532E+04  0.29801994643E+04 0.  0.
        2    1    3    3  502    0  0.13835697316E+04  0.15212354335E+03 -0.57135315652E+03  0.15046099840E+04  0.25500000920E-02 0. -1.
       -2    1    3    3    0  502 -0.13835697316E+04 -0.15212354335E+03  0.49295185432E+03  0.14766205691E+04  0.25500000920E-02 0.  1.
</event>
<event>
 5   0  0.2552990E-06  0.3090997E+04  0.7818609E-02  0.8218213E-01
       -1   -1    0    0    0  501  0.00000000000E+00  0.00000000000E+00  0.11170955384E+04  0.11170955384E+04  0.50400001928E-02 0. -1.
        1   -1    0    0  501    0  0.00000000000E+00  0.00000000000E+00 -0.21381934191E+04  0.21381934191E+04  0.50400001928E-02 0.  1.
    10030    2    1    2    0    0  0.00000000000E+00  0.00000000000E+00 -0.10210978807E+04  0.32552889576E+04  0.30909974628E+04 0.  0.
        3    1    3    3  502    0 -0.13240629434E+03 -0.14022772637E+04  0.15938576396E+03  0.14175037153E+04  0.10100000352E+00 0. -1.
       -3    1    3    3    0  502  0.13240629434E+03  0.14022772637E+04 -0.11804836447E+04  0.18377852422E+04  0.10100000352E+00 0.  1.
</event>
<event>
 5   0  0.2422083E-06  0.2992300E+04  0.7818609E-02  0.8245933E-01
        1   -1    0    0  501    0  0.00000000000E+00  0.00000000000E+00  0.19361617361E+04  0.19361617361E+04  0.50400001928E-02 0. -1.
       -1   -1    0    0    0  501  0.00000000000E+00  0.00000000000E+00 -0.11561354734E+04  0.11561354734E+04  0.50400001928E-02 0.  1.
    10030    2    1    2    0    0  0.00000000000E+00  0.00000000000E+00  0.78002626266E+03  0.30922972095E+04  0.29923002960E+04 0.  0.
        2    1    3    3  502    0  0.11182403741E+04  0.47142760564E+03 -0.51430724965E+03  0.13180354580E+04  0.25500000920E-02 0.  1.
       -2    1    3    3    0  502 -0.11182403741E+04 -0.47142760564E+03  0.12943335123E+04  0.17742617515E+04  0.25500000920E-02 0. -1.
</event>
<event>
 5   0  0.7201538E-06  0.2997426E+04  0.7818609E-02  0.8244466E-01
        2   -1    0    0  501    0  0.00000000000E+00  0.00000000000E+00  0.17408778963E+04  0.17408778963E+04  0.25500000920E-02 0.  1.
       -2   -1    0    0    0  501  0.00000000000E+00  0.00000000000E+00 -0.12902342715E+04  0.12902342715E+04  0.25500000920E-02 0. -1.
    10030    2    1    2    0    0  0.00000000000E+00  0.00000000000E+00  0.45064362478E+03  0.30311121678E+04  0.29974257784E+04 0.  0.
        3    1    3    3  502    0 -0.46510354049E+03 -0.82391007979E+03 -0.95006233386E+03  0.13408085514E+04  0.10100000352E+00 0. -1.
       -3    1    3    3    0  502  0.46510354049E+03  0.82391007979E+03  0.14007059586E+04  0.16903036164E+04  0.10100000352E+00 0.  1.
</event>
<event>
 5   0  0.2298500E-06  0.2981091E+04  0.7818609E-02  0.8249151E-01
        3   -1    0    0  501    0  0.00000000000E+00  0.00000000000E+00  0.27804231765E+04  0.27804231783E+04  0.10100000352E+00 0. -1.
       -3   -1    0    0    0  501  0.00000000000E+00  0.00000000000E+00 -0.79906029123E+03  0.79906029762E+03  0.10100000352E+00 0.  1.
    10030    2    1    2    0    0  0.00000000000E+00  0.00000000000E+00  0.19813628853E+04  0.35794834759E+04  0.29810909197E+04 0.  0.
        4    1    3    3  502    0  0.13370494117E+04  0.59522204692E+03  0.65162952157E+03  0.16020652486E+04  0.12699999809E+01 0.  1.
       -4    1    3    3    0  502 -0.13370494117E+04 -0.59522204692E+03  0.13297333637E+04  0.19774182273E+04  0.12699999809E+01 0. -1.
</event>
<event>
 5   0  0.2504260E-06  0.2982142E+04  0.7818609E-02  0.8248849E-01
        1   -1    0    0  501    0  0.00000000000E+00  0.00000000000E+00  0.11312495256E+04  0.11312495256E+04  0.50400001928E-02 0. -1.
       -1   -1    0    0    0  501  0.00000000000E+00  0.00000000000E+00 -0.19653430387E+04  0.19653430387E+04  0.50400001928E-02 0.  1.
    10030    2    1    2    0    0  0.00000000000E+00  0.00000000000E+00 -0.83409351308E+03  0.30965925643E+04  0.29821424380E+04 0.  0.
        4    1    3    3  502    0 -0.99757984853E+03  0.11079636800E+04 -0.44123667121E+03  0.15548120411E+04  0.12699999809E+01 0.  1.
       -4    1    3    3    0  502  0.99757984853E+03 -0.11079636800E+04 -0.39285684187E+03  0.15417805231E+04  0.12699999809E+01 0. -1.
</event>
<event>
 5   0  0.2552990E-06  0.2949120E+04  0.7818609E-02  0.8258411E-01
        1   -1    0    0  501    0  0.00000000000E+00  0.00000000000E+00  0.18714327768E+04  0.18714327768E+04  0.50400001928E-02 0.  1.
       -1   -1    0    0    0  501  0.00000000000E+00  0.00000000000E+00 -0.11618519322E+04  0.11618519322E+04  0.50400001928E-02 0. -1.
    10030    2    1    2    0    0  0.00000000000E+00  0.00000000000E+00  0.70958084465E+03  0.30332847090E+04  0.29491204029E+04 0.  0.
        3    1    3    3  502    0 -0.13628137959E+03 -0.77731063586E+03 -0.92636738520E+03  0.12169391857E+04  0.10100000352E+00 0. -1.
       -3    1    3    3    0  502  0.13628137959E+03  0.77731063586E+03  0.16359482299E+04  0.18163455233E+04  0.10100000352E+00 0.  1.
</event>
<event>
 5   0  0.7217255E-06  0.2778122E+04  0.7818609E-02  0.8310093E-01
       -2   -1    0    0    0  501  0.00000000000E+00  0.00000000000E+00  0.11800364665E+04  0.11800364665E+04  0.25500000920E-02 0.  1.
        2   -1    0    0  501    0  0.00000000000E+00  0.00000000000E+00 -0.16351112168E+04  0.16351112168E+04  0.25500000920E-02 0. -1.
    10030    2    1    2    0    0  0.00000000000E+00  0.00000000000E+00 -0.45507475032E+03  0.28151476834E+04  0.27781222887E+04 0.  0.
        1    1    3    3  502    0 -0.24394311992E+03  0.85139174839E+03  0.85682470134E+03  0.12322843519E+04  0.50400001928E-02 0.  1.
       -1    1    3    3    0  502  0.24394311992E+03 -0.85139174839E+03 -0.13118994517E+04  0.15828633315E+04  0.50400001928E-02 0. -1.
</event>
<event>
 5   0  0.2628425E-06  0.2937462E+04  0.7818609E-02  0.8261818E-01
        1   -1    0    0  501    0  0.00000000000E+00  0.00000000000E+00  0.17659365967E+04  0.17659365967E+04  0.50400001928E-02 0.  1.
       -1   -1    0    0    0  501  0.00000000000E+00  0.00000000000E+00 -0.12215450123E+04  0.12215450123E+04  0.50400001928E-02 0. -1.
    10030    2    1    2    0    0  0.00000000000E+00  0.00000000000E+00  0.54439158436E+03  0.29874816090E+04  0.29374621983E+04 0.  0.
        1    1    3    3  502    0  0.31078248705E+03 -0.58039603550E+03 -0.10630678878E+04  0.12504233869E+04  0.50400001928E-02 0. -1.
       -1    1    3    3    0  502 -0.31078248705E+03  0.58039603550E+03  0.16074594722E+04  0.17370582221E+04  0.50400001928E-02 0.  1.
</event>
<event>
 5   0  0.7201538E-06  0.2564003E+04  0.7818609E-02  0.8380532E-01
        2   -1    0    0  501    0  0.00000000000E+00  0.00000000000E+00  0.17676837908E+04  0.17676837908E+04  0.25500000920E-02 0.  1.
       -2   -1    0    0    0  501  0.00000000000E+00  0.00000000000E+00 -0.92976327985E+03  0.92976327986E+03  0.25500000920E-02 0. -1.
    10030    2    1    2    0    0  0.00000000000E+00  0.00000000000E+00  0.83792051098E+03  0.26974470707E+04  0.25640027138E+04 0.  0.
        3    1    3    3  502    0 -0.62181261659E+03  0.11180016124E+04  0.33126148102E+03  0.13214812577E+04  0.10100000352E+00 0. -1.
       -3    1    3    3    0  502  0.62181261659E+03 -0.11180016124E+04  0.50665902996E+03  0.13759658130E+04  0.10100000352E+00 0.  1.
</event>
<event>
 5   0  0.7201538E-06  0.3012786E+04  0.7818609E-02  0.8240089E-01
        2   -1    0    0  501    0  0.00000000000E+00  0.00000000000E+00  0.14545647997E+04  0.14545647997E+04  0.25500000920E-02 0.  1.
       -2   -1    0    0    0  501  0.00000000000E+00  0.00000000000E+00 -0.15600675436E+04  0.15600675436E+04  0.25500000920E-02 0. -1.
    10030    2    1    2    0    0  0.00000000000E+00  0.00000000000E+00 -0.10550274396E+03  0.30146323433E+04  0.30127856440E+04 0.  0.
        3    1    3    3  502    0  0.86776771306E+03 -0.10809115710E+04 -0.64288291030E+03  0.15279689377E+04  0.10100000352E+00 0. -1.
       -3    1    3    3    0  502 -0.86776771306E+03  0.10809115710E+04  0.53738016634E+03  0.14866634056E+04  0.10100000352E+00 0.  1.
</event>
<event>
 5   0  0.7193153E-06  0.3001786E+04  0.7818609E-02  0.8243221E-01
       -2   -1    0    0    0  501  0.00000000000E+00  0.00000000000E+00  0.79553435171E+03  0.79553435171E+03  0.25500000920E-02 0.  1.
        2   -1    0    0  501    0  0.00000000000E+00  0.00000000000E+00 -0.28316559784E+04  0.28316559784E+04  0.25500000920E-02 0. -1.
    10030    2    1    2    0    0  0.00000000000E+00  0.00000000000E+00 -0.20361216267E+04  0.36271903301E+04  0.30017858705E+04 0.  0.
        4    1    3    3  502    0  0.28585673465E+03 -0.12919468485E+03 -0.27916007400E+04  0.28091709887E+04  0.12699999809E+01 0. -1.
       -4    1    3    3    0  502 -0.28585673465E+03  0.12919468485E+03  0.75547911332E+03  0.81801934139E+03  0.12699999809E+01 0.  1.
</event>
<event>
 5   0  0.2552990E-06  0.2878548E+04  0.7818609E-02  0.8279289E-01
       -1   -1    0    0    0  501  0.00000000000E+00  0.00000000000E+00  0.15805988541E+04  0.15805988541E+04  0.50400001928E-02 0. -1.
        1   -1    0    0  501    0  0.00000000000E+00  0.00000000000E+00 -0.13105849593E+04  0.13105849593E+04  0.50400001928E-02 0.  1.
    10030    2    1    2    0    0  0.00000000000E+00  0.00000000000E+00  0.27001389477E+03  0.28911838133E+04  0.28785476093E+04 0.  0.
        3    1    3    3  502    0 -0.59240119297E+03 -0.11534885263E+04  0.76227560472E+03  0.15041738801E+04  0.10100000352E+00 0.  1.
       -3    1    3    3    0  502  0.59240119297E+03  0.11534885263E+04 -0.49226170994E+03  0.13870099333E+04  0.10100000352E+00 0. -1.
</event>
<event>
 5   0  0.7193153E-06  0.2970046E+04  0.7818609E-02  0.8252337E-01
       -2   -1    0    0    0  501  0.00000000000E+00  0.00000000000E+00  0.15005464054E+04  0.15005464054E+04  0.25500000920E-02 0.  1.
        2   -1    0    0  501    0  0.00000000000E+00  0.00000000000E+00 -0.14696598689E+04  0.14696598689E+04  0.25500000920E-02 0. -1.
    10030    2    1    2    0    0  0.00000000000E+00  0.00000000000E+00  0.30886536476E+02  0.29702062743E+04  0.29700456787E+04 0.  0.
        4    1    3    3  502    0 -0.18974051652E+03 -0.63515622611E+03  0.13443741534E+04  0.14989224037E+04  0.12699999809E+01 0.  1.
       -4    1    3    3    0  502  0.18974051652E+03  0.63515622611E+03 -0.13134876169E+04  0.14712838706E+04  0.12699999809E+01 0. -1.
</event>
<event>
 5   0  0.2672155E-06  0.2350972E+04  0.7818609E-02  0.8458090E-01
       -1   -1    0    0    0  501  0.00000000000E+00  0.00000000000E+00  0.63760799585E+03  0.63760799587E+03  0.50400001928E-02 0. -1.
        1   -1    0    0  501    0  0.00000000000E+00  0.00000000000E+00 -0.21671107757E+04  0.21671107757E+04  0.50400001928E-02 0.  1.
    10030    2    1    2    0    0  0.00000000000E+00  0.00000000000E+00 -0.15295027798E+04  0.28047187715E+04  0.23509718488E+04 0.  0.
        5    1    3    3  502    0 -0.87808879949E+03 -0.27854531461E+03 -0.16358221132E+04  0.18773820890E+04  0.46999998093E+01 0.  1.
       -5    1    3    3    0  502  0.87808879949E+03  0.27854531461E+03  0.10631933341E+03  0.92733668251E+03  0.46999998093E+01 0. -1.
</event>
<event>
 5   0  0.7217255E-06  0.2962378E+04  0.7818609E-02  0.8254556E-01
        2   -1    0    0  501    0  0.00000000000E+00  0.00000000000E+00  0.20849715453E+04  0.20849715453E+04  0.25500000920E-02 0. -1.
       -2   -1    0    0    0  501  0.00000000000E+00  0.00000000000E+00 -0.10522548834E+04  0.10522548834E+04  0.25500000920E-02 0.  1.
    10030    2    1    2    0    0  0.00000000000E+00  0.00000000000E+00  0.10327166619E+04  0.31372264287E+04  0.29623784298E+04 0.  0.
        1    1    3    3  502    0 -0.11457659832E+04  0.13519748617E+03 -0.46737268089E+03  0.12447872394E+04  0.50400001928E-02 0.  1.
       -1    1    3    3    0  502  0.11457659832E+04 -0.13519748617E+03  0.15000893428E+04  0.18924391892E+04  0.50400001928E-02 0. -1.
</event>
<event>
 5   0  0.2422083E-06  0.3006591E+04  0.7818609E-02  0.8241851E-01
       -1   -1    0    0    0  501  0.00000000000E+00  0.00000000000E+00  0.11494945428E+04  0.11494945428E+04  0.50400001928E-02 0. -1.
        1   -1    0    0  501    0  0.00000000000E+00  0.00000000000E+00 -0.19659921281E+04  0.19659921281E+04  0.50400001928E-02 0.  1.
    10030    2    1    2    0    0  0.00000000000E+00  0.00000000000E+00 -0.81649758527E+03  0.31154866709E+04  0.30065909083E+04 0.  0.
        2    1    3    3  502    0  0.53970493800E+03 -0.12232849198E+04 -0.11202977613E+04  0.17443550353E+04  0.25500000920E-02 0.  1.
       -2    1    3    3    0  502 -0.53970493800E+03  0.12232849198E+04  0.30380017607E+03  0.13711316356E+04  0.25500000920E-02 0. -1.
</event>
<event>
 5   0  0.6780150E-06  0.3013816E+04  0.7818609E-02  0.8239796E-01
       -2   -1    0    0    0  501  0.00000000000E+00  0.00000000000E+00  0.13057183043E+04  0.13057183043E+04  0.25500000920E-02 0. -1.
        2   -1    0    0  501    0  0.00000000000E+00  0.00000000000E+00 -0.17390982414E+04  0.17390982414E+04  0.25500000920E-02 0.  1.
    10030    2    1    2    0    0  0.00000000000E+00  0.00000000000E+00 -0.43337993710E+03  0.30448165457E+04  0.30138164554E+04 0.  0.
        5    1    3    3  502    0 -0.13008819175E+04 -0.71903828089E+03 -0.46711152845E+03  0.15580516944E+04  0.46999998093E+01 0.  1.
       -5    1    3    3    0  502  0.13008819175E+04  0.71903828089E+03  0.33731591346E+02  0.14867648512E+04  0.46999998093E+01 0. -1.
</event>
<event>
 5   0  0.2552990E-06  0.3031654E+04  0.7818609E-02  0.8234749E-01
       -1   -1    0    0    0  501  0.00000000000E+00  0.00000000000E+00  0.16544520102E+04  0.16544520102E+04  0.50400001928E-02 0. -1.
        1   -1    0    0  501    0  0.00000000000E+00  0.00000000000E+00 -0.13888168091E+04  0.13888168091E+04  0.50400001928E-02 0.  1.
    10030    2    1    2    0    0  0.00000000000E+00  0.00000000000E+00  0.26563520115E+03  0.30432688193E+04  0.30316535169E+04 0.  0.
        3    1    3    3  502    0  0.14990503258E+04 -0.57328912228E+02  0.35111864936E+03  0.15406890665E+04  0.10100000352E+00 0. -1.
       -3    1    3    3    0  502 -0.14990503258E+04  0.57328912228E+02 -0.85483448205E+02  0.15025797528E+04  0.10100000352E+00 0.  1.
</event>
<event>
 5   0  0.2552990E-06  0.2272004E+04  0.7818609E-02  0.8489042E-01
        1   -1    0    0  501    0  0.00000000000E+00  0.00000000000E+00  0.11108449992E+04  0.11108449992E+04  0.50400001928E-02 0. -1.
       -1   -1    0    0    0  501  0.00000000000E+00  0.00000000000E+00 -0.11617283280E+04  0.11617283280E+04  0.50400001928E-02 0.  1.
    10030    2    1    2    0    0  0.00000000000E+00  0.00000000000E+00 -0.50883328790E+02  0.22725733272E+04  0.22720036123E+04 0.  0.
        3    1    3    3  502    0  0.11492206288E+02  0.40274731517E+03  0.10369746745E+04  0.11124989692E+04  0.10100000352E+00 0. -1.
       -3    1    3    3    0  502 -0.11492206288E+02 -0.40274731517E+03 -0.10878580033E+04  0.11600743580E+04  0.10100000352E+00 0.  1.
</event>
<event>
 5   0  0.2552990E-06  0.2997527E+04  0.7818609E-02  0.8244437E-01
        1   -1    0    0  501    0  0.00000000000E+00  0.00000000000E+00  0.20398761498E+04  0.20398761498E+04  0.50400001928E-02 0.  1.
       -1   -1    0    0    0  501  0.00000000000E+00  0.00000000000E+00 -0.11011907514E+04  0.11011907514E+04  0.50400001928E-02 0. -1.
    10030    2    1    2    0    0  0.00000000000E+00  0.00000000000E+00  0.93868539841E+03  0.31410669011E+04  0.29975274811E+04 0.  0.
        3    1    3    3  502    0  0.15720644337E+03 -0.13583468835E+04 -0.17361249647E+03  0.13783908847E+04  0.10100000352E+00 0. -1.
       -3    1    3    3    0  502 -0.15720644337E+03  0.13583468835E+04  0.11122978949E+04  0.17626760165E+04  0.10100000352E+00 0.  1.
</event>
<event>
 5   0  0.2422083E-06  0.3042361E+04  0.7818609E-02  0.8231737E-01
       -1   -1    0    0    0  501  0.00000000000E+00  0.00000000000E+00  0.10981339649E+04  0.10981339649E+04  0.50400001928E-02 0. -1.
        1   -1    0    0  501    0  0.00000000000E+00  0.00000000000E+00 -0.21072026080E+04  0.21072026080E+04  0.50400001928E-02 0.  1.
    10030    2    1    2    0    0  0.00000000000E+00  0.00000000000E+00 -0.10090686431E+04  0.32053365730E+04  0.30423614216E+04 0.  0.
        2    1    3    3  502    0 -0.58572009470E+03 -0.13681709568E+04 -0.17298486168E+03  0.14982935489E+04  0.25500000920E-02 0. -1.
       -2    1    3    3    0  502  0.58572009470E+03  0.13681709568E+04 -0.83608378145E+03  0.17070430240E+04  0.25500000920E-02 0.  1.
</event>
<event>
 5   0  0.2672155E-06  0.3032066E+04  0.7818609E-02  0.8234633E-01
       -1   -1    0    0    0  501  0.00000000000E+00  0.00000000000E+00  0.82869954737E+03  0.82869954738E+03  0.50400001928E-02 0.  1.
        1   -1    0    0  501    0  0.00000000000E+00  0.00000000000E+00 -0.27734492400E+04  0.27734492400E+04  0.50400001928E-02 0. -1.
    10030    2    1    2    0    0  0.00000000000E+00  0.00000000000E+00 -0.19447496926E+04  0.36021487874E+04  0.30320660480E+04 0.  0.
        5    1    3    3  502    0 -0.88376079345E+03 -0.82898520236E+03  0.11001603553E+03  0.12167067123E+04  0.46999998093E+01 0.  1.
       -5    1    3    3    0  502  0.88376079345E+03  0.82898520236E+03 -0.20547657282E+04  0.23854420750E+04  0.46999998093E+01 0. -1.
</event>
<event>
 5   0  0.6780150E-06  0.2955473E+04  0.7818609E-02  0.8256561E-01
       -2   -1    0    0    0  501  0.00000000000E+00  0.00000000000E+00  0.17914067725E+04  0.17914067725E+04  0.25500000920E-02 0. -1.
        2   -1    0    0  501    0  0.00000000000E+00  0.00000000000E+00 -0.12189887706E+04  0.12189887706E+04  0.25500000920E-02 0.  1.
    10030    2    1    2    0    0  0.00000000000E+00  0.00000000000E+00  0.57241800186E+03  0.30103955431E+04  0.29554727130E+04 0.  0.
        5    1    3    3  502    0 -0.93925809953E+03 -0.11350901233E+04  0.40255639544E+03  0.15273208920E+04  0.46999998093E+01 0. -1.
       -5    1    3    3    0  502  0.93925809953E+03  0.11350901233E+04  0.16986160642E+03  0.14830746511E+04  0.46999998093E+01 0.  1.
</event>
<event>
 5   0  0.2298500E-06  0.3031620E+04  0.7818609E-02  0.8234759E-01
       -3   -1    0    0    0  501  0.00000000000E+00  0.00000000000E+00  0.12763702065E+04  0.12763702105E+04  0.10100000352E+00 0.  1.
        3   -1    0    0  501    0  0.00000000000E+00  0.00000000000E+00 -0.18001679132E+04  0.18001679160E+04  0.10100000352E+00 0. -1.
    10030    2    1    2    0    0  0.00000000000E+00  0.00000000000E+00 -0.52379770669E+03  0.30765381264E+04  0.30316204917E+04 0.  0.
        4    1    3    3  502    0  0.40972054103E+03  0.14169060821E+04  0.92830383952E+02  0.14778744400E+04  0.12699999809E+01 0. -1.
       -4    1    3    3    0  502 -0.40972054103E+03 -0.14169060821E+04 -0.61662809064E+03  0.15986636865E+04  0.12699999809E+01 0.  1.
</event>
<event>
 5   0  0.7217255E-06  0.2999050E+04  0.7818609E-02  0.8244002E-01
       -2   -1    0    0    0  501  0.00000000000E+00  0.00000000000E+00  0.10545089227E+04  0.10545089227E+04  0.25500000920E-02 0. -1.
        2   -1    0    0  501    0  0.00000000000E+00  0.00000000000E+00 -0.21323434986E+04  0.21323434986E+04  0.25500000920E-02 0.  1.
    10030    2    1    2    0    0  0.00000000000E+00  0.00000000000E+00 -0.10778345759E+04  0.31868524213E+04  0.29990500133E+04 0.  0.
        1    1    3    3  502    0  0.94145976601E+03  0.51247086234E+03 -0.16532017578E+04  0.19702915844E+04  0.50400001928E-02 0.  1.
       -1    1    3    3    0  502 -0.94145976601E+03 -0.51247086234E+03  0.57536718191E+03  0.12165608369E+04  0.50400001928E-02 0. -1.
</event>
<event>
 5   0  0.2628425E-06  0.2994587E+04  0.7818609E-02  0.8245278E-01
       -1   -1    0    0    0  501  0.00000000000E+00  0.00000000000E+00  0.12670188283E+04  0.12670188283E+04  0.50400001928E-02 0. -1.
        1   -1    0    0  501    0  0.00000000000E+00  0.00000000000E+00 -0.17694197970E+04  0.17694197970E+04  0.50400001928E-02 0.  1.
    10030    2    1    2    0    0  0.00000000000E+00  0.00000000000E+00 -0.50240096864E+03  0.30364386253E+04  0.29945872490E+04 0.  0.
        1    1    3    3  502    0 -0.11215067587E+04 -0.27694880091E+03  0.71469325844E+03  0.13584051317E+04  0.50400001928E-02 0. -1.
       -1    1    3    3    0  502  0.11215067587E+04  0.27694880091E+03 -0.12170942271E+04  0.16780334936E+04  0.50400001928E-02 0.  1.
</event>
<event>
 5   0  0.7193153E-06  0.2966506E+04  0.7818609E-02  0.8253360E-01
       -2   -1    0    0    0  501  0.00000000000E+00  0.00000000000E+00  0.10529335753E+04  0.10529335753E+04  0.25500000920E-02 0.  1.
        2   -1    0    0  501    0  0.00000000000E+00  0.00000000000E+00 -0.20894380927E+04  0.20894380927E+04  0.25500000920E-02 0. -1.
    10030    2    1    2    0    0  0.00000000000E+00  0.00000000000E+00 -0.10365045174E+04  0.31423716681E+04  0.29665060401E+04 0.  0.
        4    1    3    3  502    0  0.13421545921E+04  0.61971512746E+03 -0.64629911860E+03  0.16134218146E+04  0.12699999809E+01 0. -1.
       -4    1    3    3    0  502 -0.13421545921E+04 -0.61971512746E+03 -0.39020539882E+03  0.15289498535E+04  0.12699999809E+01 0.  1.
</event>
<event>
 5   0  0.7201538E-06  0.2950021E+04  0.7818609E-02  0.8258148E-01
       -2   -1    0    0    0  501  0.00000000000E+00  0.00000000000E+00  0.17773238108E+04  0.17773238108E+04  0.25500000920E-02 0. -1.
        2   -1    0    0  501    0  0.00000000000E+00  0.00000000000E+00 -0.12241189491E+04  0.12241189491E+04  0.25500000920E-02 0.  1.
    10030    2    1    2    0    0  0.00000000000E+00  0.00000000000E+00  0.55320486169E+03  0.30014427599E+04  0.29500208511E+04 0.  0.
        3    1    3    3  502    0  0.11794254968E+04  0.12492570041E+03  0.11688174065E+04  0.16651681816E+04  0.10100000352E+00 0. -1.
       -3    1    3    3    0  502 -0.11794254968E+04 -0.12492570041E+03 -0.61561254478E+03  0.13362745783E+04  0.10100000352E+00 0.  1.
</event>
<event>
 5   0  0.2552990E-06  0.3011401E+04  0.7818609E-02  0.8240483E-01
       -1   -1    0    0    0  501  0.00000000000E+00  0.00000000000E+00  0.12311074139E+04  0.12311074139E+04  0.50400001928E-02 0.  1.
        1   -1    0    0  501    0  0.00000000000E+00  0.00000000000E+00 -0.18415404408E+04  0.18415404408E+04  0.50400001928E-02 0. -1.
    10030    2    1    2    0    0  0.00000000000E+00  0.00000000000E+00 -0.61043302692E+03  0.30726478547E+04  0.30114010624E+04 0.  0.
        3    1    3    3  502    0  0.11816331615E+04  0.93154138312E+03 -0.36209799682E+03  0.15476243880E+04  0.10100000352E+00 0. -1.
       -3    1    3    3    0  502 -0.11816331615E+04 -0.93154138312E+03 -0.24833503010E+03  0.15250234667E+04  0.10100000352E+00 0.  1.
</event>
<event>
 5   0  0.2672155E-06  0.2807480E+04  0.7818609E-02  0.8300950E-01
        1   -1    0    0  501    0  0.00000000000E+00  0.00000000000E+00  0.30132063824E+04  0.30132063824E+04  0.50400001928E-02 0.  1.
       -1   -1    0    0    0  501  0.00000000000E+00  0.00000000000E+00 -0.65394970267E+03  0.65394970269E+03  0.50400001928E-02 0. -1.
    10030    2    1    2    0    0  0.00000000000E+00  0.00000000000E+00  0.23592566797E+04  0.36671560851E+04  0.28074795941E+04 0.  0.
        5    1    3    3  502    0  0.71785887765E+03 -0.54157359680E+03 -0.22831749988E+03  0.92777923005E+03  0.46999998093E+01 0. -1.
       -5    1    3    3    0  502 -0.71785887765E+03  0.54157359680E+03  0.25875741796E+04  0.27393768550E+04  0.46999998093E+01 0.  1.
</event>
<event>
 5   0  0.2504260E-06  0.3021259E+04  0.7818609E-02  0.8237686E-01
       -1   -1    0    0    0  501  0.00000000000E+00  0.00000000000E+00  0.20218696481E+04  0.20218696481E+04  0.50400001928E-02 0.  1.
        1   -1    0    0  501    0  0.00000000000E+00  0.00000000000E+00 -0.11286592116E+04  0.11286592116E+04  0.50400001928E-02 0. -1.
    10030    2    1    2    0    0  0.00000000000E+00  0.00000000000E+00  0.89321043651E+03  0.31505288596E+04  0.30212592096E+04 0.  0.
        4    1    3    3  502    0  0.22683498389E+03 -0.71837334837E+03 -0.91880271789E+03  0.11881558925E+04  0.12699999809E+01 0. -1.
       -4    1    3    3    0  502 -0.22683498389E+03  0.71837334837E+03  0.18120131544E+04  0.19623729671E+04  0.12699999809E+01 0.  1.
</event>
<event>
 5   0  0.6780150E-06  0.3009431E+04  0.7818609E-02  0.8241043E-01
       -2   -1    0    0    0  501  0.00000000000E+00  0.00000000000E+00  0.20003457684E+04  0.20003457684E+04  0.25500000920E-02 0. -1.
        2   -1    0    0  501    0  0.00000000000E+00  0.00000000000E+00 -0.11318886835E+04  0.11318886835E+04  0.25500000920E-02 0.  1.
    10030    2    1    2    0    0  0.00000000000E+00  0.00000000000E+00  0.86845708488E+03  0.31322344518E+04  0.30094310015E+04 0.  0.
        5    1    3    3  502    0 -0.87488763284E+03  0.54591083373E+03  0.15747069355E+04  0.18823312756E+04  0.46999998093E+01 0. -1.
       -5    1    3    3    0  502  0.87488763284E+03 -0.54591083373E+03 -0.70624985060E+03  0.12499031762E+04  0.46999998093E+01 0.  1.
</event>
<event>
 5   0  0.6792811E-06  0.3014153E+04  0.7818609E-02  0.8239701E-01
       -2   -1    0    0    0  501  0.00000000000E+00  0.00000000000E+00  0.15601403861E+04  0.15601403861E+04  0.25500000920E-02 0. -1.
        2   -1    0    0  501    0  0.00000000000E+00  0.00000000000E+00 -0.14558170453E+04  0.14558170453E+04  0.25500000920E-02 0.  1.
    10030    2    1    2    0    0  0.00000000000E+00  0.00000000000E+00  0.10432334080E+03  0.30159574315E+04  0.30141525955E+04 0.  0.
        2    1    3    3  502    0  0.41507470677E+03 -0.12022408908E+04  0.86110652333E+03  0.15359604865E+04  0.25500000920E-02 0. -1.
       -2    1    3    3    0  502 -0.41507470677E+03  0.12022408908E+04 -0.75678318253E+03  0.14799969449E+04  0.25500000920E-02 0.  1.
</event>
<event>
 5   0  0.7201538E-06  0.3015462E+04  0.7818609E-02  0.8239329E-01
       -2   -1    0    0    0  501  0.00000000000E+00  0.00000000000E+00  0.11108677769E+04  0.11108677769E+04  0.25500000920E-02 0. -1.
        2   -1    0    0  501    0  0.00000000000E+00  0.00000000000E+00 -0.20463751276E+04  0.20463751276E+04  0.25500000920E-02 0.  1.
    10030    2    1    2    0    0  0.00000000000E+00  0.00000000000E+00 -0.93550735068E+03  0.31572429045E+04  0.30154616156E+04 0.  0.
        3    1    3    3  502    0 -0.82560649914E+03 -0.37979048955E+03  0.79188580974E+03  0.12053837784E+04  0.10100000352E+00 0. -1.
       -3    1    3    3    0  502  0.82560649914E+03  0.37979048955E+03 -0.17273931604E+04  0.19518591261E+04  0.10100000352E+00 0.  1.
</event>
<event>
 5   0  0.6792811E-06  0.2995700E+04  0.7818609E-02  0.8244960E-01
        2   -1    0    0  501    0  0.00000000000E+00  0.00000000000E+00  0.21369221765E+04  0.21369221765E+04  0.25500000920E-02 0.  1.
       -2   -1    0    0    0  501  0.00000000000E+00  0.00000000000E+00 -0.10498999902E+04  0.10498999902E+04  0.25500000920E-02 0. -1.
    10030    2    1    2    0    0  0.00000000000E+00  0.00000000000E+00  0.10870221863E+04  0.31868221667E+04  0.29956999664E+04 0.  0.
        2    1    3    3  502    0  0.48947317036E+03  0.17373850277E+03  0.20380578075E+04  0.21031996288E+04  0.25500000920E-02 0.  1.
       -2    1    3    3    0  502 -0.48947317036E+03 -0.17373850277E+03 -0.95103562119E+03  0.10836225379E+04  0.25500000920E-02 0. -1.
</event>
<event>
 5   0  0.7201538E-06  0.2726611E+04  0.7818609E-02  0.8326422E-01
       -2   -1    0    0    0  501  0.00000000000E+00  0.00000000000E+00  0.82782285595E+03  0.82782285596E+03  0.25500000920E-02 0.  1.
        2   -1    0    0  501    0  0.00000000000E+00  0.00000000000E+00 -0.22451688124E+04  0.22451688124E+04  0.25500000920E-02 0. -1.
    10030    2    1    2    0    0  0.00000000000E+00  0.00000000000E+00 -0.14173459564E+04  0.30729916683E+04  0.27266111262E+04 0.  0.
        3    1    3    3  502    0 -0.11387371803E+04  0.39880015593E+03  0.66521136920E+01  0.12065687677E+04  0.10100000352E+00 0.  1.
       -3    1    3    3    0  502  0.11387371803E+04 -0.39880015593E+03 -0.14239980701E+04  0.18664229007E+04  0.10100000352E+00 0. -1.
</event>
<event>
 5   0  0.6780150E-06  0.3007312E+04  0.7818609E-02  0.8241646E-01
        2   -1    0    0  501    0  0.00000000000E+00  0.00000000000E+00  0.16018504057E+04  0.16018504057E+04  0.25500000920E-02 0.  1.
       -2   -1    0    0    0  501  0.00000000000E+00  0.00000000000E+00 -0.14114812485E+04  0.14114812485E+04  0.25500000920E-02 0. -1.
    10030    2    1    2    0    0  0.00000000000E+00  0.00000000000E+00  0.19036915720E+03  0.30133316542E+04  0.30073122954E+04 0.  0.
        5    1    3    3  502    0 -0.83717302558E+03 -0.56531146147E+03  0.12112020377E+04  0.15771709449E+04  0.46999998093E+01 0.  1.
       -5    1    3    3    0  502  0.83717302558E+03  0.56531146147E+03 -0.10208328805E+04  0.14361607093E+04  0.46999998093E+01 0. -1.
</event>
<event>
 5   0  0.7193153E-06  0.2980923E+04  0.7818609E-02  0.8249199E-01
        2   -1    0    0  501    0  0.00000000000E+00  0.00000000000E+00  0.14691784056E+04  0.14691784056E+04  0.25500000920E-02 0. -1.
       -2   -1    0    0    0  501  0.00000000000E+00  0.00000000000E+00 -0.15120532393E+04  0.15120532393E+04  0.25500000920E-02 0.  1.
    10030    2    1    2    0    0  0.00000000000E+00  0.00000000000E+00 -0.42874833731E+02  0.29812316448E+04  0.29809233249E+04 0.  0.
        4    1    3    3  502    0 -0.55625526143E+03 -0.67332862918E+03 -0.12293218308E+04  0.15079871137E+04  0.12699999809E+01 0.  1.
       -4    1    3    3    0  502  0.55625526143E+03  0.67332862918E+03  0.11864469970E+04  0.14732445311E+04  0.12699999809E+01 0. -1.
</event>
<event>
 5   0  0.7193153E-06  0.3033566E+04  0.7818609E-02  0.8234210E-01
       -2   -1    0    0    0  501  0.00000000000E+00  0.00000000000E+00  0.16393511570E+04  0.16393511570E+04  0.25500000920E-02 0.  1.
        2   -1    0    0  501    0  0.00000000000E+00  0.00000000000E+00 -0.14033788856E+04  0.14033788856E+04  0.25500000920E-02 0. -1.
    10030    2    1    2    0    0  0.00000000000E+00  0.00000000000E+00  0.23597227143E+03  0.30427300425E+04  0.30335660861E+04 0.  0.
        4    1    3    3  502    0  0.10868128134E+04 -0.64417008309E+03  0.95987382575E+03  0.15866557792E+04  0.12699999809E+01 0.  1.
       -4    1    3    3    0  502 -0.10868128134E+04  0.64417008309E+03 -0.72390155432E+03  0.14560742634E+04  0.12699999809E+01 0. -1.
</event>
<event>
 5   0  0.2628425E-06  0.2980310E+04  0.7818609E-02  0.8249376E-01
       -1   -1    0    0    0  501  0.00000000000E+00  0.00000000000E+00  0.21800717511E+04  0.21800717511E+04  0.50400001928E-02 0.  1.
        1   -1    0    0  501    0  0.00000000000E+00  0.00000000000E+00 -0.10185731995E+04  0.10185731995E+04  0.50400001928E-02 0. -1.
    10030    2    1    2    0    0  0.00000000000E+00  0.00000000000E+00  0.11614985516E+04  0.31986449506E+04  0.29803104930E+04 0.  0.
        1    1    3    3  502    0  0.39080875203E+03 -0.83427662859E+03 -0.67629938512E+03  0.11428603729E+04  0.50400001928E-02 0. -1.
       -1    1    3    3    0  502 -0.39080875203E+03  0.83427662859E+03  0.18377979367E+04  0.20557845777E+04  0.50400001928E-02 0.  1.
</event>
<event>
 5   0  0.6792811E-06  0.2985398E+04  0.7818609E-02  0.8247913E-01
       -2   -1    0    0    0  501  0.00000000000E+00  0.00000000000E+00  0.17125843558E+04  0.17125843558E+04  0.25500000920E-02 0.  1.
        2   -1    0    0  501    0  0.00000000000E+00  0.00000000000E+00 -0.13010456514E+04  0.13010456514E+04  0.25500000920E-02 0. -1.
    10030    2    1    2    0    0  0.00000000000E+00  0.00000000000E+00  0.41153870446E+03  0.30136300072E+04  0.29853980831E+04 0.  0.
        2    1    3    3  502    0  0.41731084996E+03  0.10177473238E+04  0.12243668898E+04  0.16459138014E+04  0.25500000920E-02 0.  1.
       -2    1    3    3    0  502 -0.41731084996E+03 -0.10177473238E+04 -0.81282818538E+03  0.13677162058E+04  0.25500000920E-02 0. -1.
</event>
<event>
 5   0  0.2672155E-06  0.2961414E+04  0.7818609E-02  0.8254836E-01
       -1   -1    0    0    0  501  0.00000000000E+00  0.00000000000E+00  0.93687734012E+03  0.93687734013E+03  0.50400001928E-02 0. -1.
        1   -1    0    0  501    0  0.00000000000E+00  0.00000000000E+00 -0.23402133624E+04  0.23402133624E+04  0.50400001928E-02 0.  1.
    10030    2    1    2    0    0  0.00000000000E+00  0.00000000000E+00 -0.14033360223E+04  0.32770907026E+04  0.29614137639E+04 0.  0.
        5    1    3    3  502    0 -0.18637632034E+03 -0.13528174437E+04 -0.13350625534E+04  0.19097814745E+04  0.46999998093E+01 0.  1.
       -5    1    3    3    0  502  0.18637632034E+03  0.13528174437E+04 -0.68273468891E+02  0.13673092281E+04  0.46999998093E+01 0. -1.
</event>
<event>
 5   0  0.2504260E-06  0.2971975E+04  0.7818609E-02  0.8251779E-01
       -1   -1    0    0    0  501  0.00000000000E+00  0.00000000000E+00  0.74900131749E+03  0.74900131750E+03  0.50400001928E-02 0. -1.
        1   -1    0    0  501    0  0.00000000000E+00  0.00000000000E+00 -0.29481381926E+04  0.29481381926E+04  0.50400001928E-02 0.  1.
    10030    2    1    2    0    0  0.00000000000E+00  0.00000000000E+00 -0.21991368752E+04  0.36971395102E+04  0.29719753636E+04 0.  0.
        4    1    3    3  502    0  0.12575902739E+03  0.11065252816E+04  0.12433119669E+03  0.11205683340E+04  0.12699999809E+01 0. -1.
       -4    1    3    3    0  502 -0.12575902739E+03 -0.11065252816E+04 -0.23234680719E+04  0.25765711761E+04  0.12699999809E+01 0.  1.
</event>
<event>
 5   0  0.2672155E-06  0.3000013E+04  0.7818609E-02  0.8243727E-01
       -1   -1    0    0    0  501  0.00000000000E+00  0.00000000000E+00  0.13296046146E+04  0.13296046146E+04  0.50400001928E-02 0.  1.
        1   -1    0    0  501    0  0.00000000000E+00  0.00000000000E+00 -0.16922472141E+04  0.16922472141E+04  0.50400001928E-02 0. -1.
    10030    2    1    2    0    0  0.00000000000E+00  0.00000000000E+00 -0.36264259955E+03  0.30218518287E+04  0.30000131366E+04 0.  0.
        5    1    3    3  502    0  0.11095444934E+04 -0.10093623047E+04 -0.17143301847E+03  0.15097392539E+04  0.46999998093E+01 0. -1.
       -5    1    3    3    0  502 -0.11095444934E+04  0.10093623047E+04 -0.19120958108E+03  0.15121125748E+04  0.46999998093E+01 0.  1.
</event>
<event>
 5   0  0.7217255E-06  0.2889572E+04  0.7818609E-02  0.8275987E-01
        2   -1    0    0  501    0  0.00000000000E+00  0.00000000000E+00  0.11494819121E+04  0.11494819121E+04  0.25500000920E-02 0. -1.
       -2   -1    0    0    0  501  0.00000000000E+00  0.00000000000E+00 -0.18159541887E+04  0.18159541887E+04  0.25500000920E-02 0.  1.
    10030    2    1    2    0    0  0.00000000000E+00  0.00000000000E+00 -0.66647227662E+03  0.29654361007E+04  0.28895719358E+04 0.  0.
        1    1    3    3  502    0 -0.33429057680E+02  0.96622876285E+03  0.76858602721E+03  0.12350870436E+04  0.50400001928E-02 0. -1.
       -1    1    3    3    0  502  0.33429057680E+02 -0.96622876285E+03 -0.14350583038E+04  0.17303490571E+04  0.50400001928E-02 0.  1.
</event>
<event>
 5   0  0.7201538E-06  0.3013170E+04  0.7818609E-02  0.8239980E-01
        2   -1    0    0  501    0  0.00000000000E+00  0.00000000000E+00  0.11898945599E+04  0.11898945600E+04  0.25500000920E-02 0. -1.
       -2   -1    0    0    0  501  0.00000000000E+00  0.00000000000E+00 -0.19075621036E+04  0.19075621036E+04  0.25500000920E-02 0.  1.
    10030    2    1    2    0    0  0.00000000000E+00  0.00000000000E+00 -0.71766754363E+03  0.30974566635E+04  0.30131696068E+04 0.  0.
        3    1    3    3  502    0 -0.69773252620E+03 -0.17480376852E+03  0.10019828703E+04  0.12334328998E+04  0.10100000352E+00 0. -1.
       -3    1    3    3    0  502  0.69773252620E+03  0.17480376852E+03 -0.17196504139E+04  0.18640237638E+04  0.10100000352E+00 0.  1.
</event>
<event>
 5   0  0.6780150E-06  0.2996929E+04  0.7818609E-02  0.8244608E-01
       -2   -1    0    0    0  501  0.00000000000E+00  0.00000000000E+00  0.11203906344E+04  0.11203906344E+04  0.25500000920E-02 0. -1.
        2   -1    0    0  501    0  0.00000000000E+00  0.00000000000E+00 -0.20041192237E+04  0.20041192237E+04  0.25500000920E-02 0.  1.
    10030    2    1    2    0    0  0.00000000000E+00  0.00000000000E+00 -0.88372858923E+03  0.31245098581E+04  0.29969293676E+04 0.  0.
        5    1    3    3  502    0  0.90407959095E+03  0.11304998301E+04 -0.84562927422E+03  0.16764548106E+04  0.46999998093E+01 0. -1.
       -5    1    3    3    0  502 -0.90407959095E+03 -0.11304998301E+04 -0.38099315005E+02  0.14480550475E+04  0.46999998093E+01 0.  1.
</event>
<event>
 5   0  0.2672155E-06  0.2974624E+04  0.7818609E-02  0.8251014E-01
       -1   -1    0    0    0  501  0.00000000000E+00  0.00000000000E+00  0.10507277949E+04  0.10507277949E+04  0.50400001928E-02 0.  1.
        1   -1    0    0  501    0  0.00000000000E+00  0.00000000000E+00 -0.21053001979E+04  0.21053001979E+04  0.50400001928E-02 0. -1.
    10030    2    1    2    0    0  0.00000000000E+00  0.00000000000E+00 -0.10545724030E+04  0.31560279928E+04  0.29746243020E+04 0.  0.
        5    1    3    3  502    0  0.80456008442E+02 -0.10375903480E+04  0.60006003699E+03  0.12013163769E+04  0.46999998093E+01 0.  1.
       -5    1    3    3    0  502 -0.80456008442E+02  0.10375903480E+04 -0.16546324400E+04  0.19547116158E+04  0.46999998093E+01 0. -1.
</event>
<event>
 5   0  0.7201538E-06  0.2989192E+04  0.7818609E-02  0.8246824E-01
       -2   -1    0    0    0  501  0.00000000000E+00  0.00000000000E+00  0.14063225094E+04  0.14063225094E+04  0.25500000920E-02 0.  1.
        2   -1    0    0  501    0  0.00000000000E+00  0.00000000000E+00 -0.15884100856E+04  0.15884100856E+04  0.25500000920E-02 0. -1.
    10030    2    1    2    0    0  0.00000000000E+00  0.00000000000E+00 -0.18208757620E+03  0.29947325950E+04  0.29891917687E+04 0.  0.
        3    1    3    3  502    0  0.45132201318E+03  0.79126861128E+03  0.10960657830E+04  0.14251869300E+04  0.10100000352E+00 0.  1.
       -3    1    3    3    0  502 -0.45132201318E+03 -0.79126861128E+03 -0.12781533592E+04  0.15695456650E+04  0.10100000352E+00 0. -1.
</event>
<event>
 5   0  0.7193153E-06  0.3017922E+04  0.7818609E-02  0.8238632E-01
        2   -1    0    0  501    0  0.00000000000E+00  0.00000000000E+00  0.14860784456E+04  0.14860784456E+04  0.25500000920E-02 0.  1.
       -2   -1    0    0    0  501  0.00000000000E+00  0.00000000000E+00 -0.15321957158E+04  0.15321957158E+04  0.25500000920E-02 0. -1.
    10030    2    1    2    0    0  0.00000000000E+00  0.00000000000E+00 -0.46117270195E+02  0.30182741614E+04  0.30179218198E+04 0.  0.
        4    1    3    3  502    0  0.75748515827E+03  0.58756772178E+03  0.11423850226E+04  0.14913298580E+04  0.12699999809E+01 0.  1.
       -4    1    3    3    0  502 -0.75748515827E+03 -0.58756772178E+03 -0.11885022928E+04  0.15269443034E+04  0.12699999809E+01 0. -1.
</event>
<event>
 5   0  0.6780150E-06  0.3001873E+04  0.7818609E-02  0.8243196E-01
       -2   -1    0    0    0  501  0.00000000000E+00  0.00000000000E+00  0.11753587665E+04  0.11753587665E+04  0.25500000920E-02 0.  1.
        2   -1    0    0  501    0  0.00000000000E+00  0.00000000000E+00 -0.19166999478E+04  0.19166999478E+04  0.25500000920E-02 0. -1.
    10030    2    1    2    0    0  0.00000000000E+00  0.00000000000E+00 -0.74134118126E+03  0.30920587143E+04  0.30018728064E+04 0.  0.
        5    1    3    3  502    0 -0.72511920901E+03  0.10266423537E+04 -0.12156800293E+04  0.17486258643E+04  0.46999998093E+01 0. -1.
       -5    1    3    3    0  502  0.72511920901E+03 -0.10266423537E+04  0.47433884808E+03  0.13434328500E+04  0.46999998093E+01 0.  1.
</event>
<event>
 5   0  0.2672155E-06  0.2958700E+04  0.7818609E-02  0.8255624E-01
        1   -1    0    0  501    0  0.00000000000E+00  0.00000000000E+00  0.11043325326E+04  0.11043325327E+04  0.50400001928E-02 0. -1.
       -1   -1    0    0    0  501  0.00000000000E+00  0.00000000000E+00 -0.19817184272E+04  0.19817184272E+04  0.50400001928E-02 0.  1.
    10030    2    1    2    0    0  0.00000000000E+00  0.00000000000E+00 -0.87738589452E+03  0.30860509598E+04  0.29586998021E+04 0.  0.
        5    1    3    3  502    0 -0.12847534387E+04 -0.57039433860E+03 -0.91952662735E+03  0.16797298617E+04  0.46999998093E+01 0. -1.
       -5    1    3    3    0  502  0.12847534387E+04  0.57039433860E+03  0.42140732834E+02  0.14063210982E+04  0.46999998093E+01 0.  1.
</event>
<event>
 5   0  0.7201538E-06  0.2979026E+04  0.7818609E-02  0.8249746E-01
        2   -1    0    0  501    0  0.00000000000E+00  0.00000000000E+00  0.21088003890E+04  0.21088003890E+04  0.25500000920E-02 0. -1.
       -2   -1    0    0    0  501  0.00000000000E+00  0.00000000000E+00 -0.10520902494E+04  0.10520902494E+04  0.25500000920E-02 0.  1.
    10030    2    1    2    0    0  0.00000000000E+00  0.00000000000E+00  0.10567101396E+04  0.31608906384E+04  0.29790255637E+04 0.  0.
        3    1    3    3  502    0  0.12119577303E+03 -0.15488087006E+03  0.20949642957E+04  0.21041748762E+04  0.10100000352E+00 0. -1.
       -3    1    3    3    0  502 -0.12119577303E+03  0.15488087006E+03 -0.10382541561E+04  0.10567157622E+04  0.10100000352E+00 0.  1.
</event>
<event>
 5   0  0.7217255E-06  0.2971908E+04  0.7818609E-02  0.8251799E-01
       -2   -1    0    0    0  501  0.00000000000E+00  0.00000000000E+00  0.27204305430E+04  0.27204305430E+04  0.25500000920E-02 0.  1.
        2   -1    0    0  501    0  0.00000000000E+00  0.00000000000E+00 -0.81165788190E+03  0.81165788190E+03  0.25500000920E-02 0. -1.
    10030    2    1    2    0    0  0.00000000000E+00  0.00000000000E+00  0.19087726611E+04  0.35320884249E+04  0.29719077324E+04 0.  0.
        1    1    3    3  502    0 -0.81064440090E+03 -0.12162861209E+04  0.12723220782E+04  0.19378595778E+04  0.50400001928E-02 0.  1.
       -1    1    3    3    0  502  0.81064440090E+03  0.12162861209E+04  0.63645058296E+03  0.15942288472E+04  0.50400001928E-02 0. -1.
</event>
<event>
 5   0  0.7193153E-06  0.2945007E+04  0.7818609E-02  0.8259611E-01
        2   -1    0    0  501    0  0.00000000000E+00  0.00000000000E+00  0.32012238659E+04  0.32012238659E+04  0.25500000920E-02 0.  1.
       -2   -1    0    0    0  501  0.00000000000E+00  0.00000000000E+00 -0.67732410378E+03  0.67732410379E+03  0.25500000920E-02 0. -1.
    10030    2    1    2    0    0  0.00000000000E+00  0.00000000000E+00  0.25238997621E+04  0.38785479697E+04  0.29450066798E+04 0.  0.
        4    1    3    3  502    0 -0.35494772679E+03 -0.10231927102E+04 -0.51977929660E+02  0.10842575934E+04  0.12699999809E+01 0. -1.
       -4    1    3    3    0  502  0.35494772679E+03  0.10231927102E+04  0.25758776918E+04  0.27942903763E+04  0.12699999809E+01 0.  1.
</event>
<event>
 5   0  0.7217255E-06  0.3016804E+04  0.7818609E-02  0.8238949E-01
       -2   -1    0    0    0  501  0.00000000000E+00  0.00000000000E+00  0.15756709630E+04  0.15756709630E+04  0.25500000920E-02 0. -1.
        2   -1    0    0  501    0  0.00000000000E+00  0.00000000000E+00 -0.14440050488E+04  0.14440050488E+04  0.25500000920E-02 0.  1.
    10030    2    1    2    0    0  0.00000000000E+00  0.00000000000E+00  0.13166591428E+03  0.30196760118E+04  0.30168041539E+04 0.  0.
        1    1    3    3  502    0 -0.11260209605E+04 -0.42573893757E+03  0.97559861147E+03  0.15495062108E+04  0.50400001928E-02 0. -1.
       -1    1    3    3    0  502  0.11260209605E+04  0.42573893757E+03 -0.84393269720E+03  0.14701698010E+04  0.50400001928E-02 0.  1.
</event>
<event>
 5   0  0.7201538E-06  0.2976127E+04  0.7818609E-02  0.8250581E-01
       -2   -1    0    0    0  501  0.00000000000E+00  0.00000000000E+00  0.94280388220E+03  0.94280388220E+03  0.25500000920E-02 0. -1.
        2   -1    0    0  501    0  0.00000000000E+00  0.00000000000E+00 -0.23486673101E+04  0.23486673101E+04  0.25500000920E-02 0.  1.
    10030    2    1    2    0    0  0.00000000000E+00  0.00000000000E+00 -0.14058634279E+04  0.32914711923E+04  0.29761267836E+04 0.  0.
        3    1    3    3  502    0  0.10036740504E+04  0.13179850721E+03  0.50332333651E+03  0.11305161818E+04  0.10100000352E+00 0. -1.
       -3    1    3    3    0  502 -0.10036740504E+04 -0.13179850721E+03 -0.19091867644E+04  0.21609550105E+04  0.10100000352E+00 0.  1.
</event>
<event>
 5   0  0.6792811E-06  0.3002689E+04  0.7818609E-02  0.8242964E-01
        2   -1    0    0  501    0  0.00000000000E+00  0.00000000000E+00  0.28741013055E+04  0.28741013055E+04  0.25500000920E-02 0.  1.
       -2   -1    0    0    0  501  0.00000000000E+00  0.00000000000E+00 -0.78425718813E+03  0.78425718813E+03  0.25500000920E-02 0. -1.
    10030    2    1    2    0    0  0.00000000000E+00  0.00000000000E+00  0.20898441174E+04  0.36583584936E+04  0.30026885341E+04 0.  0.
        2    1    3    3  502    0  0.53410597934E+03  0.75697528216E+03 -0.39447426816E+03  0.10069214087E+04  0.25500000920E-02 0. -1.
       -2    1    3    3    0  502 -0.53410597934E+03 -0.75697528216E+03  0.24843183855E+04  0.26514370850E+04  0.25500000920E-02 0.  1.
</event>
<event>
 5   0  0.7217255E-06  0.3086142E+04  0.7818609E-02  0.8219551E-01
        2   -1    0    0  501    0  0.00000000000E+00  0.00000000000E+00  0.23031542640E+04  0.23031542640E+04  0.25500000920E-02 0.  1.
       -2   -1    0    0    0  501  0.00000000000E+00  0.00000000000E+00 -0.10338294527E+04  0.10338294527E+04  0.25500000920E-02 0. -1.
    10030    2    1    2    0    0  0.00000000000E+00  0.00000000000E+00  0.12693248113E+04  0.33369837167E+04  0.30861423896E+04 0.  0.
        1    1    3    3  502    0  0.26553816683E+03 -0.35924193558E+03  0.22317034484E+04  0.22759757397E+04  0.50400001928E-02 0.  1.
       -1    1    3    3    0  502 -0.26553816683E+03  0.35924193558E+03 -0.96237863701E+03  0.10610079770E+04  0.50400001928E-02 0. -1.
</event>
<event>
 5   0  0.6792811E-06  0.2967951E+04  0.7818609E-02  0.8252942E-01
       -2   -1    0    0    0  501  0.00000000000E+00  0.00000000000E+00  0.82524157284E+03  0.82524157285E+03  0.25500000920E-02 0. -1.
        2   -1    0    0  501    0  0.00000000000E+00  0.00000000000E+00 -0.26685313434E+04  0.26685313434E+04  0.25500000920E-02 0.  1.
    10030    2    1    2    0    0  0.00000000000E+00  0.00000000000E+00 -0.18432897706E+04  0.34937729163E+04  0.29679508103E+04 0.  0.
        2    1    3    3  502    0  0.92951308654E+03 -0.67583390863E+03 -0.20268263735E+04  0.23299723600E+04  0.25500000920E-02 0.  1.
       -2    1    3    3    0  502 -0.92951308654E+03  0.67583390863E+03  0.18353660293E+03  0.11638005562E+04  0.25500000920E-02 0. -1.
</event>
<event>
 5   0  0.2628425E-06  0.2967053E+04  0.7818609E-02  0.8253202E-01
       -1   -1    0    0    0  501  0.00000000000E+00  0.00000000000E+00  0.15117236835E+04  0.15117236835E+04  0.50400001928E-02 0.  1.
        1   -1    0    0  501    0  0.00000000000E+00  0.00000000000E+00 -0.14558551746E+04  0.14558551746E+04  0.50400001928E-02 0. -1.
    10030    2    1    2    0    0  0.00000000000E+00  0.00000000000E+00  0.55868508907E+02  0.29675788581E+04  0.29670529130E+04 0.  0.
        1    1    3    3  502    0  0.57121635070E+03 -0.11131040196E+04  0.82529703953E+03  0.14988008144E+04  0.50400001928E-02 0.  1.
       -1    1    3    3    0  502 -0.57121635070E+03  0.11131040196E+04 -0.76942853062E+03  0.14687780437E+04  0.50400001928E-02 0. -1.
</event>
<event>
 5   0  0.2422083E-06  0.2910580E+04  0.7818609E-02  0.8269737E-01
       -1   -1    0    0    0  501  0.00000000000E+00  0.00000000000E+00  0.12109703330E+04  0.12109703331E+04  0.50400001928E-02 0. -1.
        1   -1    0    0  501    0  0.00000000000E+00  0.00000000000E+00 -0.17489024929E+04  0.17489024929E+04  0.50400001928E-02 0.  1.
    10030    2    1    2    0    0  0.00000000000E+00  0.00000000000E+00 -0.53793215983E+03  0.29598728259E+04  0.29105800345E+04 0.  0.
        2    1    3    3  502    0 -0.31451316042E+03  0.10323419716E+04  0.72389893083E+03  0.12994914915E+04  0.25500000920E-02 0. -1.
       -2    1    3    3    0  502  0.31451316042E+03 -0.10323419716E+04 -0.12618310907E+04  0.16603813344E+04  0.25500000920E-02 0.  1.
</event>
<event>
 5   0  0.2504260E-06  0.2998800E+04  0.7818609E-02  0.8244074E-01
        1   -1    0    0  501    0  0.00000000000E+00  0.00000000000E+00  0.21856225000E+04  0.21856225001E+04  0.50400001928E-02 0. -1.
       -1   -1    0    0    0  501  0.00000000000E+00  0.00000000000E+00 -0.10286318768E+04  0.10286318768E+04  0.50400001928E-02 0.  1.
    10030    2    1    2    0    0  0.00000000000E+00  0.00000000000E+00  0.11569906233E+04  0.32142543768E+04  0.29988004096E+04 0.  0.
        4    1    3    3  502    0  0.20963850238E+03  0.11306983609E+04 -0.45280409518E+03  0.12359046268E+04  0.12699999809E+01 0.  1.
       -4    1    3    3    0  502 -0.20963850238E+03 -0.11306983609E+04  0.16097947185E+04  0.19783497500E+04  0.12699999809E+01 0. -1.
</event>
<event>
 5   0  0.2672155E-06  0.2913074E+04  0.7818609E-02  0.8268998E-01
        1   -1    0    0  501    0  0.00000000000E+00  0.00000000000E+00  0.16440255889E+04  0.16440255889E+04  0.50400001928E-02 0.  1.
       -1   -1    0    0    0  501  0.00000000000E+00  0.00000000000E+00 -0.12904303529E+04  0.12904303529E+04  0.50400001928E-02 0. -1.
    10030    2    1    2    0    0  0.00000000000E+00  0.00000000000E+00  0.35359523606E+03  0.29344559418E+04  0.29130743354E+04 0.  0.
        5    1    3    3  502    0 -0.90691190040E+02  0.63226579696E+03 -0.11418150906E+04  0.13083381524E+04  0.46999998093E+01 0. -1.
       -5    1    3    3    0  502  0.90691190040E+02 -0.63226579696E+03  0.14954103266E+04  0.16261177894E+04  0.46999998093E+01 0.  1.
</event>
<event>
 5   0  0.7201538E-06  0.2978382E+04  0.7818609E-02  0.8249931E-01
       -2   -1    0    0    0  501  0.00000000000E+00  0.00000000000E+00  0.14393948039E+04  0.14393948039E+04  0.25500000920E-02 0. -1.
        2   -1    0    0  501    0  0.00000000000E+00  0.00000000000E+00 -0.15407100323E+04  0.15407100323E+04  0.25500000920E-02 0.  1.
    10030    2    1    2    0    0  0.00000000000E+00  0.00000000000E+00 -0.10131522836E+03  0.29801048362E+04  0.29783821211E+04 0.  0.
        3    1    3    3  502    0  0.21387458154E+03  0.47907016766E+03 -0.14451780087E+04  0.15374622107E+04  0.10100000352E+00 0.  1.
       -3    1    3    3    0  502 -0.21387458154E+03 -0.47907016766E+03  0.13438627804E+04  0.14426426255E+04  0.10100000352E+00 0. -1.
</event>
<event>
 5   0  0.7201538E-06  0.2799295E+04  0.7818609E-02  0.8303487E-01
       -2   -1    0    0    0  501  0.00000000000E+00  0.00000000000E+00  0.15536376345E+04  0.15536376345E+04  0.25500000920E-02 0.  1.
        2   -1    0    0  501    0  0.00000000000E+00  0.00000000000E+00 -0.12609201417E+04  0.12609201417E+04  0.25500000920E-02 0. -1.
    10030    2    1    2    0    0  0.00000000000E+00  0.00000000000E+00  0.29271749278E+03  0.28145577762E+04  0.27992949014E+04 0.  0.
        3    1    3    3  502    0 -0.13023627146E+04  0.24722434793E+03  0.59796746837E+03  0.14542467542E+04  0.10100000352E+00 0.  1.
       -3    1    3    3    0  502  0.13023627146E+04 -0.24722434793E+03 -0.30524997559E+03  0.13603110220E+04  0.10100000352E+00 0. -1.
</event>
<event>
 5   0  0.2552990E-06  0.3066381E+04  0.7818609E-02  0.8225025E-01
        1   -1    0    0  501    0  0.00000000000E+00  0.00000000000E+00  0.13329193696E+04  0.13329193696E+04  0.50400001928E-02 0.  1.
       -1   -1    0    0    0  501  0.00000000000E+00  0.00000000000E+00 -0.17635521747E+04  0.17635521747E+04  0.50400001928E-02 0. -1.
    10030    2    1    2    0    0  0.00000000000E+00  0.00000000000E+00 -0.43063280505E+03  0.30964715443E+04  0.30663808328E+04 0.  0.
        3    1    3    3  502    0  0.68722000255E+03  0.80761062092E+03 -0.13335067578E+04  0.17037448548E+04  0.10100000352E+00 0. -1.
       -3    1    3    3    0  502 -0.68722000255E+03 -0.80761062092E+03  0.90287395276E+03  0.13927266895E+04  0.10100000352E+00 0.  1.
</event>
<event>
 5   0  0.2504260E-06  0.2941561E+04  0.7818609E-02  0.8260618E-01
        1   -1    0    0  501    0  0.00000000000E+00  0.00000000000E+00  0.17840337943E+04  0.17840337943E+04  0.50400001928E-02 0.  1.
       -1   -1    0    0    0  501  0.00000000000E+00  0.00000000000E+00 -0.12125307910E+04  0.12125307910E+04  0.50400001928E-02 0. -1.
    10030    2    1    2    0    0  0.00000000000E+00  0.00000000000E+00  0.57150300335E+03  0.29965645853E+04  0.29415614274E+04 0.  0.
        4    1    3    3  502    0  0.38119735460E+03 -0.12811137462E+04  0.91092913187E+03  0.16175157959E+04  0.12699999809E+01 0. -1.
       -4    1    3    3    0  502 -0.38119735460E+03  0.12811137462E+04 -0.33942612852E+03  0.13790487894E+04  0.12699999809E+01 0.  1.
</event>
<event>
 5   0  0.2672155E-06  0.2994252E+04  0.7818609E-02  0.8245374E-01
        1   -1    0    0  501    0  0.00000000000E+00  0.00000000000E+00  0.23728663135E+04  0.23728663135E+04  0.50400001928E-02 0. -1.
       -1   -1    0    0    0  501  0.00000000000E+00  0.00000000000E+00 -0.94459019864E+03  0.94459019866E+03  0.50400001928E-02 0.  1.
    10030    2    1    2    0    0  0.00000000000E+00  0.00000000000E+00  0.14282761148E+04  0.33174565122E+04  0.29942520017E+04 0.  0.
        5    1    3    3  502    0  0.54135429926E+03 -0.13942061793E+04  0.63990741482E+03  0.16267694788E+04  0.46999998093E+01 0. -1.
       -5    1    3    3    0  502 -0.54135429926E+03  0.13942061793E+04  0.78836870003E+03  0.16906870334E+04  0.46999998093E+01 0.  1.
</event>
<event>
 5   0  0.7193153E-06  0.2965900E+04  0.7818609E-02  0.8253536E-01
        2   -1    0    0  501    0  0.00000000000E+00  0.00000000000E+00  0.14925371313E+04  0.14925371313E+04  0.25500000920E-02 0.  1.
       -2   -1    0    0    0  501  0.00000000000E+00  0.00000000000E+00 -0.14734244754E+04  0.14734244754E+04  0.25500000920E-02 0. -1.
    10030    2    1    2    0    0  0.00000000000E+00  0.00000000000E+00  0.19112655886E+02  0.29659616068E+04  0.29659000252E+04 0.  0.
        4    1    3    3  502    0 -0.13769425504E+03  0.10429116859E+04  0.10548122789E+04  0.14897164325E+04  0.12699999809E+01 0.  1.
       -4    1    3    3    0  502  0.13769425504E+03 -0.10429116859E+04 -0.10356996231E+04  0.14762451743E+04  0.12699999809E+01 0. -1.
</event>
<event>
 5   0  0.7193153E-06  0.2994432E+04  0.7818609E-02  0.8245323E-01
       -2   -1    0    0    0  501  0.00000000000E+00  0.00000000000E+00  0.14505819036E+04  0.14505819036E+04  0.25500000920E-02 0. -1.
        2   -1    0    0  501    0  0.00000000000E+00  0.00000000000E+00 -0.15453495051E+04  0.15453495051E+04  0.25500000920E-02 0.  1.
    10030    2    1    2    0    0  0.00000000000E+00  0.00000000000E+00 -0.94767601542E+02  0.29959314087E+04  0.29944321845E+04 0.  0.
        4    1    3    3  502    0 -0.56926924550E+03 -0.23466103775E+03 -0.14128092376E+04  0.15411569781E+04  0.12699999809E+01 0.  1.
       -4    1    3    3    0  502  0.56926924550E+03  0.23466103775E+03  0.13180416361E+04  0.14547744306E+04  0.12699999809E+01 0. -1.
</event>
<event>
 5   0  0.7201538E-06  0.2906473E+04  0.7818609E-02  0.8270954E-01
        2   -1    0    0  501    0  0.00000000000E+00  0.00000000000E+00  0.21746676167E+04  0.21746676167E+04  0.25500000920E-02 0.  1.
       -2   -1    0    0    0  501  0.00000000000E+00  0.00000000000E+00 -0.97113493403E+03  0.97113493404E+03  0.25500000920E-02 0. -1.
    10030    2    1    2    0    0  0.00000000000E+00  0.00000000000E+00  0.12035326826E+04  0.31458025507E+04  0.29064725648E+04 0.  0.
        3    1    3    3  502    0 -0.38453266721E+03  0.60201006034E+03 -0.76799273656E+03  0.10488538213E+04  0.10100000352E+00 0. -1.
       -3    1    3    3    0  502  0.38453266721E+03 -0.60201006034E+03  0.19715254192E+04  0.20969487294E+04  0.10100000352E+00 0.  1.
</event>
<event>
 5   0  0.2628425E-06  0.3020279E+04  0.7818609E-02  0.8237964E-01
       -1   -1    0    0    0  501  0.00000000000E+00  0.00000000000E+00  0.88012359296E+03  0.88012359297E+03  0.50400001928E-02 0.  1.
        1   -1    0    0  501    0  0.00000000000E+00  0.00000000000E+00 -0.25911369027E+04  0.25911369027E+04  0.50400001928E-02 0. -1.
    10030    2    1    2    0    0  0.00000000000E+00  0.00000000000E+00 -0.17110133098E+04  0.34712604957E+04  0.30202786101E+04 0.  0.
        1    1    3    3  502    0 -0.50206070303E+02  0.39203293174E+03 -0.25306391810E+04  0.25613170701E+04  0.50400001928E-02 0. -1.
       -1    1    3    3    0  502  0.50206070303E+02 -0.39203293174E+03  0.81962587121E+03  0.90994342563E+03  0.50400001928E-02 0.  1.
</event>
<event>
 5   0  0.7193153E-06  0.3035272E+04  0.7818609E-02  0.8233730E-01
        2   -1    0    0  501    0  0.00000000000E+00  0.00000000000E+00  0.25695878777E+04  0.25695878777E+04  0.25500000920E-02 0. -1.
       -2   -1    0    0    0  501  0.00000000000E+00  0.00000000000E+00 -0.89633803854E+03  0.89633803855E+03  0.25500000920E-02 0.  1.
    10030    2    1    2    0    0  0.00000000000E+00  0.00000000000E+00  0.16732498391E+04  0.34659259162E+04  0.30352722172E+04 0.  0.
        4    1    3    3  502    0  0.68855955267E+03  0.75558584611E+03 -0.44421646182E+03  0.11146093963E+04  0.12699999809E+01 0.  1.
       -4    1    3    3    0  502 -0.68855955267E+03 -0.75558584611E+03  0.21174663009E+04  0.23513165199E+04  0.12699999809E+01 0. -1.
</event>
<event>
 5   0  0.2504260E-06  0.3057844E+04  0.7818609E-02  0.8227404E-01
       -1   -1    0    0    0  501  0.00000000000E+00  0.00000000000E+00  0.15751884239E+04  0.15751884239E+04  0.50400001928E-02 0.  1.
        1   -1    0    0  501    0  0.00000000000E+00  0.00000000000E+00 -0.14840140951E+04  0.14840140951E+04  0.50400001928E-02 0. -1.
    10030    2    1    2    0    0  0.00000000000E+00  0.00000000000E+00  0.91174328855E+02  0.30592025190E+04  0.30578435693E+04 0.  0.
        4    1    3    3  502    0 -0.55536226356E+03 -0.11969027819E+04  0.81832715154E+03  0.15526314608E+04  0.12699999809E+01 0. -1.
       -4    1    3    3    0  502  0.55536226356E+03  0.11969027819E+04 -0.72715282269E+03  0.15065710582E+04  0.12699999809E+01 0.  1.
</event>
<event>
 5   0  0.7217255E-06  0.2996021E+04  0.7818609E-02  0.8244868E-01
        2   -1    0    0  501    0  0.00000000000E+00  0.00000000000E+00  0.16449304539E+04  0.16449304539E+04  0.25500000920E-02 0.  1.
       -2   -1    0    0    0  501  0.00000000000E+00  0.00000000000E+00 -0.13642127212E+04  0.13642127213E+04  0.25500000920E-02 0. -1.
    10030    2    1    2    0    0  0.00000000000E+00  0.00000000000E+00  0.28071773265E+03  0.30091431752E+04  0.29960207281E+04 0.  0.
        1    1    3    3  502    0 -0.31068943279E+03 -0.34450098781E+03  0.15709662435E+04  0.16380304614E+04  0.50400001928E-02 0.  1.
       -1    1    3    3    0  502  0.31068943279E+03  0.34450098781E+03 -0.12902485108E+04  0.13711127138E+04  0.50400001928E-02 0. -1.
</event>
<event>
 5   0  0.6780150E-06  0.2957121E+04  0.7818609E-02  0.8256082E-01
       -2   -1    0    0    0  501  0.00000000000E+00  0.00000000000E+00  0.15143449581E+04  0.15143449581E+04  0.25500000920E-02 0. -1.
        2   -1    0    0  501    0  0.00000000000E+00  0.00000000000E+00 -0.14436211910E+04  0.14436211910E+04  0.25500000920E-02 0.  1.
    10030    2    1    2    0    0  0.00000000000E+00  0.00000000000E+00  0.70723767089E+02  0.29579661492E+04  0.29571205400E+04 0.  0.
        5    1    3    3  502    0 -0.45741917176E+03 -0.83671870505E+03  0.11656353943E+04  0.15060074543E+04  0.46999998093E+01 0. -1.
       -5    1    3    3    0  502  0.45741917176E+03  0.83671870505E+03 -0.10949116272E+04  0.14519586948E+04  0.46999998093E+01 0.  1.
</event>
<event>
 5   0  0.2628425E-06  0.3004969E+04  0.7818609E-02  0.8242313E-01
       -1   -1    0    0    0  501  0.00000000000E+00  0.00000000000E+00  0.10302994599E+04  0.10302994599E+04  0.50400001928E-02 0.  1.
        1   -1    0    0  501    0  0.00000000000E+00  0.00000000000E+00 -0.21910719839E+04  0.21910719839E+04  0.50400001928E-02 0. -1.
    10030    2    1    2    0    0  0.00000000000E+00  0.00000000000E+00 -0.11607725240E+04  0.32213714438E+04  0.30049694053E+04 0.  0.
        1    1    3    3  502    0 -0.97867202134E+03 -0.51885152898E+03  0.50782984268E+03  0.12185634918E+04  0.50400001928E-02 0.  1.
       -1    1    3    3    0  502  0.97867202134E+03  0.51885152898E+03 -0.16686023667E+04  0.20028079520E+04  0.50400001928E-02 0. -1.
</event>
<event>
 5   0  0.2628425E-06  0.2969911E+04  0.7818609E-02  0.8252376E-01
       -1   -1    0    0    0  501  0.00000000000E+00  0.00000000000E+00  0.10322342782E+04  0.10322342782E+04  0.50400001928E-02 0. -1.
        1   -1    0    0  501    0  0.00000000000E+00  0.00000000000E+00 -0.21362322723E+04  0.21362322723E+04  0.50400001928E-02 0.  1.
    10030    2    1    2    0    0  0.00000000000E+00  0.00000000000E+00 -0.11039979941E+04  0.31684665505E+04  0.29699105560E+04 0.  0.
        1    1    3    3  502    0 -0.20259018834E+03 -0.13756335876E+04 -0.11080772237E+04  0.17779892253E+04  0.50400001928E-02 0.  1.
       -1    1    3    3    0  502  0.20259018834E+03  0.13756335876E+04  0.40792296434E+01  0.13904773252E+04  0.50400001928E-02 0. -1.
</event>
<event>
 5   0  0.2504260E-06  0.2778908E+04  0.7818609E-02  0.8309847E-01
        1   -1    0    0  501    0  0.00000000000E+00  0.00000000000E+00  0.14160198611E+04  0.14160198611E+04  0.50400001928E-02 0.  1.
       -1   -1    0    0    0  501  0.00000000000E+00  0.00000000000E+00 -0.13633867290E+04  0.13633867290E+04  0.50400001928E-02 0. -1.
    10030    2    1    2    0    0  0.00000000000E+00  0.00000000000E+00  0.52633132143E+02  0.27794065901E+04  0.27789081932E+04 0.  0.
        4    1    3    3  502    0  0.74709952925E+03  0.11153461691E+04 -0.33211384683E+03  0.13829157616E+04  0.12699999809E+01 0.  1.
       -4    1    3    3    0  502 -0.74709952925E+03 -0.11153461691E+04  0.38474697898E+03  0.13964908285E+04  0.12699999809E+01 0. -1.
</event>
<event>
 5   0  0.7193153E-06  0.2775227E+04  0.7818609E-02  0.8311001E-01
       -2   -1    0    0    0  501  0.00000000000E+00  0.00000000000E+00  0.65760369671E+03  0.65760369671E+03  0.25500000920E-02 0. -1.
        2   -1    0    0  501    0  0.00000000000E+00  0.00000000000E+00 -0.29280108599E+04  0.29280108599E+04  0.25500000920E-02 0.  1.
    10030    2    1    2    0    0  0.00000000000E+00  0.00000000000E+00 -0.22704071632E+04  0.35856145566E+04  0.27752266686E+04 0.  0.
        4    1    3    3  502    0  0.64660575674E+03 -0.12246346306E+04 -0.10222716817E+04  0.17212989245E+04  0.12699999809E+01 0.  1.
       -4    1    3    3    0  502 -0.64660575674E+03  0.12246346306E+04 -0.12481354815E+04  0.18643156321E+04  0.12699999809E+01 0. -1.
</event>
<event>
 5   0  0.2628425E-06  0.3060427E+04  0.7818609E-02  0.8226683E-01
        1   -1    0    0  501    0  0.00000000000E+00  0.00000000000E+00  0.15967505638E+04  0.15967505639E+04  0.50400001928E-02 0.  1.
       -1   -1    0    0    0  501  0.00000000000E+00  0.00000000000E+00 -0.14664494170E+04  0.14664494170E+04  0.50400001928E-02 0. -1.
    10030    2    1    2    0    0  0.00000000000E+00  0.00000000000E+00  0.13030114686E+03  0.30631999808E+04  0.30604273776E+04 0.  0.
        1    1    3    3  502    0 -0.17195661222E+03 -0.18100409566E+03  0.15762276666E+04  0.15958775693E+04  0.50400001928E-02 0.  1.
       -1    1    3    3    0  502  0.17195661222E+03  0.18100409566E+03 -0.14459265197E+04  0.14673224116E+04  0.50400001928E-02 0. -1.
</event>
<event>
 5   0  0.7217255E-06  0.3012653E+04  0.7818609E-02  0.8240127E-01
       -2   -1    0    0    0  501  0.00000000000E+00  0.00000000000E+00  0.13835398672E+04  0.13835398672E+04  0.25500000920E-02 0. -1.
        2   -1    0    0  501    0  0.00000000000E+00  0.00000000000E+00 -0.16400104504E+04  0.16400104504E+04  0.25500000920E-02 0.  1.
    10030    2    1    2    0    0  0.00000000000E+00  0.00000000000E+00 -0.25647058327E+03  0.30235503176E+04  0.30126532099E+04 0.  0.
        1    1    3    3  502    0  0.45302150203E+03 -0.30900261022E+03 -0.15362742434E+04  0.16312110978E+04  0.50400001928E-02 0.  1.
       -1    1    3    3    0  502 -0.45302150203E+03  0.30900261022E+03  0.12798036602E+04  0.13923392198E+04  0.50400001928E-02 0. -1.
</event>
<event>
 5   0  0.2672155E-06  0.3014279E+04  0.7818609E-02  0.8239665E-01
       -1   -1    0    0    0  501  0.00000000000E+00  0.00000000000E+00  0.91230868945E+03  0.91230868947E+03  0.50400001928E-02 0. -1.
        1   -1    0    0  501    0  0.00000000000E+00  0.00000000000E+00 -0.24898035985E+04  0.24898035985E+04  0.50400001928E-02 0.  1.
    10030    2    1    2    0    0  0.00000000000E+00  0.00000000000E+00 -0.15774949090E+04  0.34021122880E+04  0.30142789904E+04 0.  0.
        5    1    3    3  502    0  0.25218157485E+03  0.12520687883E+04 -0.16918035860E+04  0.21197861356E+04  0.46999998093E+01 0. -1.
       -5    1    3    3    0  502 -0.25218157485E+03 -0.12520687883E+04  0.11430867696E+03  0.12823261523E+04  0.46999998093E+01 0.  1.
</event>
<event>
 5   0  0.7201538E-06  0.3045996E+04  0.7818609E-02  0.8230717E-01
       -2   -1    0    0    0  501  0.00000000000E+00  0.00000000000E+00  0.12292070474E+04  0.12292070474E+04  0.25500000920E-02 0. -1.
        2   -1    0    0  501    0  0.00000000000E+00  0.00000000000E+00 -0.18870077019E+04  0.18870077019E+04  0.25500000920E-02 0.  1.
    10030    2    1    2    0    0  0.00000000000E+00  0.00000000000E+00 -0.65780065448E+03  0.31162147493E+04  0.30459961692E+04 0.  0.
        3    1    3    3  502    0 -0.86259814767E+03  0.78820296417E+03  0.67044139106E+03  0.13471566895E+04  0.10100000352E+00 0. -1.
       -3    1    3    3    0  502  0.86259814767E+03 -0.78820296417E+03 -0.13282420455E+04  0.17690580598E+04  0.10100000352E+00 0.  1.
</event>
<event>
 5   0  0.2628425E-06  0.2857907E+04  0.7818609E-02  0.8285513E-01
        1   -1    0    0  501    0  0.00000000000E+00  0.00000000000E+00  0.19775693823E+04  0.19775693823E+04  0.50400001928E-02 0.  1.
       -1   -1    0    0    0  501  0.00000000000E+00  0.00000000000E+00 -0.10325340221E+04  0.10325340221E+04  0.50400001928E-02 0. -1.
    10030    2    1    2    0    0  0.00000000000E+00  0.00000000000E+00  0.94503536025E+03  0.30101034044E+04  0.28579066943E+04 0.  0.
        1    1    3    3  502    0 -0.11101491786E+04  0.72170368778E+03 -0.93326395860E+02  0.13274024363E+04  0.50400001928E-02 0.  1.
       -1    1    3    3    0  502  0.11101491786E+04 -0.72170368778E+03  0.10383617561E+04  0.16827009682E+04  0.50400001928E-02 0. -1.
</event>
<event>
 5   0  0.2298500E-06  0.2917550E+04  0.7818609E-02  0.8267675E-01
       -3   -1    0    0    0  501  0.00000000000E+00  0.00000000000E+00  0.94731855986E+03  0.94731856525E+03  0.10100000352E+00 0. -1.
        3   -1    0    0  501    0  0.00000000000E+00  0.00000000000E+00 -0.22463665300E+04  0.22463665323E+04  0.10100000352E+00 0.  1.
    10030    2    1    2    0    0  0.00000000000E+00  0.00000000000E+00 -0.12990479701E+04  0.31936850975E+04  0.29175501493E+04 0.  0.
        2    1    3    3  502    0 -0.11798099731E+04  0.27810082408E+03 -0.15379647917E+04  0.19582204527E+04  0.25500000920E-02 0.  1.
       -2    1    3    3    0  502  0.11798099731E+04 -0.27810082408E+03  0.23891682154E+03  0.12354646448E+04  0.25500000920E-02 0. -1.
</event>
<event>
 5   0  0.6780150E-06  0.2977097E+04  0.7818609E-02  0.8250301E-01
       -2   -1    0    0    0  501  0.00000000000E+00  0.00000000000E+00  0.10019156793E+04  0.10019156793E+04  0.25500000920E-02 0.  1.
        2   -1    0    0  501    0  0.00000000000E+00  0.00000000000E+00 -0.22115398709E+04  0.22115398709E+04  0.25500000920E-02 0. -1.
    10030    2    1    2    0    0  0.00000000000E+00  0.00000000000E+00 -0.12096241916E+04  0.32134555502E+04  0.29770968893E+04 0.  0.
        5    1    3    3  502    0  0.10477554851E+04 -0.84402140561E+03 -0.12922339234E+04  0.18654903625E+04  0.46999998093E+01 0.  1.
       -5    1    3    3    0  502 -0.10477554851E+04  0.84402140561E+03  0.82609731755E+02  0.13479651878E+04  0.46999998093E+01 0. -1.
</event>
<event>
 5   0  0.2628425E-06  0.3032417E+04  0.7818609E-02  0.8234534E-01
       -1   -1    0    0    0  501  0.00000000000E+00  0.00000000000E+00  0.13524714914E+04  0.13524714914E+04  0.50400001928E-02 0. -1.
        1   -1    0    0  501    0  0.00000000000E+00  0.00000000000E+00 -0.16997680019E+04  0.16997680019E+04  0.50400001928E-02 0.  1.
    10030    2    1    2    0    0  0.00000000000E+00  0.00000000000E+00 -0.34729651047E+03  0.30522394933E+04  0.30324167026E+04 0.  0.
        1    1    3    3  502    0 -0.14519822230E+03  0.14463046217E+04 -0.60775421827E+03  0.15755141295E+04  0.50400001928E-02 0. -1.
       -1    1    3    3    0  502  0.14519822230E+03 -0.14463046217E+04  0.26045770780E+03  0.14767253638E+04  0.50400001928E-02 0.  1.
</event>
<event>
 5   0  0.2672155E-06  0.2968840E+04  0.7818609E-02  0.8252685E-01
       -1   -1    0    0    0  501  0.00000000000E+00  0.00000000000E+00  0.15253825615E+04  0.15253825615E+04  0.50400001928E-02 0.  1.
        1   -1    0    0  501    0  0.00000000000E+00  0.00000000000E+00 -0.14445570693E+04  0.14445570694E+04  0.50400001928E-02 0. -1.
    10030    2    1    2    0    0  0.00000000000E+00  0.00000000000E+00  0.80825492111E+02  0.29699396308E+04  0.29688396135E+04 0.  0.
        5    1    3    3  502    0  0.13616878128E+04 -0.58988694261E+03  0.40706732678E+01  0.14839807832E+04  0.46999998093E+01 0.  1.
       -5    1    3    3    0  502 -0.13616878128E+04  0.58988694261E+03  0.76754818843E+02  0.14859588476E+04  0.46999998093E+01 0. -1.
</event>
<event>
 5   0  0.2552990E-06  0.2981763E+04  0.7818609E-02  0.8248958E-01
        1   -1    0    0  501    0  0.00000000000E+00  0.00000000000E+00  0.23637604923E+04  0.23637604923E+04  0.50400001928E-02 0.  1.
       -1   -1    0    0    0  501  0.00000000000E+00  0.00000000000E+00 -0.94033557991E+03  0.94033557992E+03  0.50400001928E-02 0. -1.
    10030    2    1    2    0    0  0.00000000000E+00  0.00000000000E+00  0.14234249124E+04  0.33040960722E+04  0.29817632993E+04 0.  0.
        3    1    3    3  502    0  0.49364261066E+03 -0.94247233856E+03 -0.44559903183E+03  0.11534711281E+04  0.10100000352E+00 0. -1.
       -3    1    3    3    0  502 -0.49364261066E+03  0.94247233856E+03  0.18690239442E+04  0.21506249441E+04  0.10100000352E+00 0.  1.
</event>
<event>
 5   0  0.7193153E-06  0.2985756E+04  0.7818609E-02  0.8247810E-01
       -2   -1    0    0    0  501  0.00000000000E+00  0.00000000000E+00  0.10724107493E+04  0.10724107493E+04  0.25500000920E-02 0.  1.
        2   -1    0    0  501    0  0.00000000000E+00  0.00000000000E+00 -0.20782003141E+04  0.20782003141E+04  0.25500000920E-02 0. -1.
    10030    2    1    2    0    0  0.00000000000E+00  0.00000000000E+00 -0.10057895648E+04  0.31506110635E+04  0.29857557543E+04 0.  0.
        4    1    3    3  502    0  0.29982560988E+03 -0.30381684490E+03  0.10066449606E+04  0.10934055794E+04  0.12699999809E+01 0.  1.
       -4    1    3    3    0  502 -0.29982560988E+03  0.30381684490E+03 -0.20124345254E+04  0.20572054840E+04  0.12699999809E+01 0. -1.
</event>
<event>
 5   0  0.2422083E-06  0.2966961E+04  0.7818609E-02  0.8253229E-01
        1   -1    0    0  501    0  0.00000000000E+00  0.00000000000E+00  0.24666930687E+04  0.24666930687E+04  0.50400001928E-02 0. -1.
       -1   -1    0    0    0  501  0.00000000000E+00  0.00000000000E+00 -0.89217190822E+03  0.89217190823E+03  0.50400001928E-02 0.  1.
    10030    2    1    2    0    0  0.00000000000E+00  0.00000000000E+00  0.15745211605E+04  0.33588649769E+04  0.29669609112E+04 0.  0.
        2    1    3    3  502    0 -0.86306862874E+03 -0.85850638333E+03  0.17470651654E+04  0.21293560905E+04  0.25500000920E-02 0. -1.
       -2    1    3    3    0  502  0.86306862874E+03  0.85850638333E+03 -0.17254400490E+03  0.12295088864E+04  0.25500000920E-02 0.  1.
</event>
<event>
 5   0  0.2298500E-06  0.2981986E+04  0.7818609E-02  0.8248894E-01
       -3   -1    0    0    0  501  0.00000000000E+00  0.00000000000E+00  0.14981668289E+04  0.14981668323E+04  0.10100000352E+00 0. -1.
        3   -1    0    0  501    0  0.00000000000E+00  0.00000000000E+00 -0.14838530907E+04  0.14838530941E+04  0.10100000352E+00 0.  1.
    10030    2    1    2    0    0  0.00000000000E+00  0.00000000000E+00  0.14313738206E+02  0.29820199264E+04  0.29819855731E+04 0.  0.
        5    1    3    3  502    0 -0.13587436013E+04 -0.47669642870E+03  0.39396067942E+03  0.14928666270E+04  0.46999998093E+01 0. -1.
       -5    1    3    3    0  502  0.13587436013E+04  0.47669642870E+03 -0.37964694122E+03  0.14891532994E+04  0.46999998093E+01 0.  1.
</event>
<event>
 5   0  0.7217255E-06  0.3001035E+04  0.7818609E-02  0.8243435E-01
       -2   -1    0    0    0  501  0.00000000000E+00  0.00000000000E+00  0.98127453183E+03  0.98127453184E+03  0.25500000920E-02 0.  1.
        2   -1    0    0  501    0  0.00000000000E+00  0.00000000000E+00 -0.22945183897E+04  0.22945183897E+04  0.25500000920E-02 0. -1.
    10030    2    1    2    0    0  0.00000000000E+00  0.00000000000E+00 -0.13132438579E+04  0.32757929216E+04  0.30010347940E+04 0.  0.
        1    1    3    3  502    0 -0.81257995294E+03 -0.11989273330E+04 -0.22848826236E+03  0.14662604870E+04  0.50400001928E-02 0. -1.
       -1    1    3    3    0  502  0.81257995294E+03  0.11989273330E+04 -0.10847555955E+04  0.18095324346E+04  0.50400001928E-02 0.  1.
</event>
<event>
 5   0  0.7193153E-06  0.2998514E+04  0.7818609E-02  0.8244155E-01
        2   -1    0    0  501    0  0.00000000000E+00  0.00000000000E+00  0.19559819744E+04  0.19559819744E+04  0.25500000920E-02 0. -1.
       -2   -1    0    0    0  501  0.00000000000E+00  0.00000000000E+00 -0.11491783573E+04  0.11491783573E+04  0.25500000920E-02 0.  1.
    10030    2    1    2    0    0  0.00000000000E+00  0.00000000000E+00  0.80680361713E+03  0.31051603316E+04  0.29985144003E+04 0.  0.
        4    1    3    3  502    0  0.47971483195E+03 -0.21078313995E+03 -0.10512701270E+04  0.11746175314E+04  0.12699999809E+01 0.  1.
       -4    1    3    3    0  502 -0.47971483195E+03  0.21078313995E+03  0.18580737442E+04  0.19305428003E+04  0.12699999809E+01 0. -1.
</event>
<event>
 5   0  0.7193153E-06  0.2972788E+04  0.7818609E-02  0.8251544E-01
        2   -1    0    0  501    0  0.00000000000E+00  0.00000000000E+00  0.13309642975E+04  0.13309642975E+04  0.25500000920E-02 0. -1.
       -2   -1    0    0    0  501  0.00000000000E+00  0.00000000000E+00 -0.16599749743E+04  0.16599749743E+04  0.25500000920E-02 0.  1.
    10030    2    1    2    0    0  0.00000000000E+00  0.00000000000E+00 -0.32901067681E+03  0.29909392718E+04  0.29727882034E+04 0.  0.
        4    1    3    3  502    0 -0.48958007835E+03 -0.13870225507E+02  0.12474466857E+04  0.13401514402E+04  0.12699999809E+01 0. -1.
       -4    1    3    3    0  502  0.48958007835E+03  0.13870225507E+02 -0.15764573625E+04  0.16507878316E+04  0.12699999809E+01 0.  1.
</event>
<event>
 5   0  0.6792811E-06  0.3107765E+04  0.7818609E-02  0.8213610E-01
        2   -1    0    0  501    0  0.00000000000E+00  0.00000000000E+00  0.23990933290E+04  0.23990933290E+04  0.25500000920E-02 0. -1.
       -2   -1    0    0    0  501  0.00000000000E+00  0.00000000000E+00 -0.10064428587E+04  0.10064428587E+04  0.25500000920E-02 0.  1.
    10030    2    1    2    0    0  0.00000000000E+00  0.00000000000E+00  0.13926504703E+04  0.34055361876E+04  0.31077646940E+04 0.  0.
        2    1    3    3  502    0 -0.10375625227E+04  0.30870105775E+03 -0.52525970014E+03  0.12032165575E+04  0.25500000920E-02 0.  1.
       -2    1    3    3    0  502  0.10375625227E+04 -0.30870105775E+03  0.19179101704E+04  0.22023196302E+04  0.25500000920E-02 0. -1.
</event>
<event>
 5   0  0.7201538E-06  0.2926203E+04  0.7818609E-02  0.8265124E-01
       -2   -1    0    0    0  501  0.00000000000E+00  0.00000000000E+00  0.18521567913E+04  0.18521567913E+04  0.25500000920E-02 0. -1.
        2   -1    0    0  501    0  0.00000000000E+00  0.00000000000E+00 -0.11557694251E+04  0.11557694251E+04  0.25500000920E-02 0.  1.
    10030    2    1    2    0    0  0.00000000000E+00  0.00000000000E+00  0.69638736613E+03  0.30079262164E+04  0.29262031303E+04 0.  0.
        3    1    3    3  502    0 -0.10125769820E+04  0.29560829755E+03  0.13903980293E+04  0.17452515865E+04  0.10100000352E+00 0. -1.
       -3    1    3    3    0  502  0.10125769820E+04 -0.29560829755E+03 -0.69401066319E+03  0.12626746299E+04  0.10100000352E+00 0.  1.
</event>
<event>
 5   0  0.2552990E-06  0.2984651E+04  0.7818609E-02  0.8248127E-01
        1   -1    0    0  501    0  0.00000000000E+00  0.00000000000E+00  0.19488003187E+04  0.19488003187E+04  0.50400001928E-02 0. -1.
       -1   -1    0    0    0  501  0.00000000000E+00  0.00000000000E+00 -0.11427727579E+04  0.11427727579E+04  0.50400001928E-02 0.  1.
    10030    2    1    2    0    0  0.00000000000E+00  0.00000000000E+00  0.80602756088E+03  0.30915730766E+04  0.29846513463E+04 0.  0.
        3    1    3    3  502    0 -0.82344802268E+03  0.45263471774E+03 -0.79786800717E+03  0.12326955021E+04  0.10100000352E+00 0.  1.
       -3    1    3    3    0  502  0.82344802268E+03 -0.45263471774E+03  0.16038955680E+04  0.18588775745E+04  0.10100000352E+00 0. -1.
</event>
<event>
 5   0  0.2504260E-06  0.2976622E+04  0.7818609E-02  0.8250438E-01
       -1   -1    0    0    0  501  0.00000000000E+00  0.00000000000E+00  0.15593450144E+04  0.15593450144E+04  0.50400001928E-02 0. -1.
        1   -1    0    0  501    0  0.00000000000E+00  0.00000000000E+00 -0.14205125800E+04  0.14205125800E+04  0.50400001928E-02 0.  1.
    10030    2    1    2    0    0  0.00000000000E+00  0.00000000000E+00  0.13883243444E+03  0.29798575944E+04  0.29766217157E+04 0.  0.
        4    1    3    3  502    0 -0.19245097205E+03  0.59509288345E+03 -0.12825683756E+04  0.14269394407E+04  0.12699999809E+01 0.  1.
       -4    1    3    3    0  502  0.19245097205E+03 -0.59509288345E+03  0.14214008100E+04  0.15529181537E+04  0.12699999809E+01 0. -1.
</event>
<event>
 5   0  0.7201538E-06  0.2984007E+04  0.7818609E-02  0.8248313E-01
        2   -1    0    0  501    0  0.00000000000E+00  0.00000000000E+00  0.21284352139E+04  0.21284352139E+04  0.25500000920E-02 0.  1.
       -2   -1    0    0    0  501  0.00000000000E+00  0.00000000000E+00 -0.10458734570E+04  0.10458734570E+04  0.25500000920E-02 0. -1.
    10030    2    1    2    0    0  0.00000000000E+00  0.00000000000E+00  0.10825617569E+04  0.31743086709E+04  0.29840066321E+04 0.  0.
        3    1    3    3  502    0 -0.12597293167E+04  0.52937518297E+03 -0.96023496171E+02  0.13698089494E+04  0.10100000352E+00 0. -1.
       -3    1    3    3    0  502  0.12597293167E+04 -0.52937518297E+03  0.11785852531E+04  0.18044997215E+04  0.10100000352E+00 0.  1.
</event>
<event>
 5   0  0.6792811E-06  0.2965296E+04  0.7818609E-02  0.8253711E-01
        2   -1    0    0  501    0  0.00000000000E+00  0.00000000000E+00  0.15782359764E+04  0.15782359764E+04  0.25500000920E-02 0. -1.
       -2   -1    0    0    0  501  0.00000000000E+00  0.00000000000E+00 -0.13928495818E+04  0.13928495818E+04  0.25500000920E-02 0.  1.
    10030    2    1    2    0    0  0.00000000000E+00  0.00000000000E+00  0.18538639461E+03  0.29710855582E+04  0.29652961536E+04 0.  0.
        2    1    3    3  502    0 -0.17644902869E+03 -0.12011126264E+04 -0.76010868590E+03  0.14323306237E+04  0.25500000920E-02 0.  1.
       -2    1    3    3    0  502  0.17644902869E+03  0.12011126264E+04  0.94549508051E+03  0.15387549345E+04  0.25500000920E-02 0. -1.
</event>
<event>
 5   0  0.2628425E-06  0.2952294E+04  0.7818609E-02  0.8257486E-01
       -1   -1    0    0    0  501  0.00000000000E+00  0.00000000000E+00  0.11602517083E+04  0.11602517083E+04  0.50400001928E-02 0.  1.
        1   -1    0    0  501    0  0.00000000000E+00  0.00000000000E+00 -0.18780491770E+04  0.18780491770E+04  0.50400001928E-02 0. -1.
    10030    2    1    2    0    0  0.00000000000E+00  0.00000000000E+00 -0.71779746875E+03  0.30383008853E+04  0.29522938647E+04 0.  0.
        1    1    3    3  502    0  0.77569965800E+03  0.14566276801E+03 -0.16426694322E+04  0.18224407987E+04  0.50400001928E-02 0. -1.
       -1    1    3    3    0  502 -0.77569965800E+03 -0.14566276801E+03  0.92487196344E+03  0.12158600866E+04  0.50400001928E-02 0.  1.
</event>
<event>
 5   0  0.7217255E-06  0.3065965E+04  0.7818609E-02  0.8225141E-01
        2   -1    0    0  501    0  0.00000000000E+00  0.00000000000E+00  0.13132315916E+04  0.13132315916E+04  0.25500000920E-02 0. -1.
       -2   -1    0    0    0  501  0.00000000000E+00  0.00000000000E+00 -0.17895056327E+04  0.17895056327E+04  0.25500000920E-02 0.  1.
    10030    2    1    2    0    0  0.00000000000E+00  0.00000000000E+00 -0.47627404110E+03  0.31027372243E+04  0.30659649902E+04 0.  0.
        1    1    3    3  502    0 -0.89411928467E+03 -0.44238905674E+03 -0.14160898327E+04  0.17321858408E+04  0.50400001928E-02 0.  1.
       -1    1    3    3    0  502  0.89411928467E+03  0.44238905674E+03  0.93981579161E+03  0.13705513835E+04  0.50400001928E-02 0. -1.
</event>
<event>
 5   0  0.2422083E-06  0.2934861E+04  0.7818609E-02  0.8262580E-01
       -1   -1    0    0    0  501  0.00000000000E+00  0.00000000000E+00  0.15364552741E+04  0.15364552741E+04  0.50400001928E-02 0.  1.
        1   -1    0    0  501    0  0.00000000000E+00  0.00000000000E+00 -0.14015067669E+04  0.14015067669E+04  0.50400001928E-02 0. -1.
    10030    2    1    2    0    0  0.00000000000E+00  0.00000000000E+00  0.13494850718E+03  0.29379620410E+04  0.29348611304E+04 0.  0.
        2    1    3    3  502    0 -0.86834200946E+03  0.61092200322E+03  0.10815148833E+04  0.15155586370E+04  0.25500000920E-02 0.  1.
       -2    1    3    3    0  502  0.86834200946E+03 -0.61092200322E+03 -0.94656637608E+03  0.14224034040E+04  0.25500000920E-02 0. -1.
</event>
<event>
 5   0  0.6780150E-06  0.2995656E+04  0.7818609E-02  0.8244972E-01
       -2   -1    0    0    0  501  0.00000000000E+00  0.00000000000E+00  0.15663831703E+04  0.15663831703E+04  0.25500000920E-02 0.  1.
        2   -1    0    0  501    0  0.00000000000E+00  0.00000000000E+00 -0.14322735474E+04  0.14322735474E+04  0.25500000920E-02 0. -1.
    10030    2    1    2    0    0  0.00000000000E+00  0.00000000000E+00  0.13410962288E+03  0.29986567177E+04  0.29956563087E+04 0.  0.
        5    1    3    3  502    0 -0.14854797744E+04  0.57579332426E+02 -0.11616280006E+03  0.14911342749E+04  0.46999998093E+01 0.  1.
       -5    1    3    3    0  502  0.14854797744E+04 -0.57579332426E+02  0.25027242294E+03  0.15075224428E+04  0.46999998093E+01 0. -1.
</event>
<event>
 5   0  0.2422083E-06  0.2997256E+04  0.7818609E-02  0.8244515E-01
        1   -1    0    0  501    0  0.00000000000E+00  0.00000000000E+00  0.89209440791E+03  0.89209440792E+03  0.50400001928E-02 0. -1.
       -1   -1    0    0    0  501  0.00000000000E+00  0.00000000000E+00 -0.25175433675E+04  0.25175433675E+04  0.50400001928E-02 0.  1.
    10030    2    1    2    0    0  0.00000000000E+00  0.00000000000E+00 -0.16254489596E+04  0.34096377754E+04  0.29972563186E+04 0.  0.
        2    1    3    3  502    0 -0.19622328735E+03 -0.10770591714E+04 -0.19769185127E+04  0.22598156657E+04  0.25500000920E-02 0.  1.
       -2    1    3    3    0  502  0.19622328735E+03  0.10770591714E+04  0.35146955316E+03  0.11498221097E+04  0.25500000920E-02 0. -1.
</event>
<event>
 5   0  0.2552990E-06  0.3000515E+04  0.7818609E-02  0.8243584E-01
       -1   -1    0    0    0  501  0.00000000000E+00  0.00000000000E+00  0.19154363775E+04  0.19154363775E+04  0.50400001928E-02 0.  1.
        1   -1    0    0  501    0  0.00000000000E+00  0.00000000000E+00 -0.11750707097E+04  0.11750707097E+04  0.50400001928E-02 0. -1.
    10030    2    1    2    0    0  0.00000000000E+00  0.00000000000E+00  0.74036566774E+03  0.30905070872E+04  0.30005154114E+04 0.  0.
        3    1    3    3  502    0  0.23537367928E+03 -0.36467153327E+03 -0.11089901683E+04  0.11909010453E+04  0.10100000352E+00 0. -1.
       -3    1    3    3    0  502 -0.23537367928E+03  0.36467153327E+03  0.18493558360E+04  0.18996060419E+04  0.10100000352E+00 0.  1.
</event>
<event>
 5   0  0.2672155E-06  0.2930080E+04  0.7818609E-02  0.8263984E-01
       -1   -1    0    0    0  501  0.00000000000E+00  0.00000000000E+00  0.11620079085E+04  0.11620079086E+04  0.50400001928E-02 0.  1.
        1   -1    0    0  501    0  0.00000000000E+00  0.00000000000E+00 -0.18470978172E+04  0.18470978172E+04  0.50400001928E-02 0. -1.
    10030    2    1    2    0    0  0.00000000000E+00  0.00000000000E+00 -0.68508990870E+03  0.30091057258E+04  0.29300800477E+04 0.  0.
        5    1    3    3  502    0  0.41197009708E+03 -0.95317286317E+03 -0.14038891706E+04  0.17461915019E+04  0.46999998093E+01 0. -1.
       -5    1    3    3    0  502 -0.41197009708E+03  0.95317286317E+03  0.71879926193E+03  0.12629142239E+04  0.46999998093E+01 0.  1.
</event>
<event>
 5   0  0.7217255E-06  0.2981862E+04  0.7818609E-02  0.8248929E-01
        2   -1    0    0  501    0  0.00000000000E+00  0.00000000000E+00  0.21294258675E+04  0.21294258675E+04  0.25500000920E-02 0. -1.
       -2   -1    0    0    0  501  0.00000000000E+00  0.00000000000E+00 -0.10438845492E+04  0.10438845492E+04  0.25500000920E-02 0.  1.
    10030    2    1    2    0    0  0.00000000000E+00  0.00000000000E+00  0.10855413184E+04  0.31733104167E+04  0.29818616747E+04 0.  0.
        1    1    3    3  502    0  0.20337903699E+03 -0.11674764783E+04 -0.42003174393E+03  0.12572951229E+04  0.50400001928E-02 0.  1.
       -1    1    3    3    0  502 -0.20337903699E+03  0.11674764783E+04  0.15055730623E+04  0.19160152938E+04  0.50400001928E-02 0. -1.
</event>
<event>
 5   0  0.2552990E-06  0.2900945E+04  0.7818609E-02  0.8272596E-01
        1   -1    0    0  501    0  0.00000000000E+00  0.00000000000E+00  0.17660370610E+04  0.17660370610E+04  0.50400001928E-02 0.  1.
       -1   -1    0    0    0  501  0.00000000000E+00  0.00000000000E+00 -0.11912947795E+04  0.11912947795E+04  0.50400001928E-02 0. -1.
    10030    2    1    2    0    0  0.00000000000E+00  0.00000000000E+00  0.57474228143E+03  0.29573318405E+04  0.29009451779E+04 0.  0.
        3    1    3    3  502    0  0.12387219149E+04  0.75461111304E+03  0.28645561201E+03  0.14784879919E+04  0.10100000352E+00 0.  1.
       -3    1    3    3    0  502 -0.12387219149E+04 -0.75461111304E+03  0.28828666943E+03  0.14788438486E+04  0.10100000352E+00 0. -1.
</event>
<event>
 5   0  0.6792811E-06  0.2959307E+04  0.7818609E-02  0.8255447E-01
        2   -1    0    0  501    0  0.00000000000E+00  0.00000000000E+00  0.16965778832E+04  0.16965778832E+04  0.25500000920E-02 0.  1.
       -2   -1    0    0    0  501  0.00000000000E+00  0.00000000000E+00 -0.12904653510E+04  0.12904653510E+04  0.25500000920E-02 0. -1.
    10030    2    1    2    0    0  0.00000000000E+00  0.00000000000E+00  0.40611253216E+03  0.29870432343E+04  0.29593073336E+04 0.  0.
        2    1    3    3  502    0 -0.89931687936E+03  0.11075189700E+04  0.59917014068E+03  0.15473764816E+04  0.25500000920E-02 0. -1.
       -2    1    3    3    0  502  0.89931687936E+03 -0.11075189700E+04 -0.19305760852E+03  0.14396667526E+04  0.25500000920E-02 0.  1.
</event>
<event>
 5   0  0.2504260E-06  0.2949575E+04  0.7818609E-02  0.8258278E-01
        1   -1    0    0  501    0  0.00000000000E+00  0.00000000000E+00  0.14732452159E+04  0.14732452159E+04  0.50400001928E-02 0.  1.
       -1   -1    0    0    0  501  0.00000000000E+00  0.00000000000E+00 -0.14763316608E+04  0.14763316608E+04  0.50400001928E-02 0. -1.
    10030    2    1    2    0    0  0.00000000000E+00  0.00000000000E+00 -0.30864449020E+01  0.29495768766E+04  0.29495752618E+04 0.  0.
        4    1    3    3  502    0 -0.91141929719E+03 -0.63472784222E+03  0.96873168974E+03  0.14737731401E+04  0.12699999809E+01 0.  1.
       -4    1    3    3    0  502  0.91141929719E+03  0.63472784222E+03 -0.97181813464E+03  0.14758037365E+04  0.12699999809E+01 0. -1.
</event>
<event>
 5   0  0.2672155E-06  0.2960098E+04  0.7818609E-02  0.8255218E-01
       -1   -1    0    0    0  501  0.00000000000E+00  0.00000000000E+00  0.14595895864E+04  0.14595895864E+04  0.50400001928E-02 0.  1.
        1   -1    0    0  501    0  0.00000000000E+00  0.00000000000E+00 -0.15007950015E+04  0.15007950015E+04  0.50400001928E-02 0. -1.
    10030    2    1    2    0    0  0.00000000000E+00  0.00000000000E+00 -0.41205415074E+02  0.29603845879E+04  0.29600978062E+04 0.  0.
        5    1    3    3  502    0  0.47131684619E+03 -0.93726504931E+03 -0.10646949072E+04  0.14947249505E+04  0.46999998093E+01 0. -1.
       -5    1    3    3    0  502 -0.47131684619E+03  0.93726504931E+03  0.10234894922E+04  0.14656596374E+04  0.46999998093E+01 0.  1.
</event>
<event>
 5   0  0.6780150E-06  0.3027141E+04  0.7818609E-02  0.8236023E-01
        2   -1    0    0  501    0  0.00000000000E+00  0.00000000000E+00  0.17704894621E+04  0.17704894621E+04  0.25500000920E-02 0.  1.
       -2   -1    0    0    0  501  0.00000000000E+00  0.00000000000E+00 -0.12939334851E+04  0.12939334851E+04  0.25500000920E-02 0. -1.
    10030    2    1    2    0    0  0.00000000000E+00  0.00000000000E+00  0.47655597700E+03  0.30644229472E+04  0.30271409614E+04 0.  0.
        5    1    3    3  502    0  0.14549268717E+03  0.15065124667E+04  0.22693391360E+03  0.15304473285E+04  0.46999998093E+01 0. -1.
       -5    1    3    3    0  502 -0.14549268717E+03 -0.15065124667E+04  0.24962206340E+03  0.15339756187E+04  0.46999998093E+01 0.  1.
</event>
<event>
 5   0  0.2672155E-06  0.2952754E+04  0.7818609E-02  0.8257352E-01
        1   -1    0    0  501    0  0.00000000000E+00  0.00000000000E+00  0.11707800045E+04  0.11707800045E+04  0.50400001928E-02 0.  1.
       -1   -1    0    0    0  501  0.00000000000E+00  0.00000000000E+00 -0.18617415252E+04  0.18617415252E+04  0.50400001928E-02 0. -1.
    10030    2    1    2    0    0  0.00000000000E+00  0.00000000000E+00 -0.69096152072E+03  0.30325215297E+04  0.29527544776E+04 0.  0.
        5    1    3    3  502    0 -0.59030400766E+03 -0.11607200751E+04 -0.10599298797E+04  0.16790483478E+04  0.46999998093E+01 0. -1.
       -5    1    3    3    0  502  0.59030400766E+03  0.11607200751E+04  0.36896835899E+03  0.13534731819E+04  0.46999998093E+01 0.  1.
</event>
<event>
 5   0  0.2422083E-06  0.3051753E+04  0.7818609E-02  0.8229105E-01
        1   -1    0    0  501    0  0.00000000000E+00  0.00000000000E+00  0.12919083312E+04  0.12919083312E+04  0.50400001928E-02 0. -1.
       -1   -1    0    0    0  501  0.00000000000E+00  0.00000000000E+00 -0.18022173235E+04  0.18022173235E+04  0.50400001928E-02 0.  1.
    10030    2    1    2    0    0  0.00000000000E+00  0.00000000000E+00 -0.51030899230E+03  0.30941256546E+04  0.30517533156E+04 0.  0.
        2    1    3    3  502    0 -0.91237967624E+03 -0.43921489048E+03 -0.14124730799E+04  0.17379374543E+04  0.25500000920E-02 0.  1.
       -2    1    3    3    0  502  0.91237967624E+03  0.43921489048E+03  0.90216408763E+03  0.13561882003E+04  0.25500000920E-02 0. -1.
</event>
<event>
 5   0  0.7217255E-06  0.2934910E+04  0.7818609E-02  0.8262566E-01
       -2   -1    0    0    0  501  0.00000000000E+00  0.00000000000E+00  0.12314478814E+04  0.12314478814E+04  0.25500000920E-02 0. -1.
        2   -1    0    0  501    0  0.00000000000E+00  0.00000000000E+00 -0.17486926675E+04  0.17486926675E+04  0.25500000920E-02 0.  1.
    10030    2    1    2    0    0  0.00000000000E+00  0.00000000000E+00 -0.51724478612E+03  0.29801405488E+04  0.29349097980E+04 0.  0.
        1    1    3    3  502    0  0.67342446277E+03 -0.66912553497E+03  0.87763799257E+03  0.12928565019E+04  0.50400001928E-02 0. -1.
       -1    1    3    3    0  502 -0.67342446277E+03  0.66912553497E+03 -0.13948827787E+04  0.16872840469E+04  0.50400001928E-02 0.  1.
</event>
<event>
 5   0  0.2504260E-06  0.2991480E+04  0.7818609E-02  0.8246168E-01
        1   -1    0    0  501    0  0.00000000000E+00  0.00000000000E+00  0.13357978551E+04  0.13357978551E+04  0.50400001928E-02 0.  1.
       -1   -1    0    0    0  501  0.00000000000E+00  0.00000000000E+00 -0.16748333361E+04  0.16748333362E+04  0.50400001928E-02 0. -1.
    10030    2    1    2    0    0  0.00000000000E+00  0.00000000000E+00 -0.33903548103E+03  0.30106311913E+04  0.29914804216E+04 0.  0.
        4    1    3    3  502    0  0.29766308790E+03 -0.14657556319E+04 -0.15549011039E+03  0.15037359055E+04  0.12699999809E+01 0. -1.
       -4    1    3    3    0  502 -0.29766308790E+03  0.14657556319E+04 -0.18354537064E+03  0.15068952858E+04  0.12699999809E+01 0.  1.
</event>
<event>
 5   0  0.7217255E-06  0.2955505E+04  0.7818609E-02  0.8256552E-01
       -2   -1    0    0    0  501  0.00000000000E+00  0.00000000000E+00  0.14085264058E+04  0.14085264058E+04  0.25500000920E-02 0. -1.
        2   -1    0    0  501    0  0.00000000000E+00  0.00000000000E+00 -0.15503807335E+04  0.15503807335E+04  0.25500000920E-02 0.  1.
    10030    2    1    2    0    0  0.00000000000E+00  0.00000000000E+00 -0.14185432770E+03  0.29589071394E+04  0.29555048315E+04 0.  0.
        1    1    3    3  502    0  0.69352583576E+03  0.12052575290E+04  0.42977696194E+03  0.14554490830E+04  0.50400001928E-02 0. -1.
       -1    1    3    3    0  502 -0.69352583576E+03 -0.12052575290E+04 -0.57163128964E+03  0.15034580564E+04  0.50400001928E-02 0.  1.
</event>
<event>
 5   0  0.7217255E-06  0.2992484E+04  0.7818609E-02  0.8245880E-01
        2   -1    0    0  501    0  0.00000000000E+00  0.00000000000E+00  0.14716246348E+04  0.14716246348E+04  0.25500000920E-02 0. -1.
       -2   -1    0    0    0  501  0.00000000000E+00  0.00000000000E+00 -0.15212714264E+04  0.15212714264E+04  0.25500000920E-02 0.  1.
    10030    2    1    2    0    0  0.00000000000E+00  0.00000000000E+00 -0.49646791623E+02  0.29928960612E+04  0.29924842572E+04 0.  0.
        1    1    3    3  502    0  0.13853466020E+04 -0.38252172799E+03  0.39144587830E+03  0.14895428680E+04  0.50400001928E-02 0. -1.
       -1    1    3    3    0  502 -0.13853466020E+04  0.38252172799E+03 -0.44109266992E+03  0.15033531932E+04  0.50400001928E-02 0.  1.
</event>
<event>
 5   0  0.2504260E-06  0.2960580E+04  0.7818609E-02  0.8255078E-01
       -1   -1    0    0    0  501  0.00000000000E+00  0.00000000000E+00  0.15017140101E+04  0.15017140101E+04  0.50400001928E-02 0. -1.
        1   -1    0    0  501    0  0.00000000000E+00  0.00000000000E+00 -0.14591713993E+04  0.14591713993E+04  0.50400001928E-02 0.  1.
    10030    2    1    2    0    0  0.00000000000E+00  0.00000000000E+00  0.42542610772E+02  0.29608854094E+04  0.29605797631E+04 0.  0.
        4    1    3    3  502    0 -0.37587581760E+03 -0.10505153063E+04  0.99419828103E+03  0.14944219197E+04  0.12699999809E+01 0. -1.
       -4    1    3    3    0  502  0.37587581760E+03  0.10505153063E+04 -0.95165567026E+03  0.14664634897E+04  0.12699999809E+01 0.  1.
</event>
<event>
 5   0  0.2552990E-06  0.3022102E+04  0.7818609E-02  0.8237448E-01
       -1   -1    0    0    0  501  0.00000000000E+00  0.00000000000E+00  0.15044608382E+04  0.15044608383E+04  0.50400001928E-02 0. -1.
        1   -1    0    0  501    0  0.00000000000E+00  0.00000000000E+00 -0.15176697480E+04  0.15176697480E+04  0.50400001928E-02 0.  1.
    10030    2    1    2    0    0  0.00000000000E+00  0.00000000000E+00 -0.13208909794E+02  0.30221305863E+04  0.30221017199E+04 0.  0.
        3    1    3    3  502    0 -0.10077051545E+04 -0.11090982563E+04  0.18757791049E+03  0.15102165749E+04  0.10100000352E+00 0.  1.
       -3    1    3    3    0  502  0.10077051545E+04  0.11090982563E+04 -0.20078682028E+03  0.15119140114E+04  0.10100000352E+00 0. -1.
</event>
<event>
 5   0  0.7193153E-06  0.2991501E+04  0.7818609E-02  0.8246162E-01
       -2   -1    0    0    0  501  0.00000000000E+00  0.00000000000E+00  0.10447113192E+04  0.10447113192E+04  0.25500000920E-02 0. -1.
        2   -1    0    0  501    0  0.00000000000E+00  0.00000000000E+00 -0.21415188606E+04  0.21415188606E+04  0.25500000920E-02 0.  1.
    10030    2    1    2    0    0  0.00000000000E+00  0.00000000000E+00 -0.10968075414E+04  0.31862301798E+04  0.29915006227E+04 0.  0.
        4    1    3    3  502    0 -0.38955886894E+03 -0.13705999544E+04 -0.10329538143E+04  0.17599135043E+04  0.12699999809E+01 0.  1.
       -4    1    3    3    0  502  0.38955886894E+03  0.13705999544E+04 -0.63853727111E+02  0.14263166754E+04  0.12699999809E+01 0. -1.
</event>
<event>
 5   0  0.2504260E-06  0.3011665E+04  0.7818609E-02  0.8240408E-01
        1   -1    0    0  501    0  0.00000000000E+00  0.00000000000E+00  0.20613458611E+04  0.20613458611E+04  0.50400001928E-02 0. -1.
       -1   -1    0    0    0  501  0.00000000000E+00  0.00000000000E+00 -0.11000247190E+04  0.11000247190E+04  0.50400001928E-02 0.  1.
    10030    2    1    2    0    0  0.00000000000E+00  0.00000000000E+00  0.96132114218E+03  0.31613705801E+04  0.30116649227E+04 0.  0.
        4    1    3    3  502    0 -0.20842299042E+03  0.82614183648E+02 -0.10824061356E+04  0.11053822423E+04  0.12699999809E+01 0.  1.
       -4    1    3    3    0  502  0.20842299042E+03 -0.82614183648E+02  0.20437272778E+04  0.20559883378E+04  0.12699999809E+01 0. -1.
</event>
<event>
 5   0  0.2628425E-06  0.3110149E+04  0.7818609E-02  0.8212958E-01
       -1   -1    0    0    0  501  0.00000000000E+00  0.00000000000E+00  0.15839844975E+04  0.15839844975E+04  0.50400001928E-02 0.  1.
        1   -1    0    0  501    0  0.00000000000E+00  0.00000000000E+00 -0.15266924868E+04  0.15266924868E+04  0.50400001928E-02 0. -1.
    10030    2    1    2    0    0  0.00000000000E+00  0.00000000000E+00  0.57292010679E+02  0.31106769844E+04  0.31101493415E+04 0.  0.
        1    1    3    3  502    0  0.84153688634E+03 -0.49816359576E+03  0.12379441509E+04  0.15776111751E+04  0.50400001928E-02 0.  1.
       -1    1    3    3    0  502 -0.84153688634E+03  0.49816359576E+03 -0.11806521402E+04  0.15330658092E+04  0.50400001928E-02 0. -1.
</event>
<event>
 5   0  0.2672155E-06  0.3117459E+04  0.7818609E-02  0.8210963E-01
       -1   -1    0    0    0  501  0.00000000000E+00  0.00000000000E+00  0.20846475866E+04  0.20846475866E+04  0.50400001928E-02 0.  1.
        1   -1    0    0  501    0  0.00000000000E+00  0.00000000000E+00 -0.11654904711E+04  0.11654904711E+04  0.50400001928E-02 0. -1.
    10030    2    1    2    0    0  0.00000000000E+00  0.00000000000E+00  0.91915711546E+03  0.32501380577E+04  0.31174585147E+04 0.  0.
        5    1    3    3  502    0  0.28472070385E+03  0.14881023076E+04  0.84136125778E+03  0.17330392994E+04  0.46999998093E+01 0.  1.
       -5    1    3    3    0  502 -0.28472070385E+03 -0.14881023076E+04  0.77795857684E+02  0.15170987583E+04  0.46999998093E+01 0. -1.
</event>
<event>
 5   0  0.7193153E-06  0.3024639E+04  0.7818609E-02  0.8236730E-01
       -2   -1    0    0    0  501  0.00000000000E+00  0.00000000000E+00  0.13578498501E+04  0.13578498501E+04  0.25500000920E-02 0.  1.
        2   -1    0    0  501    0  0.00000000000E+00  0.00000000000E+00 -0.16843612674E+04  0.16843612674E+04  0.25500000920E-02 0. -1.
    10030    2    1    2    0    0  0.00000000000E+00  0.00000000000E+00 -0.32651141728E+03  0.30422111176E+04  0.30246386194E+04 0.  0.
        4    1    3    3  502    0  0.24521507068E+01 -0.11296392055E+04 -0.11745909868E+04  0.16296491484E+04  0.12699999809E+01 0. -1.
       -4    1    3    3    0  502 -0.24521507068E+01  0.11296392055E+04  0.84807956947E+03  0.14125619692E+04  0.12699999809E+01 0.  1.
</event>
<event>
 5   0  0.6792811E-06  0.2913259E+04  0.7818609E-02  0.8268944E-01
        2   -1    0    0  501    0  0.00000000000E+00  0.00000000000E+00  0.21628358071E+04  0.21628358071E+04  0.25500000920E-02 0.  1.
       -2   -1    0    0    0  501  0.00000000000E+00  0.00000000000E+00 -0.98101246674E+03  0.98101246674E+03  0.25500000920E-02 0. -1.
    10030    2    1    2    0    0  0.00000000000E+00  0.00000000000E+00  0.11818233403E+04  0.31438482738E+04  0.29132585812E+04 0.  0.
        2    1    3    3  502    0  0.75558738382E+03  0.92942070085E+03  0.14853936216E+04  0.19081743486E+04  0.25500000920E-02 0.  1.
       -2    1    3    3    0  502 -0.75558738382E+03 -0.92942070085E+03 -0.30357028123E+03  0.12356739252E+04  0.25500000920E-02 0. -1.
</event>
<event>
 5   0  0.2672155E-06  0.3018739E+04  0.7818609E-02  0.8238400E-01
        1   -1    0    0  501    0  0.00000000000E+00  0.00000000000E+00  0.22568107846E+04  0.22568107846E+04  0.50400001928E-02 0. -1.
       -1   -1    0    0    0  501  0.00000000000E+00  0.00000000000E+00 -0.10094756779E+04  0.10094756779E+04  0.50400001928E-02 0.  1.
    10030    2    1    2    0    0  0.00000000000E+00  0.00000000000E+00  0.12473351068E+04  0.32662864625E+04  0.30187385423E+04 0.  0.
        5    1    3    3  502    0  0.96466204863E+03  0.62740169099E+03  0.16804744026E+04  0.20367184532E+04  0.46999998093E+01 0. -1.
       -5    1    3    3    0  502 -0.96466204863E+03 -0.62740169099E+03 -0.43313929582E+03  0.12295680093E+04  0.46999998093E+01 0.  1.
</event>
<event>
 5   0  0.2628425E-06  0.3020502E+04  0.7818609E-02  0.8237900E-01
        1   -1    0    0  501    0  0.00000000000E+00  0.00000000000E+00  0.15500247786E+04  0.15500247786E+04  0.50400001928E-02 0.  1.
       -1   -1    0    0    0  501  0.00000000000E+00  0.00000000000E+00 -0.14714981884E+04  0.14714981884E+04  0.50400001928E-02 0. -1.
    10030    2    1    2    0    0  0.00000000000E+00  0.00000000000E+00  0.78526590207E+02  0.30215229670E+04  0.30205023779E+04 0.  0.
        1    1    3    3  502    0  0.37352408024E+03  0.47468837928E+03 -0.13454043064E+04  0.14747752519E+04  0.50400001928E-02 0. -1.
       -1    1    3    3    0  502 -0.37352408024E+03 -0.47468837928E+03  0.14239308966E+04  0.15467477151E+04  0.50400001928E-02 0.  1.
</event>
<event>
 5   0  0.7201538E-06  0.2938813E+04  0.7818609E-02  0.8261422E-01
        2   -1    0    0  501    0  0.00000000000E+00  0.00000000000E+00  0.14429206777E+04  0.14429206777E+04  0.25500000920E-02 0. -1.
       -2   -1    0    0    0  501  0.00000000000E+00  0.00000000000E+00 -0.14963784541E+04  0.14963784541E+04  0.25500000920E-02 0.  1.
    10030    2    1    2    0    0  0.00000000000E+00  0.00000000000E+00 -0.53457776376E+02  0.29392991318E+04  0.29388129665E+04 0.  0.
        3    1    3    3  502    0  0.49248625737E+02  0.93057650410E+03 -0.11630318578E+04  0.14903157952E+04  0.10100000352E+00 0.  1.
       -3    1    3    3    0  502 -0.49248625737E+02 -0.93057650410E+03  0.11095740814E+04  0.14489833365E+04  0.10100000352E+00 0. -1.
</event>
<event>
 5   0  0.7193153E-06  0.3000153E+04  0.7818609E-02  0.8243687E-01
       -2   -1    0    0    0  501  0.00000000000E+00  0.00000000000E+00  0.18323877050E+04  0.18323877050E+04  0.25500000920E-02 0. -1.
        2   -1    0    0  501    0  0.00000000000E+00  0.00000000000E+00 -0.12280314739E+04  0.12280314739E+04  0.25500000920E-02 0.  1.
    10030    2    1    2    0    0  0.00000000000E+00  0.00000000000E+00  0.60435623115E+03  0.30604191789E+04  0.30001531789E+04 0.  0.
        4    1    3    3  502    0  0.23438463384E+03  0.27224399689E+03  0.17878597590E+04  0.18235945496E+04  0.12699999809E+01 0. -1.
       -4    1    3    3    0  502 -0.23438463384E+03 -0.27224399689E+03 -0.11835035279E+04  0.12368246294E+04  0.12699999809E+01 0.  1.
</event>
<event>
 5   0  0.7193153E-06  0.3080434E+04  0.7818609E-02  0.8221128E-01
        2   -1    0    0  501    0  0.00000000000E+00  0.00000000000E+00  0.11001436607E+04  0.11001436607E+04  0.25500000920E-02 0.  1.
       -2   -1    0    0    0  501  0.00000000000E+00  0.00000000000E+00 -0.21563265493E+04  0.21563265493E+04  0.25500000920E-02 0. -1.
    10030    2    1    2    0    0  0.00000000000E+00  0.00000000000E+00 -0.10561828886E+04  0.32564702100E+04  0.30804343743E+04 0.  0.
        4    1    3    3  502    0  0.78148808606E+03  0.81636047384E+03  0.57818051136E+03  0.12694338772E+04  0.12699999809E+01 0.  1.
       -4    1    3    3    0  502 -0.78148808606E+03 -0.81636047384E+03 -0.16343633999E+04  0.19870363328E+04  0.12699999809E+01 0. -1.
</event>
<event>
 5   0  0.2552990E-06  0.3006174E+04  0.7818609E-02  0.8241970E-01
        1   -1    0    0  501    0  0.00000000000E+00  0.00000000000E+00  0.13750356738E+04  0.13750356738E+04  0.50400001928E-02 0.  1.
       -1   -1    0    0    0  501  0.00000000000E+00  0.00000000000E+00 -0.16430636275E+04  0.16430636275E+04  0.50400001928E-02 0. -1.
    10030    2    1    2    0    0  0.00000000000E+00  0.00000000000E+00 -0.26802795372E+03  0.30180993013E+04  0.30061743809E+04 0.  0.
        3    1    3    3  502    0 -0.34348059006E+02  0.13293558066E+04  0.56941108355E+03  0.14465806724E+04  0.10100000352E+00 0.  1.
       -3    1    3    3    0  502  0.34348059006E+02 -0.13293558066E+04 -0.83743903727E+03  0.15715186289E+04  0.10100000352E+00 0. -1.
</event>
<event>
 5   0  0.2552990E-06  0.3004356E+04  0.7818609E-02  0.8242488E-01
       -1   -1    0    0    0  501  0.00000000000E+00  0.00000000000E+00  0.14049942277E+04  0.14049942277E+04  0.50400001928E-02 0. -1.
        1   -1    0    0  501    0  0.00000000000E+00  0.00000000000E+00 -0.16060842071E+04  0.16060842071E+04  0.50400001928E-02 0.  1.
    10030    2    1    2    0    0  0.00000000000E+00  0.00000000000E+00 -0.20108997938E+03  0.30110784348E+04  0.30043561973E+04 0.  0.
        3    1    3    3  502    0  0.78728123482E+03 -0.27982610045E+03  0.11506170235E+04  0.14219823958E+04  0.10100000352E+00 0. -1.
       -3    1    3    3    0  502 -0.78728123482E+03  0.27982610045E+03 -0.13517070028E+04  0.15890960389E+04  0.10100000352E+00 0.  1.
</event>
<event>
 5   0  0.2628425E-06  0.3053230E+04  0.7818609E-02  0.8228692E-01
       -1   -1    0    0    0  501  0.00000000000E+00  0.00000000000E+00  0.11534627497E+04  0.11534627497E+04  0.50400001928E-02 0.  1.
        1   -1    0    0  501    0  0.00000000000E+00  0.00000000000E+00 -0.20204840586E+04  0.20204840586E+04  0.50400001928E-02 0. -1.
    10030    2    1    2    0    0  0.00000000000E+00  0.00000000000E+00 -0.86702130891E+03  0.31739468084E+04  0.30532298296E+04 0.  0.
        1    1    3    3  502    0 -0.78312408011E+03 -0.86047773278E+03 -0.14609438866E+04  0.18676354819E+04  0.50400001928E-02 0. -1.
       -1    1    3    3    0  502  0.78312408011E+03  0.86047773278E+03  0.59392257765E+03  0.13063113265E+04  0.50400001928E-02 0.  1.
</event>
<event>
 5   0  0.2422083E-06  0.3057922E+04  0.7818609E-02  0.8227382E-01
        1   -1    0    0  501    0  0.00000000000E+00  0.00000000000E+00  0.17286362095E+04  0.17286362095E+04  0.50400001928E-02 0. -1.
       -1   -1    0    0    0  501  0.00000000000E+00  0.00000000000E+00 -0.13523502926E+04  0.13523502926E+04  0.50400001928E-02 0.  1.
    10030    2    1    2    0    0  0.00000000000E+00  0.00000000000E+00  0.37628591689E+03  0.30809865020E+04  0.30579219634E+04 0.  0.
        2    1    3    3  502    0  0.71610462086E+03  0.43194984177E+03 -0.11014860018E+04  0.13829887584E+04  0.25500000920E-02 0.  1.
       -2    1    3    3    0  502 -0.71610462086E+03 -0.43194984177E+03  0.14777719186E+04  0.16979977436E+04  0.25500000920E-02 0. -1.
</event>
<event>
 5   0  0.7201538E-06  0.3001074E+04  0.7818609E-02  0.8243424E-01
        2   -1    0    0  501    0  0.00000000000E+00  0.00000000000E+00  0.21017716731E+04  0.21017716731E+04  0.25500000920E-02 0.  1.
       -2   -1    0    0    0  501  0.00000000000E+00  0.00000000000E+00 -0.10712917409E+04  0.10712917409E+04  0.25500000920E-02 0. -1.
    10030    2    1    2    0    0  0.00000000000E+00  0.00000000000E+00  0.10304799322E+04  0.31730634140E+04  0.30010735644E+04 0.  0.
        3    1    3    3  502    0  0.83199974408E+03 -0.66727953376E+02 -0.80319329391E+03  0.11583590426E+04  0.10100000352E+00 0. -1.
       -3    1    3    3    0  502 -0.83199974408E+03  0.66727953376E+02  0.18336732261E+04  0.20147043715E+04  0.10100000352E+00 0.  1.
</event>
<event>
 5   0  0.7201538E-06  0.2962121E+04  0.7818609E-02  0.8254631E-01
       -2   -1    0    0    0  501  0.00000000000E+00  0.00000000000E+00  0.12127637855E+04  0.12127637856E+04  0.25500000920E-02 0. -1.
        2   -1    0    0  501    0  0.00000000000E+00  0.00000000000E+00 -0.18087123186E+04  0.18087123186E+04  0.25500000920E-02 0.  1.
    10030    2    1    2    0    0  0.00000000000E+00  0.00000000000E+00 -0.59594853303E+03  0.30214761041E+04  0.29621214009E+04 0.  0.
        3    1    3    3  502    0 -0.22434820297E+03  0.14364128604E+04 -0.95960632350E+01  0.14538590428E+04  0.10100000352E+00 0. -1.
       -3    1    3    3    0  502  0.22434820297E+03 -0.14364128604E+04 -0.58635246980E+03  0.15676170613E+04  0.10100000352E+00 0.  1.
</event>
<event>
 5   0  0.2552990E-06  0.2987717E+04  0.7818609E-02  0.8247247E-01
        1   -1    0    0  501    0  0.00000000000E+00  0.00000000000E+00  0.23141097762E+04  0.23141097762E+04  0.50400001928E-02 0.  1.
       -1   -1    0    0    0  501  0.00000000000E+00  0.00000000000E+00 -0.96435069892E+03  0.96435069893E+03  0.50400001928E-02 0. -1.
    10030    2    1    2    0    0  0.00000000000E+00  0.00000000000E+00  0.13497590773E+04  0.32784604752E+04  0.29877171085E+04 0.  0.
        3    1    3    3  502    0 -0.38499219283E+03 -0.14220746834E+04  0.40364568714E+03  0.15275618628E+04  0.10100000352E+00 0.  1.
       -3    1    3    3    0  502  0.38499219283E+03  0.14220746834E+04  0.94611339016E+03  0.17508986124E+04  0.10100000352E+00 0. -1.
</event>
<event>
 5   0  0.6792811E-06  0.2967119E+04  0.7818609E-02  0.8253183E-01
       -2   -1    0    0    0  501  0.00000000000E+00  0.00000000000E+00  0.14191652039E+04  0.14191652039E+04  0.25500000920E-02 0.  1.
        2   -1    0    0  501    0  0.00000000000E+00  0.00000000000E+00 -0.15508753419E+04  0.15508753419E+04  0.25500000920E-02 0. -1.
    10030    2    1    2    0    0  0.00000000000E+00  0.00000000000E+00 -0.13171013797E+03  0.29700405458E+04  0.29671186837E+04 0.  0.
        2    1    3    3  502    0  0.62026290381E+03  0.50465423463E+03  0.11849939730E+04  0.14295498181E+04  0.25500000920E-02 0.  1.
       -2    1    3    3    0  502 -0.62026290381E+03 -0.50465423463E+03 -0.13167041110E+04  0.15404907277E+04  0.25500000920E-02 0. -1.
</event>
<event>
 5   0  0.7217255E-06  0.3122161E+04  0.7818609E-02  0.8209682E-01
        2   -1    0    0  501    0  0.00000000000E+00  0.00000000000E+00  0.15982051362E+04  0.15982051362E+04  0.25500000920E-02 0.  1.
       -2   -1    0    0    0  501  0.00000000000E+00  0.00000000000E+00 -0.15248181774E+04  0.15248181774E+04  0.25500000920E-02 0. -1.
    10030    2    1    2    0    0  0.00000000000E+00  0.00000000000E+00  0.73386958883E+02  0.31230233136E+04  0.31221609458E+04 0.  0.
        1    1    3    3  502    0 -0.14114192411E+03  0.71983984547E+03  0.14150732954E+04  0.15939017778E+04  0.50400001928E-02 0.  1.
       -1    1    3    3    0  502  0.14114192411E+03 -0.71983984547E+03 -0.13416863365E+04  0.15291215359E+04  0.50400001928E-02 0. -1.
</event>
<event>
 5   0  0.7193153E-06  0.2950608E+04  0.7818609E-02  0.8257977E-01
        2   -1    0    0  501    0  0.00000000000E+00  0.00000000000E+00  0.18770485015E+04  0.18770485015E+04  0.25500000920E-02 0. -1.
       -2   -1    0    0    0  501  0.00000000000E+00  0.00000000000E+00 -0.11595446435E+04  0.11595446435E+04  0.25500000920E-02 0.  1.
    10030    2    1    2    0    0  0.00000000000E+00  0.00000000000E+00  0.71750385793E+03  0.30365931450E+04  0.29506077581E+04 0.  0.
        4    1    3    3  502    0  0.80041242546E+03  0.11674606232E+04  0.78667633242E+03  0.16194090350E+04  0.12699999809E+01 0. -1.
       -4    1    3    3    0  502 -0.80041242546E+03 -0.11674606232E+04 -0.69172474490E+02  0.14171841100E+04  0.12699999809E+01 0.  1.
</event>
<event>
 5   0  0.2672155E-06  0.3049573E+04  0.7818609E-02  0.8229715E-01
       -1   -1    0    0    0  501  0.00000000000E+00  0.00000000000E+00  0.10367686870E+04  0.10367686870E+04  0.50400001928E-02 0.  1.
        1   -1    0    0  501    0  0.00000000000E+00  0.00000000000E+00 -0.22425196498E+04  0.22425196498E+04  0.50400001928E-02 0. -1.
    10030    2    1    2    0    0  0.00000000000E+00  0.00000000000E+00 -0.12057509628E+04  0.32792883368E+04  0.30495731852E+04 0.  0.
        5    1    3    3  502    0  0.15301947676E+03  0.11265443161E+04  0.48975146021E+03  0.12378996886E+04  0.46999998093E+01 0.  1.
       -5    1    3    3    0  502 -0.15301947676E+03 -0.11265443161E+04 -0.16955024230E+04  0.20413886482E+04  0.46999998093E+01 0. -1.
</event>
<event>
 5   0  0.7217255E-06  0.3062769E+04  0.7818609E-02  0.8226031E-01
       -2   -1    0    0    0  501  0.00000000000E+00  0.00000000000E+00  0.13195079204E+04  0.13195079204E+04  0.25500000920E-02 0.  1.
        2   -1    0    0  501    0  0.00000000000E+00  0.00000000000E+00 -0.17772823689E+04  0.17772823689E+04  0.25500000920E-02 0. -1.
    10030    2    1    2    0    0  0.00000000000E+00  0.00000000000E+00 -0.45777444853E+03  0.30967902893E+04  0.30627687883E+04 0.  0.
        1    1    3    3  502    0 -0.13292252311E+04  0.53739072864E+03 -0.77292506432E+03  0.16288160318E+04  0.50400001928E-02 0. -1.
       -1    1    3    3    0  502  0.13292252311E+04 -0.53739072864E+03  0.31515061579E+03  0.14679742576E+04  0.50400001928E-02 0.  1.
</event>
<event>
 5   0  0.7201538E-06  0.3005807E+04  0.7818609E-02  0.8242075E-01
        2   -1    0    0  501    0  0.00000000000E+00  0.00000000000E+00  0.13322726539E+04  0.13322726539E+04  0.25500000920E-02 0.  1.
       -2   -1    0    0    0  501  0.00000000000E+00  0.00000000000E+00 -0.16953874250E+04  0.16953874250E+04  0.25500000920E-02 0. -1.
    10030    2    1    2    0    0  0.00000000000E+00  0.00000000000E+00 -0.36311477111E+03  0.30276600789E+04  0.30058065833E+04 0.  0.
        3    1    3    3  502    0  0.12425283996E+04 -0.91972437581E+02 -0.10281335983E+04  0.16153620211E+04  0.10100000352E+00 0. -1.
       -3    1    3    3    0  502 -0.12425283996E+04  0.91972437581E+02  0.66501882717E+03  0.14122980577E+04  0.10100000352E+00 0.  1.
</event>
<event>
 5   0  0.2504260E-06  0.2905544E+04  0.7818609E-02  0.8271230E-01
        1   -1    0    0  501    0  0.00000000000E+00  0.00000000000E+00  0.18063078630E+04  0.18063078630E+04  0.50400001928E-02 0. -1.
       -1   -1    0    0    0  501  0.00000000000E+00  0.00000000000E+00 -0.11684315965E+04  0.11684315965E+04  0.50400001928E-02 0.  1.
    10030    2    1    2    0    0  0.00000000000E+00  0.00000000000E+00  0.63787626649E+03  0.29747394596E+04  0.29055444792E+04 0.  0.
        4    1    3    3  502    0  0.33556139375E+03  0.26831811900E+03 -0.11018975464E+04  0.11826985574E+04  0.12699999809E+01 0.  1.
       -4    1    3    3    0  502 -0.33556139375E+03 -0.26831811900E+03  0.17397738129E+04  0.17920409022E+04  0.12699999809E+01 0. -1.
</event>
<event>
 5   0  0.6780150E-06  0.3015532E+04  0.7818609E-02  0.8239310E-01
        2   -1    0    0  501    0  0.00000000000E+00  0.00000000000E+00  0.20176880302E+04  0.20176880302E+04  0.25500000920E-02 0. -1.
       -2   -1    0    0    0  501  0.00000000000E+00  0.00000000000E+00 -0.11267143899E+04  0.11267143899E+04  0.25500000920E-02 0.  1.
    10030    2    1    2    0    0  0.00000000000E+00  0.00000000000E+00  0.89097364031E+03  0.31444024200E+04  0.30155318853E+04 0.  0.
        5    1    3    3  502    0 -0.39266252607E+02  0.67243894058E+03 -0.96109356658E+03  0.11736434301E+04  0.46999998093E+01 0.  1.
       -5    1    3    3    0  502  0.39266252607E+02 -0.67243894058E+03  0.18520672069E+04  0.19707589899E+04  0.46999998093E+01 0. -1.
</event>
<event>
 5   0  0.6792811E-06  0.2949483E+04  0.7818609E-02  0.8258305E-01
        2   -1    0    0  501    0  0.00000000000E+00  0.00000000000E+00  0.12660482284E+04  0.12660482284E+04  0.25500000920E-02 0. -1.
       -2   -1    0    0    0  501  0.00000000000E+00  0.00000000000E+00 -0.17178351532E+04  0.17178351532E+04  0.25500000920E-02 0.  1.
    10030    2    1    2    0    0  0.00000000000E+00  0.00000000000E+00 -0.45178692481E+03  0.29838833815E+04  0.29494827698E+04 0.  0.
        2    1    3    3  502    0  0.21452255627E+03 -0.11818234937E+04 -0.10915222712E+04  0.16230057196E+04  0.25500000920E-02 0.  1.
       -2    1    3    3    0  502 -0.21452255627E+03  0.11818234937E+04  0.63973534635E+03  0.13608776619E+04  0.25500000920E-02 0. -1.
</event>
<event>
 5   0  0.6792811E-06  0.2974675E+04  0.7818609E-02  0.8251000E-01
        2   -1    0    0  501    0  0.00000000000E+00  0.00000000000E+00  0.15441517663E+04  0.15441517663E+04  0.25500000920E-02 0. -1.
       -2   -1    0    0    0  501  0.00000000000E+00  0.00000000000E+00 -0.14326137018E+04  0.14326137018E+04  0.25500000920E-02 0.  1.
    10030    2    1    2    0    0  0.00000000000E+00  0.00000000000E+00  0.11153806454E+03  0.29767654681E+04  0.29746750936E+04 0.  0.
        2    1    3    3  502    0  0.65007087365E+03  0.99784038135E+02  0.13907319642E+04  0.15384031953E+04  0.25500000920E-02 0. -1.
       -2    1    3    3    0  502 -0.65007087365E+03 -0.99784038135E+02 -0.12791938996E+04  0.14383622728E+04  0.25500000920E-02 0.  1.
</event>
<event>
 5   0  0.2552990E-06  0.2985664E+04  0.7818609E-02  0.8247836E-01
        1   -1    0    0  501    0  0.00000000000E+00  0.00000000000E+00  0.11023721306E+04  0.11023721307E+04  0.50400001928E-02 0. -1.
       -1   -1    0    0    0  501  0.00000000000E+00  0.00000000000E+00 -0.20215927804E+04  0.20215927804E+04  0.50400001928E-02 0.  1.
    10030    2    1    2    0    0  0.00000000000E+00  0.00000000000E+00 -0.91922064975E+03  0.31239649111E+04  0.29856641075E+04 0.  0.
        3    1    3    3  502    0  0.18277337337E+02  0.88247514507E+02  0.10995232965E+04  0.11032103946E+04  0.10100000352E+00 0. -1.
       -3    1    3    3    0  502 -0.18277337337E+02 -0.88247514507E+02 -0.20187439463E+04  0.20207545165E+04  0.10100000352E+00 0.  1.
</event>
<event>
 5   0  0.2422083E-06  0.3062607E+04  0.7818609E-02  0.8226076E-01
        1   -1    0    0  501    0  0.00000000000E+00  0.00000000000E+00  0.19882344852E+04  0.19882344852E+04  0.50400001928E-02 0.  1.
       -1   -1    0    0    0  501  0.00000000000E+00  0.00000000000E+00 -0.11793835470E+04  0.11793835470E+04  0.50400001928E-02 0. -1.
    10030    2    1    2    0    0  0.00000000000E+00  0.00000000000E+00  0.80885093826E+03  0.31676180322E+04  0.30626074116E+04 0.  0.
        2    1    3    3  502    0  0.38630470941E+03  0.14419424918E+04  0.75739139449E+03  0.16739388288E+04  0.25500000920E-02 0.  1.
       -2    1    3    3    0  502 -0.38630470941E+03 -0.14419424918E+04  0.51459543764E+02  0.14936792034E+04  0.25500000920E-02 0. -1.
</event>
<event>
 5   0  0.7217255E-06  0.3013455E+04  0.7818609E-02  0.8239899E-01
        2   -1    0    0  501    0  0.00000000000E+00  0.00000000000E+00  0.20061258627E+04  0.20061258627E+04  0.25500000920E-02 0.  1.
       -2   -1    0    0    0  501  0.00000000000E+00  0.00000000000E+00 -0.11316480772E+04  0.11316480772E+04  0.25500000920E-02 0. -1.
    10030    2    1    2    0    0  0.00000000000E+00  0.00000000000E+00  0.87447778555E+03  0.31377739399E+04  0.30134554751E+04 0.  0.
        1    1    3    3  502    0 -0.85950765237E+03  0.17351758388E+03 -0.83861300805E+03  0.12133151007E+04  0.50400001928E-02 0. -1.
       -1    1    3    3    0  502  0.85950765237E+03 -0.17351758388E+03  0.17130907936E+04  0.19244588391E+04  0.50400001928E-02 0.  1.
</event>
<event>
 5   0  0.2422083E-06  0.3101562E+04  0.7818609E-02  0.8215309E-01
       -1   -1    0    0    0  501  0.00000000000E+00  0.00000000000E+00  0.96571332864E+03  0.96571332865E+03  0.50400001928E-02 0. -1.
        1   -1    0    0  501    0  0.00000000000E+00  0.00000000000E+00 -0.24903057789E+04  0.24903057789E+04  0.50400001928E-02 0.  1.
    10030    2    1    2    0    0  0.00000000000E+00  0.00000000000E+00 -0.15245924502E+04  0.34560191075E+04  0.31015618537E+04 0.  0.
        2    1    3    3  502    0  0.32285263310E+02 -0.88599269919E+03  0.65547178953E+03  0.11025736566E+04  0.25500000920E-02 0. -1.
       -2    1    3    3    0  502 -0.32285263310E+02  0.88599269919E+03 -0.21800642397E+04  0.23534454510E+04  0.25500000920E-02 0.  1.
</event>
<event>
 5   0  0.2672155E-06  0.2966016E+04  0.7818609E-02  0.8253502E-01
       -1   -1    0    0    0  501  0.00000000000E+00  0.00000000000E+00  0.16694248698E+04  0.16694248698E+04  0.50400001928E-02 0.  1.
        1   -1    0    0  501    0  0.00000000000E+00  0.00000000000E+00 -0.13174070072E+04  0.13174070072E+04  0.50400001928E-02 0. -1.
    10030    2    1    2    0    0  0.00000000000E+00  0.00000000000E+00  0.35201786261E+03  0.29868318769E+04  0.29660155235E+04 0.  0.
        5    1    3    3  502    0  0.40357280567E+03 -0.31932702988E+03 -0.12245971874E+04  0.13283452574E+04  0.46999998093E+01 0. -1.
       -5    1    3    3    0  502 -0.40357280567E+03  0.31932702988E+03  0.15766150500E+04  0.16584866196E+04  0.46999998093E+01 0.  1.
</event>
<event>
 5   0  0.6780150E-06  0.3102862E+04  0.7818609E-02  0.8214953E-01
        2   -1    0    0  501    0  0.00000000000E+00  0.00000000000E+00  0.15573189730E+04  0.15573189730E+04  0.25500000920E-02 0.  1.
       -2   -1    0    0    0  501  0.00000000000E+00  0.00000000000E+00 -0.15455651507E+04  0.15455651507E+04  0.25500000920E-02 0. -1.
    10030    2    1    2    0    0  0.00000000000E+00  0.00000000000E+00  0.11753822250E+02  0.31028841237E+04  0.31028618617E+04 0.  0.
        5    1    3    3  502    0 -0.12149923382E+02 -0.15477801007E+04  0.11144746736E+03  0.15518419664E+04  0.46999998093E+01 0. -1.
       -5    1    3    3    0  502  0.12149923382E+02  0.15477801007E+04 -0.99693645113E+02  0.15510421573E+04  0.46999998093E+01 0.  1.
</event>
<event>
 5   0  0.2422083E-06  0.3085763E+04  0.7818609E-02  0.8219656E-01
       -1   -1    0    0    0  501  0.00000000000E+00  0.00000000000E+00  0.10419312541E+04  0.10419312541E+04  0.50400001928E-02 0. -1.
        1   -1    0    0  501    0  0.00000000000E+00  0.00000000000E+00 -0.22846840125E+04  0.22846840125E+04  0.50400001928E-02 0.  1.
    10030    2    1    2    0    0  0.00000000000E+00  0.00000000000E+00 -0.12427527585E+04  0.33266152666E+04  0.30857632303E+04 0.  0.
        2    1    3    3  502    0 -0.10627160487E+04 -0.50222925694E+03  0.45607458986E+03  0.12607948518E+04  0.25500000920E-02 0. -1.
       -2    1    3    3    0  502  0.10627160487E+04  0.50222925694E+03 -0.16988273483E+04  0.20658204148E+04  0.25500000920E-02 0.  1.
</event>
<event>
 5   0  0.2552990E-06  0.2997738E+04  0.7818609E-02  0.8244377E-01
        1   -1    0    0  501    0  0.00000000000E+00  0.00000000000E+00  0.16565279011E+04  0.16565279011E+04  0.50400001928E-02 0.  1.
       -1   -1    0    0    0  501  0.00000000000E+00  0.00000000000E+00 -0.13562155007E+04  0.13562155007E+04  0.50400001928E-02 0. -1.
    10030    2    1    2    0    0  0.00000000000E+00  0.00000000000E+00  0.30031240046E+03  0.30127434018E+04  0.29977383587E+04 0.  0.
        3    1    3    3  502    0  0.10570937630E+04 -0.51617251116E+03 -0.78332428889E+03  0.14133217032E+04  0.10100000352E+00 0. -1.
       -3    1    3    3    0  502 -0.10570937630E+04  0.51617251116E+03  0.10836366893E+04  0.15994216985E+04  0.10100000352E+00 0.  1.
</event>
<event>
 5   0  0.2672155E-06  0.2997806E+04  0.7818609E-02  0.8244358E-01
       -1   -1    0    0    0  501  0.00000000000E+00  0.00000000000E+00  0.12621046309E+04  0.12621046309E+04  0.50400001928E-02 0. -1.
        1   -1    0    0  501    0  0.00000000000E+00  0.00000000000E+00 -0.17801300541E+04  0.17801300542E+04  0.50400001928E-02 0.  1.
    10030    2    1    2    0    0  0.00000000000E+00  0.00000000000E+00 -0.51802542325E+03  0.30422346851E+04  0.29978061211E+04 0.  0.
        5    1    3    3  502    0  0.62821424951E+02 -0.12033616076E+04  0.64563723049E+03  0.13670754235E+04  0.46999998093E+01 0. -1.
       -5    1    3    3    0  502 -0.62821424951E+02  0.12033616076E+04 -0.11636626537E+04  0.16751592616E+04  0.46999998093E+01 0.  1.
</event>
<event>
 5   0  0.6792811E-06  0.3010618E+04  0.7818609E-02  0.8240705E-01
       -2   -1    0    0    0  501  0.00000000000E+00  0.00000000000E+00  0.10270990860E+04  0.10270990860E+04  0.25500000920E-02 0. -1.
        2   -1    0    0  501    0  0.00000000000E+00  0.00000000000E+00 -0.22061703162E+04  0.22061703162E+04  0.25500000920E-02 0.  1.
    10030    2    1    2    0    0  0.00000000000E+00  0.00000000000E+00 -0.11790712302E+04  0.32332694022E+04  0.30106182192E+04 0.  0.
        2    1    3    3  502    0 -0.13755427637E+04 -0.26446574201E+03  0.25006848522E+01  0.14007377616E+04  0.25500000920E-02 0. -1.
       -2    1    3    3    0  502  0.13755427637E+04  0.26446574201E+03 -0.11815719150E+04  0.18325316406E+04  0.25500000920E-02 0.  1.
</event>
<event>
 5   0  0.7201538E-06  0.3037711E+04  0.7818609E-02  0.8233043E-01
        2   -1    0    0  501    0  0.00000000000E+00  0.00000000000E+00  0.11541611346E+04  0.11541611346E+04  0.25500000920E-02 0. -1.
       -2   -1    0    0    0  501  0.00000000000E+00  0.00000000000E+00 -0.19987872263E+04  0.19987872263E+04  0.25500000920E-02 0.  1.
    10030    2    1    2    0    0  0.00000000000E+00  0.00000000000E+00 -0.84462609178E+03  0.31529483609E+04  0.30377113312E+04 0.  0.
        3    1    3    3  502    0 -0.28474109990E+02 -0.12128289876E+02 -0.19984599005E+04  0.19986995408E+04  0.10100000352E+00 0.  1.
       -3    1    3    3    0  502  0.28474109990E+02  0.12128289876E+02  0.11538338087E+04  0.11542488201E+04  0.10100000352E+00 0. -1.
</event>
<event>
 5   0  0.2552990E-06  0.3023613E+04  0.7818609E-02  0.8237020E-01
       -1   -1    0    0    0  501  0.00000000000E+00  0.00000000000E+00  0.13183519969E+04  0.13183519969E+04  0.50400001928E-02 0.  1.
        1   -1    0    0  501    0  0.00000000000E+00  0.00000000000E+00 -0.17336489539E+04  0.17336489540E+04  0.50400001928E-02 0. -1.
    10030    2    1    2    0    0  0.00000000000E+00  0.00000000000E+00 -0.41529695709E+03  0.30520009508E+04  0.30236134411E+04 0.  0.
        3    1    3    3  502    0  0.96402485388E+02  0.81118046150E+03 -0.14916972603E+04  0.17007257001E+04  0.10100000352E+00 0. -1.
       -3    1    3    3    0  502 -0.96402485388E+02 -0.81118046150E+03  0.10764003032E+04  0.13512752507E+04  0.10100000352E+00 0.  1.
</event>
<event>
 5   0  0.7217255E-06  0.2489762E+04  0.7818609E-02  0.8406642E-01
        2   -1    0    0  501    0  0.00000000000E+00  0.00000000000E+00  0.23492097920E+04  0.23492097920E+04  0.25500000920E-02 0.  1.
       -2   -1    0    0    0  501  0.00000000000E+00  0.00000000000E+00 -0.65968060090E+03  0.65968060090E+03  0.25500000920E-02 0. -1.
    10030    2    1    2    0    0  0.00000000000E+00  0.00000000000E+00  0.16895291911E+04  0.30088903929E+04  0.24897615365E+04 0.  0.
        1    1    3    3  502    0 -0.20114957702E+03 -0.18151352949E+03 -0.62361668208E+03  0.67993093761E+03  0.50400001928E-02 0. -1.
       -1    1    3    3    0  502  0.20114957702E+03  0.18151352949E+03  0.23131458731E+04  0.23289594553E+04  0.50400001928E-02 0.  1.
</event>
<event>
 5   0  0.7217255E-06  0.2949023E+04  0.7818609E-02  0.8258439E-01
        2   -1    0    0  501    0  0.00000000000E+00  0.00000000000E+00  0.13293918374E+04  0.13293918374E+04  0.25500000920E-02 0.  1.
       -2   -1    0    0    0  501  0.00000000000E+00  0.00000000000E+00 -0.16354722825E+04  0.16354722825E+04  0.25500000920E-02 0. -1.
    10030    2    1    2    0    0  0.00000000000E+00  0.00000000000E+00 -0.30608044507E+03  0.29648641199E+04  0.29490225517E+04 0.  0.
        1    1    3    3  502    0 -0.13617308029E+04  0.25358413201E+03  0.35521257455E+03  0.14299621200E+04  0.50400001928E-02 0.  1.
       -1    1    3    3    0  502  0.13617308029E+04 -0.25358413201E+03 -0.66129301962E+03  0.15349019999E+04  0.50400001928E-02 0. -1.
</event>
<event>
 5   0  0.6780150E-06  0.2310478E+04  0.7818609E-02  0.8473801E-01
        2   -1    0    0  501    0  0.00000000000E+00  0.00000000000E+00  0.15398874415E+04  0.15398874415E+04  0.25500000920E-02 0. -1.
       -2   -1    0    0    0  501  0.00000000000E+00  0.00000000000E+00 -0.86667214376E+03  0.86667214376E+03  0.25500000920E-02 0.  1.
    10030    2    1    2    0    0  0.00000000000E+00  0.00000000000E+00  0.67321529773E+03  0.24065595853E+04  0.23104783488E+04 0.  0.
        5    1    3    3  502    0 -0.81983810710E+02  0.12329498337E+03  0.15299533860E+04  0.15371084710E+04  0.46999998093E+01 0. -1.
       -5    1    3    3    0  502  0.81983810710E+02 -0.12329498337E+03 -0.85673808831E+03  0.86945111426E+03  0.46999998093E+01 0.  1.
</event>
<event>
 5   0  0.7201538E-06  0.2982923E+04  0.7818609E-02  0.8248624E-01
        2   -1    0    0  501    0  0.00000000000E+00  0.00000000000E+00  0.15069366793E+04  0.15069366793E+04  0.25500000920E-02 0. -1.
       -2   -1    0    0    0  501  0.00000000000E+00  0.00000000000E+00 -0.14761451782E+04  0.14761451782E+04  0.25500000920E-02 0.  1.
    10030    2    1    2    0    0  0.00000000000E+00  0.00000000000E+00  0.30791501088E+02  0.29830818574E+04  0.29829229376E+04 0.  0.
        3    1    3    3  502    0 -0.29430033956E+03  0.18755411197E+03  0.14655309579E+04  0.15065092876E+04  0.10100000352E+00 0. -1.
       -3    1    3    3    0  502  0.29430033956E+03 -0.18755411197E+03 -0.14347394568E+04  0.14765725698E+04  0.10100000352E+00 0.  1.
</event>
<event>
 5   0  0.2628425E-06  0.2982298E+04  0.7818609E-02  0.8248804E-01
       -1   -1    0    0    0  501  0.00000000000E+00  0.00000000000E+00  0.81595637109E+03  0.81595637110E+03  0.50400001928E-02 0. -1.
        1   -1    0    0  501    0  0.00000000000E+00  0.00000000000E+00 -0.27250540192E+04  0.27250540192E+04  0.50400001928E-02 0.  1.
    10030    2    1    2    0    0  0.00000000000E+00  0.00000000000E+00 -0.19090976482E+04  0.35410103904E+04  0.29822978983E+04 0.  0.
        1    1    3    3  502    0 -0.84300669031E+03 -0.11849920750E+04 -0.56316000671E+03  0.15594921259E+04  0.50400001928E-02 0. -1.
       -1    1    3    3    0  502  0.84300669031E+03  0.11849920750E+04 -0.13459376414E+04  0.19815182644E+04  0.50400001928E-02 0.  1.
</event>
<event>
 5   0  0.2628425E-06  0.3033709E+04  0.7818609E-02  0.8234170E-01
       -1   -1    0    0    0  501  0.00000000000E+00  0.00000000000E+00  0.12112463060E+04  0.12112463061E+04  0.50400001928E-02 0.  1.
        1   -1    0    0  501    0  0.00000000000E+00  0.00000000000E+00 -0.18995707037E+04  0.18995707037E+04  0.50400001928E-02 0. -1.
    10030    2    1    2    0    0  0.00000000000E+00  0.00000000000E+00 -0.68832439761E+03  0.31108170097E+04  0.30337092793E+04 0.  0.
        1    1    3    3  502    0 -0.69987512088E+03 -0.53659207823E+03 -0.16096662464E+04  0.18354241112E+04  0.50400001928E-02 0. -1.
       -1    1    3    3    0  502  0.69987512088E+03  0.53659207823E+03  0.92134184877E+03  0.12753928985E+04  0.50400001928E-02 0.  1.
</event>
<event>
 5   0  0.2628425E-06  0.2980976E+04  0.7818609E-02  0.8249184E-01
        1   -1    0    0  501    0  0.00000000000E+00  0.00000000000E+00  0.14485157814E+04  0.14485157814E+04  0.50400001928E-02 0.  1.
       -1   -1    0    0    0  501  0.00000000000E+00  0.00000000000E+00 -0.15336763794E+04  0.15336763794E+04  0.50400001928E-02 0. -1.
    10030    2    1    2    0    0  0.00000000000E+00  0.00000000000E+00 -0.85160597955E+02  0.29821921608E+04  0.29809759738E+04 0.  0.
        1    1    3    3  502    0  0.78809838590E+02  0.50217558459E+03 -0.14442811697E+04  0.15311235762E+04  0.50400001928E-02 0. -1.
       -1    1    3    3    0  502 -0.78809838590E+02 -0.50217558459E+03  0.13591205718E+04  0.14510685846E+04  0.50400001928E-02 0.  1.
</event>
<event>
 5   0  0.6780150E-06  0.3048352E+04  0.7818609E-02  0.8230057E-01
        2   -1    0    0  501    0  0.00000000000E+00  0.00000000000E+00  0.21945677197E+04  0.21945677197E+04  0.25500000920E-02 0.  1.
       -2   -1    0    0    0  501  0.00000000000E+00  0.00000000000E+00 -0.10585740287E+04  0.10585740287E+04  0.25500000920E-02 0. -1.
    10030    2    1    2    0    0  0.00000000000E+00  0.00000000000E+00  0.11359936910E+04  0.32531417484E+04  0.30483519431E+04 0.  0.
        5    1    3    3  502    0  0.37252014002E+02 -0.36295989046E+00  0.21940740488E+04  0.21943953303E+04  0.46999998093E+01 0.  1.
       -5    1    3    3    0  502 -0.37252014002E+02  0.36295989046E+00 -0.10580803577E+04  0.10587464180E+04  0.46999998093E+01 0. -1.
</event>
<event>
 5   0  0.7217255E-06  0.3028878E+04  0.7818609E-02  0.8235532E-01
        2   -1    0    0  501    0  0.00000000000E+00  0.00000000000E+00  0.29668920781E+04  0.29668920781E+04  0.25500000920E-02 0. -1.
       -2   -1    0    0    0  501  0.00000000000E+00  0.00000000000E+00 -0.77303995768E+03  0.77303995769E+03  0.25500000920E-02 0.  1.
    10030    2    1    2    0    0  0.00000000000E+00  0.00000000000E+00  0.21938521204E+04  0.37399320358E+04  0.30288784238E+04 0.  0.
        1    1    3    3  502    0 -0.89305082254E+03  0.39346398401E+03 -0.33303489741E+03  0.10311478659E+04  0.50400001928E-02 0.  1.
       -1    1    3    3    0  502  0.89305082254E+03 -0.39346398401E+03  0.25268870178E+04  0.27087841699E+04  0.50400001928E-02 0. -1.
</event>
<event>
 5   0  0.2672155E-06  0.2994506E+04  0.7818609E-02  0.8245302E-01
        1   -1    0    0  501    0  0.00000000000E+00  0.00000000000E+00  0.14235974218E+04  0.14235974218E+04  0.50400001928E-02 0.  1.
       -1   -1    0    0    0  501  0.00000000000E+00  0.00000000000E+00 -0.15747191200E+04  0.15747191200E+04  0.50400001928E-02 0. -1.
    10030    2    1    2    0    0  0.00000000000E+00  0.00000000000E+00 -0.15112169816E+03  0.29983165418E+04  0.29945056883E+04 0.  0.
        5    1    3    3  502    0 -0.77202457387E+03 -0.11216964915E+04  0.54774163006E+03  0.14677424655E+04  0.46999998093E+01 0.  1.
       -5    1    3    3    0  502  0.77202457387E+03  0.11216964915E+04 -0.69886332822E+03  0.15305740763E+04  0.46999998093E+01 0. -1.
</event>
<event>
 5   0  0.2672155E-06  0.2990540E+04  0.7818609E-02  0.8246437E-01
       -1   -1    0    0    0  501  0.00000000000E+00  0.00000000000E+00  0.18996964134E+04  0.18996964134E+04  0.50400001928E-02 0. -1.
        1   -1    0    0  501    0  0.00000000000E+00  0.00000000000E+00 -0.11769417430E+04  0.11769417430E+04  0.50400001928E-02 0.  1.
    10030    2    1    2    0    0  0.00000000000E+00  0.00000000000E+00  0.72275467035E+03  0.30766381564E+04  0.29905397560E+04 0.  0.
        5    1    3    3  502    0 -0.76957281877E+03  0.12481936830E+04  0.60414203082E+02  0.14676177158E+04  0.46999998093E+01 0.  1.
       -5    1    3    3    0  502  0.76957281877E+03 -0.12481936830E+04  0.66234046726E+03  0.16090204406E+04  0.46999998093E+01 0. -1.
</event>
<event>
 5   0  0.7217255E-06  0.3057482E+04  0.7818609E-02  0.8227504E-01
        2   -1    0    0  501    0  0.00000000000E+00  0.00000000000E+00  0.92050983777E+03  0.92050983778E+03  0.25500000920E-02 0. -1.
       -2   -1    0    0    0  501  0.00000000000E+00  0.00000000000E+00 -0.25388640170E+04  0.25388640170E+04  0.25500000920E-02 0.  1.
    10030    2    1    2    0    0  0.00000000000E+00  0.00000000000E+00 -0.16183541792E+04  0.34593738548E+04  0.30574821697E+04 0.  0.
        1    1    3    3  502    0 -0.14503344740E+04 -0.10424236526E+03 -0.27522031238E+03  0.14798928264E+04  0.50400001928E-02 0. -1.
       -1    1    3    3    0  502  0.14503344740E+04  0.10424236526E+03 -0.13431338669E+04  0.19794810284E+04  0.50400001928E-02 0.  1.
</event>
<event>
 5   0  0.2552990E-06  0.3009962E+04  0.7818609E-02  0.8240892E-01
        1   -1    0    0  501    0  0.00000000000E+00  0.00000000000E+00  0.13552823765E+04  0.13552823765E+04  0.50400001928E-02 0.  1.
       -1   -1    0    0    0  501  0.00000000000E+00  0.00000000000E+00 -0.16712145358E+04  0.16712145358E+04  0.50400001928E-02 0. -1.
    10030    2    1    2    0    0  0.00000000000E+00  0.00000000000E+00 -0.31593215932E+03  0.30264969123E+04  0.30099618654E+04 0.  0.
        3    1    3    3  502    0 -0.14835723693E+04 -0.79024509305E+02 -0.39956870287E+03  0.15384690464E+04  0.10100000352E+00 0. -1.
       -3    1    3    3    0  502  0.14835723693E+04  0.79024509305E+02  0.83636543556E+02  0.14880278659E+04  0.10100000352E+00 0.  1.
</event>
<event>
 5   0  0.2422083E-06  0.3027210E+04  0.7818609E-02  0.8236003E-01
       -1   -1    0    0    0  501  0.00000000000E+00  0.00000000000E+00  0.15074724461E+04  0.15074724461E+04  0.50400001928E-02 0. -1.
        1   -1    0    0  501    0  0.00000000000E+00  0.00000000000E+00 -0.15197629872E+04  0.15197629872E+04  0.50400001928E-02 0.  1.
    10030    2    1    2    0    0  0.00000000000E+00  0.00000000000E+00 -0.12290541073E+02  0.30272354333E+04  0.30272104835E+04 0.  0.
        2    1    3    3  502    0 -0.19899268792E+03  0.14134820869E+04  0.49731804110E+03  0.15115736614E+04  0.25500000920E-02 0.  1.
       -2    1    3    3    0  502  0.19899268792E+03 -0.14134820869E+04 -0.50960858218E+03  0.15156617719E+04  0.25500000920E-02 0. -1.
</event>
<event>
 5   0  0.2504260E-06  0.2986289E+04  0.7818609E-02  0.8247657E-01
       -1   -1    0    0    0  501  0.00000000000E+00  0.00000000000E+00  0.13448522511E+04  0.13448522511E+04  0.50400001928E-02 0.  1.
        1   -1    0    0  501    0  0.00000000000E+00  0.00000000000E+00 -0.16577885853E+04  0.16577885853E+04  0.50400001928E-02 0. -1.
    10030    2    1    2    0    0  0.00000000000E+00  0.00000000000E+00 -0.31293633423E+03  0.30026408365E+04  0.29862891427E+04 0.  0.
        4    1    3    3  502    0 -0.57684273085E+03 -0.13143359100E+04 -0.57012414548E+03  0.15444317967E+04  0.12699999809E+01 0. -1.
       -4    1    3    3    0  502  0.57684273085E+03  0.13143359100E+04  0.25718781125E+03  0.14582090398E+04  0.12699999809E+01 0.  1.
</event>
<event>
 5   0  0.2504260E-06  0.3065484E+04  0.7818609E-02  0.8225275E-01
       -1   -1    0    0    0  501  0.00000000000E+00  0.00000000000E+00  0.15449615237E+04  0.15449615237E+04  0.50400001928E-02 0.  1.
        1   -1    0    0  501    0  0.00000000000E+00  0.00000000000E+00 -0.15206194049E+04  0.15206194050E+04  0.50400001928E-02 0. -1.
    10030    2    1    2    0    0  0.00000000000E+00  0.00000000000E+00  0.24342118770E+02  0.30655809287E+04  0.30654842834E+04 0.  0.
        4    1    3    3  502    0  0.12010842055E+04 -0.94532081495E+03  0.12646441745E+03  0.15336980060E+04  0.12699999809E+01 0.  1.
       -4    1    3    3    0  502 -0.12010842055E+04  0.94532081495E+03 -0.10212229868E+03  0.15318829227E+04  0.12699999809E+01 0. -1.
</event>
<event>
 5   0  0.2628425E-06  0.3000897E+04  0.7818609E-02  0.8243475E-01
       -1   -1    0    0    0  501  0.00000000000E+00  0.00000000000E+00  0.82380326591E+03  0.82380326592E+03  0.50400001928E-02 0.  1.
        1   -1    0    0  501    0  0.00000000000E+00  0.00000000000E+00 -0.27328686748E+04  0.27328686748E+04  0.50400001928E-02 0. -1.
    10030    2    1    2    0    0  0.00000000000E+00  0.00000000000E+00 -0.19090654089E+04  0.35566719408E+04  0.30008972922E+04 0.  0.
        1    1    3    3  502    0 -0.63987810573E+03 -0.38786982557E+03 -0.24959613787E+04  0.26057072352E+04  0.50400001928E-02 0. -1.
       -1    1    3    3    0  502  0.63987810573E+03  0.38786982557E+03  0.58689596978E+03  0.95096470552E+03  0.50400001928E-02 0.  1.
</event>
<event>
 5   0  0.2552990E-06  0.3005283E+04  0.7818609E-02  0.8242224E-01
       -1   -1    0    0    0  501  0.00000000000E+00  0.00000000000E+00  0.15770620410E+04  0.15770620411E+04  0.50400001928E-02 0.  1.
        1   -1    0    0  501    0  0.00000000000E+00  0.00000000000E+00 -0.14317324697E+04  0.14317324697E+04  0.50400001928E-02 0. -1.
    10030    2    1    2    0    0  0.00000000000E+00  0.00000000000E+00  0.14532957135E+03  0.30087945108E+04  0.30052826362E+04 0.  0.
        3    1    3    3  502    0  0.97915547695E+03  0.83705452133E+03 -0.70188337428E+03  0.14669853445E+04  0.10100000352E+00 0. -1.
       -3    1    3    3    0  502 -0.97915547695E+03 -0.83705452133E+03  0.84721294563E+03  0.15418091663E+04  0.10100000352E+00 0.  1.
</event>
<event>
 5   0  0.2504260E-06  0.2772445E+04  0.7818609E-02  0.8311874E-01
        1   -1    0    0  501    0  0.00000000000E+00  0.00000000000E+00  0.61836159740E+03  0.61836159742E+03  0.50400001928E-02 0. -1.
       -1   -1    0    0    0  501  0.00000000000E+00  0.00000000000E+00 -0.31075874976E+04  0.31075874977E+04  0.50400001928E-02 0.  1.
    10030    2    1    2    0    0  0.00000000000E+00  0.00000000000E+00 -0.24892259002E+04  0.37259490951E+04  0.27724449637E+04 0.  0.
        4    1    3    3  502    0 -0.11987089465E+04  0.12245571661E+03 -0.32354834028E+03  0.12476312285E+04  0.12699999809E+01 0. -1.
       -4    1    3    3    0  502  0.11987089465E+04 -0.12245571661E+03 -0.21656775600E+04  0.24783178665E+04  0.12699999809E+01 0.  1.
</event>
<event>
 5   0  0.6780150E-06  0.3137625E+04  0.7818609E-02  0.8205487E-01
       -2   -1    0    0    0  501  0.00000000000E+00  0.00000000000E+00  0.22788207702E+04  0.22788207702E+04  0.25500000920E-02 0. -1.
        2   -1    0    0  501    0  0.00000000000E+00  0.00000000000E+00 -0.10800204551E+04  0.10800204551E+04  0.25500000920E-02 0.  1.
    10030    2    1    2    0    0  0.00000000000E+00  0.00000000000E+00  0.11988003151E+04  0.33588412254E+04  0.31376252456E+04 0.  0.
        5    1    3    3  502    0  0.29975294233E+03  0.13573804132E+04 -0.17906885728E+03  0.14015780957E+04  0.46999998093E+01 0. -1.
       -5    1    3    3    0  502 -0.29975294233E+03 -0.13573804132E+04  0.13778691724E+04  0.19572631297E+04  0.46999998093E+01 0.  1.
</event>
<event>
 5   0  0.2422083E-06  0.2969080E+04  0.7818609E-02  0.8252616E-01
       -1   -1    0    0    0  501  0.00000000000E+00  0.00000000000E+00  0.18198567080E+04  0.18198567080E+04  0.50400001928E-02 0.  1.
        1   -1    0    0  501    0  0.00000000000E+00  0.00000000000E+00 -0.12110066237E+04  0.12110066237E+04  0.50400001928E-02 0. -1.
    10030    2    1    2    0    0  0.00000000000E+00  0.00000000000E+00  0.60885008433E+03  0.30308633317E+04  0.29690796739E+04 0.  0.
        2    1    3    3  502    0 -0.64822533340E+03  0.12621358145E+04  0.75017580717E+03  0.16049755882E+04  0.25500000920E-02 0.  1.
       -2    1    3    3    0  502  0.64822533340E+03 -0.12621358145E+04 -0.14132572284E+03  0.14258877435E+04  0.25500000920E-02 0. -1.
</event>
<event>
 5   0  0.2552990E-06  0.2996384E+04  0.7818609E-02  0.8244764E-01
       -1   -1    0    0    0  501  0.00000000000E+00  0.00000000000E+00  0.12854870270E+04  0.12854870270E+04  0.50400001928E-02 0. -1.
        1   -1    0    0  501    0  0.00000000000E+00  0.00000000000E+00 -0.17460922598E+04  0.17460922598E+04  0.50400001928E-02 0.  1.
    10030    2    1    2    0    0  0.00000000000E+00  0.00000000000E+00 -0.46060523280E+03  0.30315792869E+04  0.29963837859E+04 0.  0.
        3    1    3    3  502    0 -0.74144279928E+03  0.11219084814E+04 -0.89848625940E+03  0.16173106176E+04  0.10100000352E+00 0.  1.
       -3    1    3    3    0  502  0.74144279928E+03 -0.11219084814E+04  0.43788102660E+03  0.14142686693E+04  0.10100000352E+00 0. -1.
</event>
<event>
 5   0  0.2422083E-06  0.3029743E+04  0.7818609E-02  0.8235288E-01
       -1   -1    0    0    0  501  0.00000000000E+00  0.00000000000E+00  0.20399877799E+04  0.20399877799E+04  0.50400001928E-02 0. -1.
        1   -1    0    0  501    0  0.00000000000E+00  0.00000000000E+00 -0.11249263109E+04  0.11249263109E+04  0.50400001928E-02 0.  1.
    10030    2    1    2    0    0  0.00000000000E+00  0.00000000000E+00  0.91506146896E+03  0.31649140908E+04  0.30297431756E+04 0.  0.
        2    1    3    3  502    0  0.63600230186E+03 -0.13652895959E+04  0.62700740922E+03  0.16314572933E+04  0.25500000920E-02 0. -1.
       -2    1    3    3    0  502 -0.63600230186E+03  0.13652895959E+04  0.28805405974E+03  0.15334567975E+04  0.25500000920E-02 0.  1.
</event>
<event>
 5   0  0.7217255E-06  0.3029431E+04  0.7818609E-02  0.8235376E-01
       -2   -1    0    0    0  501  0.00000000000E+00  0.00000000000E+00  0.14664619416E+04  0.14664619416E+04  0.25500000920E-02 0.  1.
        2   -1    0    0  501    0  0.00000000000E+00  0.00000000000E+00 -0.15645571335E+04  0.15645571335E+04  0.25500000920E-02 0. -1.
    10030    2    1    2    0    0  0.00000000000E+00  0.00000000000E+00 -0.98095191882E+02  0.30310190751E+04  0.30294312943E+04 0.  0.
        1    1    3    3  502    0 -0.14473771920E+04  0.34113247763E+03 -0.33745444523E+03  0.15248434693E+04  0.50400001928E-02 0.  1.
       -1    1    3    3    0  502  0.14473771920E+04 -0.34113247763E+03  0.23935925334E+03  0.15061756058E+04  0.50400001928E-02 0. -1.
</event>
<event>
 5   0  0.2628425E-06  0.2985228E+04  0.7818609E-02  0.8247962E-01
       -1   -1    0    0    0  501  0.00000000000E+00  0.00000000000E+00  0.14941271554E+04  0.14941271554E+04  0.50400001928E-02 0. -1.
        1   -1    0    0  501    0  0.00000000000E+00  0.00000000000E+00 -0.14911024666E+04  0.14911024666E+04  0.50400001928E-02 0.  1.
    10030    2    1    2    0    0  0.00000000000E+00  0.00000000000E+00  0.30246887800E+01  0.29852296220E+04  0.29852280896E+04 0.  0.
        1    1    3    3  502    0  0.55925832262E+03  0.10113454278E+04 -0.94310829751E+03  0.14916577042E+04  0.50400001928E-02 0.  1.
       -1    1    3    3    0  502 -0.55925832262E+03 -0.10113454278E+04  0.94613298629E+03  0.14935719177E+04  0.50400001928E-02 0. -1.
</event>
<event>
 5   0  0.6792811E-06  0.3033220E+04  0.7818609E-02  0.8234308E-01
        2   -1    0    0  501    0  0.00000000000E+00  0.00000000000E+00  0.15289595344E+04  0.15289595344E+04  0.25500000920E-02 0. -1.
       -2   -1    0    0    0  501  0.00000000000E+00  0.00000000000E+00 -0.15043600011E+04  0.15043600011E+04  0.25500000920E-02 0.  1.
    10030    2    1    2    0    0  0.00000000000E+00  0.00000000000E+00  0.24599533388E+02  0.30333195355E+04  0.30332197856E+04 0.  0.
        2    1    3    3  502    0 -0.13964664719E+04 -0.33643462618E+02 -0.57835920616E+03  0.15118696575E+04  0.25500000920E-02 0.  1.
       -2    1    3    3    0  502  0.13964664719E+04  0.33643462618E+02  0.60295873954E+03  0.15214498780E+04  0.25500000920E-02 0. -1.
</event>
<event>
 5   0  0.2298500E-06  0.2437787E+04  0.7818609E-02  0.8425491E-01
        3   -1    0    0  501    0  0.00000000000E+00  0.00000000000E+00  0.23239952253E+04  0.23239952275E+04  0.10100000352E+00 0.  1.
       -3   -1    0    0    0  501  0.00000000000E+00  0.00000000000E+00 -0.63928749457E+03  0.63928750255E+03  0.10100000352E+00 0. -1.
    10030    2    1    2    0    0  0.00000000000E+00  0.00000000000E+00  0.16847077307E+04  0.29632827301E+04  0.24377867832E+04 0.  0.
        4    1    3    3  502    0 -0.76892923970E+03 -0.29361190890E+03  0.19351706820E+04  0.21029377809E+04  0.12699999809E+01 0. -1.
       -4    1    3    3    0  502  0.76892923970E+03  0.29361190890E+03 -0.25046295130E+03  0.86034494919E+03  0.12699999809E+01 0.  1.
</event>
<event>
 5   0  0.2628425E-06  0.3025587E+04  0.7818609E-02  0.8236462E-01
        1   -1    0    0  501    0  0.00000000000E+00  0.00000000000E+00  0.19871280817E+04  0.19871280817E+04  0.50400001928E-02 0. -1.
       -1   -1    0    0    0  501  0.00000000000E+00  0.00000000000E+00 -0.11516844084E+04  0.11516844084E+04  0.50400001928E-02 0.  1.
    10030    2    1    2    0    0  0.00000000000E+00  0.00000000000E+00  0.83544367339E+03  0.31388124901E+04  0.30255871689E+04 0.  0.
        1    1    3    3  502    0  0.13684965244E+04 -0.11081170649E+03 -0.24125178608E+03  0.13940101850E+04  0.50400001928E-02 0. -1.
       -1    1    3    3    0  502 -0.13684965244E+04  0.11081170649E+03  0.10766954595E+04  0.17448023051E+04  0.50400001928E-02 0.  1.
</event>
<event>
 5   0  0.2552990E-06  0.2985943E+04  0.7818609E-02  0.8247756E-01
        1   -1    0    0  501    0  0.00000000000E+00  0.00000000000E+00  0.16880085140E+04  0.16880085140E+04  0.50400001928E-02 0.  1.
       -1   -1    0    0    0  501  0.00000000000E+00  0.00000000000E+00 -0.13204699621E+04  0.13204699621E+04  0.50400001928E-02 0. -1.
    10030    2    1    2    0    0  0.00000000000E+00  0.00000000000E+00  0.36753855196E+03  0.30084784761E+04  0.29859434278E+04 0.  0.
        3    1    3    3  502    0  0.14433035894E+03 -0.14783634228E+04  0.33515256001E+03  0.15227333684E+04  0.10100000352E+00 0.  1.
       -3    1    3    3    0  502 -0.14433035894E+03  0.14783634228E+04  0.32385991954E+02  0.14857451077E+04  0.10100000352E+00 0. -1.
</event>
<event>
 5   0  0.7201538E-06  0.3023544E+04  0.7818609E-02  0.8237040E-01
        2   -1    0    0  501    0  0.00000000000E+00  0.00000000000E+00  0.18642689639E+04  0.18642689639E+04  0.25500000920E-02 0.  1.
       -2   -1    0    0    0  501  0.00000000000E+00  0.00000000000E+00 -0.12259252914E+04  0.12259252914E+04  0.25500000920E-02 0. -1.
    10030    2    1    2    0    0  0.00000000000E+00  0.00000000000E+00  0.63834367246E+03  0.30901942553E+04  0.30235439291E+04 0.  0.
        3    1    3    3  502    0 -0.11567494234E+04  0.14828829212E+03 -0.66400868084E+03  0.13420008139E+04  0.10100000352E+00 0. -1.
       -3    1    3    3    0  502  0.11567494234E+04 -0.14828829212E+03  0.13023523533E+04  0.17481934414E+04  0.10100000352E+00 0.  1.
</event>
<event>
 5   0  0.7193153E-06  0.3112464E+04  0.7818609E-02  0.8212325E-01
       -2   -1    0    0    0  501  0.00000000000E+00  0.00000000000E+00  0.20137058447E+04  0.20137058447E+04  0.25500000920E-02 0.  1.
        2   -1    0    0  501    0  0.00000000000E+00  0.00000000000E+00 -0.12026874729E+04  0.12026874729E+04  0.25500000920E-02 0. -1.
    10030    2    1    2    0    0  0.00000000000E+00  0.00000000000E+00  0.81101837173E+03  0.32163933176E+04  0.31124644856E+04 0.  0.
        4    1    3    3  502    0 -0.13863511334E+04  0.46276929940E+03  0.95789740571E+03  0.17474821722E+04  0.12699999809E+01 0.  1.
       -4    1    3    3    0  502  0.13863511334E+04 -0.46276929940E+03 -0.14687903397E+03  0.14689111454E+04  0.12699999809E+01 0. -1.
</event>
<event>
 5   0  0.2628425E-06  0.2964193E+04  0.7818609E-02  0.8254030E-01
        1   -1    0    0  501    0  0.00000000000E+00  0.00000000000E+00  0.15989810357E+04  0.15989810357E+04  0.50400001928E-02 0.  1.
       -1   -1    0    0    0  501  0.00000000000E+00  0.00000000000E+00 -0.13737557385E+04  0.13737557385E+04  0.50400001928E-02 0. -1.
    10030    2    1    2    0    0  0.00000000000E+00  0.00000000000E+00  0.22522529716E+03  0.29727367742E+04  0.29641925535E+04 0.  0.
        1    1    3    3  502    0  0.12519568254E+04 -0.19547950516E+03 -0.65836935561E+03  0.14279560001E+04  0.50400001928E-02 0.  1.
       -1    1    3    3    0  502 -0.12519568254E+04  0.19547950516E+03  0.88359465276E+03  0.15447807741E+04  0.50400001928E-02 0. -1.
</event>
<event>
 5   0  0.2672155E-06  0.2985711E+04  0.7818609E-02  0.8247823E-01
       -1   -1    0    0    0  501  0.00000000000E+00  0.00000000000E+00  0.13579917986E+04  0.13579917986E+04  0.50400001928E-02 0.  1.
        1   -1    0    0  501    0  0.00000000000E+00  0.00000000000E+00 -0.16411123986E+04  0.16411123986E+04  0.50400001928E-02 0. -1.
    10030    2    1    2    0    0  0.00000000000E+00  0.00000000000E+00 -0.28312060000E+03  0.29991041971E+04  0.29857107548E+04 0.  0.
        5    1    3    3  502    0  0.90623317930E+03 -0.37502222518E+03 -0.12720843961E+04  0.16062755197E+04  0.46999998093E+01 0. -1.
       -5    1    3    3    0  502 -0.90623317930E+03  0.37502222518E+03  0.98896379605E+03  0.13928286774E+04  0.46999998093E+01 0.  1.
</event>
<event>
 5   0  0.7201538E-06  0.2999401E+04  0.7818609E-02  0.8243902E-01
       -2   -1    0    0    0  501  0.00000000000E+00  0.00000000000E+00  0.19498136439E+04  0.19498136439E+04  0.25500000920E-02 0. -1.
        2   -1    0    0  501    0  0.00000000000E+00  0.00000000000E+00 -0.11534954221E+04  0.11534954221E+04  0.25500000920E-02 0.  1.
    10030    2    1    2    0    0  0.00000000000E+00  0.00000000000E+00  0.79631822178E+03  0.31033090660E+04  0.29994006816E+04 0.  0.
        3    1    3    3  502    0 -0.11577596041E+04  0.39217379343E+03  0.12971046718E+04  0.17823266044E+04  0.10100000352E+00 0. -1.
       -3    1    3    3    0  502  0.11577596041E+04 -0.39217379343E+03 -0.50078644998E+03  0.13209824616E+04  0.10100000352E+00 0.  1.
</event>
<event>
 5   0  0.2504260E-06  0.3058774E+04  0.7818609E-02  0.8227144E-01
       -1   -1    0    0    0  501  0.00000000000E+00  0.00000000000E+00  0.13779166574E+04  0.13779166574E+04  0.50400001928E-02 0. -1.
        1   -1    0    0  501    0  0.00000000000E+00  0.00000000000E+00 -0.16975078201E+04  0.16975078201E+04  0.50400001928E-02 0.  1.
    10030    2    1    2    0    0  0.00000000000E+00  0.00000000000E+00 -0.31959116268E+03  0.30754244774E+04  0.30587738075E+04 0.  0.
        4    1    3    3  502    0 -0.59002886184E+03  0.10637352782E+04  0.77226519608E+03  0.14408545888E+04  0.12699999809E+01 0. -1.
       -4    1    3    3    0  502  0.59002886184E+03 -0.10637352782E+04 -0.10918563588E+04  0.16345698887E+04  0.12699999809E+01 0.  1.
</event>
<event>
 5   0  0.7201538E-06  0.2948923E+04  0.7818609E-02  0.8258469E-01
        2   -1    0    0  501    0  0.00000000000E+00  0.00000000000E+00  0.21622114381E+04  0.21622114381E+04  0.25500000920E-02 0.  1.
       -2   -1    0    0    0  501  0.00000000000E+00  0.00000000000E+00 -0.10054689663E+04  0.10054689663E+04  0.25500000920E-02 0. -1.
    10030    2    1    2    0    0  0.00000000000E+00  0.00000000000E+00  0.11567424718E+04  0.31676804044E+04  0.29489228540E+04 0.  0.
        3    1    3    3  502    0  0.69758535821E+03  0.87994024049E+03 -0.44808633377E+03  0.12090084911E+04  0.10100000352E+00 0. -1.
       -3    1    3    3    0  502 -0.69758535821E+03 -0.87994024049E+03  0.16048288056E+04  0.19586719134E+04  0.10100000352E+00 0.  1.
</event>
<event>
 5   0  0.2298500E-06  0.2984163E+04  0.7818609E-02  0.8248268E-01
       -3   -1    0    0    0  501  0.00000000000E+00  0.00000000000E+00  0.18248815624E+04  0.18248815652E+04  0.10100000352E+00 0. -1.
        3   -1    0    0  501    0  0.00000000000E+00  0.00000000000E+00 -0.12199735593E+04  0.12199735634E+04  0.10100000352E+00 0.  1.
    10030    2    1    2    0    0  0.00000000000E+00  0.00000000000E+00  0.60490800318E+03  0.30448551287E+04  0.29841630422E+04 0.  0.
        2    1    3    3  502    0  0.12847427289E+03  0.13498483134E+04 -0.33287435018E+03  0.13962096694E+04  0.25500000920E-02 0.  1.
       -2    1    3    3    0  502 -0.12847427289E+03 -0.13498483134E+04  0.93778235336E+03  0.16486454592E+04  0.25500000920E-02 0. -1.
</event>
<event>
 5   0  0.2422083E-06  0.3038198E+04  0.7818609E-02  0.8232907E-01
       -1   -1    0    0    0  501  0.00000000000E+00  0.00000000000E+00  0.10143762929E+04  0.10143762929E+04  0.50400001928E-02 0. -1.
        1   -1    0    0  501    0  0.00000000000E+00  0.00000000000E+00 -0.22749562944E+04  0.22749562944E+04  0.50400001928E-02 0.  1.
    10030    2    1    2    0    0  0.00000000000E+00  0.00000000000E+00 -0.12605800015E+04  0.32893325873E+04  0.30381979741E+04 0.  0.
        2    1    3    3  502    0  0.63945018481E+02  0.72944710560E+02 -0.22715996612E+04  0.22736699226E+04  0.25500000920E-02 0.  1.
       -2    1    3    3    0  502 -0.63945018481E+02 -0.72944710560E+02  0.10110196597E+04  0.10156626647E+04  0.25500000920E-02 0. -1.
</event>
<event>
 5   0  0.6780150E-06  0.2960070E+04  0.7818609E-02  0.8255226E-01
        2   -1    0    0  501    0  0.00000000000E+00  0.00000000000E+00  0.18744324532E+04  0.18744324532E+04  0.25500000920E-02 0. -1.
       -2   -1    0    0    0  501  0.00000000000E+00  0.00000000000E+00 -0.11686220482E+04  0.11686220482E+04  0.25500000920E-02 0.  1.
    10030    2    1    2    0    0  0.00000000000E+00  0.00000000000E+00  0.70581040499E+03  0.30430545013E+04  0.29600696563E+04 0.  0.
        5    1    3    3  502    0 -0.20683247594E+03  0.13771091276E+04  0.86822835846E+03  0.16410520391E+04  0.46999998093E+01 0. -1.
       -5    1    3    3    0  502  0.20683247594E+03 -0.13771091276E+04 -0.16241795347E+03  0.14020024622E+04  0.46999998093E+01 0.  1.
</event>
<event>
 5   0  0.2628425E-06  0.2994741E+04  0.7818609E-02  0.8245234E-01
        1   -1    0    0  501    0  0.00000000000E+00  0.00000000000E+00  0.22354664651E+04  0.22354664651E+04  0.50400001928E-02 0.  1.
       -1   -1    0    0    0  501  0.00000000000E+00  0.00000000000E+00 -0.10029753167E+04  0.10029753167E+04  0.50400001928E-02 0. -1.
    10030    2    1    2    0    0  0.00000000000E+00  0.00000000000E+00  0.12324911484E+04  0.32384417818E+04  0.29947405135E+04 0.  0.
        1    1    3    3  502    0 -0.32471366140E+03  0.14083132865E+04  0.19280362670E+03  0.14580667040E+04  0.50400001928E-02 0.  1.
       -1    1    3    3    0  502  0.32471366140E+03 -0.14083132865E+04  0.10396875217E+04  0.17803750778E+04  0.50400001928E-02 0. -1.
</event>
<event>
 5   0  0.2628425E-06  0.3055178E+04  0.7818609E-02  0.8228148E-01
       -1   -1    0    0    0  501  0.00000000000E+00  0.00000000000E+00  0.12134606494E+04  0.12134606494E+04  0.50400001928E-02 0.  1.
        1   -1    0    0  501    0  0.00000000000E+00  0.00000000000E+00 -0.19230352267E+04  0.19230352267E+04  0.50400001928E-02 0. -1.
    10030    2    1    2    0    0  0.00000000000E+00  0.00000000000E+00 -0.70957457730E+03  0.31364958761E+04  0.30551776216E+04 0.  0.
        1    1    3    3  502    0  0.31616880026E+02 -0.92177081791E+03  0.89535453441E+03  0.12854263146E+04  0.50400001928E-02 0.  1.
       -1    1    3    3    0  502 -0.31616880026E+02  0.92177081791E+03 -0.16049291117E+04  0.18510695615E+04  0.50400001928E-02 0. -1.
</event>
<event>
 5   0  0.6780150E-06  0.2519534E+04  0.7818609E-02  0.8396059E-01
       -2   -1    0    0    0  501  0.00000000000E+00  0.00000000000E+00  0.83574469235E+03  0.83574469236E+03  0.25500000920E-02 0. -1.
        2   -1    0    0  501    0  0.00000000000E+00  0.00000000000E+00 -0.18989201250E+04  0.18989201250E+04  0.25500000920E-02 0.  1.
    10030    2    1    2    0    0  0.00000000000E+00  0.00000000000E+00 -0.10631754326E+04  0.27346648173E+04  0.25195336201E+04 0.  0.
        5    1    3    3  502    0 -0.29901460939E+02  0.50965571686E+03 -0.17815950781E+04  0.18533068174E+04  0.46999998093E+01 0.  1.
       -5    1    3    3    0  502  0.29901460939E+02 -0.50965571686E+03  0.71841964546E+03  0.88135799995E+03  0.46999998093E+01 0. -1.
</event>
<event>
 5   0  0.2504260E-06  0.2995005E+04  0.7818609E-02  0.8245159E-01
        1   -1    0    0  501    0  0.00000000000E+00  0.00000000000E+00  0.19794206787E+04  0.19794206787E+04  0.50400001928E-02 0.  1.
       -1   -1    0    0    0  501  0.00000000000E+00  0.00000000000E+00 -0.11329141245E+04  0.11329141245E+04  0.50400001928E-02 0. -1.
    10030    2    1    2    0    0  0.00000000000E+00  0.00000000000E+00  0.84650655420E+03  0.31123348032E+04  0.29950049383E+04 0.  0.
        4    1    3    3  502    0  0.43683428255E+02 -0.14143793934E+04 -0.85979379380E+02  0.14176640565E+04  0.12699999809E+01 0. -1.
       -4    1    3    3    0  502 -0.43683428255E+02  0.14143793934E+04  0.93248593358E+03  0.16946707467E+04  0.12699999809E+01 0.  1.
</event>
<event>
 5   0  0.2628425E-06  0.3019815E+04  0.7818609E-02  0.8238095E-01
        1   -1    0    0  501    0  0.00000000000E+00  0.00000000000E+00  0.95352641908E+03  0.95352641909E+03  0.50400001928E-02 0. -1.
       -1   -1    0    0    0  501  0.00000000000E+00  0.00000000000E+00 -0.23909366794E+04  0.23909366794E+04  0.50400001928E-02 0.  1.
    10030    2    1    2    0    0  0.00000000000E+00  0.00000000000E+00 -0.14374102603E+04  0.33444630985E+04  0.30198154183E+04 0.  0.
        1    1    3    3  502    0  0.11866628597E+04  0.93352327895E+03 -0.73384337226E+03  0.16787377847E+04  0.50400001928E-02 0.  1.
       -1    1    3    3    0  502 -0.11866628597E+04 -0.93352327895E+03 -0.70356688804E+03  0.16657253137E+04  0.50400001928E-02 0. -1.
</event>
<event>
 5   0  0.6780150E-06  0.3014146E+04  0.7818609E-02  0.8239703E-01
       -2   -1    0    0    0  501  0.00000000000E+00  0.00000000000E+00  0.15386385143E+04  0.15386385143E+04  0.25500000920E-02 0. -1.
        2   -1    0    0  501    0  0.00000000000E+00  0.00000000000E+00 -0.14761553773E+04  0.14761553773E+04  0.25500000920E-02 0.  1.
    10030    2    1    2    0    0  0.00000000000E+00  0.00000000000E+00  0.62483137008E+02  0.30147938915E+04  0.30141463246E+04 0.  0.
        5    1    3    3  502    0 -0.96695327140E+03 -0.80091410669E+03  0.86495852415E+03  0.15246761538E+04  0.46999998093E+01 0. -1.
       -5    1    3    3    0  502  0.96695327140E+03  0.80091410669E+03 -0.80247538715E+03  0.14901177377E+04  0.46999998093E+01 0.  1.
</event>
<event>
 5   0  0.2672155E-06  0.3022304E+04  0.7818609E-02  0.8237390E-01
        1   -1    0    0  501    0  0.00000000000E+00  0.00000000000E+00  0.16636102559E+04  0.16636102560E+04  0.50400001928E-02 0. -1.
       -1   -1    0    0    0  501  0.00000000000E+00  0.00000000000E+00 -0.13726652922E+04  0.13726652922E+04  0.50400001928E-02 0.  1.
    10030    2    1    2    0    0  0.00000000000E+00  0.00000000000E+00  0.29094496372E+03  0.30362755482E+04  0.30223037956E+04 0.  0.
        5    1    3    3  502    0 -0.66403918847E+03 -0.24221986185E+03 -0.11963439994E+04  0.13895609235E+04  0.46999998093E+01 0.  1.
       -5    1    3    3    0  502  0.66403918847E+03  0.24221986185E+03  0.14872889631E+04  0.16467146247E+04  0.46999998093E+01 0. -1.
</event>
<event>
 5   0  0.7201538E-06  0.2728155E+04  0.7818609E-02  0.8325927E-01
        2   -1    0    0  501    0  0.00000000000E+00  0.00000000000E+00  0.11523582451E+04  0.11523582451E+04  0.25500000920E-02 0.  1.
       -2   -1    0    0    0  501  0.00000000000E+00  0.00000000000E+00 -0.16146953134E+04  0.16146953134E+04  0.25500000920E-02 0. -1.
    10030    2    1    2    0    0  0.00000000000E+00  0.00000000000E+00 -0.46233706830E+03  0.27670535586E+04  0.27281550233E+04 0.  0.
        3    1    3    3  502    0 -0.64710714962E+03 -0.30565081437E+03  0.94665441641E+03  0.11867285611E+04  0.10100000352E+00 0.  1.
       -3    1    3    3    0  502  0.64710714962E+03  0.30565081437E+03 -0.14089914847E+04  0.15803249975E+04  0.10100000352E+00 0. -1.
</event>
<event>
 5   0  0.2422083E-06  0.3027353E+04  0.7818609E-02  0.8235963E-01
       -1   -1    0    0    0  501  0.00000000000E+00  0.00000000000E+00  0.10055022493E+04  0.10055022493E+04  0.50400001928E-02 0.  1.
        1   -1    0    0  501    0  0.00000000000E+00  0.00000000000E+00 -0.22786792564E+04  0.22786792564E+04  0.50400001928E-02 0. -1.
    10030    2    1    2    0    0  0.00000000000E+00  0.00000000000E+00 -0.12731770071E+04  0.32841815057E+04  0.30273533773E+04 0.  0.
        2    1    3    3  502    0  0.10168033306E+04 -0.25284289847E+03 -0.18216933932E+04  0.21015197746E+04  0.25500000920E-02 0. -1.
       -2    1    3    3    0  502 -0.10168033306E+04  0.25284289847E+03  0.54851638609E+03  0.11826617311E+04  0.25500000920E-02 0.  1.
</event>
<event>
 5   0  0.2504260E-06  0.2975307E+04  0.7818609E-02  0.8250817E-01
        1   -1    0    0  501    0  0.00000000000E+00  0.00000000000E+00  0.10193947288E+04  0.10193947288E+04  0.50400001928E-02 0.  1.
       -1   -1    0    0    0  501  0.00000000000E+00  0.00000000000E+00 -0.21710068067E+04  0.21710068067E+04  0.50400001928E-02 0. -1.
    10030    2    1    2    0    0  0.00000000000E+00  0.00000000000E+00 -0.11516120779E+04  0.31904015356E+04  0.29753069724E+04 0.  0.
        4    1    3    3  502    0  0.92836398427E+02  0.13563290948E+04 -0.12235138223E+04  0.18289983315E+04  0.12699999809E+01 0. -1.
       -4    1    3    3    0  502 -0.92836398427E+02 -0.13563290948E+04  0.71901744384E+02  0.13614032041E+04  0.12699999809E+01 0.  1.
</event>
<event>
 5   0  0.2628425E-06  0.3007585E+04  0.7818609E-02  0.8241568E-01
        1   -1    0    0  501    0  0.00000000000E+00  0.00000000000E+00  0.20324236322E+04  0.20324236322E+04  0.50400001928E-02 0. -1.
       -1   -1    0    0    0  501  0.00000000000E+00  0.00000000000E+00 -0.11126577154E+04  0.11126577154E+04  0.50400001928E-02 0.  1.
    10030    2    1    2    0    0  0.00000000000E+00  0.00000000000E+00  0.91976591678E+03  0.31450813475E+04  0.30075849682E+04 0.  0.
        1    1    3    3  502    0 -0.96209759635E+02  0.10882068222E+04  0.15405395200E+04  0.18885741760E+04  0.50400001928E-02 0. -1.
       -1    1    3    3    0  502  0.96209759635E+02 -0.10882068222E+04 -0.62077360320E+03  0.12565071715E+04  0.50400001928E-02 0.  1.
</event>
<event>
 5   0  0.2504260E-06  0.3025789E+04  0.7818609E-02  0.8236405E-01
       -1   -1    0    0    0  501  0.00000000000E+00  0.00000000000E+00  0.97285474458E+03  0.97285474459E+03  0.50400001928E-02 0.  1.
        1   -1    0    0  501    0  0.00000000000E+00  0.00000000000E+00 -0.23527152193E+04  0.23527152193E+04  0.50400001928E-02 0. -1.
    10030    2    1    2    0    0  0.00000000000E+00  0.00000000000E+00 -0.13798604748E+04  0.33255699639E+04  0.30257892615E+04 0.  0.
        4    1    3    3  502    0  0.12635483536E+04  0.46605369463E+03 -0.14474857641E+04  0.19771133347E+04  0.12699999809E+01 0. -1.
       -4    1    3    3    0  502 -0.12635483536E+04 -0.46605369463E+03  0.67625289366E+02  0.13484566292E+04  0.12699999809E+01 0.  1.
</event>
<event>
 5   0  0.6792811E-06  0.2456906E+04  0.7818609E-02  0.8418501E-01
        2   -1    0    0  501    0  0.00000000000E+00  0.00000000000E+00  0.15652380862E+04  0.15652380862E+04  0.25500000920E-02 0. -1.
       -2   -1    0    0    0  501  0.00000000000E+00  0.00000000000E+00 -0.96413278018E+03  0.96413278019E+03  0.25500000920E-02 0.  1.
    10030    2    1    2    0    0  0.00000000000E+00  0.00000000000E+00  0.60110530601E+03  0.25293708664E+04  0.24569064676E+04 0.  0.
        2    1    3    3  502    0  0.39128680201E+03 -0.11405267853E+04  0.58696802796E+02  0.12072083598E+04  0.25500000920E-02 0. -1.
       -2    1    3    3    0  502 -0.39128680201E+03  0.11405267853E+04  0.54240850321E+03  0.13221625066E+04  0.25500000920E-02 0.  1.
</event>
<event>
 5   0  0.7217255E-06  0.3009097E+04  0.7818609E-02  0.8241138E-01
       -2   -1    0    0    0  501  0.00000000000E+00  0.00000000000E+00  0.90649623435E+03  0.90649623435E+03  0.25500000920E-02 0.  1.
        2   -1    0    0  501    0  0.00000000000E+00  0.00000000000E+00 -0.24971604289E+04  0.24971604289E+04  0.25500000920E-02 0. -1.
    10030    2    1    2    0    0  0.00000000000E+00  0.00000000000E+00 -0.15906641945E+04  0.34036566632E+04  0.30090972236E+04 0.  0.
        1    1    3    3  502    0 -0.11458427153E+04  0.45350180149E+03  0.18100860138E+03  0.12455454733E+04  0.50400001928E-02 0.  1.
       -1    1    3    3    0  502  0.11458427153E+04 -0.45350180149E+03 -0.17716727959E+04  0.21581111899E+04  0.50400001928E-02 0. -1.
</event>
<event>
 5   0  0.7201538E-06  0.2151807E+04  0.7818609E-02  0.8538759E-01
        2   -1    0    0  501    0  0.00000000000E+00  0.00000000000E+00  0.10263384104E+04  0.10263384104E+04  0.25500000920E-02 0.  1.
       -2   -1    0    0    0  501  0.00000000000E+00  0.00000000000E+00 -0.11278620693E+04  0.11278620693E+04  0.25500000920E-02 0. -1.
    10030    2    1    2    0    0  0.00000000000E+00  0.00000000000E+00 -0.10152365891E+03  0.21542004798E+04  0.21518068347E+04 0.  0.
        3    1    3    3  502    0 -0.82713570132E+02 -0.10366674180E+02 -0.11246242254E+04  0.11277094755E+04  0.10100000352E+00 0. -1.
       -3    1    3    3    0  502  0.82713570132E+02  0.10366674180E+02  0.10231005665E+04  0.10264910043E+04  0.10100000352E+00 0.  1.
</event>
<event>
 5   0  0.7217255E-06  0.3030980E+04  0.7818609E-02  0.8234939E-01
       -2   -1    0    0    0  501  0.00000000000E+00  0.00000000000E+00  0.15076016416E+04  0.15076016416E+04  0.25500000920E-02 0.  1.
        2   -1    0    0  501    0  0.00000000000E+00  0.00000000000E+00 -0.15234196387E+04  0.15234196387E+04  0.25500000920E-02 0. -1.
    10030    2    1    2    0    0  0.00000000000E+00  0.00000000000E+00 -0.15817997177E+02  0.30310212803E+04  0.30309800053E+04 0.  0.
        1    1    3    3  502    0 -0.14423291582E+04 -0.98311036451E+02  0.44677453774E+03  0.15131377822E+04  0.50400001928E-02 0.  1.
       -1    1    3    3    0  502  0.14423291582E+04  0.98311036451E+02 -0.46259253492E+03  0.15178834981E+04  0.50400001928E-02 0. -1.
</event>
<event>
 5   0  0.7193153E-06  0.3020550E+04  0.7818609E-02  0.8237887E-01
       -2   -1    0    0    0  501  0.00000000000E+00  0.00000000000E+00  0.15082154561E+04  0.15082154561E+04  0.25500000920E-02 0.  1.
        2   -1    0    0  501    0  0.00000000000E+00  0.00000000000E+00 -0.15123375742E+04  0.15123375742E+04  0.25500000920E-02 0. -1.
    10030    2    1    2    0    0  0.00000000000E+00  0.00000000000E+00 -0.41221180634E+01  0.30205530303E+04  0.30205502176E+04 0.  0.
        4    1    3    3  502    0 -0.21182241244E+03 -0.12815534986E+04 -0.77256887393E+03  0.15113280193E+04  0.12699999809E+01 0. -1.
       -4    1    3    3    0  502  0.21182241244E+03  0.12815534986E+04  0.76844675587E+03  0.15092250109E+04  0.12699999809E+01 0.  1.
</event>
<event>
 5   0  0.2552990E-06  0.3015427E+04  0.7818609E-02  0.8239339E-01
       -1   -1    0    0    0  501  0.00000000000E+00  0.00000000000E+00  0.11215475485E+04  0.11215475485E+04  0.50400001928E-02 0. -1.
        1   -1    0    0  501    0  0.00000000000E+00  0.00000000000E+00 -0.20268420880E+04  0.20268420880E+04  0.50400001928E-02 0.  1.
    10030    2    1    2    0    0  0.00000000000E+00  0.00000000000E+00 -0.90529453953E+03  0.31483896365E+04  0.30154268520E+04 0.  0.
        3    1    3    3  502    0  0.37095013468E+03 -0.10466818021E+04 -0.15174457069E+04  0.18803691874E+04  0.10100000352E+00 0.  1.
       -3    1    3    3    0  502 -0.37095013468E+03  0.10466818021E+04  0.61215116738E+03  0.12680204491E+04  0.10100000352E+00 0. -1.
</event>
<event>
 5   0  0.2628425E-06  0.2903656E+04  0.7818609E-02  0.8271790E-01
        1   -1    0    0  501    0  0.00000000000E+00  0.00000000000E+00  0.16074679620E+04  0.16074679620E+04  0.50400001928E-02 0.  1.
       -1   -1    0    0    0  501  0.00000000000E+00  0.00000000000E+00 -0.13112578505E+04  0.13112578505E+04  0.50400001928E-02 0. -1.
    10030    2    1    2    0    0  0.00000000000E+00  0.00000000000E+00  0.29621011146E+03  0.29187258126E+04  0.29036563052E+04 0.  0.
        1    1    3    3  502    0 -0.95378109312E+03  0.50635369632E+03  0.11235601197E+04  0.15583580404E+04  0.50400001928E-02 0.  1.
       -1    1    3    3    0  502  0.95378109312E+03 -0.50635369632E+03 -0.82735000826E+03  0.13603677722E+04  0.50400001928E-02 0. -1.
</event>
<event>
 5   0  0.2298500E-06  0.2931888E+04  0.7818609E-02  0.8263452E-01
        3   -1    0    0  501    0  0.00000000000E+00  0.00000000000E+00  0.11548718305E+04  0.11548718349E+04  0.10100000352E+00 0. -1.
       -3   -1    0    0    0  501  0.00000000000E+00  0.00000000000E+00 -0.18608059945E+04  0.18608059972E+04  0.10100000352E+00 0.  1.
    10030    2    1    2    0    0  0.00000000000E+00  0.00000000000E+00 -0.70593416401E+03  0.30156778322E+04  0.29318884262E+04 0.  0.
        4    1    3    3  502    0 -0.68559344040E+01  0.11914099288E+04  0.52554157396E+03  0.13021905318E+04  0.12699999809E+01 0. -1.
       -4    1    3    3    0  502  0.68559344040E+01 -0.11914099288E+04 -0.12314757380E+04  0.17134873003E+04  0.12699999809E+01 0.  1.
</event>
<event>
 5   0  0.2628425E-06  0.2983745E+04  0.7818609E-02  0.8248388E-01
       -1   -1    0    0    0  501  0.00000000000E+00  0.00000000000E+00  0.77992841544E+03  0.77992841545E+03  0.50400001928E-02 0. -1.
        1   -1    0    0  501    0  0.00000000000E+00  0.00000000000E+00 -0.28537018309E+04  0.28537018309E+04  0.50400001928E-02 0.  1.
    10030    2    1    2    0    0  0.00000000000E+00  0.00000000000E+00 -0.20737734155E+04  0.36336302464E+04  0.29837447258E+04 0.  0.
        1    1    3    3  502    0 -0.11289339359E+04 -0.28368350531E+03 -0.21732496873E+04  0.24653564379E+04  0.50400001928E-02 0.  1.
       -1    1    3    3    0  502  0.11289339359E+04  0.28368350531E+03  0.99476271777E+02  0.11682738084E+04  0.50400001928E-02 0. -1.
</event>
<event>
 5   0  0.2504260E-06  0.3007157E+04  0.7818609E-02  0.8241690E-01
       -1   -1    0    0    0  501  0.00000000000E+00  0.00000000000E+00  0.18793276154E+04  0.18793276154E+04  0.50400001928E-02 0.  1.
        1   -1    0    0  501    0  0.00000000000E+00  0.00000000000E+00 -0.12029556987E+04  0.12029556987E+04  0.50400001928E-02 0. -1.
    10030    2    1    2    0    0  0.00000000000E+00  0.00000000000E+00  0.67637191668E+03  0.30822833141E+04  0.30071567067E+04 0.  0.
        4    1    3    3  502    0  0.62241885587E+02  0.71031486981E+03 -0.10186389934E+04  0.12434018973E+04  0.12699999809E+01 0. -1.
       -4    1    3    3    0  502 -0.62241885587E+02 -0.71031486981E+03  0.16950109101E+04  0.18388814167E+04  0.12699999809E+01 0.  1.
</event>
<event>
 5   0  0.2552990E-06  0.3006023E+04  0.7818609E-02  0.8242013E-01
       -1   -1    0    0    0  501  0.00000000000E+00  0.00000000000E+00  0.11947902168E+04  0.11947902168E+04  0.50400001928E-02 0.  1.
        1   -1    0    0  501    0  0.00000000000E+00  0.00000000000E+00 -0.18907448473E+04  0.18907448473E+04  0.50400001928E-02 0. -1.
    10030    2    1    2    0    0  0.00000000000E+00  0.00000000000E+00 -0.69595463050E+03  0.30855350641E+04  0.30060229181E+04 0.  0.
        3    1    3    3  502    0  0.86911860579E+03  0.87039748027E+03 -0.12345864689E+04  0.17427457313E+04  0.10100000352E+00 0. -1.
       -3    1    3    3    0  502 -0.86911860579E+03 -0.87039748027E+03  0.53863183841E+03  0.13427893328E+04  0.10100000352E+00 0.  1.
</event>
<event>
 5   0  0.7193153E-06  0.3047437E+04  0.7818609E-02  0.8230313E-01
        2   -1    0    0  501    0  0.00000000000E+00  0.00000000000E+00  0.15848082950E+04  0.15848082950E+04  0.25500000920E-02 0. -1.
       -2   -1    0    0    0  501  0.00000000000E+00  0.00000000000E+00 -0.14649830599E+04  0.14649830599E+04  0.25500000920E-02 0.  1.
    10030    2    1    2    0    0  0.00000000000E+00  0.00000000000E+00  0.11982523504E+03  0.30497913549E+04  0.30474365000E+04 0.  0.
        4    1    3    3  502    0 -0.15406046851E+03  0.82922637147E+02  0.15747218774E+04  0.15844120032E+04  0.12699999809E+01 0. -1.
       -4    1    3    3    0  502  0.15406046851E+03 -0.82922637147E+02 -0.14548966424E+04  0.14653793518E+04  0.12699999809E+01 0.  1.
</event>
<event>
 5   0  0.2422083E-06  0.2888429E+04  0.7818609E-02  0.8276329E-01
       -1   -1    0    0    0  501  0.00000000000E+00  0.00000000000E+00  0.12338118024E+04  0.12338118024E+04  0.50400001928E-02 0. -1.
        1   -1    0    0  501    0  0.00000000000E+00  0.00000000000E+00 -0.16904971059E+04  0.16904971059E+04  0.50400001928E-02 0.  1.
    10030    2    1    2    0    0  0.00000000000E+00  0.00000000000E+00 -0.45668530343E+03  0.29243089083E+04  0.28884288333E+04 0.  0.
        2    1    3    3  502    0  0.53614030271E+03 -0.77032808098E+03 -0.13396590160E+04  0.16357072035E+04  0.25500000920E-02 0.  1.
       -2    1    3    3    0  502 -0.53614030271E+03  0.77032808098E+03  0.88297371254E+03  0.12886017048E+04  0.25500000920E-02 0. -1.
</event>
<event>
 5   0  0.2552990E-06  0.2981166E+04  0.7818609E-02  0.8249130E-01
       -1   -1    0    0    0  501  0.00000000000E+00  0.00000000000E+00  0.12907190556E+04  0.12907190556E+04  0.50400001928E-02 0.  1.
        1   -1    0    0  501    0  0.00000000000E+00  0.00000000000E+00 -0.17213948770E+04  0.17213948770E+04  0.50400001928E-02 0. -1.
    10030    2    1    2    0    0  0.00000000000E+00  0.00000000000E+00 -0.43067582143E+03  0.30121139326E+04  0.29811656579E+04 0.  0.
        3    1    3    3  502    0  0.10053540108E+04 -0.10998953493E+04 -0.25219527415E+03  0.15113268783E+04  0.10100000352E+00 0.  1.
       -3    1    3    3    0  502 -0.10053540108E+04  0.10998953493E+04 -0.17848054728E+03  0.15007870543E+04  0.10100000352E+00 0. -1.
</event>
<event>
 5   0  0.6780150E-06  0.2966174E+04  0.7818609E-02  0.8253456E-01
        2   -1    0    0  501    0  0.00000000000E+00  0.00000000000E+00  0.14759825817E+04  0.14759825817E+04  0.25500000920E-02 0.  1.
       -2   -1    0    0    0  501  0.00000000000E+00  0.00000000000E+00 -0.14902260598E+04  0.14902260598E+04  0.25500000920E-02 0. -1.
    10030    2    1    2    0    0  0.00000000000E+00  0.00000000000E+00 -0.14243478073E+02  0.29662086415E+04  0.29661744434E+04 0.  0.
        5    1    3    3  502    0  0.73604181863E+03 -0.90164446957E+03  0.91202176941E+03  0.14786906729E+04  0.46999998093E+01 0.  1.
       -5    1    3    3    0  502 -0.73604181863E+03  0.90164446957E+03 -0.92626524749E+03  0.14875179686E+04  0.46999998093E+01 0. -1.
</event>
<event>
 5   0  0.2422083E-06  0.3056176E+04  0.7818609E-02  0.8227869E-01
       -1   -1    0    0    0  501  0.00000000000E+00  0.00000000000E+00  0.11880689796E+04  0.11880689796E+04  0.50400001928E-02 0.  1.
        1   -1    0    0  501    0  0.00000000000E+00  0.00000000000E+00 -0.19654185612E+04  0.19654185612E+04  0.50400001928E-02 0. -1.
    10030    2    1    2    0    0  0.00000000000E+00  0.00000000000E+00 -0.77734958153E+03  0.31534875408E+04  0.30561759272E+04 0.  0.
        2    1    3    3  502    0 -0.22408510006E+03  0.64476716261E+03 -0.17993617900E+04  0.19244847823E+04  0.25500000920E-02 0. -1.
       -2    1    3    3    0  502  0.22408510006E+03 -0.64476716261E+03  0.10220122085E+04  0.12290027585E+04  0.25500000920E-02 0.  1.
</event>
<event>
 5   0  0.2672155E-06  0.2972443E+04  0.7818609E-02  0.8251644E-01
       -1   -1    0    0    0  501  0.00000000000E+00  0.00000000000E+00  0.17179491152E+04  0.17179491152E+04  0.50400001928E-02 0. -1.
        1   -1    0    0  501    0  0.00000000000E+00  0.00000000000E+00 -0.12857504423E+04  0.12857504423E+04  0.50400001928E-02 0.  1.
    10030    2    1    2    0    0  0.00000000000E+00  0.00000000000E+00  0.43219867293E+03  0.30036995575E+04  0.29724426552E+04 0.  0.
        5    1    3    3  502    0  0.89869775535E+02  0.44224745977E+03  0.16470308872E+04  0.17077447777E+04  0.46999998093E+01 0. -1.
       -5    1    3    3    0  502 -0.89869775535E+02 -0.44224745977E+03 -0.12148322143E+04  0.12959547798E+04  0.46999998093E+01 0.  1.
</event>
<event>
 5   0  0.2672155E-06  0.2896749E+04  0.7818609E-02  0.8273845E-01
       -1   -1    0    0    0  501  0.00000000000E+00  0.00000000000E+00  0.13851268208E+04  0.13851268208E+04  0.50400001928E-02 0.  1.
        1   -1    0    0  501    0  0.00000000000E+00  0.00000000000E+00 -0.15145104790E+04  0.15145104790E+04  0.50400001928E-02 0. -1.
    10030    2    1    2    0    0  0.00000000000E+00  0.00000000000E+00 -0.12938365820E+03  0.28996372997E+04  0.28967492710E+04 0.  0.
        5    1    3    3  502    0  0.63517664641E+03 -0.11747695754E+04  0.49643289494E+03  0.14247809083E+04  0.46999998093E+01 0.  1.
       -5    1    3    3    0  502 -0.63517664641E+03  0.11747695754E+04 -0.62581655314E+03  0.14748563915E+04  0.46999998093E+01 0. -1.
</event>
<event>
 5   0  0.6792811E-06  0.2902510E+04  0.7818609E-02  0.8272131E-01
        2   -1    0    0  501    0  0.00000000000E+00  0.00000000000E+00  0.20751577319E+04  0.20751577319E+04  0.25500000920E-02 0.  1.
       -2   -1    0    0    0  501  0.00000000000E+00  0.00000000000E+00 -0.10149303167E+04  0.10149303167E+04  0.25500000920E-02 0. -1.
    10030    2    1    2    0    0  0.00000000000E+00  0.00000000000E+00  0.10602274152E+04  0.30900880485E+04  0.29025095996E+04 0.  0.
        2    1    3    3  502    0  0.70725938438E+03  0.75227815441E+03 -0.55559751244E+03  0.11725301080E+04  0.25500000920E-02 0. -1.
       -2    1    3    3    0  502 -0.70725938438E+03 -0.75227815441E+03  0.16158249277E+04  0.19175579405E+04  0.25500000920E-02 0.  1.
</event>
<event>
 5   0  0.6792811E-06  0.2950528E+04  0.7818609E-02  0.8258001E-01
        2   -1    0    0  501    0  0.00000000000E+00  0.00000000000E+00  0.23244121418E+04  0.23244121418E+04  0.25500000920E-02 0.  1.
       -2   -1    0    0    0  501  0.00000000000E+00  0.00000000000E+00 -0.93632461075E+03  0.93632461075E+03  0.25500000920E-02 0. -1.
    10030    2    1    2    0    0  0.00000000000E+00  0.00000000000E+00  0.13880875310E+04  0.32607367525E+04  0.29505282875E+04 0.  0.
        2    1    3    3  502    0 -0.91246511806E+03 -0.63549992261E+03 -0.37739829285E+03  0.11742581551E+04  0.25500000920E-02 0. -1.
       -2    1    3    3    0  502  0.91246511806E+03  0.63549992261E+03  0.17654858239E+04  0.20864785975E+04  0.25500000920E-02 0.  1.
</event>
<event>
 5   0  0.6780150E-06  0.3093831E+04  0.7818609E-02  0.8217433E-01
        2   -1    0    0  501    0  0.00000000000E+00  0.00000000000E+00  0.18237808058E+04  0.18237808058E+04  0.25500000920E-02 0. -1.
       -2   -1    0    0    0  501  0.00000000000E+00  0.00000000000E+00 -0.13120808142E+04  0.13120808142E+04  0.25500000920E-02 0.  1.
    10030    2    1    2    0    0  0.00000000000E+00  0.00000000000E+00  0.51169999154E+03  0.31358616200E+04  0.30938311555E+04 0.  0.
        5    1    3    3  502    0 -0.86111588397E+03  0.53669577746E+03  0.14393438304E+04  0.17610495947E+04  0.46999998093E+01 0. -1.
       -5    1    3    3    0  502  0.86111588397E+03 -0.53669577746E+03 -0.92764383882E+03  0.13748120253E+04  0.46999998093E+01 0.  1.
</event>
<event>
 5   0  0.7193153E-06  0.3027654E+04  0.7818609E-02  0.8235878E-01
       -2   -1    0    0    0  501  0.00000000000E+00  0.00000000000E+00  0.12144706648E+04  0.12144706648E+04  0.25500000920E-02 0.  1.
        2   -1    0    0  501    0  0.00000000000E+00  0.00000000000E+00 -0.18869722539E+04  0.18869722539E+04  0.25500000920E-02 0. -1.
    10030    2    1    2    0    0  0.00000000000E+00  0.00000000000E+00 -0.67250158907E+03  0.31014429187E+04  0.30276541729E+04 0.  0.
        4    1    3    3  502    0  0.29420003183E+03  0.14057368850E+04  0.15397387844E+03  0.14444235586E+04  0.12699999809E+01 0.  1.
       -4    1    3    3    0  502 -0.29420003183E+03 -0.14057368850E+04 -0.82647546750E+03  0.16570193601E+04  0.12699999809E+01 0. -1.
</event>
<event>
 5   0  0.2628425E-06  0.2856619E+04  0.7818609E-02  0.8285903E-01
        1   -1    0    0  501    0  0.00000000000E+00  0.00000000000E+00  0.19979716884E+04  0.19979716884E+04  0.50400001928E-02 0. -1.
       -1   -1    0    0    0  501  0.00000000000E+00  0.00000000000E+00 -0.10210696993E+04  0.10210696994E+04  0.50400001928E-02 0.  1.
    10030    2    1    2    0    0  0.00000000000E+00  0.00000000000E+00  0.97690198910E+03  0.30190413878E+04  0.28566192264E+04 0.  0.
        1    1    3    3  502    0 -0.61435559978E+03 -0.12031928667E+04 -0.15512139233E+01  0.13509656857E+04  0.50400001928E-02 0. -1.
       -1    1    3    3    0  502  0.61435559978E+03  0.12031928667E+04  0.97845320302E+03  0.16680757021E+04  0.50400001928E-02 0.  1.
</event>
<event>
 5   0  0.7193153E-06  0.3008920E+04  0.7818609E-02  0.8241188E-01
       -2   -1    0    0    0  501  0.00000000000E+00  0.00000000000E+00  0.85811813878E+03  0.85811813878E+03  0.25500000920E-02 0. -1.
        2   -1    0    0  501    0  0.00000000000E+00  0.00000000000E+00 -0.26376313458E+04  0.26376313458E+04  0.25500000920E-02 0.  1.
    10030    2    1    2    0    0  0.00000000000E+00  0.00000000000E+00 -0.17795132070E+04  0.34957494846E+04  0.30089196076E+04 0.  0.
        4    1    3    3  502    0 -0.34798614293E+02  0.56857781179E+03  0.72798106140E+03  0.92436448994E+03  0.12699999809E+01 0. -1.
       -4    1    3    3    0  502  0.34798614293E+02 -0.56857781179E+03 -0.25074942684E+04  0.25713849947E+04  0.12699999809E+01 0.  1.
</event>
<event>
 5   0  0.2504260E-06  0.2874933E+04  0.7818609E-02  0.8280375E-01
       -1   -1    0    0    0  501  0.00000000000E+00  0.00000000000E+00  0.18185106033E+04  0.18185106033E+04  0.50400001928E-02 0.  1.
        1   -1    0    0  501    0  0.00000000000E+00  0.00000000000E+00 -0.11362647906E+04  0.11362647906E+04  0.50400001928E-02 0. -1.
    10030    2    1    2    0    0  0.00000000000E+00  0.00000000000E+00  0.68224581267E+03  0.29547753939E+04  0.28749327435E+04 0.  0.
        4    1    3    3  502    0  0.12388390250E+04 -0.56871052409E+03  0.81003273847E+03  0.15856571005E+04  0.12699999809E+01 0.  1.
       -4    1    3    3    0  502 -0.12388390250E+04  0.56871052409E+03 -0.12778692579E+03  0.13691182934E+04  0.12699999809E+01 0. -1.
</event>
<event>
 5   0  0.7217255E-06  0.2963896E+04  0.7818609E-02  0.8254116E-01
        2   -1    0    0  501    0  0.00000000000E+00  0.00000000000E+00  0.19520115660E+04  0.19520115660E+04  0.25500000920E-02 0. -1.
       -2   -1    0    0    0  501  0.00000000000E+00  0.00000000000E+00 -0.11250802144E+04  0.11250802144E+04  0.25500000920E-02 0.  1.
    10030    2    1    2    0    0  0.00000000000E+00  0.00000000000E+00  0.82693135153E+03  0.30770917804E+04  0.29638958087E+04 0.  0.
        1    1    3    3  502    0 -0.62898587314E+03  0.11749697838E+04  0.10862846302E+04  0.17193578799E+04  0.50400001928E-02 0.  1.
       -1    1    3    3    0  502  0.62898587314E+03 -0.11749697838E+04 -0.25935327865E+03  0.13577339005E+04  0.50400001928E-02 0. -1.
</event>
<event>
 5   0  0.2552990E-06  0.3006079E+04  0.7818609E-02  0.8241997E-01
        1   -1    0    0  501    0  0.00000000000E+00  0.00000000000E+00  0.18919806745E+04  0.18919806745E+04  0.50400001928E-02 0.  1.
       -1   -1    0    0    0  501  0.00000000000E+00  0.00000000000E+00 -0.11940541197E+04  0.11940541198E+04  0.50400001928E-02 0. -1.
    10030    2    1    2    0    0  0.00000000000E+00  0.00000000000E+00  0.69792655472E+03  0.30860347942E+04  0.30060787208E+04 0.  0.
        3    1    3    3  502    0  0.47190684331E+03  0.13244593098E+04 -0.19642878070E+03  0.14196734864E+04  0.10100000352E+00 0. -1.
       -3    1    3    3    0  502 -0.47190684331E+03 -0.13244593098E+04  0.89435533542E+03  0.16663613078E+04  0.10100000352E+00 0.  1.
</event>
<event>
 5   0  0.7201538E-06  0.2971962E+04  0.7818609E-02  0.8251783E-01
       -2   -1    0    0    0  501  0.00000000000E+00  0.00000000000E+00  0.12440030048E+04  0.12440030048E+04  0.25500000920E-02 0. -1.
        2   -1    0    0  501    0  0.00000000000E+00  0.00000000000E+00 -0.17750275123E+04  0.17750275123E+04  0.25500000920E-02 0.  1.
    10030    2    1    2    0    0  0.00000000000E+00  0.00000000000E+00 -0.53102450752E+03  0.30190305171E+04  0.29719620178E+04 0.  0.
        3    1    3    3  502    0 -0.12744364091E+04 -0.19178895006E+03 -0.10169357085E+04  0.16416849295E+04  0.10100000352E+00 0.  1.
       -3    1    3    3    0  502  0.12744364091E+04  0.19178895006E+03  0.48591120093E+03  0.13773455876E+04  0.10100000352E+00 0. -1.
</event>
<event>
 5   0  0.2672155E-06  0.2990618E+04  0.7818609E-02  0.8246415E-01
        1   -1    0    0  501    0  0.00000000000E+00  0.00000000000E+00  0.15187301317E+04  0.15187301317E+04  0.50400001928E-02 0.  1.
       -1   -1    0    0    0  501  0.00000000000E+00  0.00000000000E+00 -0.14722495316E+04  0.14722495316E+04  0.50400001928E-02 0. -1.
    10030    2    1    2    0    0  0.00000000000E+00  0.00000000000E+00  0.46480600120E+02  0.29909796633E+04  0.29906184812E+04 0.  0.
        5    1    3    3  502    0  0.39867634476E+03 -0.11430166581E+04  0.90112630994E+03  0.15091324081E+04  0.46999998093E+01 0.  1.
       -5    1    3    3    0  502 -0.39867634476E+03  0.11430166581E+04 -0.85464570982E+03  0.14818472553E+04  0.46999998093E+01 0. -1.
</event>
<event>
 5   0  0.7217255E-06  0.2955113E+04  0.7818609E-02  0.8256666E-01
       -2   -1    0    0    0  501  0.00000000000E+00  0.00000000000E+00  0.13238314520E+04  0.13238314520E+04  0.25500000920E-02 0.  1.
        2   -1    0    0  501    0  0.00000000000E+00  0.00000000000E+00 -0.16491327487E+04  0.16491327487E+04  0.25500000920E-02 0. -1.
    10030    2    1    2    0    0  0.00000000000E+00  0.00000000000E+00 -0.32530129670E+03  0.29729642007E+04  0.29551133997E+04 0.  0.
        1    1    3    3  502    0  0.24627139914E+03 -0.14279893394E+04  0.12783328113E+03  0.14546973924E+04  0.50400001928E-02 0. -1.
       -1    1    3    3    0  502 -0.24627139914E+03  0.14279893394E+04 -0.45313457783E+03  0.15182668083E+04  0.50400001928E-02 0.  1.
</event>
<event>
 5   0  0.7201538E-06  0.2981904E+04  0.7818609E-02  0.8248917E-01
       -2   -1    0    0    0  501  0.00000000000E+00  0.00000000000E+00  0.14290108825E+04  0.14290108825E+04  0.25500000920E-02 0.  1.
        2   -1    0    0  501    0  0.00000000000E+00  0.00000000000E+00 -0.15555778638E+04  0.15555778639E+04  0.25500000920E-02 0. -1.
    10030    2    1    2    0    0  0.00000000000E+00  0.00000000000E+00 -0.12656698136E+03  0.29845887463E+04  0.29819038858E+04 0.  0.
        3    1    3    3  502    0 -0.37876280785E+03  0.13031574550E+04 -0.68129961817E+03  0.15185024850E+04  0.10100000352E+00 0. -1.
       -3    1    3    3    0  502  0.37876280785E+03 -0.13031574550E+04  0.55473263681E+03  0.14660862613E+04  0.10100000352E+00 0.  1.
</event>
<event>
 5   0  0.2298500E-06  0.2990720E+04  0.7818609E-02  0.8246386E-01
        3   -1    0    0  501    0  0.00000000000E+00  0.00000000000E+00  0.12532542847E+04  0.12532542887E+04  0.10100000352E+00 0.  1.
       -3   -1    0    0    0  501  0.00000000000E+00  0.00000000000E+00 -0.17842360846E+04  0.17842360875E+04  0.10100000352E+00 0. -1.
    10030    2    1    2    0    0  0.00000000000E+00  0.00000000000E+00 -0.53098179992E+03  0.30374903762E+04  0.29907199992E+04 0.  0.
        4    1    3    3  502    0  0.11550550713E+04  0.93895347110E+03 -0.41024727606E+03  0.15440499600E+04  0.12699999809E+01 0. -1.
       -4    1    3    3    0  502 -0.11550550713E+04 -0.93895347110E+03 -0.12073452387E+03  0.14934404162E+04  0.12699999809E+01 0.  1.
</event>
<event>
 5   0  0.2504260E-06  0.3006862E+04  0.7818609E-02  0.8241774E-01
        1   -1    0    0  501    0  0.00000000000E+00  0.00000000000E+00  0.25870533137E+04  0.25870533137E+04  0.50400001928E-02 0.  1.
       -1   -1    0    0    0  501  0.00000000000E+00  0.00000000000E+00 -0.87369884277E+03  0.87369884278E+03  0.50400001928E-02 0. -1.
    10030    2    1    2    0    0  0.00000000000E+00  0.00000000000E+00  0.17133544709E+04  0.34607521565E+04  0.30068624753E+04 0.  0.
        4    1    3    3  502    0  0.30575464656E+03 -0.32391604532E+03  0.25093632403E+04  0.25485903934E+04  0.12699999809E+01 0.  1.
       -4    1    3    3    0  502 -0.30575464656E+03  0.32391604532E+03 -0.79600876938E+03  0.91216176314E+03  0.12699999809E+01 0. -1.
</event>
<event>
 5   0  0.2422083E-06  0.2778357E+04  0.7818609E-02  0.8310019E-01
       -1   -1    0    0    0  501  0.00000000000E+00  0.00000000000E+00  0.11878213303E+04  0.11878213303E+04  0.50400001928E-02 0. -1.
        1   -1    0    0  501    0  0.00000000000E+00  0.00000000000E+00 -0.16246698264E+04  0.16246698264E+04  0.50400001928E-02 0.  1.
    10030    2    1    2    0    0  0.00000000000E+00  0.00000000000E+00 -0.43684849606E+03  0.28124911567E+04  0.27783574100E+04 0.  0.
        2    1    3    3  502    0  0.40680733958E+03 -0.31502774186E+03  0.10878097042E+04  0.12033555759E+04  0.25500000920E-02 0. -1.
       -2    1    3    3    0  502 -0.40680733958E+03  0.31502774186E+03 -0.15246582002E+04  0.16091355807E+04  0.25500000920E-02 0.  1.
</event>
<event>
 5   0  0.7193153E-06  0.3013383E+04  0.7818609E-02  0.8239920E-01
       -2   -1    0    0    0  501  0.00000000000E+00  0.00000000000E+00  0.94473053901E+03  0.94473053902E+03  0.25500000920E-02 0.  1.
        2   -1    0    0  501    0  0.00000000000E+00  0.00000000000E+00 -0.24029282962E+04  0.24029282962E+04  0.25500000920E-02 0. -1.
    10030    2    1    2    0    0  0.00000000000E+00  0.00000000000E+00 -0.14581977572E+04  0.33476588352E+04  0.30133833108E+04 0.  0.
        4    1    3    3  502    0 -0.10678674468E+04 -0.25830069168E+03  0.41632252306E+03  0.11748983732E+04  0.12699999809E+01 0.  1.
       -4    1    3    3    0  502  0.10678674468E+04  0.25830069168E+03 -0.18745202802E+04  0.21727604620E+04  0.12699999809E+01 0. -1.
</event>
<event>
 5   0  0.7217255E-06  0.3050200E+04  0.7818609E-02  0.8229539E-01
       -2   -1    0    0    0  501  0.00000000000E+00  0.00000000000E+00  0.13857185993E+04  0.13857185993E+04  0.25500000920E-02 0. -1.
        2   -1    0    0  501    0  0.00000000000E+00  0.00000000000E+00 -0.16785014430E+04  0.16785014430E+04  0.25500000920E-02 0.  1.
    10030    2    1    2    0    0  0.00000000000E+00  0.00000000000E+00 -0.29278284371E+03  0.30642200423E+04  0.30502004318E+04 0.  0.
        1    1    3    3  502    0  0.63075667013E+03  0.19484446645E+03 -0.15275240261E+04  0.16640757174E+04  0.50400001928E-02 0.  1.
       -1    1    3    3    0  502 -0.63075667013E+03 -0.19484446645E+03  0.12347411824E+04  0.14001443249E+04  0.50400001928E-02 0. -1.
</event>
<event>
 5   0  0.2628425E-06  0.2962552E+04  0.7818609E-02  0.8254506E-01
        1   -1    0    0  501    0  0.00000000000E+00  0.00000000000E+00  0.14860703763E+04  0.14860703763E+04  0.50400001928E-02 0.  1.
       -1   -1    0    0    0  501  0.00000000000E+00  0.00000000000E+00 -0.14764973242E+04  0.14764973242E+04  0.50400001928E-02 0. -1.
    10030    2    1    2    0    0  0.00000000000E+00  0.00000000000E+00  0.95730521221E+01  0.29625677005E+04  0.29625522336E+04 0.  0.
        1    1    3    3  502    0 -0.74281709515E+03  0.38590961353E+03 -0.12172981935E+04  0.14773348837E+04  0.50400001928E-02 0. -1.
       -1    1    3    3    0  502  0.74281709515E+03 -0.38590961353E+03  0.12268712457E+04  0.14852328168E+04  0.50400001928E-02 0.  1.
</event>
<event>
 5   0  0.6780150E-06  0.2963526E+04  0.7818609E-02  0.8254224E-01
        2   -1    0    0  501    0  0.00000000000E+00  0.00000000000E+00  0.15061080918E+04  0.15061080918E+04  0.25500000920E-02 0.  1.
       -2   -1    0    0    0  501  0.00000000000E+00  0.00000000000E+00 -0.14578114034E+04  0.14578114034E+04  0.25500000920E-02 0. -1.
    10030    2    1    2    0    0  0.00000000000E+00  0.00000000000E+00  0.48296688428E+02  0.29639194953E+04  0.29635259750E+04 0.  0.
        5    1    3    3  502    0 -0.72431600529E+03 -0.12917690725E+04 -0.23800162152E+02  0.14811784329E+04  0.46999998093E+01 0.  1.
       -5    1    3    3    0  502  0.72431600529E+03  0.12917690725E+04  0.72096850580E+02  0.14827410624E+04  0.46999998093E+01 0. -1.
</event>
<event>
 5   0  0.2504260E-06  0.2269779E+04  0.7818609E-02  0.8489933E-01
       -1   -1    0    0    0  501  0.00000000000E+00  0.00000000000E+00  0.12299273322E+04  0.12299273323E+04  0.50400001928E-02 0.  1.
        1   -1    0    0  501    0  0.00000000000E+00  0.00000000000E+00 -0.10471954032E+04  0.10471954032E+04  0.50400001928E-02 0. -1.
    10030    2    1    2    0    0  0.00000000000E+00  0.00000000000E+00  0.18273192904E+03  0.22771227355E+04  0.22697790629E+04 0.  0.
        4    1    3    3  502    0 -0.33313392182E+03 -0.18608082543E+03 -0.98090843000E+03  0.10525147241E+04  0.12699999809E+01 0. -1.
       -4    1    3    3    0  502  0.33313392182E+03  0.18608082543E+03  0.11636403590E+04  0.12246080114E+04  0.12699999809E+01 0.  1.
</event>
<event>
 5   0  0.2552990E-06  0.2933071E+04  0.7818609E-02  0.8263105E-01
       -1   -1    0    0    0  501  0.00000000000E+00  0.00000000000E+00  0.78127462146E+03  0.78127462148E+03  0.50400001928E-02 0. -1.
        1   -1    0    0  501    0  0.00000000000E+00  0.00000000000E+00 -0.27528439186E+04  0.27528439186E+04  0.50400001928E-02 0.  1.
    10030    2    1    2    0    0  0.00000000000E+00  0.00000000000E+00 -0.19715692972E+04  0.35341185401E+04  0.29330714894E+04 0.  0.
        3    1    3    3  502    0  0.51179302405E+03  0.13736479448E+04 -0.93345300607E+03  0.17378651560E+04  0.10100000352E+00 0. -1.
       -3    1    3    3    0  502 -0.51179302405E+03 -0.13736479448E+04 -0.10381162911E+04  0.17962533841E+04  0.10100000352E+00 0.  1.
</event>
<event>
 5   0  0.2422083E-06  0.2971419E+04  0.7818609E-02  0.8251940E-01
       -1   -1    0    0    0  501  0.00000000000E+00  0.00000000000E+00  0.10395700007E+04  0.10395700007E+04  0.50400001928E-02 0.  1.
        1   -1    0    0  501    0  0.00000000000E+00  0.00000000000E+00 -0.21233128304E+04  0.21233128304E+04  0.50400001928E-02 0. -1.
    10030    2    1    2    0    0  0.00000000000E+00  0.00000000000E+00 -0.10837428297E+04  0.31628828311E+04  0.29714187322E+04 0.  0.
        2    1    3    3  502    0  0.79482645573E+03  0.12217410190E+04 -0.23533604014E+03  0.14764089081E+04  0.25500000920E-02 0.  1.
       -2    1    3    3    0  502 -0.79482645573E+03 -0.12217410190E+04 -0.84840678954E+03  0.16864739229E+04  0.25500000920E-02 0. -1.
</event>
<event>
 5   0  0.7193153E-06  0.3002380E+04  0.7818609E-02  0.8243052E-01
       -2   -1    0    0    0  501  0.00000000000E+00  0.00000000000E+00  0.87482667399E+03  0.87482667399E+03  0.25500000920E-02 0. -1.
        2   -1    0    0  501    0  0.00000000000E+00  0.00000000000E+00 -0.25760197835E+04  0.25760197835E+04  0.25500000920E-02 0.  1.
    10030    2    1    2    0    0  0.00000000000E+00  0.00000000000E+00 -0.17011931095E+04  0.34508464575E+04  0.30023796025E+04 0.  0.
        4    1    3    3  502    0  0.29087933651E+02  0.98130488682E+03 -0.21559109571E+04  0.23689151645E+04  0.12699999809E+01 0.  1.
       -4    1    3    3    0  502 -0.29087933651E+02 -0.98130488682E+03  0.45471784764E+03  0.10819312929E+04  0.12699999809E+01 0. -1.
</event>
<event>
 5   0  0.2628425E-06  0.2958363E+04  0.7818609E-02  0.8255722E-01
        1   -1    0    0  501    0  0.00000000000E+00  0.00000000000E+00  0.16268642871E+04  0.16268642871E+04  0.50400001928E-02 0.  1.
       -1   -1    0    0    0  501  0.00000000000E+00  0.00000000000E+00 -0.13449049257E+04  0.13449049258E+04  0.50400001928E-02 0. -1.
    10030    2    1    2    0    0  0.00000000000E+00  0.00000000000E+00  0.28195936139E+03  0.29717692129E+04  0.29583629211E+04 0.  0.
        1    1    3    3  502    0 -0.11451745322E+04 -0.93036011409E+03  0.24625508786E+03  0.14958730626E+04  0.50400001928E-02 0.  1.
       -1    1    3    3    0  502  0.11451745322E+04  0.93036011409E+03  0.35704273528E+02  0.14758961503E+04  0.50400001928E-02 0. -1.
</event>
<event>
 5   0  0.2552990E-06  0.2816701E+04  0.7818609E-02  0.8298102E-01
        1   -1    0    0  501    0  0.00000000000E+00  0.00000000000E+00  0.22878931908E+04  0.22878931908E+04  0.50400001928E-02 0.  1.
       -1   -1    0    0    0  501  0.00000000000E+00  0.00000000000E+00 -0.86693369759E+03  0.86693369760E+03  0.50400001928E-02 0. -1.
    10030    2    1    2    0    0  0.00000000000E+00  0.00000000000E+00  0.14209594932E+04  0.31548268884E+04  0.28167014067E+04 0.  0.
        3    1    3    3  502    0 -0.70689102890E+03  0.23423939044E+03 -0.62837640996E+03  0.97438182535E+03  0.10100000352E+00 0. -1.
       -3    1    3    3    0  502  0.70689102890E+03 -0.23423939044E+03  0.20493359032E+04  0.21804450631E+04  0.10100000352E+00 0.  1.
</event>
<event>
 5   0  0.6792811E-06  0.3175832E+04  0.7818609E-02  0.8195229E-01
       -2   -1    0    0    0  501  0.00000000000E+00  0.00000000000E+00  0.12775953938E+04  0.12775953938E+04  0.25500000920E-02 0. -1.
        2   -1    0    0  501    0  0.00000000000E+00  0.00000000000E+00 -0.19736118783E+04  0.19736118783E+04  0.25500000920E-02 0.  1.
    10030    2    1    2    0    0  0.00000000000E+00  0.00000000000E+00 -0.69601648450E+03  0.32512072722E+04  0.31758321398E+04 0.  0.
        2    1    3    3  502    0 -0.24816516163E+03  0.83186491150E+03  0.10131700555E+04  0.13342034102E+04  0.25500000920E-02 0. -1.
       -2    1    3    3    0  502  0.24816516163E+03 -0.83186491150E+03 -0.17091865400E+04  0.19170038620E+04  0.25500000920E-02 0.  1.
</event>
<event>
 5   0  0.7193153E-06  0.2982479E+04  0.7818609E-02  0.8248752E-01
       -2   -1    0    0    0  501  0.00000000000E+00  0.00000000000E+00  0.10232919280E+04  0.10232919280E+04  0.25500000920E-02 0.  1.
        2   -1    0    0  501    0  0.00000000000E+00  0.00000000000E+00 -0.21731775421E+04  0.21731775421E+04  0.25500000920E-02 0. -1.
    10030    2    1    2    0    0  0.00000000000E+00  0.00000000000E+00 -0.11498856141E+04  0.31964694701E+04  0.29824788596E+04 0.  0.
        4    1    3    3  502    0  0.57505170521E+03 -0.12616730437E+04 -0.11632248761E+04  0.18098610605E+04  0.12699999809E+01 0.  1.
       -4    1    3    3    0  502 -0.57505170521E+03  0.12616730437E+04  0.13339261973E+02  0.13866084097E+04  0.12699999809E+01 0. -1.
</event>
<event>
 5   0  0.2672155E-06  0.3016549E+04  0.7818609E-02  0.8239021E-01
       -1   -1    0    0    0  501  0.00000000000E+00  0.00000000000E+00  0.21353528306E+04  0.21353528306E+04  0.50400001928E-02 0.  1.
        1   -1    0    0  501    0  0.00000000000E+00  0.00000000000E+00 -0.10653468160E+04  0.10653468160E+04  0.50400001928E-02 0. -1.
    10030    2    1    2    0    0  0.00000000000E+00  0.00000000000E+00  0.10700060146E+04  0.32006996466E+04  0.30165485835E+04 0.  0.
        5    1    3    3  502    0  0.10475379108E+04  0.72480494226E+03 -0.32188116622E+03  0.13138901986E+04  0.46999998093E+01 0. -1.
       -5    1    3    3    0  502 -0.10475379108E+04 -0.72480494226E+03  0.13918871808E+04  0.18868094480E+04  0.46999998093E+01 0.  1.
</event>
<event>
 5   0  0.7193153E-06  0.3093314E+04  0.7818609E-02  0.8217575E-01
       -2   -1    0    0    0  501  0.00000000000E+00  0.00000000000E+00  0.12240035436E+04  0.12240035436E+04  0.25500000920E-02 0. -1.
        2   -1    0    0  501    0  0.00000000000E+00  0.00000000000E+00 -0.19543629995E+04  0.19543629995E+04  0.25500000920E-02 0.  1.
    10030    2    1    2    0    0  0.00000000000E+00  0.00000000000E+00 -0.73035945588E+03  0.31783665430E+04  0.30933135869E+04 0.  0.
        4    1    3    3  502    0 -0.28763453621E+03 -0.38844063216E+03  0.11444090568E+04  0.12422936260E+04  0.12699999809E+01 0. -1.
       -4    1    3    3    0  502  0.28763453621E+03  0.38844063216E+03 -0.18747685126E+04  0.19360729170E+04  0.12699999809E+01 0.  1.
</event>
<event>
 5   0  0.2422083E-06  0.2854786E+04  0.7818609E-02  0.8286459E-01
        1   -1    0    0  501    0  0.00000000000E+00  0.00000000000E+00  0.12217187761E+04  0.12217187761E+04  0.50400001928E-02 0. -1.
       -1   -1    0    0    0  501  0.00000000000E+00  0.00000000000E+00 -0.16676919029E+04  0.16676919030E+04  0.50400001928E-02 0.  1.
    10030    2    1    2    0    0  0.00000000000E+00  0.00000000000E+00 -0.44597312681E+03  0.28894106791E+04  0.28547858138E+04 0.  0.
        2    1    3    3  502    0 -0.96513566983E+03 -0.75858508118E+03  0.51421030596E+03  0.13309208937E+04  0.25500000920E-02 0. -1.
       -2    1    3    3    0  502  0.96513566983E+03  0.75858508118E+03 -0.96018343277E+03  0.15584897854E+04  0.25500000920E-02 0.  1.
</event>
<event>
 5   0  0.6780150E-06  0.3034138E+04  0.7818609E-02  0.8234049E-01
       -2   -1    0    0    0  501  0.00000000000E+00  0.00000000000E+00  0.14275601998E+04  0.14275601998E+04  0.25500000920E-02 0. -1.
        2   -1    0    0  501    0  0.00000000000E+00  0.00000000000E+00 -0.16121900142E+04  0.16121900142E+04  0.25500000920E-02 0.  1.
    10030    2    1    2    0    0  0.00000000000E+00  0.00000000000E+00 -0.18462981441E+03  0.30397502140E+04  0.30341379657E+04 0.  0.
        5    1    3    3  502    0 -0.14085419247E+04  0.23358835972E+03  0.42139307235E+03  0.14886732640E+04  0.46999998093E+01 0. -1.
       -5    1    3    3    0  502  0.14085419247E+04 -0.23358835972E+03 -0.60602288676E+03  0.15510769500E+04  0.46999998093E+01 0.  1.
</event>
<event>
 5   0  0.2504260E-06  0.2985908E+04  0.7818609E-02  0.8247767E-01
        1   -1    0    0  501    0  0.00000000000E+00  0.00000000000E+00  0.23733660166E+04  0.23733660166E+04  0.50400001928E-02 0.  1.
       -1   -1    0    0    0  501  0.00000000000E+00  0.00000000000E+00 -0.93913499335E+03  0.93913499337E+03  0.50400001928E-02 0. -1.
    10030    2    1    2    0    0  0.00000000000E+00  0.00000000000E+00  0.14342310232E+04  0.33125010100E+04  0.29859076196E+04 0.  0.
        4    1    3    3  502    0  0.34946451123E+03  0.95817273673E+03 -0.49240650801E+03  0.11325573805E+04  0.12699999809E+01 0. -1.
       -4    1    3    3    0  502 -0.34946451123E+03 -0.95817273673E+03  0.19266375312E+04  0.21799436295E+04  0.12699999809E+01 0.  1.
</event>
<event>
 5   0  0.7201538E-06  0.2971433E+04  0.7818609E-02  0.8251936E-01
       -2   -1    0    0    0  501  0.00000000000E+00  0.00000000000E+00  0.13475658946E+04  0.13475658946E+04  0.25500000920E-02 0.  1.
        2   -1    0    0  501    0  0.00000000000E+00  0.00000000000E+00 -0.16380306392E+04  0.16380306392E+04  0.25500000920E-02 0. -1.
    10030    2    1    2    0    0  0.00000000000E+00  0.00000000000E+00 -0.29046474461E+03  0.29855965337E+04  0.29714334747E+04 0.  0.
        3    1    3    3  502    0 -0.90048938640E+03  0.47423648783E+03 -0.12327836734E+04  0.15986046970E+04  0.10100000352E+00 0. -1.
       -3    1    3    3    0  502  0.90048938640E+03 -0.47423648783E+03  0.94231892883E+03  0.13869918368E+04  0.10100000352E+00 0.  1.
</event>
<event>
 5   0  0.2422083E-06  0.2983545E+04  0.7818609E-02  0.8248445E-01
       -1   -1    0    0    0  501  0.00000000000E+00  0.00000000000E+00  0.12039265999E+04  0.12039265999E+04  0.50400001928E-02 0. -1.
        1   -1    0    0  501    0  0.00000000000E+00  0.00000000000E+00 -0.18484392858E+04  0.18484392858E+04  0.50400001928E-02 0.  1.
    10030    2    1    2    0    0  0.00000000000E+00  0.00000000000E+00 -0.64451268588E+03  0.30523658858E+04  0.29835450220E+04 0.  0.
        2    1    3    3  502    0  0.12836573714E+04 -0.69023272419E+03 -0.64769414230E+03  0.15948997344E+04  0.25500000920E-02 0.  1.
       -2    1    3    3    0  502 -0.12836573714E+04  0.69023272419E+03  0.31814564203E+01  0.14574661514E+04  0.25500000920E-02 0. -1.
</event>
<event>
 5   0  0.6792811E-06  0.2944547E+04  0.7818609E-02  0.8259746E-01
       -2   -1    0    0    0  501  0.00000000000E+00  0.00000000000E+00  0.10167690143E+04  0.10167690143E+04  0.25500000920E-02 0. -1.
        2   -1    0    0  501    0  0.00000000000E+00  0.00000000000E+00 -0.21318400106E+04  0.21318400106E+04  0.25500000920E-02 0.  1.
    10030    2    1    2    0    0  0.00000000000E+00  0.00000000000E+00 -0.11150709963E+04  0.31486090249E+04  0.29445467334E+04 0.  0.
        2    1    3    3  502    0  0.33195370771E+03  0.14333256981E+04 -0.49923113495E+03  0.15536561868E+04  0.25500000920E-02 0. -1.
       -2    1    3    3    0  502 -0.33195370771E+03 -0.14333256981E+04 -0.61583986132E+03  0.15949528380E+04  0.25500000920E-02 0.  1.
</event>
<event>
 5   0  0.2298500E-06  0.2957052E+04  0.7818609E-02  0.8256102E-01
        3   -1    0    0  501    0  0.00000000000E+00  0.00000000000E+00  0.95127608933E+03  0.95127609469E+03  0.10100000352E+00 0. -1.
       -3   -1    0    0    0  501  0.00000000000E+00  0.00000000000E+00 -0.22980066739E+04  0.22980066761E+04  0.10100000352E+00 0.  1.
    10030    2    1    2    0    0  0.00000000000E+00  0.00000000000E+00 -0.13467305845E+04  0.32492827708E+04  0.29570517847E+04 0.  0.
        5    1    3    3  502    0  0.99607619646E+03 -0.38866325932E+03 -0.17954534169E+04  0.20897133728E+04  0.46999998093E+01 0.  1.
       -5    1    3    3    0  502 -0.99607619646E+03  0.38866325932E+03  0.44872283240E+03  0.11595693979E+04  0.46999998093E+01 0. -1.
</event>
<event>
 5   0  0.7193153E-06  0.2998012E+04  0.7818609E-02  0.8244299E-01
        2   -1    0    0  501    0  0.00000000000E+00  0.00000000000E+00  0.22606634681E+04  0.22606634681E+04  0.25500000920E-02 0. -1.
       -2   -1    0    0    0  501  0.00000000000E+00  0.00000000000E+00 -0.99396450645E+03  0.99396450645E+03  0.25500000920E-02 0.  1.
    10030    2    1    2    0    0  0.00000000000E+00  0.00000000000E+00  0.12666989616E+04  0.32546279745E+04  0.29980121736E+04 0.  0.
        4    1    3    3  502    0  0.29393676119E+03 -0.69393226585E+03 -0.77335621162E+03  0.10798251026E+04  0.12699999809E+01 0.  1.
       -4    1    3    3    0  502 -0.29393676119E+03  0.69393226585E+03  0.20400551732E+04  0.21748028720E+04  0.12699999809E+01 0. -1.
</event>
<event>
 5   0  0.6780150E-06  0.2989088E+04  0.7818609E-02  0.8246854E-01
        2   -1    0    0  501    0  0.00000000000E+00  0.00000000000E+00  0.27249789925E+04  0.27249789925E+04  0.25500000920E-02 0.  1.
       -2   -1    0    0    0  501  0.00000000000E+00  0.00000000000E+00 -0.81969851850E+03  0.81969851850E+03  0.25500000920E-02 0. -1.
    10030    2    1    2    0    0  0.00000000000E+00  0.00000000000E+00  0.19052804740E+04  0.35446775110E+04  0.29890876488E+04 0.  0.
        5    1    3    3  502    0  0.46773590412E+03 -0.13805314804E+04  0.56113138656E+03  0.15619009467E+04  0.46999998093E+01 0. -1.
       -5    1    3    3    0  502 -0.46773590412E+03  0.13805314804E+04  0.13441490874E+04  0.19827765642E+04  0.46999998093E+01 0.  1.
</event>
<event>
 5   0  0.2504260E-06  0.2986625E+04  0.7818609E-02  0.8247561E-01
       -1   -1    0    0    0  501  0.00000000000E+00  0.00000000000E+00  0.24584912035E+04  0.24584912035E+04  0.50400001928E-02 0.  1.
        1   -1    0    0  501    0  0.00000000000E+00  0.00000000000E+00 -0.90705295567E+03  0.90705295568E+03  0.50400001928E-02 0. -1.
    10030    2    1    2    0    0  0.00000000000E+00  0.00000000000E+00  0.15514382479E+04  0.33655441592E+04  0.29866246585E+04 0.  0.
        4    1    3    3  502    0  0.76929143257E+03  0.85915546052E+02 -0.66332322535E+03  0.10194067409E+04  0.12699999809E+01 0. -1.
       -4    1    3    3    0  502 -0.76929143257E+03 -0.85915546052E+02  0.22147614732E+04  0.23461374183E+04  0.12699999809E+01 0.  1.
</event>
<event>
 5   0  0.2422083E-06  0.2979578E+04  0.7818609E-02  0.8249587E-01
       -1   -1    0    0    0  501  0.00000000000E+00  0.00000000000E+00  0.15168091179E+04  0.15168091179E+04  0.50400001928E-02 0.  1.
        1   -1    0    0  501    0  0.00000000000E+00  0.00000000000E+00 -0.14632507028E+04  0.14632507028E+04  0.50400001928E-02 0. -1.
    10030    2    1    2    0    0  0.00000000000E+00  0.00000000000E+00  0.53558415029E+02  0.29800598207E+04  0.29795784989E+04 0.  0.
        2    1    3    3  502    0  0.10931072956E+04  0.31399064641E+03 -0.93566430679E+03  0.14727326236E+04  0.25500000920E-02 0. -1.
       -2    1    3    3    0  502 -0.10931072956E+04 -0.31399064641E+03  0.98922272182E+03  0.15073271971E+04  0.25500000920E-02 0.  1.
</event>
<event>
 5   0  0.6780150E-06  0.3000277E+04  0.7818609E-02  0.8243652E-01
        2   -1    0    0  501    0  0.00000000000E+00  0.00000000000E+00  0.15504094168E+04  0.15504094168E+04  0.25500000920E-02 0.  1.
       -2   -1    0    0    0  501  0.00000000000E+00  0.00000000000E+00 -0.14514971708E+04  0.14514971708E+04  0.25500000920E-02 0. -1.
    10030    2    1    2    0    0  0.00000000000E+00  0.00000000000E+00  0.98912246000E+02  0.30019065876E+04  0.30002765753E+04 0.  0.
        5    1    3    3  502    0 -0.51881869777E+03 -0.30158421112E+03  0.14250728533E+04  0.15462796011E+04  0.46999998093E+01 0.  1.
       -5    1    3    3    0  502  0.51881869777E+03  0.30158421112E+03 -0.13261606073E+04  0.14556269865E+04  0.46999998093E+01 0. -1.
</event>
<event>
 5   0  0.2552990E-06  0.3167207E+04  0.7818609E-02  0.8197532E-01
       -1   -1    0    0    0  501  0.00000000000E+00  0.00000000000E+00  0.17683807399E+04  0.17683807399E+04  0.50400001928E-02 0.  1.
        1   -1    0    0  501    0  0.00000000000E+00  0.00000000000E+00 -0.14181338344E+04  0.14181338344E+04  0.50400001928E-02 0. -1.
    10030    2    1    2    0    0  0.00000000000E+00  0.00000000000E+00  0.35024690553E+03  0.31865145743E+04  0.31672073247E+04 0.  0.
        3    1    3    3  502    0 -0.53122242707E+03  0.56144013051E+03  0.15657170857E+04  0.17461048909E+04  0.10100000352E+00 0.  1.
       -3    1    3    3    0  502  0.53122242707E+03 -0.56144013051E+03 -0.12154701802E+04  0.14404096835E+04  0.10100000352E+00 0. -1.
</event>
<event>
 5   0  0.7217255E-06  0.3015937E+04  0.7818609E-02  0.8239194E-01
        2   -1    0    0  501    0  0.00000000000E+00  0.00000000000E+00  0.18599476866E+04  0.18599476866E+04  0.25500000920E-02 0. -1.
       -2   -1    0    0    0  501  0.00000000000E+00  0.00000000000E+00 -0.12225985967E+04  0.12225985967E+04  0.25500000920E-02 0.  1.
    10030    2    1    2    0    0  0.00000000000E+00  0.00000000000E+00  0.63734908992E+03  0.30825462833E+04  0.30159372881E+04 0.  0.
        1    1    3    3  502    0 -0.14547929879E+03 -0.10753319322E+04 -0.75157480131E+03  0.13199877548E+04  0.50400001928E-02 0.  1.
       -1    1    3    3    0  502  0.14547929879E+03  0.10753319322E+04  0.13889238912E+04  0.17625585285E+04  0.50400001928E-02 0. -1.
</event>
<event>
 5   0  0.2628425E-06  0.2941734E+04  0.7818609E-02  0.8260568E-01
        1   -1    0    0  501    0  0.00000000000E+00  0.00000000000E+00  0.11398706781E+04  0.11398706781E+04  0.50400001928E-02 0. -1.
       -1   -1    0    0    0  501  0.00000000000E+00  0.00000000000E+00 -0.18979783050E+04  0.18979783050E+04  0.50400001928E-02 0.  1.
    10030    2    1    2    0    0  0.00000000000E+00  0.00000000000E+00 -0.75810762689E+03  0.30378489830E+04  0.29417340583E+04 0.  0.
        1    1    3    3  502    0 -0.11167809480E+02  0.12309690571E+04  0.45225765455E+03  0.13114673178E+04  0.50400001928E-02 0. -1.
       -1    1    3    3    0  502  0.11167809480E+02 -0.12309690571E+04 -0.12103652814E+04  0.17263816652E+04  0.50400001928E-02 0.  1.
</event>
<event>
 5   0  0.7217255E-06  0.2462703E+04  0.7818609E-02  0.8416395E-01
       -2   -1    0    0    0  501  0.00000000000E+00  0.00000000000E+00  0.15244699866E+04  0.15244699866E+04  0.25500000920E-02 0. -1.
        2   -1    0    0  501    0  0.00000000000E+00  0.00000000000E+00 -0.99459262125E+03  0.99459262125E+03  0.25500000920E-02 0.  1.
    10030    2    1    2    0    0  0.00000000000E+00  0.00000000000E+00  0.52987736537E+03  0.25190626079E+04  0.24627030678E+04 0.  0.
        1    1    3    3  502    0 -0.12290090647E+04 -0.41725679791E+02  0.32981159817E+03  0.12731771297E+04  0.50400001928E-02 0. -1.
       -1    1    3    3    0  502  0.12290090647E+04  0.41725679791E+02  0.20006576720E+03  0.12458854781E+04  0.50400001928E-02 0.  1.
</event>
<event>
 5   0  0.7217255E-06  0.3036168E+04  0.7818609E-02  0.8233478E-01
       -2   -1    0    0    0  501  0.00000000000E+00  0.00000000000E+00  0.17382196562E+04  0.17382196562E+04  0.25500000920E-02 0. -1.
        2   -1    0    0  501    0  0.00000000000E+00  0.00000000000E+00 -0.13258271028E+04  0.13258271028E+04  0.25500000920E-02 0.  1.
    10030    2    1    2    0    0  0.00000000000E+00  0.00000000000E+00  0.41239255343E+03  0.30640467590E+04  0.30361678023E+04 0.  0.
        1    1    3    3  502    0  0.71994754811E+03  0.10364898931E+04 -0.64531855757E+03  0.14174173032E+04  0.50400001928E-02 0.  1.
       -1    1    3    3    0  502 -0.71994754811E+03 -0.10364898931E+04  0.10577111110E+04  0.16466294559E+04  0.50400001928E-02 0. -1.
</event>
<event>
 5   0  0.6780150E-06  0.3021629E+04  0.7818609E-02  0.8237581E-01
       -2   -1    0    0    0  501  0.00000000000E+00  0.00000000000E+00  0.89291186555E+03  0.89291186555E+03  0.25500000920E-02 0.  1.
        2   -1    0    0  501    0  0.00000000000E+00  0.00000000000E+00 -0.25563107559E+04  0.25563107559E+04  0.25500000920E-02 0. -1.
    10030    2    1    2    0    0  0.00000000000E+00  0.00000000000E+00 -0.16633988903E+04  0.34492226214E+04  0.30216288362E+04 0.  0.
        5    1    3    3  502    0  0.47943508744E+02  0.95243586454E+03  0.50591840694E+03  0.10795407267E+04  0.46999998093E+01 0.  1.
       -5    1    3    3    0  502 -0.47943508744E+02 -0.95243586454E+03 -0.21693172973E+04  0.23696818948E+04  0.46999998093E+01 0. -1.
</event>
<event>
 5   0  0.7201538E-06  0.3000381E+04  0.7818609E-02  0.8243622E-01
        2   -1    0    0  501    0  0.00000000000E+00  0.00000000000E+00  0.20496477402E+04  0.20496477402E+04  0.25500000920E-02 0.  1.
       -2   -1    0    0    0  501  0.00000000000E+00  0.00000000000E+00 -0.10980288085E+04  0.10980288085E+04  0.25500000920E-02 0. -1.
    10030    2    1    2    0    0  0.00000000000E+00  0.00000000000E+00  0.95161893168E+03  0.31476765488E+04  0.30003814865E+04 0.  0.
        3    1    3    3  502    0 -0.63846521670E+03 -0.13476363947E+04  0.64758711284E+03  0.16257708216E+04  0.10100000352E+00 0.  1.
       -3    1    3    3    0  502  0.63846521670E+03  0.13476363947E+04  0.30403181884E+03  0.15219057272E+04  0.10100000352E+00 0. -1.
</event>
<event>
 5   0  0.2422083E-06  0.2969118E+04  0.7818609E-02  0.8252605E-01
       -1   -1    0    0    0  501  0.00000000000E+00  0.00000000000E+00  0.12530152797E+04  0.12530152797E+04  0.50400001928E-02 0. -1.
        1   -1    0    0  501    0  0.00000000000E+00  0.00000000000E+00 -0.17588891252E+04  0.17588891252E+04  0.50400001928E-02 0.  1.
    10030    2    1    2    0    0  0.00000000000E+00  0.00000000000E+00 -0.50587384553E+03  0.30119044049E+04  0.29691176798E+04 0.  0.
        2    1    3    3  502    0 -0.88093974187E+03  0.49251247009E+03 -0.13573368607E+04  0.16914451559E+04  0.25500000920E-02 0.  1.
       -2    1    3    3    0  502  0.88093974187E+03 -0.49251247009E+03  0.85146301518E+03  0.13204592490E+04  0.25500000920E-02 0. -1.
</event>
<event>
 5   0  0.2552990E-06  0.2991085E+04  0.7818609E-02  0.8246281E-01
       -1   -1    0    0    0  501  0.00000000000E+00  0.00000000000E+00  0.27750415709E+04  0.27750415709E+04  0.50400001928E-02 0.  1.
        1   -1    0    0  501    0  0.00000000000E+00  0.00000000000E+00 -0.80598696421E+03  0.80598696422E+03  0.50400001928E-02 0. -1.
    10030    2    1    2    0    0  0.00000000000E+00  0.00000000000E+00  0.19690546067E+04  0.35810285351E+04  0.29910849746E+04 0.  0.
        3    1    3    3  502    0 -0.60861574935E+03 -0.74573964148E+02 -0.64857747054E+03  0.89253972011E+03  0.10100000352E+00 0. -1.
       -3    1    3    3    0  502  0.60861574935E+03  0.74573964148E+02  0.26176320772E+04  0.26884888150E+04  0.10100000352E+00 0.  1.
</event>
<event>
 5   0  0.2422083E-06  0.2992935E+04  0.7818609E-02  0.8245751E-01
        1   -1    0    0  501    0  0.00000000000E+00  0.00000000000E+00  0.23723865036E+04  0.23723865036E+04  0.50400001928E-02 0. -1.
       -1   -1    0    0    0  501  0.00000000000E+00  0.00000000000E+00 -0.94395021596E+03  0.94395021597E+03  0.50400001928E-02 0.  1.
    10030    2    1    2    0    0  0.00000000000E+00  0.00000000000E+00  0.14284362876E+04  0.33163367196E+04  0.29929348489E+04 0.  0.
        2    1    3    3  502    0  0.13061330067E+04 -0.67189167580E+03  0.39693319354E+03  0.15215051151E+04  0.25500000920E-02 0.  1.
       -2    1    3    3    0  502 -0.13061330067E+04  0.67189167580E+03  0.10315030941E+04  0.17948316044E+04  0.25500000920E-02 0. -1.
</event>
<event>
 5   0  0.2628425E-06  0.3018101E+04  0.7818609E-02  0.8238581E-01
        1   -1    0    0  501    0  0.00000000000E+00  0.00000000000E+00  0.12112866067E+04  0.12112866067E+04  0.50400001928E-02 0.  1.
       -1   -1    0    0    0  501  0.00000000000E+00  0.00000000000E+00 -0.18800115153E+04  0.18800115153E+04  0.50400001928E-02 0. -1.
    10030    2    1    2    0    0  0.00000000000E+00  0.00000000000E+00 -0.66872490863E+03  0.30912981220E+04  0.30181005741E+04 0.  0.
        1    1    3    3  502    0 -0.50967450567E+02  0.14652673532E+04  0.31550600106E+02  0.14664929382E+04  0.50400001928E-02 0.  1.
       -1    1    3    3    0  502  0.50967450567E+02 -0.14652673532E+04 -0.70027550873E+03  0.16248051838E+04  0.50400001928E-02 0. -1.
</event>
<event>
 5   0  0.7217255E-06  0.3001026E+04  0.7818609E-02  0.8243438E-01
        2   -1    0    0  501    0  0.00000000000E+00  0.00000000000E+00  0.24360563051E+04  0.24360563051E+04  0.25500000920E-02 0. -1.
       -2   -1    0    0    0  501  0.00000000000E+00  0.00000000000E+00 -0.92425587528E+03  0.92425587529E+03  0.25500000920E-02 0.  1.
    10030    2    1    2    0    0  0.00000000000E+00  0.00000000000E+00  0.15118004298E+04  0.33603121804E+04  0.30010260596E+04 0.  0.
        1    1    3    3  502    0  0.80789723805E+03  0.22932009879E+03 -0.63645560703E+03  0.10537368717E+04  0.50400001928E-02 0.  1.
       -1    1    3    3    0  502 -0.80789723805E+03 -0.22932009879E+03  0.21482560369E+04  0.23065753087E+04  0.50400001928E-02 0. -1.
</event>
<event>
 5   0  0.2552990E-06  0.2981811E+04  0.7818609E-02  0.8248944E-01
        1   -1    0    0  501    0  0.00000000000E+00  0.00000000000E+00  0.18454344168E+04  0.18454344168E+04  0.50400001928E-02 0. -1.
       -1   -1    0    0    0  501  0.00000000000E+00  0.00000000000E+00 -0.12044854650E+04  0.12044854650E+04  0.50400001928E-02 0.  1.
    10030    2    1    2    0    0  0.00000000000E+00  0.00000000000E+00  0.64094895175E+03  0.30499198818E+04  0.29818108134E+04 0.  0.
        3    1    3    3  502    0 -0.70982782611E+03 -0.10950125009E+04 -0.41702972095E+03  0.13699714297E+04  0.10100000352E+00 0.  1.
       -3    1    3    3    0  502  0.70982782611E+03  0.10950125009E+04  0.10579786727E+04  0.16799484521E+04  0.10100000352E+00 0. -1.
</event>
<event>
 5   0  0.6792811E-06  0.2942423E+04  0.7818609E-02  0.8260366E-01
        2   -1    0    0  501    0  0.00000000000E+00  0.00000000000E+00  0.19925929341E+04  0.19925929341E+04  0.25500000920E-02 0. -1.
       -2   -1    0    0    0  501  0.00000000000E+00  0.00000000000E+00 -0.10862543412E+04  0.10862543412E+04  0.25500000920E-02 0.  1.
    10030    2    1    2    0    0  0.00000000000E+00  0.00000000000E+00  0.90633859299E+03  0.30788472753E+04  0.29424226242E+04 0.  0.
        2    1    3    3  502    0 -0.13376156488E+04 -0.59639333277E+03  0.59951863397E+03  0.15825053630E+04  0.25500000920E-02 0.  1.
       -2    1    3    3    0  502  0.13376156488E+04  0.59639333277E+03  0.30681995901E+03  0.14963419123E+04  0.25500000920E-02 0. -1.
</event>
<event>
 5   0  0.2672155E-06  0.3035757E+04  0.7818609E-02  0.8233593E-01
       -1   -1    0    0    0  501  0.00000000000E+00  0.00000000000E+00  0.11925728270E+04  0.11925728270E+04  0.50400001928E-02 0.  1.
        1   -1    0    0  501    0  0.00000000000E+00  0.00000000000E+00 -0.19319193643E+04  0.19319193643E+04  0.50400001928E-02 0. -1.
    10030    2    1    2    0    0  0.00000000000E+00  0.00000000000E+00 -0.73934653735E+03  0.31244921913E+04  0.30357566027E+04 0.  0.
        5    1    3    3  502    0 -0.86704230790E+03 -0.36176275255E+03 -0.15967028602E+04  0.18525973029E+04  0.46999998093E+01 0. -1.
       -5    1    3    3    0  502  0.86704230790E+03  0.36176275255E+03  0.85735632286E+03  0.12718948884E+04  0.46999998093E+01 0.  1.
</event>
<event>
 5   0  0.7193153E-06  0.3083452E+04  0.7818609E-02  0.8220294E-01
       -2   -1    0    0    0  501  0.00000000000E+00  0.00000000000E+00  0.20743420972E+04  0.20743420972E+04  0.25500000920E-02 0.  1.
        2   -1    0    0  501    0  0.00000000000E+00  0.00000000000E+00 -0.11458665576E+04  0.11458665576E+04  0.25500000920E-02 0. -1.
    10030    2    1    2    0    0  0.00000000000E+00  0.00000000000E+00  0.92847553961E+03  0.32202086548E+04  0.30834521162E+04 0.  0.
        4    1    3    3  502    0 -0.80125527566E+03  0.13114717913E+04  0.59192808137E+03  0.16469209886E+04  0.12699999809E+01 0.  1.
       -4    1    3    3    0  502  0.80125527566E+03 -0.13114717913E+04  0.33654745824E+03  0.15732876662E+04  0.12699999809E+01 0. -1.
</event>
<event>
 5   0  0.7217255E-06  0.3003325E+04  0.7818609E-02  0.8242782E-01
        2   -1    0    0  501    0  0.00000000000E+00  0.00000000000E+00  0.16466548436E+04  0.16466548436E+04  0.25500000920E-02 0. -1.
       -2   -1    0    0    0  501  0.00000000000E+00  0.00000000000E+00 -0.13694367604E+04  0.13694367604E+04  0.25500000920E-02 0.  1.
    10030    2    1    2    0    0  0.00000000000E+00  0.00000000000E+00  0.27721808319E+03  0.30160916040E+04  0.30033246075E+04 0.  0.
        1    1    3    3  502    0 -0.13596386187E+03  0.92533562369E+03 -0.10412287660E+04  0.13996033479E+04  0.50400001928E-02 0.  1.
       -1    1    3    3    0  502  0.13596386187E+03 -0.92533562369E+03  0.13184468492E+04  0.16164882562E+04  0.50400001928E-02 0. -1.
</event>
<event>
 5   0  0.7217255E-06  0.3009008E+04  0.7818609E-02  0.8241163E-01
        2   -1    0    0  501    0  0.00000000000E+00  0.00000000000E+00  0.19481743341E+04  0.19481743341E+04  0.25500000920E-02 0.  1.
       -2   -1    0    0    0  501  0.00000000000E+00  0.00000000000E+00 -0.11618736586E+04  0.11618736586E+04  0.25500000920E-02 0. -1.
    10030    2    1    2    0    0  0.00000000000E+00  0.00000000000E+00  0.78630067547E+03  0.31100479928E+04  0.30090081032E+04 0.  0.
        1    1    3    3  502    0  0.16420498238E+03 -0.10115265281E+04 -0.74537508070E+03  0.12671752855E+04  0.50400001928E-02 0. -1.
       -1    1    3    3    0  502 -0.16420498238E+03  0.10115265281E+04  0.15316757562E+04  0.18428727073E+04  0.50400001928E-02 0.  1.
</event>
<event>
 5   0  0.2504260E-06  0.3020514E+04  0.7818609E-02  0.8237897E-01
       -1   -1    0    0    0  501  0.00000000000E+00  0.00000000000E+00  0.14124549266E+04  0.14124549266E+04  0.50400001928E-02 0. -1.
        1   -1    0    0  501    0  0.00000000000E+00  0.00000000000E+00 -0.16148306484E+04  0.16148306484E+04  0.50400001928E-02 0.  1.
    10030    2    1    2    0    0  0.00000000000E+00  0.00000000000E+00 -0.20237572177E+03  0.30272855750E+04  0.30205135358E+04 0.  0.
        4    1    3    3  502    0 -0.56961603364E+03  0.45292973017E+02 -0.15023064315E+04  0.16073083420E+04  0.12699999809E+01 0.  1.
       -4    1    3    3    0  502  0.56961603364E+03 -0.45292973017E+02  0.12999307097E+04  0.14199772330E+04  0.12699999809E+01 0. -1.
</event>
<event>
 5   0  0.7193153E-06  0.3048527E+04  0.7818609E-02  0.8230008E-01
        2   -1    0    0  501    0  0.00000000000E+00  0.00000000000E+00  0.11380177783E+04  0.11380177784E+04  0.25500000920E-02 0.  1.
       -2   -1    0    0    0  501  0.00000000000E+00  0.00000000000E+00 -0.20416020557E+04  0.20416020557E+04  0.25500000920E-02 0. -1.
    10030    2    1    2    0    0  0.00000000000E+00  0.00000000000E+00 -0.90358427736E+03  0.31796198341E+04  0.30485271432E+04 0.  0.
        4    1    3    3  502    0 -0.13284721401E+04 -0.57867445997E+03 -0.94507304543E+03  0.17299904716E+04  0.12699999809E+01 0. -1.
       -4    1    3    3    0  502  0.13284721401E+04  0.57867445997E+03  0.41488768074E+02  0.14496293625E+04  0.12699999809E+01 0.  1.
</event>
<event>
 5   0  0.7193153E-06  0.3181771E+04  0.7818609E-02  0.8193648E-01
        2   -1    0    0  501    0  0.00000000000E+00  0.00000000000E+00  0.22304654010E+04  0.22304654010E+04  0.25500000920E-02 0. -1.
       -2   -1    0    0    0  501  0.00000000000E+00  0.00000000000E+00 -0.11347034896E+04  0.11347034896E+04  0.25500000920E-02 0.  1.
    10030    2    1    2    0    0  0.00000000000E+00  0.00000000000E+00  0.10957619114E+04  0.33651688905E+04  0.31817711256E+04 0.  0.
        4    1    3    3  502    0  0.84968852554E+03  0.10961801557E+04 -0.27635514512E+03  0.14141977596E+04  0.12699999809E+01 0.  1.
       -4    1    3    3    0  502 -0.84968852554E+03 -0.10961801557E+04  0.13721170565E+04  0.19509711310E+04  0.12699999809E+01 0. -1.
</event>
<event>
 5   0  0.2422083E-06  0.3043054E+04  0.7818609E-02  0.8231542E-01
       -1   -1    0    0    0  501  0.00000000000E+00  0.00000000000E+00  0.22450723404E+04  0.22450723404E+04  0.50400001928E-02 0. -1.
        1   -1    0    0  501    0  0.00000000000E+00  0.00000000000E+00 -0.10311668156E+04  0.10311668156E+04  0.50400001928E-02 0.  1.
    10030    2    1    2    0    0  0.00000000000E+00  0.00000000000E+00  0.12139055248E+04  0.32762391561E+04  0.30430537926E+04 0.  0.
        2    1    3    3  502    0 -0.14005828773E+03 -0.70620485089E+03  0.20500780961E+04  0.21728234663E+04  0.25500000920E-02 0. -1.
       -2    1    3    3    0  502  0.14005828773E+03  0.70620485089E+03 -0.83617257135E+03  0.11034156898E+04  0.25500000920E-02 0.  1.
</event>
<event>
 5   0  0.7217255E-06  0.2995325E+04  0.7818609E-02  0.8245067E-01
        2   -1    0    0  501    0  0.00000000000E+00  0.00000000000E+00  0.19341501646E+04  0.19341501646E+04  0.25500000920E-02 0. -1.
       -2   -1    0    0    0  501  0.00000000000E+00  0.00000000000E+00 -0.11596785145E+04  0.11596785145E+04  0.25500000920E-02 0.  1.
    10030    2    1    2    0    0  0.00000000000E+00  0.00000000000E+00  0.77447165018E+03  0.30938286791E+04  0.29953246166E+04 0.  0.
        1    1    3    3  502    0  0.11292827059E+04  0.28508066759E+03 -0.58523710502E+03  0.13034772288E+04  0.50400001928E-02 0.  1.
       -1    1    3    3    0  502 -0.11292827059E+04 -0.28508066759E+03  0.13597087552E+04  0.17903514504E+04  0.50400001928E-02 0. -1.
</event>
<event>
 5   0  0.2672155E-06  0.3008629E+04  0.7818609E-02  0.8241271E-01
       -1   -1    0    0    0  501  0.00000000000E+00  0.00000000000E+00  0.20899431284E+04  0.20899431284E+04  0.50400001928E-02 0.  1.
        1   -1    0    0  501    0  0.00000000000E+00  0.00000000000E+00 -0.10827865577E+04  0.10827865577E+04  0.50400001928E-02 0. -1.
    10030    2    1    2    0    0  0.00000000000E+00  0.00000000000E+00  0.10071565707E+04  0.31727296861E+04  0.30086291402E+04 0.  0.
        5    1    3    3  502    0 -0.51796004057E+03 -0.13155145876E+04  0.10454935067E+04  0.17583913092E+04  0.46999998093E+01 0.  1.
       -5    1    3    3    0  502  0.51796004057E+03  0.13155145876E+04 -0.38336936045E+02  0.14143383769E+04  0.46999998093E+01 0. -1.
</event>
<event>
 5   0  0.2672155E-06  0.2943454E+04  0.7818609E-02  0.8260065E-01
       -1   -1    0    0    0  501  0.00000000000E+00  0.00000000000E+00  0.10499304504E+04  0.10499304504E+04  0.50400001928E-02 0.  1.
        1   -1    0    0  501    0  0.00000000000E+00  0.00000000000E+00 -0.20629753622E+04  0.20629753622E+04  0.50400001928E-02 0. -1.
    10030    2    1    2    0    0  0.00000000000E+00  0.00000000000E+00 -0.10130449119E+04  0.31129058126E+04  0.29434541961E+04 0.  0.
        5    1    3    3  502    0 -0.14960114160E+03 -0.87618989583E+03  0.73397904086E+03  0.11527517328E+04  0.46999998093E+01 0.  1.
       -5    1    3    3    0  502  0.14960114160E+03  0.87618989583E+03 -0.17470239527E+04  0.19601540798E+04  0.46999998093E+01 0. -1.
</event>
<event>
 5   0  0.2672155E-06  0.2960100E+04  0.7818609E-02  0.8255217E-01
        1   -1    0    0  501    0  0.00000000000E+00  0.00000000000E+00  0.15075189481E+04  0.15075189481E+04  0.50400001928E-02 0. -1.
       -1   -1    0    0    0  501  0.00000000000E+00  0.00000000000E+00 -0.14530813102E+04  0.14530813102E+04  0.50400001928E-02 0.  1.
    10030    2    1    2    0    0  0.00000000000E+00  0.00000000000E+00  0.54437637964E+02  0.29606002583E+04  0.29600997336E+04 0.  0.
        5    1    3    3  502    0  0.12598442437E+04  0.23347384921E+03  0.76815982447E+03  0.14939240820E+04  0.46999998093E+01 0. -1.
       -5    1    3    3    0  502 -0.12598442437E+04 -0.23347384921E+03 -0.71372218650E+03  0.14666761763E+04  0.46999998093E+01 0.  1.
</event>
<event>
 5   0  0.2422083E-06  0.2821967E+04  0.7818609E-02  0.8296481E-01
       -1   -1    0    0    0  501  0.00000000000E+00  0.00000000000E+00  0.84165920925E+03  0.84165920927E+03  0.50400001928E-02 0. -1.
        1   -1    0    0  501    0  0.00000000000E+00  0.00000000000E+00 -0.23654158862E+04  0.23654158862E+04  0.50400001928E-02 0.  1.
    10030    2    1    2    0    0  0.00000000000E+00  0.00000000000E+00 -0.15237566770E+04  0.32070750955E+04  0.28219667357E+04 0.  0.
        2    1    3    3  502    0 -0.46809053935E+03  0.92505179133E+03  0.32583767836E+03  0.10867381296E+04  0.25500000920E-02 0. -1.
       -2    1    3    3    0  502  0.46809053935E+03 -0.92505179133E+03 -0.18495943553E+04  0.21203369659E+04  0.25500000920E-02 0.  1.
</event>
<event>
 5   0  0.7201538E-06  0.2924717E+04  0.7818609E-02  0.8265561E-01
       -2   -1    0    0    0  501  0.00000000000E+00  0.00000000000E+00  0.88940922387E+03  0.88940922387E+03  0.25500000920E-02 0.  1.
        2   -1    0    0  501    0  0.00000000000E+00  0.00000000000E+00 -0.24043967515E+04  0.24043967515E+04  0.25500000920E-02 0. -1.
    10030    2    1    2    0    0  0.00000000000E+00  0.00000000000E+00 -0.15149875276E+04  0.32938059754E+04  0.29247171820E+04 0.  0.
        3    1    3    3  502    0  0.13807025397E+04 -0.47219883042E+03 -0.86540547701E+03  0.16965370283E+04  0.10100000352E+00 0.  1.
       -3    1    3    3    0  502 -0.13807025397E+04  0.47219883042E+03 -0.64958205061E+03  0.15972689471E+04  0.10100000352E+00 0. -1.
</event>
<event>
 5   0  0.6780150E-06  0.2932608E+04  0.7818609E-02  0.8263241E-01
       -2   -1    0    0    0  501  0.00000000000E+00  0.00000000000E+00  0.11260464596E+04  0.11260464596E+04  0.25500000920E-02 0.  1.
        2   -1    0    0  501    0  0.00000000000E+00  0.00000000000E+00 -0.19093771610E+04  0.19093771610E+04  0.25500000920E-02 0. -1.
    10030    2    1    2    0    0  0.00000000000E+00  0.00000000000E+00 -0.78333070142E+03  0.30354236207E+04  0.29326079808E+04 0.  0.
        5    1    3    3  502    0 -0.14212157723E+04 -0.36075592596E+03 -0.39696265245E+03  0.15190788482E+04  0.46999998093E+01 0. -1.
       -5    1    3    3    0  502  0.14212157723E+04  0.36075592596E+03 -0.38636804897E+03  0.15163447724E+04  0.46999998093E+01 0.  1.
</event>
<event>
 5   0  0.6792811E-06  0.2996064E+04  0.7818609E-02  0.8244856E-01
        2   -1    0    0  501    0  0.00000000000E+00  0.00000000000E+00  0.15171003369E+04  0.15171003369E+04  0.25500000920E-02 0. -1.
       -2   -1    0    0    0  501  0.00000000000E+00  0.00000000000E+00 -0.14792029688E+04  0.14792029688E+04  0.25500000920E-02 0.  1.
    10030    2    1    2    0    0  0.00000000000E+00  0.00000000000E+00  0.37897368056E+02  0.29963033057E+04  0.29960636324E+04 0.  0.
        2    1    3    3  502    0 -0.20076754716E+03  0.74827485625E+03 -0.12632913371E+04  0.14819338281E+04  0.25500000920E-02 0.  1.
       -2    1    3    3    0  502  0.20076754716E+03 -0.74827485625E+03  0.13011887051E+04  0.15143694776E+04  0.25500000920E-02 0. -1.
</event>
<event>
 5   0  0.2504260E-06  0.2995853E+04  0.7818609E-02  0.8244916E-01
        1   -1    0    0  501    0  0.00000000000E+00  0.00000000000E+00  0.24763494679E+04  0.24763494679E+04  0.50400001928E-02 0. -1.
       -1   -1    0    0    0  501  0.00000000000E+00  0.00000000000E+00 -0.90608521363E+03  0.90608521364E+03  0.50400001928E-02 0.  1.
    10030    2    1    2    0    0  0.00000000000E+00  0.00000000000E+00  0.15702642542E+04  0.33824346815E+04  0.29958528913E+04 0.  0.
        4    1    3    3  502    0  0.43795745423E+03  0.14255734307E+04  0.62660087891E+03  0.16176206639E+04  0.12699999809E+01 0. -1.
       -4    1    3    3    0  502 -0.43795745423E+03 -0.14255734307E+04  0.94366337532E+03  0.17648140176E+04  0.12699999809E+01 0.  1.
</event>
<event>
 5   0  0.7217255E-06  0.2786588E+04  0.7818609E-02  0.8307445E-01
        2   -1    0    0  501    0  0.00000000000E+00  0.00000000000E+00  0.23434663875E+04  0.23434663875E+04  0.25500000920E-02 0. -1.
       -2   -1    0    0    0  501  0.00000000000E+00  0.00000000000E+00 -0.82837438519E+03  0.82837438520E+03  0.25500000920E-02 0.  1.
    10030    2    1    2    0    0  0.00000000000E+00  0.00000000000E+00  0.15150920023E+04  0.31718407727E+04  0.27865875389E+04 0.  0.
        1    1    3    3  502    0  0.63013284639E+03 -0.49019598031E+03 -0.54221100127E+03  0.96506594237E+03  0.50400001928E-02 0.  1.
       -1    1    3    3    0  502 -0.63013284639E+03  0.49019598031E+03  0.20573030036E+04  0.22067748303E+04  0.50400001928E-02 0. -1.
</event>
<event>
 5   0  0.2422083E-06  0.3006870E+04  0.7818609E-02  0.8241772E-01
       -1   -1    0    0    0  501  0.00000000000E+00  0.00000000000E+00  0.13009902766E+04  0.13009902766E+04  0.50400001928E-02 0.  1.
        1   -1    0    0  501    0  0.00000000000E+00  0.00000000000E+00 -0.17373823491E+04  0.17373823491E+04  0.50400001928E-02 0. -1.
    10030    2    1    2    0    0  0.00000000000E+00  0.00000000000E+00 -0.43639207250E+03  0.30383726256E+04  0.30068704946E+04 0.  0.
        2    1    3    3  502    0 -0.68413688043E+03 -0.11788531524E+04 -0.85933496640E+03  0.16112711164E+04  0.25500000920E-02 0.  1.
       -2    1    3    3    0  502  0.68413688043E+03  0.11788531524E+04  0.42294289391E+03  0.14271015092E+04  0.25500000920E-02 0. -1.
</event>
<event>
 5   0  0.2628425E-06  0.2925371E+04  0.7818609E-02  0.8265369E-01
        1   -1    0    0  501    0  0.00000000000E+00  0.00000000000E+00  0.15234597404E+04  0.15234597405E+04  0.50400001928E-02 0. -1.
       -1   -1    0    0    0  501  0.00000000000E+00  0.00000000000E+00 -0.14043360652E+04  0.14043360652E+04  0.50400001928E-02 0.  1.
    10030    2    1    2    0    0  0.00000000000E+00  0.00000000000E+00  0.11912367521E+03  0.29277958057E+04  0.29253714003E+04 0.  0.
        1    1    3    3  502    0 -0.85891828073E+03  0.10340325293E+04 -0.51753165304E+03  0.14404176118E+04  0.50400001928E-02 0.  1.
       -1    1    3    3    0  502  0.85891828073E+03 -0.10340325293E+04  0.63665532825E+03  0.14873781939E+04  0.50400001928E-02 0. -1.
</event>
<event>
 5   0  0.2552990E-06  0.3061061E+04  0.7818609E-02  0.8226506E-01
       -1   -1    0    0    0  501  0.00000000000E+00  0.00000000000E+00  0.14969719913E+04  0.14969719913E+04  0.50400001928E-02 0.  1.
        1   -1    0    0  501    0  0.00000000000E+00  0.00000000000E+00 -0.15648414196E+04  0.15648414196E+04  0.50400001928E-02 0. -1.
    10030    2    1    2    0    0  0.00000000000E+00  0.00000000000E+00 -0.67869428335E+02  0.30618134109E+04  0.30610611075E+04 0.  0.
        3    1    3    3  502    0 -0.12253581403E+04  0.10703305408E+03  0.87709378505E+03  0.15107124692E+04  0.10100000352E+00 0.  1.
       -3    1    3    3    0  502  0.12253581403E+04 -0.10703305408E+03 -0.94496321338E+03  0.15511009417E+04  0.10100000352E+00 0. -1.
</event>
<event>
 5   0  0.2422083E-06  0.2983332E+04  0.7818609E-02  0.8248507E-01
       -1   -1    0    0    0  501  0.00000000000E+00  0.00000000000E+00  0.13878195817E+04  0.13878195817E+04  0.50400001928E-02 0. -1.
        1   -1    0    0  501    0  0.00000000000E+00  0.00000000000E+00 -0.16032828512E+04  0.16032828512E+04  0.50400001928E-02 0.  1.
    10030    2    1    2    0    0  0.00000000000E+00  0.00000000000E+00 -0.21546326947E+03  0.29911024329E+04  0.29833319198E+04 0.  0.
        2    1    3    3  502    0  0.79740591292E+03  0.11862328934E+04  0.32006775758E+03  0.14647348008E+04  0.25500000920E-02 0. -1.
       -2    1    3    3    0  502 -0.79740591292E+03 -0.11862328934E+04 -0.53553102705E+03  0.15263676321E+04  0.25500000920E-02 0.  1.
</event>
<event>
 5   0  0.2552990E-06  0.2975476E+04  0.7818609E-02  0.8250769E-01
       -1   -1    0    0    0  501  0.00000000000E+00  0.00000000000E+00  0.85555198027E+03  0.85555198029E+03  0.50400001928E-02 0.  1.
        1   -1    0    0  501    0  0.00000000000E+00  0.00000000000E+00 -0.25870608048E+04  0.25870608048E+04  0.50400001928E-02 0. -1.
    10030    2    1    2    0    0  0.00000000000E+00  0.00000000000E+00 -0.17315088245E+04  0.34426127851E+04  0.29754764288E+04 0.  0.
        3    1    3    3  502    0  0.10062079018E+04  0.82373491663E+02  0.39856441172E+03  0.10854000803E+04  0.10100000352E+00 0.  1.
       -3    1    3    3    0  502 -0.10062079018E+04 -0.82373491663E+02 -0.21300732362E+04  0.23572127048E+04  0.10100000352E+00 0. -1.
</event>
<event>
 5   0  0.2504260E-06  0.2953029E+04  0.7818609E-02  0.8257272E-01
        1   -1    0    0  501    0  0.00000000000E+00  0.00000000000E+00  0.89148410504E+03  0.89148410505E+03  0.50400001928E-02 0. -1.
       -1   -1    0    0    0  501  0.00000000000E+00  0.00000000000E+00 -0.24454672701E+04  0.24454672701E+04  0.50400001928E-02 0.  1.
    10030    2    1    2    0    0  0.00000000000E+00  0.00000000000E+00 -0.15539831650E+04  0.33369513751E+04  0.29530290894E+04 0.  0.
        4    1    3    3  502    0 -0.13225902129E+04  0.65612926008E+03 -0.75606014026E+03  0.16587281350E+04  0.12699999809E+01 0. -1.
       -4    1    3    3    0  502  0.13225902129E+04 -0.65612926008E+03 -0.79792302477E+03  0.16782232401E+04  0.12699999809E+01 0.  1.
</event>
<event>
 5   0  0.2422083E-06  0.2977726E+04  0.7818609E-02  0.8250120E-01
        1   -1    0    0  501    0  0.00000000000E+00  0.00000000000E+00  0.22529151586E+04  0.22529151586E+04  0.50400001928E-02 0.  1.
       -1   -1    0    0    0  501  0.00000000000E+00  0.00000000000E+00 -0.98393109133E+03  0.98393109134E+03  0.50400001928E-02 0. -1.
    10030    2    1    2    0    0  0.00000000000E+00  0.00000000000E+00  0.12689840673E+04  0.32368462500E+04  0.29777261598E+04 0.  0.
        2    1    3    3  502    0 -0.13254168131E+03 -0.10562408054E+04  0.17659854723E+04  0.20620176102E+04  0.25500000920E-02 0.  1.
       -2    1    3    3    0  502  0.13254168131E+03  0.10562408054E+04 -0.49700140504E+03  0.11748286398E+04  0.25500000920E-02 0. -1.
</event>
<event>
 5   0  0.6792811E-06  0.2969418E+04  0.7818609E-02  0.8252518E-01
       -2   -1    0    0    0  501  0.00000000000E+00  0.00000000000E+00  0.82886583110E+03  0.82886583110E+03  0.25500000920E-02 0.  1.
        2   -1    0    0  501    0  0.00000000000E+00  0.00000000000E+00 -0.26594903411E+04  0.26594903411E+04  0.25500000920E-02 0. -1.
    10030    2    1    2    0    0  0.00000000000E+00  0.00000000000E+00 -0.18306245100E+04  0.34883561722E+04  0.29694179038E+04 0.  0.
        2    1    3    3  502    0  0.93331301002E+03 -0.10068394826E+04 -0.15794021874E+04  0.20926801447E+04  0.25500000920E-02 0. -1.
       -2    1    3    3    0  502 -0.93331301002E+03  0.10068394826E+04 -0.25122232261E+03  0.13956760275E+04  0.25500000920E-02 0.  1.
</event>
<event>
 5   0  0.2422083E-06  0.2989666E+04  0.7818609E-02  0.8246688E-01
        1   -1    0    0  501    0  0.00000000000E+00  0.00000000000E+00  0.12789626121E+04  0.12789626121E+04  0.50400001928E-02 0. -1.
       -1   -1    0    0    0  501  0.00000000000E+00  0.00000000000E+00 -0.17471393462E+04  0.17471393462E+04  0.50400001928E-02 0.  1.
    10030    2    1    2    0    0  0.00000000000E+00  0.00000000000E+00 -0.46817673410E+03  0.30261019584E+04  0.29896661366E+04 0.  0.
        2    1    3    3  502    0  0.12693174964E+03 -0.61029664632E+03 -0.16093049294E+04  0.17258145964E+04  0.25500000920E-02 0.  1.
       -2    1    3    3    0  502 -0.12693174964E+03  0.61029664632E+03  0.11411281953E+04  0.13002873619E+04  0.25500000920E-02 0. -1.
</event>
<event>
 5   0  0.2672155E-06  0.2961217E+04  0.7818609E-02  0.8254893E-01
        1   -1    0    0  501    0  0.00000000000E+00  0.00000000000E+00  0.27151636895E+04  0.27151636895E+04  0.50400001928E-02 0.  1.
       -1   -1    0    0    0  501  0.00000000000E+00  0.00000000000E+00 -0.80739196821E+03  0.80739196822E+03  0.50400001928E-02 0. -1.
    10030    2    1    2    0    0  0.00000000000E+00  0.00000000000E+00  0.19077717212E+04  0.35225556577E+04  0.29612168818E+04 0.  0.
        5    1    3    3  502    0 -0.87607642415E+03 -0.11345730779E+04  0.51292298876E+03  0.15224578984E+04  0.46999998093E+01 0.  1.
       -5    1    3    3    0  502  0.87607642415E+03  0.11345730779E+04  0.13948487325E+04  0.20000977593E+04  0.46999998093E+01 0. -1.
</event>
<event>
 5   0  0.7201538E-06  0.2979492E+04  0.7818609E-02  0.8249611E-01
       -2   -1    0    0    0  501  0.00000000000E+00  0.00000000000E+00  0.18955453305E+04  0.18955453305E+04  0.25500000920E-02 0. -1.
        2   -1    0    0  501    0  0.00000000000E+00  0.00000000000E+00 -0.11708204096E+04  0.11708204096E+04  0.25500000920E-02 0.  1.
    10030    2    1    2    0    0  0.00000000000E+00  0.00000000000E+00  0.72472492083E+03  0.30663657401E+04  0.29794920106E+04 0.  0.
        3    1    3    3  502    0 -0.80181445032E+03  0.52641447538E+03  0.15354773548E+04  0.18104445117E+04  0.10100000352E+00 0. -1.
       -3    1    3    3    0  502  0.80181445032E+03 -0.52641447538E+03 -0.81075243395E+03  0.12559212284E+04  0.10100000352E+00 0.  1.
</event>
<event>
 5   0  0.7201538E-06  0.2981496E+04  0.7818609E-02  0.8249035E-01
       -2   -1    0    0    0  501  0.00000000000E+00  0.00000000000E+00  0.14482292935E+04  0.14482292935E+04  0.25500000920E-02 0. -1.
        2   -1    0    0  501    0  0.00000000000E+00  0.00000000000E+00 -0.15345148266E+04  0.15345148266E+04  0.25500000920E-02 0.  1.
    10030    2    1    2    0    0  0.00000000000E+00  0.00000000000E+00 -0.86285533083E+02  0.29827441201E+04  0.29814958147E+04 0.  0.
        3    1    3    3  502    0 -0.29985237643E+03 -0.12092015257E+04 -0.86217322933E+03  0.15150651686E+04  0.10100000352E+00 0.  1.
       -3    1    3    3    0  502  0.29985237643E+03  0.12092015257E+04  0.77588769624E+03  0.14676789515E+04  0.10100000352E+00 0. -1.
</event>
<event>
 5   0  0.7193153E-06  0.3007733E+04  0.7818609E-02  0.8241526E-01
        2   -1    0    0  501    0  0.00000000000E+00  0.00000000000E+00  0.21909436125E+04  0.21909436125E+04  0.25500000920E-02 0.  1.
       -2   -1    0    0    0  501  0.00000000000E+00  0.00000000000E+00 -0.10322558997E+04  0.10322558997E+04  0.25500000920E-02 0. -1.
    10030    2    1    2    0    0  0.00000000000E+00  0.00000000000E+00  0.11586877129E+04  0.32231995122E+04  0.30077330133E+04 0.  0.
        4    1    3    3  502    0  0.47817060772E+02 -0.35167456591E+03 -0.98673305490E+03  0.10486206207E+04  0.12699999809E+01 0. -1.
       -4    1    3    3    0  502 -0.47817060772E+02  0.35167456591E+03  0.21454207678E+04  0.21745788915E+04  0.12699999809E+01 0.  1.
</event>
<event>
 5   0  0.7201538E-06  0.3012814E+04  0.7818609E-02  0.8240081E-01
       -2   -1    0    0    0  501  0.00000000000E+00  0.00000000000E+00  0.10140976642E+04  0.10140976642E+04  0.25500000920E-02 0. -1.
        2   -1    0    0  501    0  0.00000000000E+00  0.00000000000E+00 -0.22377153425E+04  0.22377153425E+04  0.25500000920E-02 0.  1.
    10030    2    1    2    0    0  0.00000000000E+00  0.00000000000E+00 -0.12236176783E+04  0.32518130067E+04  0.30128139020E+04 0.  0.
        3    1    3    3  502    0 -0.47674826383E+03  0.65769710684E+03 -0.19810699310E+04  0.21411427961E+04  0.10100000352E+00 0.  1.
       -3    1    3    3    0  502  0.47674826383E+03 -0.65769710684E+03  0.75745225272E+03  0.11106702106E+04  0.10100000352E+00 0. -1.
</event>
<event>
 5   0  0.7217255E-06  0.2823694E+04  0.7818609E-02  0.8295950E-01
        2   -1    0    0  501    0  0.00000000000E+00  0.00000000000E+00  0.13252784991E+04  0.13252784991E+04  0.25500000920E-02 0.  1.
       -2   -1    0    0    0  501  0.00000000000E+00  0.00000000000E+00 -0.15040702311E+04  0.15040702311E+04  0.25500000920E-02 0. -1.
    10030    2    1    2    0    0  0.00000000000E+00  0.00000000000E+00 -0.17879173200E+03  0.28293487302E+04  0.28236939908E+04 0.  0.
        1    1    3    3  502    0 -0.71533436693E+02  0.22067246785E+03  0.13060518898E+04  0.13264934638E+04  0.50400001928E-02 0.  1.
       -1    1    3    3    0  502  0.71533436693E+02 -0.22067246785E+03 -0.14848436218E+04  0.15028552664E+04  0.50400001928E-02 0. -1.
</event>
<event>
 5   0  0.6780150E-06  0.3014245E+04  0.7818609E-02  0.8239675E-01
        2   -1    0    0  501    0  0.00000000000E+00  0.00000000000E+00  0.23272879949E+04  0.23272879949E+04  0.25500000920E-02 0. -1.
       -2   -1    0    0    0  501  0.00000000000E+00  0.00000000000E+00 -0.97599330003E+03  0.97599330003E+03  0.25500000920E-02 0.  1.
    10030    2    1    2    0    0  0.00000000000E+00  0.00000000000E+00  0.13512946949E+04  0.33032812950E+04  0.30142445092E+04 0.  0.
        5    1    3    3  502    0  0.83112786041E+03 -0.12440249940E+04  0.47649753263E+03  0.15701731416E+04  0.46999998093E+01 0. -1.
       -5    1    3    3    0  502 -0.83112786041E+03  0.12440249940E+04  0.87479716227E+03  0.17331081533E+04  0.46999998093E+01 0.  1.
</event>
<event>
 5   0  0.6780150E-06  0.3008231E+04  0.7818609E-02  0.8241384E-01
        2   -1    0    0  501    0  0.00000000000E+00  0.00000000000E+00  0.24012352133E+04  0.24012352133E+04  0.25500000920E-02 0. -1.
       -2   -1    0    0    0  501  0.00000000000E+00  0.00000000000E+00 -0.94216627665E+03  0.94216627665E+03  0.25500000920E-02 0.  1.
    10030    2    1    2    0    0  0.00000000000E+00  0.00000000000E+00  0.14590689367E+04  0.33434014900E+04  0.30082306031E+04 0.  0.
        5    1    3    3  502    0 -0.56387827756E+03 -0.12504326234E+04  0.14153795735E+04  0.19710052979E+04  0.46999998093E+01 0. -1.
       -5    1    3    3    0  502  0.56387827756E+03  0.12504326234E+04  0.43689363194E+02  0.13723961920E+04  0.46999998093E+01 0.  1.
</event>
<event>
 5   0  0.2552990E-06  0.2994825E+04  0.7818609E-02  0.8245210E-01
       -1   -1    0    0    0  501  0.00000000000E+00  0.00000000000E+00  0.11396136010E+04  0.11396136010E+04  0.50400001928E-02 0. -1.
        1   -1    0    0  501    0  0.00000000000E+00  0.00000000000E+00 -0.19675479099E+04  0.19675479099E+04  0.50400001928E-02 0.  1.
    10030    2    1    2    0    0  0.00000000000E+00  0.00000000000E+00 -0.82793430891E+03  0.31071615108E+04  0.29948251092E+04 0.  0.
        3    1    3    3  502    0 -0.30722327233E+03 -0.14294823842E+04 -0.74925847185E+03  0.16429224855E+04  0.10100000352E+00 0.  1.
       -3    1    3    3    0  502  0.30722327233E+03  0.14294823842E+04 -0.78675837057E+02  0.14642390253E+04  0.10100000352E+00 0. -1.
</event>
<event>
 5   0  0.2628425E-06  0.2910026E+04  0.7818609E-02  0.8269901E-01
        1   -1    0    0  501    0  0.00000000000E+00  0.00000000000E+00  0.21367681439E+04  0.21367681439E+04  0.50400001928E-02 0.  1.
       -1   -1    0    0    0  501  0.00000000000E+00  0.00000000000E+00 -0.99077776315E+03  0.99077776316E+03  0.50400001928E-02 0. -1.
    10030    2    1    2    0    0  0.00000000000E+00  0.00000000000E+00  0.11459903808E+04  0.31275459071E+04  0.29100256783E+04 0.  0.
        1    1    3    3  502    0  0.11517771425E+04  0.15463620791E+03  0.15139738715E+04  0.19085648604E+04  0.50400001928E-02 0.  1.
       -1    1    3    3    0  502 -0.11517771425E+04 -0.15463620791E+03 -0.36798349074E+03  0.12189810467E+04  0.50400001928E-02 0. -1.
</event>
<event>
 5   0  0.2552990E-06  0.2456657E+04  0.7818609E-02  0.8418591E-01
        1   -1    0    0  501    0  0.00000000000E+00  0.00000000000E+00  0.14031754483E+04  0.14031754484E+04  0.50400001928E-02 0.  1.
       -1   -1    0    0    0  501  0.00000000000E+00  0.00000000000E+00 -0.10752689028E+04  0.10752689028E+04  0.50400001928E-02 0. -1.
    10030    2    1    2    0    0  0.00000000000E+00  0.00000000000E+00  0.32790654559E+03  0.24784443511E+04  0.24566570170E+04 0.  0.
        3    1    3    3  502    0  0.11449897702E+04  0.41855543015E+03  0.12284728650E+02  0.12191559157E+04  0.10100000352E+00 0.  1.
       -3    1    3    3    0  502 -0.11449897702E+04 -0.41855543015E+03  0.31562181694E+03  0.12592884354E+04  0.10100000352E+00 0. -1.
</event>
<event>
 5   0  0.2628425E-06  0.2782374E+04  0.7818609E-02  0.8308761E-01
        1   -1    0    0  501    0  0.00000000000E+00  0.00000000000E+00  0.14394656129E+04  0.14394656130E+04  0.50400001928E-02 0.  1.
       -1   -1    0    0    0  501  0.00000000000E+00  0.00000000000E+00 -0.13445276489E+04  0.13445276489E+04  0.50400001928E-02 0. -1.
    10030    2    1    2    0    0  0.00000000000E+00  0.00000000000E+00  0.94937964075E+02  0.27839932618E+04  0.27823740340E+04 0.  0.
        1    1    3    3  502    0 -0.74271837627E+02  0.13869753476E+04 -0.31217710830E+02  0.13893133075E+04  0.50400001928E-02 0. -1.
       -1    1    3    3    0  502  0.74271837627E+02 -0.13869753476E+04  0.12615567490E+03  0.13946799544E+04  0.50400001928E-02 0.  1.
</event>
<event>
 5   0  0.2504260E-06  0.2986453E+04  0.7818609E-02  0.8247610E-01
        1   -1    0    0  501    0  0.00000000000E+00  0.00000000000E+00  0.17233811300E+04  0.17233811300E+04  0.50400001928E-02 0. -1.
       -1   -1    0    0    0  501  0.00000000000E+00  0.00000000000E+00 -0.12938087594E+04  0.12938087594E+04  0.50400001928E-02 0.  1.
    10030    2    1    2    0    0  0.00000000000E+00  0.00000000000E+00  0.42957237059E+03  0.30171898894E+04  0.29864531483E+04 0.  0.
        4    1    3    3  502    0  0.14568589584E+04  0.30538591823E+03  0.95138404797E+02  0.14915600935E+04  0.12699999809E+01 0. -1.
       -4    1    3    3    0  502 -0.14568589584E+04 -0.30538591823E+03  0.33443396579E+03  0.15256297959E+04  0.12699999809E+01 0.  1.
</event>
<event>
 5   0  0.7193153E-06  0.2234624E+04  0.7818609E-02  0.8504153E-01
        2   -1    0    0  501    0  0.00000000000E+00  0.00000000000E+00  0.15417882261E+04  0.15417882261E+04  0.25500000920E-02 0.  1.
       -2   -1    0    0    0  501  0.00000000000E+00  0.00000000000E+00 -0.80970033947E+03  0.80970033947E+03  0.25500000920E-02 0. -1.
    10030    2    1    2    0    0  0.00000000000E+00  0.00000000000E+00  0.73208788665E+03  0.23514885656E+04  0.22346243085E+04 0.  0.
        4    1    3    3  502    0  0.32756311971E+03 -0.18976322787E+03  0.14722464886E+04  0.15201378280E+04  0.12699999809E+01 0.  1.
       -4    1    3    3    0  502 -0.32756311971E+03  0.18976322787E+03 -0.74015860192E+03  0.83135073762E+03  0.12699999809E+01 0. -1.
</event>
<event>
 5   0  0.6780150E-06  0.2990934E+04  0.7818609E-02  0.8246324E-01
       -2   -1    0    0    0  501  0.00000000000E+00  0.00000000000E+00  0.20427936009E+04  0.20427936009E+04  0.25500000920E-02 0.  1.
        2   -1    0    0  501    0  0.00000000000E+00  0.00000000000E+00 -0.10947861583E+04  0.10947861583E+04  0.25500000920E-02 0. -1.
    10030    2    1    2    0    0  0.00000000000E+00  0.00000000000E+00  0.94800744257E+03  0.31375797592E+04  0.29909344082E+04 0.  0.
        5    1    3    3  502    0  0.59524747847E+03  0.13615972872E+04  0.29804998315E+03  0.15156261464E+04  0.46999998093E+01 0.  1.
       -5    1    3    3    0  502 -0.59524747847E+03 -0.13615972872E+04  0.64995745942E+03  0.16219536128E+04  0.46999998093E+01 0. -1.
</event>
<event>
 5   0  0.2628425E-06  0.3014169E+04  0.7818609E-02  0.8239696E-01
        1   -1    0    0  501    0  0.00000000000E+00  0.00000000000E+00  0.22191663276E+04  0.22191663276E+04  0.50400001928E-02 0.  1.
       -1   -1    0    0    0  501  0.00000000000E+00  0.00000000000E+00 -0.10234941179E+04  0.10234941180E+04  0.50400001928E-02 0. -1.
    10030    2    1    2    0    0  0.00000000000E+00  0.00000000000E+00  0.11956722097E+04  0.32426604456E+04  0.30141689953E+04 0.  0.
        1    1    3    3  502    0 -0.10567701627E+04 -0.24529917155E+03  0.17232589631E+04  0.20363094839E+04  0.50400001928E-02 0.  1.
       -1    1    3    3    0  502  0.10567701627E+04  0.24529917155E+03 -0.52758675342E+03  0.12063509617E+04  0.50400001928E-02 0. -1.
</event>
<event>
 5   0  0.7201538E-06  0.2970721E+04  0.7818609E-02  0.8252141E-01
        2   -1    0    0  501    0  0.00000000000E+00  0.00000000000E+00  0.27461404555E+04  0.27461404555E+04  0.25500000920E-02 0. -1.
       -2   -1    0    0    0  501  0.00000000000E+00  0.00000000000E+00 -0.80341704233E+03  0.80341704233E+03  0.25500000920E-02 0.  1.
    10030    2    1    2    0    0  0.00000000000E+00  0.00000000000E+00  0.19427234132E+04  0.35495574978E+04  0.29707211532E+04 0.  0.
        3    1    3    3  502    0  0.93745858937E+03  0.15379882337E+03  0.23356936209E+04  0.25214970525E+04  0.10100000352E+00 0. -1.
       -3    1    3    3    0  502 -0.93745858937E+03 -0.15379882337E+03 -0.39297020774E+03  0.10280604453E+04  0.10100000352E+00 0.  1.
</event>
<event>
 5   0  0.7217255E-06  0.2971673E+04  0.7818609E-02  0.8251866E-01
        2   -1    0    0  501    0  0.00000000000E+00  0.00000000000E+00  0.19398077943E+04  0.19398077943E+04  0.25500000920E-02 0.  1.
       -2   -1    0    0    0  501  0.00000000000E+00  0.00000000000E+00 -0.11381074964E+04  0.11381074964E+04  0.25500000920E-02 0. -1.
    10030    2    1    2    0    0  0.00000000000E+00  0.00000000000E+00  0.80170029790E+03  0.30779152908E+04  0.29716727898E+04 0.  0.
        1    1    3    3  502    0 -0.42794109071E+03  0.66742710325E+03  0.17024061776E+04  0.18779721267E+04  0.50400001928E-02 0.  1.
       -1    1    3    3    0  502  0.42794109071E+03 -0.66742710325E+03 -0.90070587968E+03  0.11999431641E+04  0.50400001928E-02 0. -1.
</event>
<event>
 5   0  0.6792811E-06  0.2984260E+04  0.7818609E-02  0.8248240E-01
       -2   -1    0    0    0  501  0.00000000000E+00  0.00000000000E+00  0.13523804711E+04  0.13523804711E+04  0.25500000920E-02 0.  1.
        2   -1    0    0  501    0  0.00000000000E+00  0.00000000000E+00 -0.16463206976E+04  0.16463206976E+04  0.25500000920E-02 0. -1.
    10030    2    1    2    0    0  0.00000000000E+00  0.00000000000E+00 -0.29394022652E+03  0.29987011687E+04  0.29842600159E+04 0.  0.
        2    1    3    3  502    0 -0.46706886367E+03 -0.12349441889E+04 -0.84546809225E+03  0.15678191121E+04  0.25500000920E-02 0. -1.
       -2    1    3    3    0  502  0.46706886367E+03  0.12349441889E+04  0.55152786573E+03  0.14308820566E+04  0.25500000920E-02 0.  1.
</event>
<event>
 5   0  0.2422083E-06  0.3028846E+04  0.7818609E-02  0.8235541E-01
       -1   -1    0    0    0  501  0.00000000000E+00  0.00000000000E+00  0.17460362269E+04  0.17460362269E+04  0.50400001928E-02 0.  1.
        1   -1    0    0  501    0  0.00000000000E+00  0.00000000000E+00 -0.13135337600E+04  0.13135337601E+04  0.50400001928E-02 0. -1.
    10030    2    1    2    0    0  0.00000000000E+00  0.00000000000E+00  0.43250246688E+03  0.30595699870E+04  0.30288463351E+04 0.  0.
        2    1    3    3  502    0  0.13820981515E+04 -0.47552424461E+01  0.84161063396E+03  0.16181861363E+04  0.25500000920E-02 0. -1.
       -2    1    3    3    0  502 -0.13820981515E+04  0.47552424461E+01 -0.40910816708E+03  0.14413838507E+04  0.25500000920E-02 0.  1.
</event>
<event>
 5   0  0.2504260E-06  0.2941110E+04  0.7818609E-02  0.8260750E-01
        1   -1    0    0  501    0  0.00000000000E+00  0.00000000000E+00  0.14945510497E+04  0.14945510497E+04  0.50400001928E-02 0.  1.
       -1   -1    0    0    0  501  0.00000000000E+00  0.00000000000E+00 -0.14469443112E+04  0.14469443112E+04  0.50400001928E-02 0. -1.
    10030    2    1    2    0    0  0.00000000000E+00  0.00000000000E+00  0.47606738500E+02  0.29414953609E+04  0.29411100891E+04 0.  0.
        4    1    3    3  502    0 -0.12331536131E+04  0.80081623254E+03  0.21947668184E+00  0.14703659861E+04  0.12699999809E+01 0. -1.
       -4    1    3    3    0  502  0.12331536131E+04 -0.80081623254E+03  0.47387261818E+02  0.14711293748E+04  0.12699999809E+01 0.  1.
</event>
<event>
 5   0  0.6780150E-06  0.2775026E+04  0.7818609E-02  0.8311064E-01
       -2   -1    0    0    0  501  0.00000000000E+00  0.00000000000E+00  0.11099870946E+04  0.11099870946E+04  0.25500000920E-02 0.  1.
        2   -1    0    0  501    0  0.00000000000E+00  0.00000000000E+00 -0.17344280709E+04  0.17344280709E+04  0.25500000920E-02 0. -1.
    10030    2    1    2    0    0  0.00000000000E+00  0.00000000000E+00 -0.62444097637E+03  0.28444151655E+04  0.27750263243E+04 0.  0.
        5    1    3    3  502    0  0.10014666631E+04 -0.96032903005E+03 -0.31034107428E+03  0.14217949907E+04  0.46999998093E+01 0. -1.
       -5    1    3    3    0  502 -0.10014666631E+04  0.96032903005E+03 -0.31409990209E+03  0.14226201748E+04  0.46999998093E+01 0.  1.
</event>
<event>
 5   0  0.2422083E-06  0.3006267E+04  0.7818609E-02  0.8241943E-01
       -1   -1    0    0    0  501  0.00000000000E+00  0.00000000000E+00  0.14092342350E+04  0.14092342350E+04  0.50400001928E-02 0.  1.
        1   -1    0    0  501    0  0.00000000000E+00  0.00000000000E+00 -0.16032898843E+04  0.16032898843E+04  0.50400001928E-02 0. -1.
    10030    2    1    2    0    0  0.00000000000E+00  0.00000000000E+00 -0.19405564931E+03  0.30125241194E+04  0.30062674490E+04 0.  0.
        2    1    3    3  502    0 -0.26909904234E+03 -0.25295681371E+03 -0.15571153555E+04  0.16003154922E+04  0.25500000920E-02 0. -1.
       -2    1    3    3    0  502  0.26909904234E+03  0.25295681371E+03  0.13630597062E+04  0.14122086272E+04  0.25500000920E-02 0.  1.
</event>
<event>
 5   0  0.2672155E-06  0.3161742E+04  0.7818609E-02  0.8198995E-01
       -1   -1    0    0    0  501  0.00000000000E+00  0.00000000000E+00  0.91931419469E+03  0.91931419470E+03  0.50400001928E-02 0.  1.
        1   -1    0    0  501    0  0.00000000000E+00  0.00000000000E+00 -0.27184973477E+04  0.27184973477E+04  0.50400001928E-02 0. -1.
    10030    2    1    2    0    0  0.00000000000E+00  0.00000000000E+00 -0.17991831530E+04  0.36378115424E+04  0.31617420515E+04 0.  0.
        5    1    3    3  502    0  0.13542670249E+04  0.81550718920E+03 -0.89231840268E+03  0.18153086162E+04  0.46999998093E+01 0. -1.
       -5    1    3    3    0  502 -0.13542670249E+04 -0.81550718920E+03 -0.90686475035E+03  0.18225029262E+04  0.46999998093E+01 0.  1.
</event>
<event>
 5   0  0.2504260E-06  0.2965238E+04  0.7818609E-02  0.8253728E-01
       -1   -1    0    0    0  501  0.00000000000E+00  0.00000000000E+00  0.13541361378E+04  0.13541361378E+04  0.50400001928E-02 0.  1.
        1   -1    0    0  501    0  0.00000000000E+00  0.00000000000E+00 -0.16232926452E+04  0.16232926452E+04  0.50400001928E-02 0. -1.
    10030    2    1    2    0    0  0.00000000000E+00  0.00000000000E+00 -0.26915650745E+03  0.29774287830E+04  0.29652380904E+04 0.  0.
        4    1    3    3  502    0  0.19278922247E+03  0.14641868584E+04 -0.30941972213E+01  0.14768283677E+04  0.12699999809E+01 0. -1.
       -4    1    3    3    0  502 -0.19278922247E+03 -0.14641868584E+04 -0.26606231023E+03  0.15006004153E+04  0.12699999809E+01 0.  1.
</event>
<event>
 5   0  0.2552990E-06  0.3000707E+04  0.7818609E-02  0.8243529E-01
       -1   -1    0    0    0  501  0.00000000000E+00  0.00000000000E+00  0.14034599351E+04  0.14034599351E+04  0.50400001928E-02 0.  1.
        1   -1    0    0  501    0  0.00000000000E+00  0.00000000000E+00 -0.16039360997E+04  0.16039360997E+04  0.50400001928E-02 0. -1.
    10030    2    1    2    0    0  0.00000000000E+00  0.00000000000E+00 -0.20047616459E+03  0.30073960349E+04  0.30007066198E+04 0.  0.
        3    1    3    3  502    0 -0.62335375300E+03  0.12964284067E+04  0.32704968490E+03  0.14752145680E+04  0.10100000352E+00 0.  1.
       -3    1    3    3    0  502  0.62335375300E+03 -0.12964284067E+04 -0.52752584949E+03  0.15321814668E+04  0.10100000352E+00 0. -1.
</event>
<event>
 5   0  0.2672155E-06  0.2529508E+04  0.7818609E-02  0.8392548E-01
        1   -1    0    0  501    0  0.00000000000E+00  0.00000000000E+00  0.17135548594E+04  0.17135548594E+04  0.50400001928E-02 0.  1.
       -1   -1    0    0    0  501  0.00000000000E+00  0.00000000000E+00 -0.93349918672E+03  0.93349918673E+03  0.50400001928E-02 0. -1.
    10030    2    1    2    0    0  0.00000000000E+00  0.00000000000E+00  0.78005567272E+03  0.26470540462E+04  0.25295075155E+04 0.  0.
        5    1    3    3  502    0  0.28188185278E+03 -0.11142779269E+04 -0.16223411920E+03  0.11607819247E+04  0.46999998093E+01 0. -1.
       -5    1    3    3    0  502 -0.28188185278E+03  0.11142779269E+04  0.94228979192E+03  0.14862721215E+04  0.46999998093E+01 0.  1.
</event>
<event>
 5   0  0.2628425E-06  0.2992130E+04  0.7818609E-02  0.8245982E-01
       -1   -1    0    0    0  501  0.00000000000E+00  0.00000000000E+00  0.93384904212E+03  0.93384904213E+03  0.50400001928E-02 0. -1.
        1   -1    0    0  501    0  0.00000000000E+00  0.00000000000E+00 -0.23967585128E+04  0.23967585128E+04  0.50400001928E-02 0.  1.
    10030    2    1    2    0    0  0.00000000000E+00  0.00000000000E+00 -0.14629094707E+04  0.33306075549E+04  0.29921301051E+04 0.  0.
        1    1    3    3  502    0  0.64812036086E+03  0.56523629381E+03  0.63122670229E+03  0.10667704625E+04  0.50400001928E-02 0. -1.
       -1    1    3    3    0  502 -0.64812036086E+03 -0.56523629381E+03 -0.20941361730E+04  0.22638370924E+04  0.50400001928E-02 0.  1.
</event>
<event>
 5   0  0.7217255E-06  0.2887428E+04  0.7818609E-02  0.8276628E-01
       -2   -1    0    0    0  501  0.00000000000E+00  0.00000000000E+00  0.16254056541E+04  0.16254056541E+04  0.25500000920E-02 0. -1.
        2   -1    0    0  501    0  0.00000000000E+00  0.00000000000E+00 -0.12823320660E+04  0.12823320660E+04  0.25500000920E-02 0.  1.
    10030    2    1    2    0    0  0.00000000000E+00  0.00000000000E+00  0.34307358811E+03  0.29077377201E+04  0.28874277761E+04 0.  0.
        1    1    3    3  502    0  0.10715827005E+04 -0.13418228876E+03 -0.79333383914E+03  0.13400272202E+04  0.50400001928E-02 0.  1.
       -1    1    3    3    0  502 -0.10715827005E+04  0.13418228876E+03  0.11364074273E+04  0.15677104999E+04  0.50400001928E-02 0. -1.
</event>
<event>
 5   0  0.2628425E-06  0.2981492E+04  0.7818609E-02  0.8249036E-01
        1   -1    0    0  501    0  0.00000000000E+00  0.00000000000E+00  0.24407272818E+04  0.24407272819E+04  0.50400001928E-02 0. -1.
       -1   -1    0    0    0  501  0.00000000000E+00  0.00000000000E+00 -0.91051695643E+03  0.91051695645E+03  0.50400001928E-02 0.  1.
    10030    2    1    2    0    0  0.00000000000E+00  0.00000000000E+00  0.15302103254E+04  0.33512442383E+04  0.29814919595E+04 0.  0.
        1    1    3    3  502    0  0.82073685994E+03  0.90750562142E+03 -0.19205761975E+03  0.12385723941E+04  0.50400001928E-02 0.  1.
       -1    1    3    3    0  502 -0.82073685994E+03 -0.90750562142E+03  0.17222679452E+04  0.21126718442E+04  0.50400001928E-02 0. -1.
</event>
<event>
 5   0  0.7193153E-06  0.2723634E+04  0.7818609E-02  0.8327377E-01
       -2   -1    0    0    0  501  0.00000000000E+00  0.00000000000E+00  0.75802437062E+03  0.75802437063E+03  0.25500000920E-02 0. -1.
        2   -1    0    0  501    0  0.00000000000E+00  0.00000000000E+00 -0.24465512553E+04  0.24465512553E+04  0.25500000920E-02 0.  1.
    10030    2    1    2    0    0  0.00000000000E+00  0.00000000000E+00 -0.16885268846E+04  0.32045756259E+04  0.27236339515E+04 0.  0.
        4    1    3    3  502    0 -0.11434904702E+04 -0.67479184238E+03 -0.48810835513E+03  0.14146256979E+04  0.12699999809E+01 0. -1.
       -4    1    3    3    0  502  0.11434904702E+04  0.67479184238E+03 -0.12004185295E+04  0.17899499280E+04  0.12699999809E+01 0.  1.
</event>
<event>
 5   0  0.6780150E-06  0.2974720E+04  0.7818609E-02  0.8250987E-01
        2   -1    0    0  501    0  0.00000000000E+00  0.00000000000E+00  0.28508613450E+04  0.28508613450E+04  0.25500000920E-02 0. -1.
       -2   -1    0    0    0  501  0.00000000000E+00  0.00000000000E+00 -0.77598986131E+03  0.77598986132E+03  0.25500000920E-02 0.  1.
    10030    2    1    2    0    0  0.00000000000E+00  0.00000000000E+00  0.20748714837E+04  0.36268512063E+04  0.29747198185E+04 0.  0.
        5    1    3    3  502    0 -0.28215698586E+02  0.12398713951E+04  0.36378787200E+02  0.12407347453E+04  0.46999998093E+01 0.  1.
       -5    1    3    3    0  502  0.28215698586E+02 -0.12398713951E+04  0.20384926965E+04  0.23861164610E+04  0.46999998093E+01 0. -1.
</event>
<event>
 5   0  0.2422083E-06  0.2943493E+04  0.7818609E-02  0.8260053E-01
       -1   -1    0    0    0  501  0.00000000000E+00  0.00000000000E+00  0.29011351298E+04  0.29011351299E+04  0.50400001928E-02 0.  1.
        1   -1    0    0  501    0  0.00000000000E+00  0.00000000000E+00 -0.74661756432E+03  0.74661756433E+03  0.50400001928E-02 0. -1.
    10030    2    1    2    0    0  0.00000000000E+00  0.00000000000E+00  0.21545175655E+04  0.36477526942E+04  0.29434934649E+04 0.  0.
        2    1    3    3  502    0 -0.68607596049E+03  0.27444405730E+03  0.26545879064E+04  0.27555138753E+04  0.25500000920E-02 0.  1.
       -2    1    3    3    0  502  0.68607596049E+03 -0.27444405730E+03 -0.50007034085E+03  0.89223881890E+03  0.25500000920E-02 0. -1.
</event>
<event>
 5   0  0.2628425E-06  0.2982228E+04  0.7818609E-02  0.8248824E-01
        1   -1    0    0  501    0  0.00000000000E+00  0.00000000000E+00  0.16192558865E+04  0.16192558865E+04  0.50400001928E-02 0. -1.
       -1   -1    0    0    0  501  0.00000000000E+00  0.00000000000E+00 -0.13731124727E+04  0.13731124727E+04  0.50400001928E-02 0.  1.
    10030    2    1    2    0    0  0.00000000000E+00  0.00000000000E+00  0.24614341384E+03  0.29923683592E+04  0.29822276601E+04 0.  0.
        1    1    3    3  502    0  0.85560484514E+03 -0.11762161097E+04 -0.20649066230E+03  0.14690753491E+04  0.50400001928E-02 0. -1.
       -1    1    3    3    0  502 -0.85560484514E+03  0.11762161097E+04  0.45263407614E+03  0.15232930101E+04  0.50400001928E-02 0.  1.
</event>
<event>
 5   0  0.6792811E-06  0.2685757E+04  0.7818609E-02  0.8339641E-01
       -2   -1    0    0    0  501  0.00000000000E+00  0.00000000000E+00  0.81478413231E+03  0.81478413231E+03  0.25500000920E-02 0. -1.
        2   -1    0    0  501    0  0.00000000000E+00  0.00000000000E+00 -0.22132517365E+04  0.22132517365E+04  0.25500000920E-02 0.  1.
    10030    2    1    2    0    0  0.00000000000E+00  0.00000000000E+00 -0.13984676042E+04  0.30280358688E+04  0.26857567989E+04 0.  0.
        2    1    3    3  502    0 -0.38108668438E+03  0.62077547240E+03 -0.19711632114E+04  0.21014456106E+04  0.25500000920E-02 0.  1.
       -2    1    3    3    0  502  0.38108668438E+03 -0.62077547240E+03  0.57269560722E+03  0.92659025825E+03  0.25500000920E-02 0. -1.
</event>
<event>
 5   0  0.2552990E-06  0.2978315E+04  0.7818609E-02  0.8249950E-01
        1   -1    0    0  501    0  0.00000000000E+00  0.00000000000E+00  0.15064646374E+04  0.15064646375E+04  0.50400001928E-02 0.  1.
       -1   -1    0    0    0  501  0.00000000000E+00  0.00000000000E+00 -0.14720494704E+04  0.14720494705E+04  0.50400001928E-02 0. -1.
    10030    2    1    2    0    0  0.00000000000E+00  0.00000000000E+00  0.34415166994E+02  0.29785141079E+04  0.29783152767E+04 0.  0.
        3    1    3    3  502    0  0.10948210824E+04  0.29330809464E+03 -0.94873868242E+03  0.14780960519E+04  0.10100000352E+00 0. -1.
       -3    1    3    3    0  502 -0.10948210824E+04 -0.29330809464E+03  0.98315384941E+03  0.15004180560E+04  0.10100000352E+00 0.  1.
</event>
<event>
 5   0  0.2552990E-06  0.2945868E+04  0.7818609E-02  0.8259360E-01
        1   -1    0    0  501    0  0.00000000000E+00  0.00000000000E+00  0.16542991485E+04  0.16542991485E+04  0.50400001928E-02 0.  1.
       -1   -1    0    0    0  501  0.00000000000E+00  0.00000000000E+00 -0.13114526922E+04  0.13114526922E+04  0.50400001928E-02 0. -1.
    10030    2    1    2    0    0  0.00000000000E+00  0.00000000000E+00  0.34284645636E+03  0.29657518407E+04  0.29458683420E+04 0.  0.
        3    1    3    3  502    0 -0.88508645489E+03 -0.75127186874E+03  0.10840447364E+04  0.15883766726E+04  0.10100000352E+00 0.  1.
       -3    1    3    3    0  502  0.88508645489E+03  0.75127186874E+03 -0.74119827999E+03  0.13773751682E+04  0.10100000352E+00 0. -1.
</event>
<event>
 5   0  0.6792811E-06  0.2719406E+04  0.7818609E-02  0.8328736E-01
       -2   -1    0    0    0  501  0.00000000000E+00  0.00000000000E+00  0.14566246484E+04  0.14566246484E+04  0.25500000920E-02 0. -1.
        2   -1    0    0  501    0  0.00000000000E+00  0.00000000000E+00 -0.12692301168E+04  0.12692301168E+04  0.25500000920E-02 0.  1.
    10030    2    1    2    0    0  0.00000000000E+00  0.00000000000E+00  0.18739453163E+03  0.27258547652E+04  0.27194057237E+04 0.  0.
        2    1    3    3  502    0  0.37193095888E+03 -0.59567678811E+03 -0.10733784553E+04  0.12826943449E+04  0.25500000920E-02 0.  1.
       -2    1    3    3    0  502 -0.37193095888E+03  0.59567678811E+03  0.12607729870E+04  0.14431604203E+04  0.25500000920E-02 0. -1.
</event>
<event>
 5   0  0.2672155E-06  0.3036067E+04  0.7818609E-02  0.8233506E-01
        1   -1    0    0  501    0  0.00000000000E+00  0.00000000000E+00  0.22207830623E+04  0.22207830623E+04  0.50400001928E-02 0.  1.
       -1   -1    0    0    0  501  0.00000000000E+00  0.00000000000E+00 -0.10376635294E+04  0.10376635295E+04  0.50400001928E-02 0. -1.
    10030    2    1    2    0    0  0.00000000000E+00  0.00000000000E+00  0.11831195329E+04  0.32584465918E+04  0.30360669233E+04 0.  0.
        5    1    3    3  502    0  0.41588857079E+03 -0.38210420318E+03  0.21038225892E+04  0.21783155195E+04  0.46999998093E+01 0.  1.
       -5    1    3    3    0  502 -0.41588857079E+03  0.38210420318E+03 -0.92070305635E+03  0.10801310723E+04  0.46999998093E+01 0. -1.
</event>
<event>
 5   0  0.7201538E-06  0.3039277E+04  0.7818609E-02  0.8232603E-01
       -2   -1    0    0    0  501  0.00000000000E+00  0.00000000000E+00  0.11245984584E+04  0.11245984584E+04  0.25500000920E-02 0. -1.
        2   -1    0    0  501    0  0.00000000000E+00  0.00000000000E+00 -0.20534446563E+04  0.20534446563E+04  0.25500000920E-02 0.  1.
    10030    2    1    2    0    0  0.00000000000E+00  0.00000000000E+00 -0.92884619791E+03  0.31780431147E+04  0.30392766869E+04 0.  0.
        3    1    3    3  502    0 -0.40513434256E+02  0.68214609898E+03  0.95487614234E+03  0.11742031750E+04  0.10100000352E+00 0. -1.
       -3    1    3    3    0  502  0.40513434256E+02 -0.68214609898E+03 -0.18837223402E+04  0.20038399397E+04  0.10100000352E+00 0.  1.
</event>
<event>
 5   0  0.7201538E-06  0.2361338E+04  0.7818609E-02  0.8454121E-01
        2   -1    0    0  501    0  0.00000000000E+00  0.00000000000E+00  0.12679738249E+04  0.12679738249E+04  0.25500000920E-02 0. -1.
       -2   -1    0    0    0  501  0.00000000000E+00  0.00000000000E+00 -0.10993758117E+04  0.10993758117E+04  0.25500000920E-02 0.  1.
    10030    2    1    2    0    0  0.00000000000E+00  0.00000000000E+00  0.16859801319E+03  0.23673496366E+04  0.23613383942E+04 0.  0.
        3    1    3    3  502    0  0.73199597756E+03  0.45217147507E+03 -0.72627799601E+03  0.11259471088E+04  0.10100000352E+00 0.  1.
       -3    1    3    3    0  502 -0.73199597756E+03 -0.45217147507E+03  0.89487600920E+03  0.12414025278E+04  0.10100000352E+00 0. -1.
</event>
<event>
 5   0  0.6792811E-06  0.2995279E+04  0.7818609E-02  0.8245080E-01
        2   -1    0    0  501    0  0.00000000000E+00  0.00000000000E+00  0.15490411731E+04  0.15490411731E+04  0.25500000920E-02 0.  1.
       -2   -1    0    0    0  501  0.00000000000E+00  0.00000000000E+00 -0.14479433860E+04  0.14479433860E+04  0.25500000920E-02 0. -1.
    10030    2    1    2    0    0  0.00000000000E+00  0.00000000000E+00  0.10109778712E+03  0.29969845592E+04  0.29952788994E+04 0.  0.
        2    1    3    3  502    0 -0.46643571173E+03 -0.12267690014E+04  0.77234686838E+03  0.15228408128E+04  0.25500000920E-02 0.  1.
       -2    1    3    3    0  502  0.46643571173E+03  0.12267690014E+04 -0.67124908126E+03  0.14741437464E+04  0.25500000920E-02 0. -1.
</event>
<event>
 5   0  0.2504260E-06  0.3005658E+04  0.7818609E-02  0.8242117E-01
        1   -1    0    0  501    0  0.00000000000E+00  0.00000000000E+00  0.23222706011E+04  0.23222706011E+04  0.50400001928E-02 0. -1.
       -1   -1    0    0    0  501  0.00000000000E+00  0.00000000000E+00 -0.97253747370E+03  0.97253747371E+03  0.50400001928E-02 0.  1.
    10030    2    1    2    0    0  0.00000000000E+00  0.00000000000E+00  0.13497331274E+04  0.32948080748E+04  0.30056581200E+04 0.  0.
        4    1    3    3  502    0  0.90239540526E+03 -0.51721217254E+03  0.18639640266E+04  0.21345232264E+04  0.12699999809E+01 0. -1.
       -4    1    3    3    0  502 -0.90239540526E+03  0.51721217254E+03 -0.51423089917E+03  0.11602848484E+04  0.12699999809E+01 0.  1.
</event>
<event>
 5   0  0.7217255E-06  0.2999711E+04  0.7818609E-02  0.8243813E-01
        2   -1    0    0  501    0  0.00000000000E+00  0.00000000000E+00  0.20300466611E+04  0.20300466611E+04  0.25500000920E-02 0.  1.
       -2   -1    0    0    0  501  0.00000000000E+00  0.00000000000E+00 -0.11081356340E+04  0.11081356340E+04  0.25500000920E-02 0. -1.
    10030    2    1    2    0    0  0.00000000000E+00  0.00000000000E+00  0.92191102708E+03  0.31381822952E+04  0.29997113487E+04 0.  0.
        1    1    3    3  502    0  0.74416938524E+03  0.32760658023E+03 -0.85756190796E+03  0.11817472536E+04  0.50400001928E-02 0. -1.
       -1    1    3    3    0  502 -0.74416938524E+03 -0.32760658023E+03  0.17794729350E+04  0.19564350416E+04  0.50400001928E-02 0.  1.
</event>
<event>
 5   0  0.6792811E-06  0.2557223E+04  0.7818609E-02  0.8382878E-01
        2   -1    0    0  501    0  0.00000000000E+00  0.00000000000E+00  0.13178590021E+04  0.13178590021E+04  0.25500000920E-02 0.  1.
       -2   -1    0    0    0  501  0.00000000000E+00  0.00000000000E+00 -0.12405327736E+04  0.12405327736E+04  0.25500000920E-02 0. -1.
    10030    2    1    2    0    0  0.00000000000E+00  0.00000000000E+00  0.77326228585E+02  0.25583917757E+04  0.25572229336E+04 0.  0.
        2    1    3    3  502    0 -0.19425666390E+03 -0.12212254102E+04  0.36395805000E+03  0.12890277794E+04  0.25500000920E-02 0. -1.
       -2    1    3    3    0  502  0.19425666390E+03  0.12212254102E+04 -0.28663182141E+03  0.12693639963E+04  0.25500000920E-02 0.  1.
</event>
<event>
 5   0  0.7217255E-06  0.2988849E+04  0.7818609E-02  0.8246922E-01
       -2   -1    0    0    0  501  0.00000000000E+00  0.00000000000E+00  0.86389799483E+03  0.86389799483E+03  0.25500000920E-02 0. -1.
        2   -1    0    0  501    0  0.00000000000E+00  0.00000000000E+00 -0.25851478979E+04  0.25851478979E+04  0.25500000920E-02 0.  1.
    10030    2    1    2    0    0  0.00000000000E+00  0.00000000000E+00 -0.17212499030E+04  0.34490458927E+04  0.29888486648E+04 0.  0.
        1    1    3    3  502    0 -0.30353106980E+03 -0.14472755022E+04 -0.11096438412E+04  0.18487960796E+04  0.50400001928E-02 0. -1.
       -1    1    3    3    0  502  0.30353106980E+03  0.14472755022E+04 -0.61160606184E+03  0.16002498131E+04  0.50400001928E-02 0.  1.
</event>
<event>
 5   0  0.7201538E-06  0.3691353E+04  0.7818609E-02  0.8069881E-01
       -2   -1    0    0    0  501  0.00000000000E+00  0.00000000000E+00  0.15748606101E+04  0.15748606101E+04  0.25500000920E-02 0. -1.
        2   -1    0    0  501    0  0.00000000000E+00  0.00000000000E+00 -0.21630624193E+04  0.21630624193E+04  0.25500000920E-02 0.  1.
    10030    2    1    2    0    0  0.00000000000E+00  0.00000000000E+00 -0.58820180927E+03  0.37379230294E+04  0.36913530318E+04 0.  0.
        3    1    3    3  502    0  0.16593933286E+04 -0.30878228035E+03 -0.10502403604E+04  0.19879480729E+04  0.10100000352E+00 0.  1.
       -3    1    3    3    0  502 -0.16593933286E+04  0.30878228035E+03  0.46203855114E+03  0.17499749565E+04  0.10100000352E+00 0. -1.
</event>
<event>
 5   0  0.2422083E-06  0.2988929E+04  0.7818609E-02  0.8246899E-01
       -1   -1    0    0    0  501  0.00000000000E+00  0.00000000000E+00  0.11973764888E+04  0.11973764888E+04  0.50400001928E-02 0. -1.
        1   -1    0    0  501    0  0.00000000000E+00  0.00000000000E+00 -0.18652650074E+04  0.18652650074E+04  0.50400001928E-02 0.  1.
    10030    2    1    2    0    0  0.00000000000E+00  0.00000000000E+00 -0.66788851862E+03  0.30626414962E+04  0.29889292165E+04 0.  0.
        2    1    3    3  502    0 -0.33925899703E+02  0.61947347938E+03 -0.17270796550E+04  0.18351301025E+04  0.25500000920E-02 0.  1.
       -2    1    3    3    0  502  0.33925899703E+02 -0.61947347938E+03  0.10591911364E+04  0.12275113937E+04  0.25500000920E-02 0. -1.
</event>
<event>
 5   0  0.7201538E-06  0.3020231E+04  0.7818609E-02  0.8237977E-01
        2   -1    0    0  501    0  0.00000000000E+00  0.00000000000E+00  0.22351161722E+04  0.22351161722E+04  0.25500000920E-02 0. -1.
       -2   -1    0    0    0  501  0.00000000000E+00  0.00000000000E+00 -0.10202818025E+04  0.10202818026E+04  0.25500000920E-02 0.  1.
    10030    2    1    2    0    0  0.00000000000E+00  0.00000000000E+00  0.12148343696E+04  0.32553979747E+04  0.30202306912E+04 0.  0.
        3    1    3    3  502    0 -0.89387653680E+03  0.28454610499E+03  0.18829755934E+04  0.21037059786E+04  0.10100000352E+00 0. -1.
       -3    1    3    3    0  502  0.89387653680E+03 -0.28454610499E+03 -0.66814122375E+03  0.11516919961E+04  0.10100000352E+00 0.  1.
</event>
<event>
 5   0  0.7193153E-06  0.2986663E+04  0.7818609E-02  0.8247550E-01
        2   -1    0    0  501    0  0.00000000000E+00  0.00000000000E+00  0.21708762654E+04  0.21708762654E+04  0.25500000920E-02 0.  1.
       -2   -1    0    0    0  501  0.00000000000E+00  0.00000000000E+00 -0.10272530959E+04  0.10272530959E+04  0.25500000920E-02 0. -1.
    10030    2    1    2    0    0  0.00000000000E+00  0.00000000000E+00  0.11436231695E+04  0.31981293613E+04  0.29866632648E+04 0.  0.
        4    1    3    3  502    0  0.82312080752E+02 -0.14089130827E+04  0.10944540680E+04  0.17859570748E+04  0.12699999809E+01 0.  1.
       -4    1    3    3    0  502 -0.82312080752E+02  0.14089130827E+04  0.49169101477E+02  0.14121722864E+04  0.12699999809E+01 0. -1.
</event>
<event>
 5   0  0.2628425E-06  0.3077981E+04  0.7818609E-02  0.8221807E-01
        1   -1    0    0  501    0  0.00000000000E+00  0.00000000000E+00  0.15740304140E+04  0.15740304140E+04  0.50400001928E-02 0.  1.
       -1   -1    0    0    0  501  0.00000000000E+00  0.00000000000E+00 -0.15047309831E+04  0.15047309831E+04  0.50400001928E-02 0. -1.
    10030    2    1    2    0    0  0.00000000000E+00  0.00000000000E+00  0.69299430973E+02  0.30787613971E+04  0.30779813724E+04 0.  0.
        1    1    3    3  502    0 -0.13635672835E+04 -0.67859820830E+03  0.25534349417E+03  0.15443482655E+04  0.50400001928E-02 0. -1.
       -1    1    3    3    0  502  0.13635672835E+04  0.67859820830E+03 -0.18604406319E+03  0.15344131316E+04  0.50400001928E-02 0.  1.
</event>
<event>
 5   0  0.2422083E-06  0.3002384E+04  0.7818609E-02  0.8243050E-01
       -1   -1    0    0    0  501  0.00000000000E+00  0.00000000000E+00  0.11635067794E+04  0.11635067794E+04  0.50400001928E-02 0.  1.
        1   -1    0    0  501    0  0.00000000000E+00  0.00000000000E+00 -0.19368842053E+04  0.19368842053E+04  0.50400001928E-02 0. -1.
    10030    2    1    2    0    0  0.00000000000E+00  0.00000000000E+00 -0.77337742589E+03  0.31003909848E+04  0.30023843218E+04 0.  0.
        2    1    3    3  502    0 -0.33144379508E+03  0.10794742374E+03 -0.18945137098E+04  0.19263150917E+04  0.25500000920E-02 0. -1.
       -2    1    3    3    0  502  0.33144379508E+03 -0.10794742374E+03  0.11211362840E+04  0.11740758931E+04  0.25500000920E-02 0.  1.
</event>
<event>
 5   0  0.2672155E-06  0.2897273E+04  0.7818609E-02  0.8273689E-01
        1   -1    0    0  501    0  0.00000000000E+00  0.00000000000E+00  0.19800010939E+04  0.19800010939E+04  0.50400001928E-02 0. -1.
       -1   -1    0    0    0  501  0.00000000000E+00  0.00000000000E+00 -0.10598718651E+04  0.10598718651E+04  0.50400001928E-02 0.  1.
    10030    2    1    2    0    0  0.00000000000E+00  0.00000000000E+00  0.92012922879E+03  0.30398729590E+04  0.28972728227E+04 0.  0.
        5    1    3    3  502    0 -0.10430716613E+04  0.92738759187E+03  0.86707376347E+03  0.16431327510E+04  0.46999998093E+01 0.  1.
       -5    1    3    3    0  502  0.10430716613E+04 -0.92738759187E+03  0.53055465321E+02  0.13967402080E+04  0.46999998093E+01 0. -1.
</event>
<event>
 5   0  0.2552990E-06  0.2393806E+04  0.7818609E-02  0.8441826E-01
       -1   -1    0    0    0  501  0.00000000000E+00  0.00000000000E+00  0.12337248934E+04  0.12337248934E+04  0.50400001928E-02 0.  1.
        1   -1    0    0  501    0  0.00000000000E+00  0.00000000000E+00 -0.11611797992E+04  0.11611797992E+04  0.50400001928E-02 0. -1.
    10030    2    1    2    0    0  0.00000000000E+00  0.00000000000E+00  0.72545094227E+02  0.23949046926E+04  0.23938056931E+04 0.  0.
        3    1    3    3  502    0  0.31787756297E+03  0.96563611867E+03  0.66828811102E+03  0.12165970032E+04  0.10100000352E+00 0.  1.
       -3    1    3    3    0  502 -0.31787756297E+03 -0.96563611867E+03 -0.59574301679E+03  0.11783076894E+04  0.10100000352E+00 0. -1.
</event>
<event>
 5   0  0.7193153E-06  0.3075137E+04  0.7818609E-02  0.8222595E-01
       -2   -1    0    0    0  501  0.00000000000E+00  0.00000000000E+00  0.14690470685E+04  0.14690470685E+04  0.25500000920E-02 0. -1.
        2   -1    0    0  501    0  0.00000000000E+00  0.00000000000E+00 -0.16092855473E+04  0.16092855473E+04  0.25500000920E-02 0.  1.
    10030    2    1    2    0    0  0.00000000000E+00  0.00000000000E+00 -0.14023847874E+03  0.30783326158E+04  0.30751365600E+04 0.  0.
        4    1    3    3  502    0  0.90454479256E+03 -0.15831493789E+03 -0.13046283110E+04  0.15954063884E+04  0.12699999809E+01 0.  1.
       -4    1    3    3    0  502 -0.90454479256E+03  0.15831493789E+03  0.11643898323E+04  0.14829262274E+04  0.12699999809E+01 0. -1.
</event>
<event>
 5   0  0.2628425E-06  0.3000250E+04  0.7818609E-02  0.8243660E-01
       -1   -1    0    0    0  501  0.00000000000E+00  0.00000000000E+00  0.21348956763E+04  0.21348956763E+04  0.50400001928E-02 0. -1.
        1   -1    0    0  501    0  0.00000000000E+00  0.00000000000E+00 -0.10540911252E+04  0.10540911252E+04  0.50400001928E-02 0.  1.
    10030    2    1    2    0    0  0.00000000000E+00  0.00000000000E+00  0.10808045512E+04  0.31889868015E+04  0.30002497133E+04 0.  0.
        1    1    3    3  502    0  0.83904225729E+03  0.15561996325E+03  0.18517751601E+04  0.20389410796E+04  0.50400001928E-02 0. -1.
       -1    1    3    3    0  502 -0.83904225729E+03 -0.15561996325E+03 -0.77097060896E+03  0.11500457219E+04  0.50400001928E-02 0.  1.
</event>
<event>
 5   0  0.6780150E-06  0.2992473E+04  0.7818609E-02  0.8245883E-01
       -2   -1    0    0    0  501  0.00000000000E+00  0.00000000000E+00  0.10012521684E+04  0.10012521684E+04  0.25500000920E-02 0. -1.
        2   -1    0    0  501    0  0.00000000000E+00  0.00000000000E+00 -0.22359243229E+04  0.22359243229E+04  0.25500000920E-02 0.  1.
    10030    2    1    2    0    0  0.00000000000E+00  0.00000000000E+00 -0.12346721545E+04  0.32371764914E+04  0.29924732759E+04 0.  0.
        5    1    3    3  502    0 -0.47332176167E+03 -0.11071308553E+04  0.34351320089E+03  0.12521164603E+04  0.46999998093E+01 0. -1.
       -5    1    3    3    0  502  0.47332176167E+03  0.11071308553E+04 -0.15781853554E+04  0.19850600311E+04  0.46999998093E+01 0.  1.
</event>
<event>
 5   0  0.6780150E-06  0.2492596E+04  0.7818609E-02  0.8405628E-01
       -2   -1    0    0    0  501  0.00000000000E+00  0.00000000000E+00  0.83852511738E+03  0.83852511738E+03  0.25500000920E-02 0.  1.
        2   -1    0    0  501    0  0.00000000000E+00  0.00000000000E+00 -0.18523701480E+04  0.18523701480E+04  0.25500000920E-02 0. -1.
    10030    2    1    2    0    0  0.00000000000E+00  0.00000000000E+00 -0.10138450307E+04  0.26908952654E+04  0.24925961533E+04 0.  0.
        5    1    3    3  502    0  0.87472862799E+03  0.20683917383E+03  0.42506834904E+03  0.99430267415E+03  0.46999998093E+01 0.  1.
       -5    1    3    3    0  502 -0.87472862799E+03 -0.20683917383E+03 -0.14389133797E+04  0.16965925913E+04  0.46999998093E+01 0. -1.
</event>
<event>
 5   0  0.6780150E-06  0.2963708E+04  0.7818609E-02  0.8254171E-01
       -2   -1    0    0    0  501  0.00000000000E+00  0.00000000000E+00  0.12103876961E+04  0.12103876961E+04  0.25500000920E-02 0.  1.
        2   -1    0    0  501    0  0.00000000000E+00  0.00000000000E+00 -0.18142048159E+04  0.18142048159E+04  0.25500000920E-02 0. -1.
    10030    2    1    2    0    0  0.00000000000E+00  0.00000000000E+00 -0.60381711985E+03  0.30245925120E+04  0.29637079392E+04 0.  0.
        5    1    3    3  502    0 -0.11144853701E+03  0.79168187808E+03  0.97139594407E+03  0.12580990194E+04  0.46999998093E+01 0.  1.
       -5    1    3    3    0  502  0.11144853701E+03 -0.79168187808E+03 -0.15752130639E+04  0.17664934926E+04  0.46999998093E+01 0. -1.
</event>
<event>
 5   0  0.6792811E-06  0.2983097E+04  0.7818609E-02  0.8248574E-01
        2   -1    0    0  501    0  0.00000000000E+00  0.00000000000E+00  0.16665717258E+04  0.16665717258E+04  0.25500000920E-02 0. -1.
       -2   -1    0    0    0  501  0.00000000000E+00  0.00000000000E+00 -0.13349062281E+04  0.13349062281E+04  0.25500000920E-02 0.  1.
    10030    2    1    2    0    0  0.00000000000E+00  0.00000000000E+00  0.33166549773E+03  0.30014779539E+04  0.29830970325E+04 0.  0.
        2    1    3    3  502    0 -0.20137079283E+03 -0.86910736976E+03 -0.10368647571E+04  0.13678400275E+04  0.25500000920E-02 0.  1.
       -2    1    3    3    0  502  0.20137079283E+03  0.86910736976E+03  0.13685302548E+04  0.16336379264E+04  0.25500000920E-02 0. -1.
</event>
<event>
 5   0  0.2504260E-06  0.3001335E+04  0.7818609E-02  0.8243350E-01
        1   -1    0    0  501    0  0.00000000000E+00  0.00000000000E+00  0.21821073821E+04  0.21821073821E+04  0.50400001928E-02 0. -1.
       -1   -1    0    0    0  501  0.00000000000E+00  0.00000000000E+00 -0.10320308991E+04  0.10320308992E+04  0.50400001928E-02 0.  1.
    10030    2    1    2    0    0  0.00000000000E+00  0.00000000000E+00  0.11500764830E+04  0.32141382813E+04  0.30013345323E+04 0.  0.
        4    1    3    3  502    0 -0.63560367507E+03 -0.69651019605E+03 -0.67516120817E+03  0.11597252929E+04  0.12699999809E+01 0.  1.
       -4    1    3    3    0  502  0.63560367507E+03  0.69651019605E+03  0.18252376911E+04  0.20544129884E+04  0.12699999809E+01 0. -1.
</event>
<event>
 5   0  0.7217255E-06  0.2760347E+04  0.7818609E-02  0.8315686E-01
        2   -1    0    0  501    0  0.00000000000E+00  0.00000000000E+00  0.14126045281E+04  0.14126045281E+04  0.25500000920E-02 0. -1.
       -2   -1    0    0    0  501  0.00000000000E+00  0.00000000000E+00 -0.13484873540E+04  0.13484873540E+04  0.25500000920E-02 0.  1.
    10030    2    1    2    0    0  0.00000000000E+00  0.00000000000E+00  0.64117174047E+02  0.27610918821E+04  0.27603473277E+04 0.  0.
        1    1    3    3  502    0 -0.42735144888E+03  0.71793989656E+03  0.11309050305E+04  0.14060629943E+04  0.50400001928E-02 0. -1.
       -1    1    3    3    0  502  0.42735144888E+03 -0.71793989656E+03 -0.10667878565E+04  0.13550288878E+04  0.50400001928E-02 0.  1.
</event>
<event>
 5   0  0.6780150E-06  0.2864951E+04  0.7818609E-02  0.8283383E-01
       -2   -1    0    0    0  501  0.00000000000E+00  0.00000000000E+00  0.15540215031E+04  0.15540215031E+04  0.25500000920E-02 0. -1.
        2   -1    0    0  501    0  0.00000000000E+00  0.00000000000E+00 -0.13204362251E+04  0.13204362251E+04  0.25500000920E-02 0.  1.
    10030    2    1    2    0    0  0.00000000000E+00  0.00000000000E+00  0.23358527796E+03  0.28744577282E+04  0.28649511599E+04 0.  0.
        5    1    3    3  502    0 -0.67761923399E+03  0.15650695790E+03  0.13732667476E+04  0.15393329413E+04  0.46999998093E+01 0. -1.
       -5    1    3    3    0  502  0.67761923399E+03 -0.15650695790E+03 -0.11396814697E+04  0.13351247868E+04  0.46999998093E+01 0.  1.
</event>
<event>
 5   0  0.7193153E-06  0.2979529E+04  0.7818609E-02  0.8249601E-01
       -2   -1    0    0    0  501  0.00000000000E+00  0.00000000000E+00  0.16057859374E+04  0.16057859374E+04  0.25500000920E-02 0. -1.
        2   -1    0    0  501    0  0.00000000000E+00  0.00000000000E+00 -0.13821257862E+04  0.13821257862E+04  0.25500000920E-02 0.  1.
    10030    2    1    2    0    0  0.00000000000E+00  0.00000000000E+00  0.22366015115E+03  0.29879117236E+04  0.29795289233E+04 0.  0.
        4    1    3    3  502    0 -0.94234612765E+03  0.87614133539E+03 -0.64111969448E+03  0.14375938020E+04  0.12699999809E+01 0.  1.
       -4    1    3    3    0  502  0.94234612765E+03 -0.87614133539E+03  0.86477984563E+03  0.15503179216E+04  0.12699999809E+01 0. -1.
</event>
<event>
 5   0  0.6780150E-06  0.3288524E+04  0.7818609E-02  0.8165821E-01
       -2   -1    0    0    0  501  0.00000000000E+00  0.00000000000E+00  0.12331871526E+04  0.12331871527E+04  0.25500000920E-02 0. -1.
        2   -1    0    0  501    0  0.00000000000E+00  0.00000000000E+00 -0.21923665740E+04  0.21923665740E+04  0.25500000920E-02 0.  1.
    10030    2    1    2    0    0  0.00000000000E+00  0.00000000000E+00 -0.95917942133E+03  0.34255537266E+04  0.32885244673E+04 0.  0.
        5    1    3    3  502    0  0.49448160238E+03  0.14359343153E+04 -0.11360533890E+04  0.18965913649E+04  0.46999998093E+01 0.  1.
       -5    1    3    3    0  502 -0.49448160238E+03 -0.14359343153E+04  0.17687396763E+03  0.15289623617E+04  0.46999998093E+01 0. -1.
</event>
<event>
 5   0  0.6780150E-06  0.2653202E+04  0.7818609E-02  0.8350351E-01
        2   -1    0    0  501    0  0.00000000000E+00  0.00000000000E+00  0.15300393579E+04  0.15300393579E+04  0.25500000920E-02 0.  1.
       -2   -1    0    0    0  501  0.00000000000E+00  0.00000000000E+00 -0.11502125619E+04  0.11502125619E+04  0.25500000920E-02 0. -1.
    10030    2    1    2    0    0  0.00000000000E+00  0.00000000000E+00  0.37982679601E+03  0.26802519198E+04  0.26532022084E+04 0.  0.
        5    1    3    3  502    0  0.79568155184E+03 -0.10519151612E+04  0.33353799813E+03  0.13604794465E+04  0.46999998093E+01 0. -1.
       -5    1    3    3    0  502 -0.79568155184E+03  0.10519151612E+04  0.46288797877E+02  0.13197724732E+04  0.46999998093E+01 0.  1.
</event>
<event>
 5   0  0.2504260E-06  0.3012617E+04  0.7818609E-02  0.8240137E-01
        1   -1    0    0  501    0  0.00000000000E+00  0.00000000000E+00  0.19832520428E+04  0.19832520428E+04  0.50400001928E-02 0. -1.
       -1   -1    0    0    0  501  0.00000000000E+00  0.00000000000E+00 -0.11440632742E+04  0.11440632742E+04  0.50400001928E-02 0.  1.
    10030    2    1    2    0    0  0.00000000000E+00  0.00000000000E+00  0.83918876863E+03  0.31273153170E+04  0.30126173508E+04 0.  0.
        4    1    3    3  502    0 -0.92641666279E+03 -0.30304666131E+03 -0.77255366390E+03  0.12437547542E+04  0.12699999809E+01 0.  1.
       -4    1    3    3    0  502  0.92641666279E+03  0.30304666131E+03  0.16117424325E+04  0.18835605628E+04  0.12699999809E+01 0. -1.
</event>
<event>
 5   0  0.2552990E-06  0.2996002E+04  0.7818609E-02  0.8244873E-01
        1   -1    0    0  501    0  0.00000000000E+00  0.00000000000E+00  0.17608441319E+04  0.17608441319E+04  0.50400001928E-02 0.  1.
       -1   -1    0    0    0  501  0.00000000000E+00  0.00000000000E+00 -0.12743929201E+04  0.12743929201E+04  0.50400001928E-02 0. -1.
    10030    2    1    2    0    0  0.00000000000E+00  0.00000000000E+00  0.48645121180E+03  0.30352370519E+04  0.29960021996E+04 0.  0.
        3    1    3    3  502    0 -0.98885042277E+03 -0.71701678636E+03  0.11218016286E+04  0.16584261016E+04  0.10100000352E+00 0.  1.
       -3    1    3    3    0  502  0.98885042277E+03  0.71701678636E+03 -0.63535041678E+03  0.13768109503E+04  0.10100000352E+00 0. -1.
</event>
<event>
 5   0  0.2672155E-06  0.2930915E+04  0.7818609E-02  0.8263738E-01
        1   -1    0    0  501    0  0.00000000000E+00  0.00000000000E+00  0.17768977066E+04  0.17768977066E+04  0.50400001928E-02 0. -1.
       -1   -1    0    0    0  501  0.00000000000E+00  0.00000000000E+00 -0.12086043595E+04  0.12086043595E+04  0.50400001928E-02 0.  1.
    10030    2    1    2    0    0  0.00000000000E+00  0.00000000000E+00  0.56829334710E+03  0.29855020661E+04  0.29309154301E+04 0.  0.
        5    1    3    3  502    0 -0.81685708023E+03 -0.85361689874E+03  0.11672575903E+04  0.16608520920E+04  0.46999998093E+01 0. -1.
       -5    1    3    3    0  502  0.81685708023E+03  0.85361689874E+03 -0.59896424320E+03  0.13246499741E+04  0.46999998093E+01 0.  1.
</event>
<event>
 5   0  0.7217255E-06  0.2685292E+04  0.7818609E-02  0.8339793E-01
        2   -1    0    0  501    0  0.00000000000E+00  0.00000000000E+00  0.17278918262E+04  0.17278918262E+04  0.25500000920E-02 0.  1.
       -2   -1    0    0    0  501  0.00000000000E+00  0.00000000000E+00 -0.10432934221E+04  0.10432934221E+04  0.25500000920E-02 0. -1.
    10030    2    1    2    0    0  0.00000000000E+00  0.00000000000E+00  0.68459840418E+03  0.27711852483E+04  0.26852919218E+04 0.  0.
        1    1    3    3  502    0 -0.49512744212E+03 -0.10075959380E+04 -0.41766445063E+03  0.11978498869E+04  0.50400001928E-02 0. -1.
       -1    1    3    3    0  502  0.49512744212E+03  0.10075959380E+04  0.11022628548E+04  0.15733353614E+04  0.50400001928E-02 0.  1.
</event>
<event>
 5   0  0.6780150E-06  0.2785260E+04  0.7818609E-02  0.8307859E-01
        2   -1    0    0  501    0  0.00000000000E+00  0.00000000000E+00  0.14924147655E+04  0.14924147655E+04  0.25500000920E-02 0.  1.
       -2   -1    0    0    0  501  0.00000000000E+00  0.00000000000E+00 -0.12995168777E+04  0.12995168777E+04  0.25500000920E-02 0. -1.
    10030    2    1    2    0    0  0.00000000000E+00  0.00000000000E+00  0.19289788776E+03  0.27919316433E+04  0.27852598991E+04 0.  0.
        5    1    3    3  502    0 -0.66407495650E+03 -0.50119035744E+03 -0.10230111884E+04  0.13186209857E+04  0.46999998093E+01 0. -1.
       -5    1    3    3    0  502  0.66407495650E+03  0.50119035744E+03  0.12159090762E+04  0.14733106576E+04  0.46999998093E+01 0.  1.
</event>
<event>
 5   0  0.2672155E-06  0.3067086E+04  0.7818609E-02  0.8224829E-01
        1   -1    0    0  501    0  0.00000000000E+00  0.00000000000E+00  0.13910303724E+04  0.13910303724E+04  0.50400001928E-02 0.  1.
       -1   -1    0    0    0  501  0.00000000000E+00  0.00000000000E+00 -0.16906567372E+04  0.16906567372E+04  0.50400001928E-02 0. -1.
    10030    2    1    2    0    0  0.00000000000E+00  0.00000000000E+00 -0.29962636474E+03  0.30816871096E+04  0.30670864812E+04 0.  0.
        5    1    3    3  502    0  0.20575217238E+03  0.40825333932E+03 -0.16205875280E+04  0.16838440460E+04  0.46999998093E+01 0. -1.
       -5    1    3    3    0  502 -0.20575217238E+03 -0.40825333932E+03  0.13209611632E+04  0.13978430635E+04  0.46999998093E+01 0.  1.
</event>
<event>
 5   0  0.2628425E-06  0.2885349E+04  0.7818609E-02  0.8277250E-01
        1   -1    0    0  501    0  0.00000000000E+00  0.00000000000E+00  0.16538036705E+04  0.16538036705E+04  0.50400001928E-02 0. -1.
       -1   -1    0    0    0  501  0.00000000000E+00  0.00000000000E+00 -0.12584990786E+04  0.12584990786E+04  0.50400001928E-02 0.  1.
    10030    2    1    2    0    0  0.00000000000E+00  0.00000000000E+00  0.39530459190E+03  0.29123027491E+04  0.28853494732E+04 0.  0.
        1    1    3    3  502    0  0.13904804035E+04  0.26348454371E+03  0.48035897008E+03  0.14945248735E+04  0.50400001928E-02 0. -1.
       -1    1    3    3    0  502 -0.13904804035E+04 -0.26348454371E+03 -0.85054378178E+02  0.14177778756E+04  0.50400001928E-02 0.  1.
</event>
<event>
 5   0  0.6792811E-06  0.2984194E+04  0.7818609E-02  0.8248259E-01
        2   -1    0    0  501    0  0.00000000000E+00  0.00000000000E+00  0.25984009606E+04  0.25984009606E+04  0.25500000920E-02 0. -1.
       -2   -1    0    0    0  501  0.00000000000E+00  0.00000000000E+00 -0.85681695527E+03  0.85681695528E+03  0.25500000920E-02 0.  1.
    10030    2    1    2    0    0  0.00000000000E+00  0.00000000000E+00  0.17415840053E+04  0.34552179159E+04  0.29841943634E+04 0.  0.
        2    1    3    3  502    0 -0.72167757007E+03  0.11865832839E+04  0.23920614400E+03  0.14092615031E+04  0.25500000920E-02 0.  1.
       -2    1    3    3    0  502  0.72167757007E+03 -0.11865832839E+04  0.15023778613E+04  0.20459564128E+04  0.25500000920E-02 0. -1.
</event>
<event>
 5   0  0.2628425E-06  0.2904620E+04  0.7818609E-02  0.8271504E-01
       -1   -1    0    0    0  501  0.00000000000E+00  0.00000000000E+00  0.16910300883E+04  0.16910300883E+04  0.50400001928E-02 0.  1.
        1   -1    0    0  501    0  0.00000000000E+00  0.00000000000E+00 -0.12472894000E+04  0.12472894000E+04  0.50400001928E-02 0. -1.
    10030    2    1    2    0    0  0.00000000000E+00  0.00000000000E+00  0.44374068835E+03  0.29383194883E+04  0.29046197027E+04 0.  0.
        1    1    3    3  502    0  0.13667235561E+04 -0.37682657917E+03  0.54060104528E+03  0.15172939860E+04  0.50400001928E-02 0. -1.
       -1    1    3    3    0  502 -0.13667235561E+04  0.37682657917E+03 -0.96860356930E+02  0.14210255024E+04  0.50400001928E-02 0.  1.
</event>
<event>
 5   0  0.7193153E-06  0.3028489E+04  0.7818609E-02  0.8235642E-01
       -2   -1    0    0    0  501  0.00000000000E+00  0.00000000000E+00  0.10682128573E+04  0.10682128573E+04  0.25500000920E-02 0.  1.
        2   -1    0    0  501    0  0.00000000000E+00  0.00000000000E+00 -0.21465159706E+04  0.21465159706E+04  0.25500000920E-02 0. -1.
    10030    2    1    2    0    0  0.00000000000E+00  0.00000000000E+00 -0.10783031133E+04  0.32147288279E+04  0.30284887044E+04 0.  0.
        4    1    3    3  502    0  0.16190978586E+03  0.91713409343E+03  0.72825190042E+03  0.11822445464E+04  0.12699999809E+01 0.  1.
       -4    1    3    3    0  502 -0.16190978586E+03 -0.91713409343E+03 -0.18065550137E+04  0.20324842815E+04  0.12699999809E+01 0. -1.
</event>
<event>
 5   0  0.7217255E-06  0.3066794E+04  0.7818609E-02  0.8224911E-01
       -2   -1    0    0    0  501  0.00000000000E+00  0.00000000000E+00  0.10041585437E+04  0.10041585437E+04  0.25500000920E-02 0. -1.
        2   -1    0    0  501    0  0.00000000000E+00  0.00000000000E+00 -0.23415682952E+04  0.23415682952E+04  0.25500000920E-02 0.  1.
    10030    2    1    2    0    0  0.00000000000E+00  0.00000000000E+00 -0.13374097515E+04  0.33457268389E+04  0.30667936411E+04 0.  0.
        1    1    3    3  502    0  0.11811974087E+04  0.69312211694E+03 -0.14211145019E+04  0.19736291483E+04  0.50400001928E-02 0.  1.
       -1    1    3    3    0  502 -0.11811974087E+04 -0.69312211694E+03  0.83704750421E+02  0.13720976906E+04  0.50400001928E-02 0. -1.
</event>
<event>
 5   0  0.2422083E-06  0.2979877E+04  0.7818609E-02  0.8249501E-01
       -1   -1    0    0    0  501  0.00000000000E+00  0.00000000000E+00  0.16235328272E+04  0.16235328272E+04  0.50400001928E-02 0.  1.
        1   -1    0    0  501    0  0.00000000000E+00  0.00000000000E+00 -0.13673367972E+04  0.13673367972E+04  0.50400001928E-02 0. -1.
    10030    2    1    2    0    0  0.00000000000E+00  0.00000000000E+00  0.25619603006E+03  0.29908696244E+04  0.29798766257E+04 0.  0.
        2    1    3    3  502    0 -0.73278588617E+03  0.85814931460E+03  0.11045800862E+04  0.15790796585E+04  0.25500000920E-02 0.  1.
       -2    1    3    3    0  502  0.73278588617E+03 -0.85814931460E+03 -0.84838405615E+03  0.14117899659E+04  0.25500000920E-02 0. -1.
</event>
<event>
 5   0  0.2628425E-06  0.3029848E+04  0.7818609E-02  0.8235259E-01
        1   -1    0    0  501    0  0.00000000000E+00  0.00000000000E+00  0.22362307486E+04  0.22362307486E+04  0.50400001928E-02 0.  1.
       -1   -1    0    0    0  501  0.00000000000E+00  0.00000000000E+00 -0.10262781705E+04  0.10262781705E+04  0.50400001928E-02 0. -1.
    10030    2    1    2    0    0  0.00000000000E+00  0.00000000000E+00  0.12099525781E+04  0.32625089192E+04  0.30298480501E+04 0.  0.
        1    1    3    3  502    0 -0.42234287788E+03  0.10693466693E+03  0.21673183453E+04  0.22106735035E+04  0.50400001928E-02 0.  1.
       -1    1    3    3    0  502  0.42234287788E+03 -0.10693466693E+03 -0.95736576714E+03  0.10518354156E+04  0.50400001928E-02 0. -1.
</event>
<event>
 5   0  0.2298500E-06  0.2998295E+04  0.7818609E-02  0.8244218E-01
        3   -1    0    0  501    0  0.00000000000E+00  0.00000000000E+00  0.20810236919E+04  0.20810236943E+04  0.10100000352E+00 0.  1.
       -3   -1    0    0    0  501  0.00000000000E+00  0.00000000000E+00 -0.10799697434E+04  0.10799697481E+04  0.10100000352E+00 0. -1.
    10030    2    1    2    0    0  0.00000000000E+00  0.00000000000E+00  0.10010539485E+04  0.31609934424E+04  0.29982946045E+04 0.  0.
        3    1    3    3  502    0  0.63275105142E+03 -0.59217441474E+03  0.17901799935E+04  0.19889165014E+04  0.10100000352E+00 0.  1.
       -3    1    3    3    0  502 -0.63275105142E+03  0.59217441474E+03 -0.78912604498E+03  0.11720769410E+04  0.10100000352E+00 0. -1.
</event>
<event>
 5   0  0.7193153E-06  0.2627886E+04  0.7818609E-02  0.8358790E-01
        2   -1    0    0  501    0  0.00000000000E+00  0.00000000000E+00  0.66154560998E+03  0.66154560999E+03  0.25500000920E-02 0. -1.
       -2   -1    0    0    0  501  0.00000000000E+00  0.00000000000E+00 -0.26097161824E+04  0.26097161824E+04  0.25500000920E-02 0.  1.
    10030    2    1    2    0    0  0.00000000000E+00  0.00000000000E+00 -0.19481705725E+04  0.32712617924E+04  0.26278860583E+04 0.  0.
        4    1    3    3  502    0  0.22967033009E+03 -0.11924527858E+04 -0.34949428693E+03  0.12636613377E+04  0.12699999809E+01 0. -1.
       -4    1    3    3    0  502 -0.22967033009E+03  0.11924527858E+04 -0.15986762855E+04  0.20076004547E+04  0.12699999809E+01 0.  1.
</event>
<event>
 5   0  0.2504260E-06  0.3030262E+04  0.7818609E-02  0.8235142E-01
       -1   -1    0    0    0  501  0.00000000000E+00  0.00000000000E+00  0.22092603778E+04  0.22092603778E+04  0.50400001928E-02 0.  1.
        1   -1    0    0  501    0  0.00000000000E+00  0.00000000000E+00 -0.10390909454E+04  0.10390909454E+04  0.50400001928E-02 0. -1.
    10030    2    1    2    0    0  0.00000000000E+00  0.00000000000E+00  0.11701694324E+04  0.32483513233E+04  0.30302623350E+04 0.  0.
        4    1    3    3  502    0  0.11515424189E+04 -0.86664949229E+03  0.10861543777E+04  0.18046784284E+04  0.12699999809E+01 0.  1.
       -4    1    3    3    0  502 -0.11515424189E+04  0.86664949229E+03  0.84015054738E+02  0.14436728948E+04  0.12699999809E+01 0. -1.
</event>
<event>
 5   0  0.7193153E-06  0.2990668E+04  0.7818609E-02  0.8246401E-01
       -2   -1    0    0    0  501  0.00000000000E+00  0.00000000000E+00  0.13790576849E+04  0.13790576849E+04  0.25500000920E-02 0.  1.
        2   -1    0    0  501    0  0.00000000000E+00  0.00000000000E+00 -0.16214143820E+04  0.16214143820E+04  0.25500000920E-02 0. -1.
    10030    2    1    2    0    0  0.00000000000E+00  0.00000000000E+00 -0.24235669708E+03  0.30004720670E+04  0.29906681287E+04 0.  0.
        4    1    3    3  502    0 -0.11294252775E+04  0.53174965672E+03  0.70472326657E+03  0.14335256016E+04  0.12699999809E+01 0.  1.
       -4    1    3    3    0  502  0.11294252775E+04 -0.53174965672E+03 -0.94707996365E+03  0.15669464654E+04  0.12699999809E+01 0. -1.
</event>
<event>
 5   0  0.2422083E-06  0.3097287E+04  0.7818609E-02  0.8216483E-01
        1   -1    0    0  501    0  0.00000000000E+00  0.00000000000E+00  0.11383240925E+04  0.11383240926E+04  0.50400001928E-02 0.  1.
       -1   -1    0    0    0  501  0.00000000000E+00  0.00000000000E+00 -0.21068665312E+04  0.21068665312E+04  0.50400001928E-02 0. -1.
    10030    2    1    2    0    0  0.00000000000E+00  0.00000000000E+00 -0.96854243861E+03  0.32451906237E+04  0.30972871563E+04 0.  0.
        2    1    3    3  502    0 -0.42825780908E+03 -0.24991484152E+03 -0.20214477271E+04  0.20813728864E+04  0.25500000920E-02 0. -1.
       -2    1    3    3    0  502  0.42825780908E+03  0.24991484152E+03  0.10529052885E+04  0.11638177373E+04  0.25500000920E-02 0.  1.
</event>
<event>
 5   0  0.7217255E-06  0.3085837E+04  0.7818609E-02  0.8219636E-01
        2   -1    0    0  501    0  0.00000000000E+00  0.00000000000E+00  0.18844518881E+04  0.18844518881E+04  0.25500000920E-02 0.  1.
       -2   -1    0    0    0  501  0.00000000000E+00  0.00000000000E+00 -0.12632836382E+04  0.12632836382E+04  0.25500000920E-02 0. -1.
    10030    2    1    2    0    0  0.00000000000E+00  0.00000000000E+00  0.62116824997E+03  0.31477355263E+04  0.30858368312E+04 0.  0.
        1    1    3    3  502    0  0.85754754048E+03 -0.86460678571E+03  0.12770406375E+04  0.17645864864E+04  0.50400001928E-02 0.  1.
       -1    1    3    3    0  502 -0.85754754048E+03  0.86460678571E+03 -0.65587238748E+03  0.13831490400E+04  0.50400001928E-02 0. -1.
</event>
<event>
 5   0  0.2552990E-06  0.3026535E+04  0.7818609E-02  0.8236194E-01
        1   -1    0    0  501    0  0.00000000000E+00  0.00000000000E+00  0.97373053102E+03  0.97373053103E+03  0.50400001928E-02 0.  1.
       -1   -1    0    0    0  501  0.00000000000E+00  0.00000000000E+00 -0.23517573451E+04  0.23517573452E+04  0.50400001928E-02 0. -1.
    10030    2    1    2    0    0  0.00000000000E+00  0.00000000000E+00 -0.13780268141E+04  0.33254878762E+04  0.30265346048E+04 0.  0.
        3    1    3    3  502    0  0.11409064739E+04  0.99401099764E+03 -0.67155450691E+03  0.16555092605E+04  0.10100000352E+00 0.  1.
       -3    1    3    3    0  502 -0.11409064739E+04 -0.99401099764E+03 -0.70647230722E+03  0.16699786157E+04  0.10100000352E+00 0. -1.
</event>
<event>
 5   0  0.2628425E-06  0.3009915E+04  0.7818609E-02  0.8240905E-01
        1   -1    0    0  501    0  0.00000000000E+00  0.00000000000E+00  0.12213913768E+04  0.12213913769E+04  0.50400001928E-02 0.  1.
       -1   -1    0    0    0  501  0.00000000000E+00  0.00000000000E+00 -0.18543585257E+04  0.18543585257E+04  0.50400001928E-02 0. -1.
    10030    2    1    2    0    0  0.00000000000E+00  0.00000000000E+00 -0.63296714886E+03  0.30757499026E+04  0.30099152898E+04 0.  0.
        1    1    3    3  502    0  0.13060997712E+04 -0.63594836359E+03 -0.71823753160E+03  0.16205530184E+04  0.50400001928E-02 0. -1.
       -1    1    3    3    0  502 -0.13060997712E+04  0.63594836359E+03  0.85270382744E+02  0.14551968842E+04  0.50400001928E-02 0.  1.
</event>
<event>
 5   0  0.2552990E-06  0.2994526E+04  0.7818609E-02  0.8245296E-01
        1   -1    0    0  501    0  0.00000000000E+00  0.00000000000E+00  0.16752292010E+04  0.16752292010E+04  0.50400001928E-02 0.  1.
       -1   -1    0    0    0  501  0.00000000000E+00  0.00000000000E+00 -0.13382024949E+04  0.13382024949E+04  0.50400001928E-02 0. -1.
    10030    2    1    2    0    0  0.00000000000E+00  0.00000000000E+00  0.33702670614E+03  0.30134316960E+04  0.29945256028E+04 0.  0.
        3    1    3    3  502    0 -0.11483375745E+03 -0.11068683216E+04 -0.83953540541E+03  0.13939741677E+04  0.10100000352E+00 0. -1.
       -3    1    3    3    0  502  0.11483375745E+03  0.11068683216E+04  0.11765621116E+04  0.16194575282E+04  0.10100000352E+00 0.  1.
</event>
<event>
 5   0  0.7201538E-06  0.2297892E+04  0.7818609E-02  0.8478753E-01
        2   -1    0    0  501    0  0.00000000000E+00  0.00000000000E+00  0.10180273078E+04  0.10180273078E+04  0.25500000920E-02 0.  1.
       -2   -1    0    0    0  501  0.00000000000E+00  0.00000000000E+00 -0.12967012351E+04  0.12967012351E+04  0.25500000920E-02 0. -1.
    10030    2    1    2    0    0  0.00000000000E+00  0.00000000000E+00 -0.27867392733E+03  0.23147285430E+04  0.22978923103E+04 0.  0.
        3    1    3    3  502    0 -0.59656016725E+03  0.69790023190E+03  0.55646887738E+03  0.10735950766E+04  0.10100000352E+00 0.  1.
       -3    1    3    3    0  502  0.59656016725E+03 -0.69790023190E+03 -0.83514280470E+03  0.12411334663E+04  0.10100000352E+00 0. -1.
</event>
<event>
 5   0  0.6792811E-06  0.2924546E+04  0.7818609E-02  0.8265612E-01
        2   -1    0    0  501    0  0.00000000000E+00  0.00000000000E+00  0.13464077756E+04  0.13464077756E+04  0.25500000920E-02 0. -1.
       -2   -1    0    0    0  501  0.00000000000E+00  0.00000000000E+00 -0.15881086567E+04  0.15881086567E+04  0.25500000920E-02 0.  1.
    10030    2    1    2    0    0  0.00000000000E+00  0.00000000000E+00 -0.24170088114E+03  0.29345164323E+04  0.29245456699E+04 0.  0.
        2    1    3    3  502    0 -0.51479704939E+03  0.71339748684E+03  0.10511599578E+04  0.13707258053E+04  0.25500000920E-02 0. -1.
       -2    1    3    3    0  502  0.51479704939E+03 -0.71339748684E+03 -0.12928608390E+04  0.15637906270E+04  0.25500000920E-02 0.  1.
</event>
<event>
 5   0  0.2504260E-06  0.3043305E+04  0.7818609E-02  0.8231472E-01
       -1   -1    0    0    0  501  0.00000000000E+00  0.00000000000E+00  0.12436705581E+04  0.12436705581E+04  0.50400001928E-02 0.  1.
        1   -1    0    0  501    0  0.00000000000E+00  0.00000000000E+00 -0.18617676927E+04  0.18617676928E+04  0.50400001928E-02 0. -1.
    10030    2    1    2    0    0  0.00000000000E+00  0.00000000000E+00 -0.61809713468E+03  0.31054382508E+04  0.30433045628E+04 0.  0.
        4    1    3    3  502    0 -0.68707472435E+03  0.45364909780E+03 -0.16148448010E+04  0.18126208994E+04  0.12699999809E+01 0. -1.
       -4    1    3    3    0  502  0.68707472435E+03 -0.45364909780E+03  0.99674766636E+03  0.12928173514E+04  0.12699999809E+01 0.  1.
</event>
<event>
 5   0  0.7217255E-06  0.2964263E+04  0.7818609E-02  0.8254010E-01
        2   -1    0    0  501    0  0.00000000000E+00  0.00000000000E+00  0.20255591225E+04  0.20255591225E+04  0.25500000920E-02 0.  1.
       -2   -1    0    0    0  501  0.00000000000E+00  0.00000000000E+00 -0.10844975487E+04  0.10844975487E+04  0.25500000920E-02 0. -1.
    10030    2    1    2    0    0  0.00000000000E+00  0.00000000000E+00  0.94106157374E+03  0.31100566712E+04  0.29642630809E+04 0.  0.
        1    1    3    3  502    0  0.12564903100E+04  0.68759053046E+03  0.87027567198E+03  0.16759857941E+04  0.50400001928E-02 0.  1.
       -1    1    3    3    0  502 -0.12564903100E+04 -0.68759053046E+03  0.70785901767E+02  0.14340708771E+04  0.50400001928E-02 0. -1.
</event>
<event>
 5   0  0.6780150E-06  0.3027469E+04  0.7818609E-02  0.8235930E-01
        2   -1    0    0  501    0  0.00000000000E+00  0.00000000000E+00  0.91705375524E+03  0.91705375525E+03  0.25500000920E-02 0. -1.
       -2   -1    0    0    0  501  0.00000000000E+00  0.00000000000E+00 -0.24986450779E+04  0.24986450779E+04  0.25500000920E-02 0.  1.
    10030    2    1    2    0    0  0.00000000000E+00  0.00000000000E+00 -0.15815913226E+04  0.34156988331E+04  0.30274688119E+04 0.  0.
        5    1    3    3  502    0 -0.12383523586E+04 -0.44392907139E+03 -0.16356779777E+04  0.20990602948E+04  0.46999998093E+01 0.  1.
       -5    1    3    3    0  502  0.12383523586E+04  0.44392907139E+03  0.54086655014E+02  0.13166385384E+04  0.46999998093E+01 0. -1.
</event>
<event>
 5   0  0.2504260E-06  0.3000522E+04  0.7818609E-02  0.8243582E-01
       -1   -1    0    0    0  501  0.00000000000E+00  0.00000000000E+00  0.15074912784E+04  0.15074912784E+04  0.50400001928E-02 0. -1.
        1   -1    0    0  501    0  0.00000000000E+00  0.00000000000E+00 -0.14930655161E+04  0.14930655161E+04  0.50400001928E-02 0.  1.
    10030    2    1    2    0    0  0.00000000000E+00  0.00000000000E+00  0.14425762283E+02  0.30005567945E+04  0.30005221170E+04 0.  0.
        4    1    3    3  502    0 -0.58543070136E+03  0.19679087531E+03 -0.13600358469E+04  0.14937050822E+04  0.12699999809E+01 0.  1.
       -4    1    3    3    0  502  0.58543070136E+03 -0.19679087531E+03  0.13744616092E+04  0.15068517123E+04  0.12699999809E+01 0. -1.
</event>
<event>
 5   0  0.7217255E-06  0.2945633E+04  0.7818609E-02  0.8259428E-01
        2   -1    0    0  501    0  0.00000000000E+00  0.00000000000E+00  0.25436649337E+04  0.25436649337E+04  0.25500000920E-02 0. -1.
       -2   -1    0    0    0  501  0.00000000000E+00  0.00000000000E+00 -0.85278048037E+03  0.85278048037E+03  0.25500000920E-02 0.  1.
    10030    2    1    2    0    0  0.00000000000E+00  0.00000000000E+00  0.16908844533E+04  0.33964454141E+04  0.29456325664E+04 0.  0.
        1    1    3    3  502    0 -0.74894024124E+03 -0.12249657908E+04  0.46697808502E+03  0.15098083340E+04  0.50400001928E-02 0. -1.
       -1    1    3    3    0  502  0.74894024124E+03  0.12249657908E+04  0.12239063683E+04  0.18866370801E+04  0.50400001928E-02 0.  1.
</event>
<event>
 5   0  0.2628425E-06  0.3049201E+04  0.7818609E-02  0.8229819E-01
       -1   -1    0    0    0  501  0.00000000000E+00  0.00000000000E+00  0.12078479705E+04  0.12078479705E+04  0.50400001928E-02 0. -1.
        1   -1    0    0  501    0  0.00000000000E+00  0.00000000000E+00 -0.19244198560E+04  0.19244198560E+04  0.50400001928E-02 0.  1.
    10030    2    1    2    0    0  0.00000000000E+00  0.00000000000E+00 -0.71657188545E+03  0.31322678265E+04  0.30492009560E+04 0.  0.
        1    1    3    3  502    0 -0.10257749620E+04  0.35177278469E+03 -0.14591369852E+04  0.18179766518E+04  0.50400001928E-02 0.  1.
       -1    1    3    3    0  502  0.10257749620E+04 -0.35177278469E+03  0.74256509978E+03  0.13142911748E+04  0.50400001928E-02 0. -1.
</event>
<event>
 5   0  0.7217255E-06  0.2953961E+04  0.7818609E-02  0.8257001E-01
        2   -1    0    0  501    0  0.00000000000E+00  0.00000000000E+00  0.10537793962E+04  0.10537793962E+04  0.25500000920E-02 0.  1.
       -2   -1    0    0    0  501  0.00000000000E+00  0.00000000000E+00 -0.20701404128E+04  0.20701404128E+04  0.25500000920E-02 0. -1.
    10030    2    1    2    0    0  0.00000000000E+00  0.00000000000E+00 -0.10163610166E+04  0.31239198090E+04  0.29539609437E+04 0.  0.
        1    1    3    3  502    0 -0.11413189636E+04  0.55053414746E+03  0.29427569340E+03  0.13008823959E+04  0.50400001928E-02 0.  1.
       -1    1    3    3    0  502  0.11413189636E+04 -0.55053414746E+03 -0.13106367100E+04  0.18230374131E+04  0.50400001928E-02 0. -1.
</event>
<event>
 5   0  0.2504260E-06  0.2894202E+04  0.7818609E-02  0.8274605E-01
        1   -1    0    0  501    0  0.00000000000E+00  0.00000000000E+00  0.14227040125E+04  0.14227040125E+04  0.50400001928E-02 0.  1.
       -1   -1    0    0    0  501  0.00000000000E+00  0.00000000000E+00 -0.14719167201E+04  0.14719167201E+04  0.50400001928E-02 0. -1.
    10030    2    1    2    0    0  0.00000000000E+00  0.00000000000E+00 -0.49212707620E+02  0.28946207326E+04  0.28942023591E+04 0.  0.
        4    1    3    3  502    0  0.53179922075E+03 -0.12470189487E+04  0.48166198096E+03  0.14387030779E+04  0.12699999809E+01 0.  1.
       -4    1    3    3    0  502 -0.53179922075E+03  0.12470189487E+04 -0.53087468858E+03  0.14559176547E+04  0.12699999809E+01 0. -1.
</event>
<event>
 5   0  0.6792811E-06  0.2545653E+04  0.7818609E-02  0.8386900E-01
       -2   -1    0    0    0  501  0.00000000000E+00  0.00000000000E+00  0.12058430657E+04  0.12058430657E+04  0.25500000920E-02 0.  1.
        2   -1    0    0  501    0  0.00000000000E+00  0.00000000000E+00 -0.13435307731E+04  0.13435307731E+04  0.25500000920E-02 0. -1.
    10030    2    1    2    0    0  0.00000000000E+00  0.00000000000E+00 -0.13768770743E+03  0.25493738388E+04  0.25456529742E+04 0.  0.
        2    1    3    3  502    0 -0.92879188044E+03 -0.44689896808E+02  0.80158460854E+03  0.12276764349E+04  0.25500000920E-02 0.  1.
       -2    1    3    3    0  502  0.92879188044E+03  0.44689896808E+02 -0.93927231597E+03  0.13216974039E+04  0.25500000920E-02 0. -1.
</event>
<event>
 5   0  0.6792811E-06  0.3001198E+04  0.7818609E-02  0.8243389E-01
        2   -1    0    0  501    0  0.00000000000E+00  0.00000000000E+00  0.17314669629E+04  0.17314669629E+04  0.25500000920E-02 0. -1.
       -2   -1    0    0    0  501  0.00000000000E+00  0.00000000000E+00 -0.13005141856E+04  0.13005141856E+04  0.25500000920E-02 0.  1.
    10030    2    1    2    0    0  0.00000000000E+00  0.00000000000E+00  0.43095277725E+03  0.30319811485E+04  0.30011979922E+04 0.  0.
        2    1    3    3  502    0 -0.13763446739E+04 -0.58967299687E+03  0.11567832807E+03  0.15018057066E+04  0.25500000920E-02 0. -1.
       -2    1    3    3    0  502  0.13763446739E+04  0.58967299687E+03  0.31527444918E+03  0.15301754419E+04  0.25500000920E-02 0.  1.
</event>
<event>
 5   0  0.2504260E-06  0.2971143E+04  0.7818609E-02  0.8252019E-01
       -1   -1    0    0    0  501  0.00000000000E+00  0.00000000000E+00  0.15743656990E+04  0.15743656990E+04  0.50400001928E-02 0.  1.
        1   -1    0    0  501    0  0.00000000000E+00  0.00000000000E+00 -0.14017857101E+04  0.14017857101E+04  0.50400001928E-02 0. -1.
    10030    2    1    2    0    0  0.00000000000E+00  0.00000000000E+00  0.17257998885E+03  0.29761514091E+04  0.29711434427E+04 0.  0.
        4    1    3    3  502    0 -0.13199450702E+04 -0.89603631778E+02  0.76317889450E+03  0.15273268927E+04  0.12699999809E+01 0.  1.
       -4    1    3    3    0  502  0.13199450702E+04  0.89603631778E+02 -0.59059890566E+03  0.14488245164E+04  0.12699999809E+01 0. -1.
</event>
<event>
 5   0  0.2672155E-06  0.3029089E+04  0.7818609E-02  0.8235473E-01
       -1   -1    0    0    0  501  0.00000000000E+00  0.00000000000E+00  0.12410308971E+04  0.12410308971E+04  0.50400001928E-02 0.  1.
        1   -1    0    0  501    0  0.00000000000E+00  0.00000000000E+00 -0.18483381727E+04  0.18483381727E+04  0.50400001928E-02 0. -1.
    10030    2    1    2    0    0  0.00000000000E+00  0.00000000000E+00 -0.60730727565E+03  0.30893690698E+04  0.30290888271E+04 0.  0.
        5    1    3    3  502    0  0.13731858723E+04  0.60897847404E+03 -0.50070428841E+03  0.15834206946E+04  0.46999998093E+01 0. -1.
       -5    1    3    3    0  502 -0.13731858723E+04 -0.60897847404E+03 -0.10660298724E+03  0.15059483752E+04  0.46999998093E+01 0.  1.
</event>
<event>
 5   0  0.2422083E-06  0.2984231E+04  0.7818609E-02  0.8248248E-01
       -1   -1    0    0    0  501  0.00000000000E+00  0.00000000000E+00  0.17190971551E+04  0.17190971551E+04  0.50400001928E-02 0. -1.
        1   -1    0    0  501    0  0.00000000000E+00  0.00000000000E+00 -0.12951036946E+04  0.12951036947E+04  0.50400001928E-02 0.  1.
    10030    2    1    2    0    0  0.00000000000E+00  0.00000000000E+00  0.42399346049E+03  0.30142008498E+04  0.29842312759E+04 0.  0.
        2    1    3    3  502    0 -0.83605949845E+03  0.35379719778E+03 -0.98405802439E+03  0.13388570265E+04  0.25500000920E-02 0.  1.
       -2    1    3    3    0  502  0.83605949845E+03 -0.35379719778E+03  0.14080514849E+04  0.16753438233E+04  0.25500000920E-02 0. -1.
</event>
<event>
 5   0  0.7201538E-06  0.3023795E+04  0.7818609E-02  0.8236969E-01
        2   -1    0    0  501    0  0.00000000000E+00  0.00000000000E+00  0.15688880191E+04  0.15688880191E+04  0.25500000920E-02 0.  1.
       -2   -1    0    0    0  501  0.00000000000E+00  0.00000000000E+00 -0.14569768889E+04  0.14569768889E+04  0.25500000920E-02 0. -1.
    10030    2    1    2    0    0  0.00000000000E+00  0.00000000000E+00  0.11191113017E+03  0.30258649080E+04  0.30237946921E+04 0.  0.
        3    1    3    3  502    0  0.23348978708E+03 -0.66259362317E+02  0.15492660242E+04  0.15681623027E+04  0.10100000352E+00 0.  1.
       -3    1    3    3    0  502 -0.23348978708E+03  0.66259362317E+02 -0.14373548940E+04  0.14577026052E+04  0.10100000352E+00 0. -1.
</event>
<event>
 5   0  0.2422083E-06  0.3009841E+04  0.7818609E-02  0.8240926E-01
       -1   -1    0    0    0  501  0.00000000000E+00  0.00000000000E+00  0.15924956064E+04  0.15924956064E+04  0.50400001928E-02 0.  1.
        1   -1    0    0  501    0  0.00000000000E+00  0.00000000000E+00 -0.14221612042E+04  0.14221612042E+04  0.50400001928E-02 0. -1.
    10030    2    1    2    0    0  0.00000000000E+00  0.00000000000E+00  0.17033440223E+03  0.30146568106E+04  0.30098408391E+04 0.  0.
        2    1    3    3  502    0  0.18082995224E+02 -0.14895622087E+04 -0.12886351124E+03  0.14952352233E+04  0.25500000920E-02 0. -1.
       -2    1    3    3    0  502 -0.18082995224E+02  0.14895622087E+04  0.29919791347E+03  0.15194215873E+04  0.25500000920E-02 0.  1.
</event>
<event>
 5   0  0.2628425E-06  0.3040306E+04  0.7818609E-02  0.8232314E-01
        1   -1    0    0  501    0  0.00000000000E+00  0.00000000000E+00  0.15910897740E+04  0.15910897740E+04  0.50400001928E-02 0.  1.
       -1   -1    0    0    0  501  0.00000000000E+00  0.00000000000E+00 -0.14523790398E+04  0.14523790398E+04  0.50400001928E-02 0. -1.
    10030    2    1    2    0    0  0.00000000000E+00  0.00000000000E+00  0.13871073421E+03  0.30434688139E+04  0.30403061940E+04 0.  0.
        1    1    3    3  502    0  0.22052207072E+03  0.10275823206E+04 -0.10301086004E+04  0.14716246593E+04  0.50400001928E-02 0. -1.
       -1    1    3    3    0  502 -0.22052207072E+03 -0.10275823206E+04  0.11688193346E+04  0.15718441546E+04  0.50400001928E-02 0.  1.
</event>
<event>
 5   0  0.7217255E-06  0.2999639E+04  0.7818609E-02  0.8243834E-01
        2   -1    0    0  501    0  0.00000000000E+00  0.00000000000E+00  0.22790061283E+04  0.22790061283E+04  0.25500000920E-02 0. -1.
       -2   -1    0    0    0  501  0.00000000000E+00  0.00000000000E+00 -0.98703489431E+03  0.98703489432E+03  0.25500000920E-02 0.  1.
    10030    2    1    2    0    0  0.00000000000E+00  0.00000000000E+00  0.12919712340E+04  0.32660410226E+04  0.29996390269E+04 0.  0.
        1    1    3    3  502    0 -0.14071903959E+04  0.18047059783E+03  0.11625441538E+03  0.14234709467E+04  0.50400001928E-02 0. -1.
       -1    1    3    3    0  502  0.14071903959E+04 -0.18047059783E+03  0.11757168186E+04  0.18425700759E+04  0.50400001928E-02 0.  1.
</event>
<event>
 5   0  0.2298500E-06  0.2988537E+04  0.7818609E-02  0.8247012E-01
        3   -1    0    0  501    0  0.00000000000E+00  0.00000000000E+00  0.19115904346E+04  0.19115904373E+04  0.10100000352E+00 0. -1.
       -3   -1    0    0    0  501  0.00000000000E+00  0.00000000000E+00 -0.11680523582E+04  0.11680523626E+04  0.10100000352E+00 0.  1.
    10030    2    1    2    0    0  0.00000000000E+00  0.00000000000E+00  0.74353807641E+03  0.30796427999E+04  0.29885365823E+04 0.  0.
        2    1    3    3  502    0  0.44356191540E+02 -0.14670664103E+04  0.66064770643E+03  0.16095672449E+04  0.25500000920E-02 0. -1.
       -2    1    3    3    0  502 -0.44356191540E+02  0.14670664103E+04  0.82890369983E+02  0.14700755550E+04  0.25500000920E-02 0.  1.
</event>
<event>
 5   0  0.2672155E-06  0.2967741E+04  0.7818609E-02  0.8253003E-01
       -1   -1    0    0    0  501  0.00000000000E+00  0.00000000000E+00  0.98416274907E+03  0.98416274908E+03  0.50400001928E-02 0.  1.
        1   -1    0    0  501    0  0.00000000000E+00  0.00000000000E+00 -0.22373037495E+04  0.22373037495E+04  0.50400001928E-02 0. -1.
    10030    2    1    2    0    0  0.00000000000E+00  0.00000000000E+00 -0.12531410005E+04  0.32214664986E+04  0.29677405605E+04 0.  0.
        5    1    3    3  502    0  0.43951134658E+02 -0.11327909850E+03 -0.22318864629E+04  0.22351964410E+04  0.46999998093E+01 0. -1.
       -5    1    3    3    0  502 -0.43951134658E+02  0.11327909850E+03  0.97874546244E+03  0.98627005766E+03  0.46999998093E+01 0.  1.
</event>
<event>
 5   0  0.6792811E-06  0.2994865E+04  0.7818609E-02  0.8245199E-01
        2   -1    0    0  501    0  0.00000000000E+00  0.00000000000E+00  0.16249813612E+04  0.16249813612E+04  0.25500000920E-02 0. -1.
       -2   -1    0    0    0  501  0.00000000000E+00  0.00000000000E+00 -0.13798957061E+04  0.13798957061E+04  0.25500000920E-02 0.  1.
    10030    2    1    2    0    0  0.00000000000E+00  0.00000000000E+00  0.24508565506E+03  0.30048770673E+04  0.29948654747E+04 0.  0.
        2    1    3    3  502    0 -0.10480915780E+04 -0.49009550406E+03  0.10763073514E+04  0.15802300698E+04  0.25500000920E-02 0. -1.
       -2    1    3    3    0  502  0.10480915780E+04  0.49009550406E+03 -0.83122169629E+03  0.14246469975E+04  0.25500000920E-02 0.  1.
</event>
<event>
 5   0  0.6792811E-06  0.3026804E+04  0.7818609E-02  0.8236118E-01
        2   -1    0    0  501    0  0.00000000000E+00  0.00000000000E+00  0.16179710440E+04  0.16179710440E+04  0.25500000920E-02 0. -1.
       -2   -1    0    0    0  501  0.00000000000E+00  0.00000000000E+00 -0.14155916855E+04  0.14155916855E+04  0.25500000920E-02 0.  1.
    10030    2    1    2    0    0  0.00000000000E+00  0.00000000000E+00  0.20237935852E+03  0.30335627295E+04  0.30268044914E+04 0.  0.
        2    1    3    3  502    0 -0.91488910718E+03 -0.95040150626E+03 -0.64215447145E+03  0.14671903308E+04  0.25500000920E-02 0.  1.
       -2    1    3    3    0  502  0.91488910718E+03  0.95040150626E+03  0.84453382996E+03  0.15663723987E+04  0.25500000920E-02 0. -1.
</event>
<event>
 5   0  0.2552990E-06  0.2991800E+04  0.7818609E-02  0.8246076E-01
       -1   -1    0    0    0  501  0.00000000000E+00  0.00000000000E+00  0.13426013454E+04  0.13426013454E+04  0.50400001928E-02 0.  1.
        1   -1    0    0  501    0  0.00000000000E+00  0.00000000000E+00 -0.16667020056E+04  0.16667020056E+04  0.50400001928E-02 0. -1.
    10030    2    1    2    0    0  0.00000000000E+00  0.00000000000E+00 -0.32410066019E+03  0.30093033510E+04  0.29917996959E+04 0.  0.
        3    1    3    3  502    0 -0.58224150627E+03 -0.78076893541E+03 -0.13040832406E+04  0.16276481226E+04  0.10100000352E+00 0. -1.
       -3    1    3    3    0  502  0.58224150627E+03  0.78076893541E+03  0.97998258045E+03  0.13816552285E+04  0.10100000352E+00 0.  1.
</event>
<event>
 5   0  0.6780150E-06  0.3000469E+04  0.7818609E-02  0.8243597E-01
        2   -1    0    0  501    0  0.00000000000E+00  0.00000000000E+00  0.18408631476E+04  0.18408631476E+04  0.25500000920E-02 0.  1.
       -2   -1    0    0    0  501  0.00000000000E+00  0.00000000000E+00 -0.12226350766E+04  0.12226350766E+04  0.25500000920E-02 0. -1.
    10030    2    1    2    0    0  0.00000000000E+00  0.00000000000E+00  0.61822807098E+03  0.30634982242E+04  0.30004692003E+04 0.  0.
        5    1    3    3  502    0  0.10210653902E+03 -0.13602132742E+04 -0.32856626702E+03  0.14030622860E+04  0.46999998093E+01 0. -1.
       -5    1    3    3    0  502 -0.10210653902E+03  0.13602132742E+04  0.94679433800E+03  0.16604359383E+04  0.46999998093E+01 0.  1.
</event>
<event>
 5   0  0.2504260E-06  0.3007368E+04  0.7818609E-02  0.8241630E-01
       -1   -1    0    0    0  501  0.00000000000E+00  0.00000000000E+00  0.15750521845E+04  0.15750521846E+04  0.50400001928E-02 0. -1.
        1   -1    0    0  501    0  0.00000000000E+00  0.00000000000E+00 -0.14355499978E+04  0.14355499978E+04  0.50400001928E-02 0.  1.
    10030    2    1    2    0    0  0.00000000000E+00  0.00000000000E+00  0.13950218673E+03  0.30106021824E+04  0.30073683912E+04 0.  0.
        4    1    3    3  502    0  0.83507635717E+03 -0.10752281589E+04 -0.56936819956E+03  0.14756862389E+04  0.12699999809E+01 0.  1.
       -4    1    3    3    0  502 -0.83507635717E+03  0.10752281589E+04  0.70887038629E+03  0.15349159435E+04  0.12699999809E+01 0. -1.
</event>
<event>
 5   0  0.6792811E-06  0.2480673E+04  0.7818609E-02  0.8409903E-01
        2   -1    0    0  501    0  0.00000000000E+00  0.00000000000E+00  0.90655530836E+03  0.90655530836E+03  0.25500000920E-02 0. -1.
       -2   -1    0    0    0  501  0.00000000000E+00  0.00000000000E+00 -0.16970111056E+04  0.16970111056E+04  0.25500000920E-02 0.  1.
    10030    2    1    2    0    0  0.00000000000E+00  0.00000000000E+00 -0.79045579724E+03  0.26035664140E+04  0.24806728330E+04 0.  0.
        2    1    3    3  502    0 -0.13907648338E+03 -0.12270579100E+04 -0.51681634569E+03  0.13386980682E+04  0.25500000920E-02 0. -1.
       -2    1    3    3    0  502  0.13907648338E+03  0.12270579100E+04 -0.27363945155E+03  0.12648683458E+04  0.25500000920E-02 0.  1.
</event>
<event>
 5   0  0.2672155E-06  0.3019451E+04  0.7818609E-02  0.8238198E-01
        1   -1    0    0  501    0  0.00000000000E+00  0.00000000000E+00  0.12180086674E+04  0.12180086674E+04  0.50400001928E-02 0. -1.
       -1   -1    0    0    0  501  0.00000000000E+00  0.00000000000E+00 -0.18713094884E+04  0.18713094884E+04  0.50400001928E-02 0.  1.
    10030    2    1    2    0    0  0.00000000000E+00  0.00000000000E+00 -0.65330082099E+03  0.30893181559E+04  0.30194510603E+04 0.  0.
        5    1    3    3  502    0 -0.99345660603E+03 -0.19276300855E+03  0.81960116388E+03  0.13022602518E+04  0.46999998093E+01 0.  1.
       -5    1    3    3    0  502  0.99345660603E+03  0.19276300855E+03 -0.14729019849E+04  0.17870579041E+04  0.46999998093E+01 0. -1.
</event>
<event>
 5   0  0.2298500E-06  0.2985633E+04  0.7818609E-02  0.8247846E-01
       -3   -1    0    0    0  501  0.00000000000E+00  0.00000000000E+00  0.13548283710E+04  0.13548283748E+04  0.10100000352E+00 0.  1.
        3   -1    0    0  501    0  0.00000000000E+00  0.00000000000E+00 -0.16448580633E+04  0.16448580664E+04  0.10100000352E+00 0. -1.
    10030    2    1    2    0    0  0.00000000000E+00  0.00000000000E+00 -0.29002969229E+03  0.29996864412E+04  0.29856325164E+04 0.  0.
        2    1    3    3  502    0  0.30550156855E+03 -0.12704082614E+04  0.58034757515E+03  0.14297103437E+04  0.25500000920E-02 0.  1.
       -2    1    3    3    0  502 -0.30550156855E+03  0.12704082614E+04 -0.87037726744E+03  0.15699760975E+04  0.25500000920E-02 0. -1.
</event>
<event>
 5   0  0.2422083E-06  0.3033380E+04  0.7818609E-02  0.8234263E-01
        1   -1    0    0  501    0  0.00000000000E+00  0.00000000000E+00  0.17283543569E+04  0.17283543569E+04  0.50400001928E-02 0.  1.
       -1   -1    0    0    0  501  0.00000000000E+00  0.00000000000E+00 -0.13309471263E+04  0.13309471263E+04  0.50400001928E-02 0. -1.
    10030    2    1    2    0    0  0.00000000000E+00  0.00000000000E+00  0.39740723064E+03  0.30593014832E+04  0.30333798078E+04 0.  0.
        2    1    3    3  502    0  0.56434764196E+03  0.10512400909E+04 -0.74564953148E+03  0.14069780430E+04  0.25500000920E-02 0. -1.
       -2    1    3    3    0  502 -0.56434764196E+03 -0.10512400909E+04  0.11430567621E+04  0.16523234402E+04  0.25500000920E-02 0.  1.
</event>
<event>
 5   0  0.2672155E-06  0.2832246E+04  0.7818609E-02  0.8293327E-01
       -1   -1    0    0    0  501  0.00000000000E+00  0.00000000000E+00  0.14890365213E+04  0.14890365214E+04  0.50400001928E-02 0. -1.
        1   -1    0    0  501    0  0.00000000000E+00  0.00000000000E+00 -0.13467800344E+04  0.13467800344E+04  0.50400001928E-02 0.  1.
    10030    2    1    2    0    0  0.00000000000E+00  0.00000000000E+00  0.14225648698E+03  0.28358165557E+04  0.28322462163E+04 0.  0.
        5    1    3    3  502    0  0.35580551467E+02 -0.11206438018E+04  0.93724705988E+03  0.14613564409E+04  0.46999998093E+01 0. -1.
       -5    1    3    3    0  502 -0.35580551467E+02  0.11206438018E+04 -0.79499057291E+03  0.13744601148E+04  0.46999998093E+01 0.  1.
</event>
<event>
 5   0  0.6792811E-06  0.2987848E+04  0.7818609E-02  0.8247210E-01
       -2   -1    0    0    0  501  0.00000000000E+00  0.00000000000E+00  0.91063290451E+03  0.91063290451E+03  0.25500000920E-02 0.  1.
        2   -1    0    0  501    0  0.00000000000E+00  0.00000000000E+00 -0.24508325524E+04  0.24508325524E+04  0.25500000920E-02 0. -1.
    10030    2    1    2    0    0  0.00000000000E+00  0.00000000000E+00 -0.15401996479E+04  0.33614654569E+04  0.29878478982E+04 0.  0.
        2    1    3    3  502    0  0.15255129435E+03 -0.73972973978E+03  0.68000369876E+03  0.10163055720E+04  0.25500000920E-02 0.  1.
       -2    1    3    3    0  502 -0.15255129435E+03  0.73972973978E+03 -0.22202033466E+04  0.23451598849E+04  0.25500000920E-02 0. -1.
</event>
<event>
 5   0  0.6792811E-06  0.3018471E+04  0.7818609E-02  0.8238476E-01
       -2   -1    0    0    0  501  0.00000000000E+00  0.00000000000E+00  0.15999298894E+04  0.15999298894E+04  0.25500000920E-02 0. -1.
        2   -1    0    0  501    0  0.00000000000E+00  0.00000000000E+00 -0.14236826414E+04  0.14236826414E+04  0.25500000920E-02 0.  1.
    10030    2    1    2    0    0  0.00000000000E+00  0.00000000000E+00  0.17624724796E+03  0.30236125308E+04  0.30184714085E+04 0.  0.
        2    1    3    3  502    0 -0.62580175129E+03 -0.13339430573E+04  0.41542238945E+03  0.15308846050E+04  0.25500000920E-02 0. -1.
       -2    1    3    3    0  502  0.62580175129E+03  0.13339430573E+04 -0.23917514149E+03  0.14927279258E+04  0.25500000920E-02 0.  1.
</event>
<event>
 5   0  0.2504260E-06  0.3014088E+04  0.7818609E-02  0.8239719E-01
        1   -1    0    0  501    0  0.00000000000E+00  0.00000000000E+00  0.19359847865E+04  0.19359847866E+04  0.50400001928E-02 0. -1.
       -1   -1    0    0    0  501  0.00000000000E+00  0.00000000000E+00 -0.11731405139E+04  0.11731405139E+04  0.50400001928E-02 0.  1.
    10030    2    1    2    0    0  0.00000000000E+00  0.00000000000E+00  0.76284427265E+03  0.31091253005E+04  0.30140883779E+04 0.  0.
        4    1    3    3  502    0 -0.65344201330E+03  0.75578072753E+03  0.15452658645E+04  0.18401193379E+04  0.12699999809E+01 0. -1.
       -4    1    3    3    0  502  0.65344201330E+03 -0.75578072753E+03 -0.78242159180E+03  0.12690059626E+04  0.12699999809E+01 0.  1.
</event>
<event>
 5   0  0.7193153E-06  0.2529809E+04  0.7818609E-02  0.8392442E-01
        2   -1    0    0  501    0  0.00000000000E+00  0.00000000000E+00  0.21674842759E+04  0.21674842759E+04  0.25500000920E-02 0.  1.
       -2   -1    0    0    0  501  0.00000000000E+00  0.00000000000E+00 -0.73817515865E+03  0.73817515865E+03  0.25500000920E-02 0. -1.
    10030    2    1    2    0    0  0.00000000000E+00  0.00000000000E+00  0.14293091172E+04  0.29056594345E+04  0.25298087273E+04 0.  0.
        4    1    3    3  502    0 -0.51188872949E+03  0.84593317818E+03 -0.19144062218E+03  0.10071167450E+04  0.12699999809E+01 0. -1.
       -4    1    3    3    0  502  0.51188872949E+03 -0.84593317818E+03  0.16207497394E+04  0.18985426895E+04  0.12699999809E+01 0.  1.
</event>
<event>
 5   0  0.2298500E-06  0.3070758E+04  0.7818609E-02  0.8223809E-01
       -3   -1    0    0    0  501  0.00000000000E+00  0.00000000000E+00  0.13314297504E+04  0.13314297542E+04  0.10100000352E+00 0. -1.
        3   -1    0    0  501    0  0.00000000000E+00  0.00000000000E+00 -0.17705688839E+04  0.17705688868E+04  0.10100000352E+00 0.  1.
    10030    2    1    2    0    0  0.00000000000E+00  0.00000000000E+00 -0.43913913353E+03  0.31019986410E+04  0.30707576248E+04 0.  0.
        5    1    3    3  502    0 -0.35771032660E+03 -0.14406774750E+04 -0.61580721979E+03  0.16070933037E+04  0.46999998093E+01 0. -1.
       -5    1    3    3    0  502  0.35771032660E+03  0.14406774750E+04  0.17666808627E+03  0.14949053373E+04  0.46999998093E+01 0.  1.
</event>
<event>
 5   0  0.2298500E-06  0.2193049E+04  0.7818609E-02  0.8521327E-01
       -3   -1    0    0    0  501  0.00000000000E+00  0.00000000000E+00  0.14964112176E+04  0.14964112210E+04  0.10100000352E+00 0.  1.
        3   -1    0    0  501    0  0.00000000000E+00  0.00000000000E+00 -0.80349988650E+03  0.80349989285E+03  0.10100000352E+00 0. -1.
    10030    2    1    2    0    0  0.00000000000E+00  0.00000000000E+00  0.69291133107E+03  0.22999111138E+04  0.21930492513E+04 0.  0.
        2    1    3    3  502    0 -0.26096000546E+03  0.74822069753E+03 -0.44838842255E+03  0.91048696539E+03  0.25500000920E-02 0. -1.
       -2    1    3    3    0  502  0.26096000546E+03 -0.74822069753E+03  0.11412997536E+04  0.13894241484E+04  0.25500000920E-02 0.  1.
</event>
<event>
 5   0  0.2552990E-06  0.2987664E+04  0.7818609E-02  0.8247262E-01
       -1   -1    0    0    0  501  0.00000000000E+00  0.00000000000E+00  0.19716287447E+04  0.19716287447E+04  0.50400001928E-02 0. -1.
        1   -1    0    0  501    0  0.00000000000E+00  0.00000000000E+00 -0.11318229453E+04  0.11318229453E+04  0.50400001928E-02 0.  1.
    10030    2    1    2    0    0  0.00000000000E+00  0.00000000000E+00  0.83980579933E+03  0.31034516900E+04  0.29876644074E+04 0.  0.
        3    1    3    3  502    0 -0.14662604129E+04  0.13051209740E+02  0.12345756693E+03  0.14715066135E+04  0.10100000352E+00 0.  1.
       -3    1    3    3    0  502  0.14662604129E+04 -0.13051209740E+02  0.71634823240E+03  0.16319450765E+04  0.10100000352E+00 0. -1.
</event>
<event>
 5   0  0.6792811E-06  0.3069488E+04  0.7818609E-02  0.8224162E-01
        2   -1    0    0  501    0  0.00000000000E+00  0.00000000000E+00  0.10443690805E+04  0.10443690805E+04  0.25500000920E-02 0. -1.
       -2   -1    0    0    0  501  0.00000000000E+00  0.00000000000E+00 -0.22553709575E+04  0.22553709575E+04  0.25500000920E-02 0.  1.
    10030    2    1    2    0    0  0.00000000000E+00  0.00000000000E+00 -0.12110018770E+04  0.32997400379E+04  0.30694883567E+04 0.  0.
        2    1    3    3  502    0  0.26847257671E+03  0.12045674108E+04  0.37528544883E+03  0.12899222224E+04  0.25500000920E-02 0. -1.
       -2    1    3    3    0  502 -0.26847257671E+03 -0.12045674108E+04 -0.15862873258E+04  0.20098178156E+04  0.25500000920E-02 0.  1.
</event>
<event>
 5   0  0.2628425E-06  0.3074518E+04  0.7818609E-02  0.8222766E-01
        1   -1    0    0  501    0  0.00000000000E+00  0.00000000000E+00  0.19810305730E+04  0.19810305730E+04  0.50400001928E-02 0.  1.
       -1   -1    0    0    0  501  0.00000000000E+00  0.00000000000E+00 -0.11928972802E+04  0.11928972802E+04  0.50400001928E-02 0. -1.
    10030    2    1    2    0    0  0.00000000000E+00  0.00000000000E+00  0.78813329274E+03  0.31739278532E+04  0.30745184875E+04 0.  0.
        1    1    3    3  502    0 -0.68687651523E+03 -0.96959004816E+03  0.14009286783E+04  0.18369826810E+04  0.50400001928E-02 0.  1.
       -1    1    3    3    0  502  0.68687651523E+03  0.96959004816E+03 -0.61279538560E+03  0.13369451721E+04  0.50400001928E-02 0. -1.
</event>
<event>
 5   0  0.6792811E-06  0.2465260E+04  0.7818609E-02  0.8415468E-01
        2   -1    0    0  501    0  0.00000000000E+00  0.00000000000E+00  0.15852520763E+04  0.15852520763E+04  0.25500000920E-02 0.  1.
       -2   -1    0    0    0  501  0.00000000000E+00  0.00000000000E+00 -0.95844449471E+03  0.95844449471E+03  0.25500000920E-02 0. -1.
    10030    2    1    2    0    0  0.00000000000E+00  0.00000000000E+00  0.62680758162E+03  0.25436965710E+04  0.24652595200E+04 0.  0.
        2    1    3    3  502    0  0.32246788720E+03  0.15094707066E+03 -0.90423008955E+03  0.97180379258E+03  0.25500000920E-02 0. -1.
       -2    1    3    3    0  502 -0.32246788720E+03 -0.15094707066E+03  0.15310376712E+04  0.15718927785E+04  0.25500000920E-02 0.  1.
</event>
<event>
 5   0  0.6792811E-06  0.3012118E+04  0.7818609E-02  0.8240279E-01
        2   -1    0    0  501    0  0.00000000000E+00  0.00000000000E+00  0.15967229009E+04  0.15967229009E+04  0.25500000920E-02 0. -1.
       -2   -1    0    0    0  501  0.00000000000E+00  0.00000000000E+00 -0.14205434693E+04  0.14205434693E+04  0.25500000920E-02 0.  1.
    10030    2    1    2    0    0  0.00000000000E+00  0.00000000000E+00  0.17617943164E+03  0.30172663702E+04  0.30121183836E+04 0.  0.
        2    1    3    3  502    0 -0.80054527874E+03 -0.11760899111E+04  0.58305369788E+03  0.15375343368E+04  0.25500000920E-02 0. -1.
       -2    1    3    3    0  502  0.80054527874E+03  0.11760899111E+04 -0.40687426624E+03  0.14797320334E+04  0.25500000920E-02 0.  1.
</event>
<event>
 5   0  0.2552990E-06  0.3003386E+04  0.7818609E-02  0.8242765E-01
        1   -1    0    0  501    0  0.00000000000E+00  0.00000000000E+00  0.13540142856E+04  0.13540142856E+04  0.50400001928E-02 0. -1.
       -1   -1    0    0    0  501  0.00000000000E+00  0.00000000000E+00 -0.16654782608E+04  0.16654782608E+04  0.50400001928E-02 0.  1.
    10030    2    1    2    0    0  0.00000000000E+00  0.00000000000E+00 -0.31146397515E+03  0.30194925464E+04  0.30033856612E+04 0.  0.
        3    1    3    3  502    0  0.45601693301E+03  0.12726942281E+03 -0.15884825668E+04  0.16575360703E+04  0.10100000352E+00 0.  1.
       -3    1    3    3    0  502 -0.45601693301E+03 -0.12726942281E+03  0.12770185916E+04  0.13619564761E+04  0.10100000352E+00 0. -1.
</event>
<event>
 5   0  0.2628425E-06  0.2986404E+04  0.7818609E-02  0.8247624E-01
       -1   -1    0    0    0  501  0.00000000000E+00  0.00000000000E+00  0.10512538184E+04  0.10512538184E+04  0.50400001928E-02 0.  1.
        1   -1    0    0  501    0  0.00000000000E+00  0.00000000000E+00 -0.21209460657E+04  0.21209460657E+04  0.50400001928E-02 0. -1.
    10030    2    1    2    0    0  0.00000000000E+00  0.00000000000E+00 -0.10696922473E+04  0.31721998841E+04  0.29864042929E+04 0.  0.
        1    1    3    3  502    0 -0.76081005378E+03 -0.11786993759E+04 -0.10780192003E+04  0.17692624319E+04  0.50400001928E-02 0.  1.
       -1    1    3    3    0  502  0.76081005378E+03  0.11786993759E+04  0.83269529166E+01  0.14029374522E+04  0.50400001928E-02 0. -1.
</event>
<event>
 5   0  0.2552990E-06  0.3015510E+04  0.7818609E-02  0.8239316E-01
       -1   -1    0    0    0  501  0.00000000000E+00  0.00000000000E+00  0.12384330629E+04  0.12384330629E+04  0.50400001928E-02 0.  1.
        1   -1    0    0  501    0  0.00000000000E+00  0.00000000000E+00 -0.18356459598E+04  0.18356459598E+04  0.50400001928E-02 0. -1.
    10030    2    1    2    0    0  0.00000000000E+00  0.00000000000E+00 -0.59721289692E+03  0.30740790227E+04  0.30155096740E+04 0.  0.
        3    1    3    3  502    0 -0.14311901095E+04 -0.33234099816E+03 -0.64366103529E+03  0.16040745641E+04  0.10100000352E+00 0. -1.
       -3    1    3    3    0  502  0.14311901095E+04  0.33234099816E+03  0.46448138376E+02  0.14700044586E+04  0.10100000352E+00 0.  1.
</event>
<event>
 5   0  0.2298500E-06  0.3000313E+04  0.7818609E-02  0.8243642E-01
        3   -1    0    0  501    0  0.00000000000E+00  0.00000000000E+00  0.11252190839E+04  0.11252190885E+04  0.10100000352E+00 0. -1.
       -3   -1    0    0    0  501  0.00000000000E+00  0.00000000000E+00 -0.20000273339E+04  0.20000273365E+04  0.10100000352E+00 0.  1.
    10030    2    1    2    0    0  0.00000000000E+00  0.00000000000E+00 -0.87480825000E+03  0.31252464250E+04  0.30003126075E+04 0.  0.
        3    1    3    3  502    0 -0.11821250058E+04 -0.59085488558E+03 -0.11768512640E+04  0.17696067170E+04  0.10100000352E+00 0.  1.
       -3    1    3    3    0  502  0.11821250058E+04  0.59085488558E+03  0.30204301397E+03  0.13556397079E+04  0.10100000352E+00 0. -1.
</event>
<event>
 5   0  0.2504260E-06  0.2995951E+04  0.7818609E-02  0.8244888E-01
       -1   -1    0    0    0  501  0.00000000000E+00  0.00000000000E+00  0.10755885780E+04  0.10755885781E+04  0.50400001928E-02 0. -1.
        1   -1    0    0  501    0  0.00000000000E+00  0.00000000000E+00 -0.20862354357E+04  0.20862354357E+04  0.50400001928E-02 0.  1.
    10030    2    1    2    0    0  0.00000000000E+00  0.00000000000E+00 -0.10106468577E+04  0.31618240138E+04  0.29959512718E+04 0.  0.
        4    1    3    3  502    0  0.18267219303E+03  0.51305899305E+02 -0.20735015791E+04  0.20821651800E+04  0.12699999809E+01 0.  1.
       -4    1    3    3    0  502 -0.18267219303E+03 -0.51305899305E+02  0.10628547215E+04  0.10796588337E+04  0.12699999809E+01 0. -1.
</event>
<event>
 5   0  0.2504260E-06  0.2332047E+04  0.7818609E-02  0.8465391E-01
        1   -1    0    0  501    0  0.00000000000E+00  0.00000000000E+00  0.13976573746E+04  0.13976573746E+04  0.50400001928E-02 0.  1.
       -1   -1    0    0    0  501  0.00000000000E+00  0.00000000000E+00 -0.97277871195E+03  0.97277871196E+03  0.50400001928E-02 0. -1.
    10030    2    1    2    0    0  0.00000000000E+00  0.00000000000E+00  0.42487866265E+03  0.23704360866E+04  0.23320474615E+04 0.  0.
        4    1    3    3  502    0  0.66019641543E+03  0.18693349459E+03  0.11707237455E+04  0.13569816283E+04  0.12699999809E+01 0.  1.
       -4    1    3    3    0  502 -0.66019641543E+03 -0.18693349459E+03 -0.74584508290E+03  0.10134544582E+04  0.12699999809E+01 0. -1.
</event>
<event>
 5   0  0.7217255E-06  0.3031239E+04  0.7818609E-02  0.8234866E-01
        2   -1    0    0  501    0  0.00000000000E+00  0.00000000000E+00  0.22480755302E+04  0.22480755302E+04  0.25500000920E-02 0. -1.
       -2   -1    0    0    0  501  0.00000000000E+00  0.00000000000E+00 -0.10218085479E+04  0.10218085479E+04  0.25500000920E-02 0.  1.
    10030    2    1    2    0    0  0.00000000000E+00  0.00000000000E+00  0.12262669822E+04  0.32698840781E+04  0.30312392140E+04 0.  0.
        1    1    3    3  502    0  0.90107224166E+03  0.16941486695E+02  0.19276271540E+04  0.21279014647E+04  0.50400001928E-02 0. -1.
       -1    1    3    3    0  502 -0.90107224166E+03 -0.16941486695E+02 -0.70136017179E+03  0.11419826134E+04  0.50400001928E-02 0.  1.
</event>
<event>
 5   0  0.7201538E-06  0.3058647E+04  0.7818609E-02  0.8227179E-01
       -2   -1    0    0    0  501  0.00000000000E+00  0.00000000000E+00  0.10182720141E+04  0.10182720141E+04  0.25500000920E-02 0.  1.
        2   -1    0    0  501    0  0.00000000000E+00  0.00000000000E+00 -0.22968618600E+04  0.22968618600E+04  0.25500000920E-02 0. -1.
    10030    2    1    2    0    0  0.00000000000E+00  0.00000000000E+00 -0.12785898459E+04  0.33151338742E+04  0.30586468593E+04 0.  0.
        3    1    3    3  502    0  0.69197140854E+02  0.14035022150E+04 -0.12934122803E+04  0.19098486979E+04  0.10100000352E+00 0.  1.
       -3    1    3    3    0  502 -0.69197140854E+02 -0.14035022150E+04  0.14822434387E+02  0.14052851763E+04  0.10100000352E+00 0. -1.
</event>
<event>
 5   0  0.2298500E-06  0.2789523E+04  0.7818609E-02  0.8306528E-01
        3   -1    0    0  501    0  0.00000000000E+00  0.00000000000E+00  0.16141417156E+04  0.16141417188E+04  0.10100000352E+00 0.  1.
       -3   -1    0    0    0  501  0.00000000000E+00  0.00000000000E+00 -0.12051975793E+04  0.12051975835E+04  0.10100000352E+00 0. -1.
    10030    2    1    2    0    0  0.00000000000E+00  0.00000000000E+00  0.40894413635E+03  0.28193393023E+04  0.27895230407E+04 0.  0.
        2    1    3    3  502    0  0.12325866390E+04 -0.15112850953E+02 -0.45508377322E+03  0.13140013172E+04  0.25500000920E-02 0. -1.
       -2    1    3    3    0  502 -0.12325866390E+04  0.15112850953E+02  0.86402790957E+03  0.15053379851E+04  0.25500000920E-02 0.  1.
</event>
<event>
 5   0  0.6792811E-06  0.2982710E+04  0.7818609E-02  0.8248685E-01
        2   -1    0    0  501    0  0.00000000000E+00  0.00000000000E+00  0.22387067446E+04  0.22387067446E+04  0.25500000920E-02 0.  1.
       -2   -1    0    0    0  501  0.00000000000E+00  0.00000000000E+00 -0.99349319423E+03  0.99349319424E+03  0.25500000920E-02 0. -1.
    10030    2    1    2    0    0  0.00000000000E+00  0.00000000000E+00  0.12452135503E+04  0.32321999388E+04  0.29827101198E+04 0.  0.
        2    1    3    3  502    0  0.10142496983E+04 -0.10903592064E+04  0.71033698545E+03  0.16498982643E+04  0.25500000920E-02 0. -1.
       -2    1    3    3    0  502 -0.10142496983E+04  0.10903592064E+04  0.53487656488E+03  0.15823016745E+04  0.25500000920E-02 0.  1.
</event>
<event>
 5   0  0.7193153E-06  0.2996006E+04  0.7818609E-02  0.8244872E-01
       -2   -1    0    0    0  501  0.00000000000E+00  0.00000000000E+00  0.21580504234E+04  0.21580504234E+04  0.25500000920E-02 0. -1.
        2   -1    0    0  501    0  0.00000000000E+00  0.00000000000E+00 -0.10398336883E+04  0.10398336883E+04  0.25500000920E-02 0.  1.
    10030    2    1    2    0    0  0.00000000000E+00  0.00000000000E+00  0.11182167352E+04  0.31978841117E+04  0.29960063626E+04 0.  0.
        4    1    3    3  502    0  0.12101066732E+04 -0.47942395299E+03 -0.23234420972E+03  0.13221917153E+04  0.12699999809E+01 0.  1.
       -4    1    3    3    0  502 -0.12101066732E+04  0.47942395299E+03  0.13505609449E+04  0.18756923964E+04  0.12699999809E+01 0. -1.
</event>
<event>
 5   0  0.2504260E-06  0.2991068E+04  0.7818609E-02  0.8246286E-01
        1   -1    0    0  501    0  0.00000000000E+00  0.00000000000E+00  0.17391157627E+04  0.17391157627E+04  0.50400001928E-02 0.  1.
       -1   -1    0    0    0  501  0.00000000000E+00  0.00000000000E+00 -0.12860683429E+04  0.12860683429E+04  0.50400001928E-02 0. -1.
    10030    2    1    2    0    0  0.00000000000E+00  0.00000000000E+00  0.45304741981E+03  0.30251841057E+04  0.29910678542E+04 0.  0.
        4    1    3    3  502    0 -0.52433395196E+03 -0.23822054877E+03 -0.11694163293E+04  0.13035379884E+04  0.12699999809E+01 0. -1.
       -4    1    3    3    0  502  0.52433395196E+03  0.23822054877E+03  0.16224637491E+04  0.17216461173E+04  0.12699999809E+01 0.  1.
</event>
<event>
 5   0  0.6780150E-06  0.3038186E+04  0.7818609E-02  0.8232910E-01
       -2   -1    0    0    0  501  0.00000000000E+00  0.00000000000E+00  0.14942765130E+04  0.14942765130E+04  0.25500000920E-02 0.  1.
        2   -1    0    0  501    0  0.00000000000E+00  0.00000000000E+00 -0.15443212709E+04  0.15443212709E+04  0.25500000920E-02 0. -1.
    10030    2    1    2    0    0  0.00000000000E+00  0.00000000000E+00 -0.50044757945E+02  0.30385977839E+04  0.30381856452E+04 0.  0.
        5    1    3    3  502    0  0.65551676376E+02  0.26428604301E+03  0.14696624625E+04  0.14946818987E+04  0.46999998093E+01 0.  1.
       -5    1    3    3    0  502 -0.65551676376E+02 -0.26428604301E+03 -0.15197072204E+04  0.15439158852E+04  0.46999998093E+01 0. -1.
</event>
<event>
 5   0  0.7201538E-06  0.3025979E+04  0.7818609E-02  0.8236351E-01
       -2   -1    0    0    0  501  0.00000000000E+00  0.00000000000E+00  0.12326909114E+04  0.12326909114E+04  0.25500000920E-02 0.  1.
        2   -1    0    0  501    0  0.00000000000E+00  0.00000000000E+00 -0.18570245789E+04  0.18570245789E+04  0.25500000920E-02 0. -1.
    10030    2    1    2    0    0  0.00000000000E+00  0.00000000000E+00 -0.62433366757E+03  0.30897154903E+04  0.30259790618E+04 0.  0.
        3    1    3    3  502    0  0.75017607636E+03  0.10345371339E+04 -0.11392317600E+04  0.17119813785E+04  0.10100000352E+00 0. -1.
       -3    1    3    3    0  502 -0.75017607636E+03 -0.10345371339E+04  0.51489809247E+03  0.13777341118E+04  0.10100000352E+00 0.  1.
</event>
<event>
 5   0  0.2504260E-06  0.3066360E+04  0.7818609E-02  0.8225031E-01
       -1   -1    0    0    0  501  0.00000000000E+00  0.00000000000E+00  0.97447339133E+03  0.97447339134E+03  0.50400001928E-02 0.  1.
        1   -1    0    0  501    0  0.00000000000E+00  0.00000000000E+00 -0.24122173277E+04  0.24122173277E+04  0.50400001928E-02 0. -1.
    10030    2    1    2    0    0  0.00000000000E+00  0.00000000000E+00 -0.14377439364E+04  0.33866907191E+04  0.30663604485E+04 0.  0.
        4    1    3    3  502    0 -0.14819164641E+04 -0.38441361485E+03 -0.62786401897E+03  0.16547099665E+04  0.12699999809E+01 0.  1.
       -4    1    3    3    0  502  0.14819164641E+04  0.38441361485E+03 -0.80987991743E+03  0.17319807526E+04  0.12699999809E+01 0. -1.
</event>
<event>
 5   0  0.2552990E-06  0.2972136E+04  0.7818609E-02  0.8251733E-01
       -1   -1    0    0    0  501  0.00000000000E+00  0.00000000000E+00  0.21092368085E+04  0.21092368085E+04  0.50400001928E-02 0. -1.
        1   -1    0    0  501    0  0.00000000000E+00  0.00000000000E+00 -0.10470127620E+04  0.10470127620E+04  0.50400001928E-02 0.  1.
    10030    2    1    2    0    0  0.00000000000E+00  0.00000000000E+00  0.10622240466E+04  0.31562495705E+04  0.29721358358E+04 0.  0.
        3    1    3    3  502    0  0.12731408676E+04  0.76537444984E+03  0.48717092235E+03  0.15633365713E+04  0.10100000352E+00 0. -1.
       -3    1    3    3    0  502 -0.12731408676E+04 -0.76537444984E+03  0.57505312424E+03  0.15929129992E+04  0.10100000352E+00 0.  1.
</event>
<event>
 5   0  0.7193153E-06  0.2980694E+04  0.7818609E-02  0.8249265E-01
        2   -1    0    0  501    0  0.00000000000E+00  0.00000000000E+00  0.12650290129E+04  0.12650290129E+04  0.25500000920E-02 0.  1.
       -2   -1    0    0    0  501  0.00000000000E+00  0.00000000000E+00 -0.17557967644E+04  0.17557967644E+04  0.25500000920E-02 0. -1.
    10030    2    1    2    0    0  0.00000000000E+00  0.00000000000E+00 -0.49076775152E+03  0.30208257773E+04  0.29806937768E+04 0.  0.
        4    1    3    3  502    0  0.46797341556E+03  0.58949918871E+03 -0.15490247063E+04  0.17222042750E+04  0.12699999809E+01 0. -1.
       -4    1    3    3    0  502 -0.46797341556E+03 -0.58949918871E+03  0.10582569548E+04  0.12986215023E+04  0.12699999809E+01 0.  1.
</event>
<event>
 5   0  0.7201538E-06  0.2976353E+04  0.7818609E-02  0.8250516E-01
        2   -1    0    0  501    0  0.00000000000E+00  0.00000000000E+00  0.17010428031E+04  0.17010428031E+04  0.25500000920E-02 0. -1.
       -2   -1    0    0    0  501  0.00000000000E+00  0.00000000000E+00 -0.13019477448E+04  0.13019477448E+04  0.25500000920E-02 0.  1.
    10030    2    1    2    0    0  0.00000000000E+00  0.00000000000E+00  0.39909505824E+03  0.30029905479E+04  0.29763526950E+04 0.  0.
        3    1    3    3  502    0 -0.44435220001E+03  0.72530228174E+03  0.14316056414E+04  0.16652348183E+04  0.10100000352E+00 0. -1.
       -3    1    3    3    0  502  0.44435220001E+03 -0.72530228174E+03 -0.10325105831E+04  0.13377557296E+04  0.10100000352E+00 0.  1.
</event>
<event>
 5   0  0.6792811E-06  0.3041350E+04  0.7818609E-02  0.8232021E-01
       -2   -1    0    0    0  501  0.00000000000E+00  0.00000000000E+00  0.12922944958E+04  0.12922944958E+04  0.25500000920E-02 0.  1.
        2   -1    0    0  501    0  0.00000000000E+00  0.00000000000E+00 -0.17894157326E+04  0.17894157326E+04  0.25500000920E-02 0. -1.
    10030    2    1    2    0    0  0.00000000000E+00  0.00000000000E+00 -0.49712123682E+03  0.30817102284E+04  0.30413497674E+04 0.  0.
        2    1    3    3  502    0  0.89668329755E+03  0.10038076597E+04 -0.96561072341E+03  0.16565249237E+04  0.25500000920E-02 0. -1.
       -2    1    3    3    0  502 -0.89668329755E+03 -0.10038076597E+04  0.46848948660E+03  0.14251853047E+04  0.25500000920E-02 0.  1.
</event>
<event>
 5   0  0.6792811E-06  0.2155158E+04  0.7818609E-02  0.8537328E-01
        2   -1    0    0  501    0  0.00000000000E+00  0.00000000000E+00  0.12089533434E+04  0.12089533434E+04  0.25500000920E-02 0.  1.
       -2   -1    0    0    0  501  0.00000000000E+00  0.00000000000E+00 -0.96048074424E+03  0.96048074424E+03  0.25500000920E-02 0. -1.
    10030    2    1    2    0    0  0.00000000000E+00  0.00000000000E+00  0.24847259911E+03  0.21694340876E+04  0.21551579125E+04 0.  0.
        2    1    3    3  502    0 -0.96485531852E+03  0.30327826169E+03 -0.25005050350E+03  0.10418487145E+04  0.25500000920E-02 0. -1.
       -2    1    3    3    0  502  0.96485531852E+03 -0.30327826169E+03  0.49852310261E+03  0.11275853731E+04  0.25500000920E-02 0.  1.
</event>
<event>
 5   0  0.7193153E-06  0.2823184E+04  0.7818609E-02  0.8296107E-01
        2   -1    0    0  501    0  0.00000000000E+00  0.00000000000E+00  0.19181030830E+04  0.19181030830E+04  0.25500000920E-02 0.  1.
       -2   -1    0    0    0  501  0.00000000000E+00  0.00000000000E+00 -0.10388343741E+04  0.10388343742E+04  0.25500000920E-02 0. -1.
    10030    2    1    2    0    0  0.00000000000E+00  0.00000000000E+00  0.87926870888E+03  0.29569374572E+04  0.28231836042E+04 0.  0.
        4    1    3    3  502    0  0.39745241842E+03  0.13372426023E+04  0.66525500919E+03  0.15455588124E+04  0.12699999809E+01 0. -1.
       -4    1    3    3    0  502 -0.39745241842E+03 -0.13372426023E+04  0.21401369969E+03  0.14113786448E+04  0.12699999809E+01 0.  1.
</event>
<event>
 5   0  0.6780150E-06  0.2776784E+04  0.7818609E-02  0.8310512E-01
       -2   -1    0    0    0  501  0.00000000000E+00  0.00000000000E+00  0.92359291839E+03  0.92359291839E+03  0.25500000920E-02 0.  1.
        2   -1    0    0  501    0  0.00000000000E+00  0.00000000000E+00 -0.20871023192E+04  0.20871023192E+04  0.25500000920E-02 0. -1.
    10030    2    1    2    0    0  0.00000000000E+00  0.00000000000E+00 -0.11635094008E+04  0.30106952376E+04  0.27767844151E+04 0.  0.
        5    1    3    3  502    0  0.29758566465E+03 -0.13480750054E+04 -0.42186218211E+03  0.14435557623E+04  0.46999998093E+01 0.  1.
       -5    1    3    3    0  502 -0.29758566465E+03  0.13480750054E+04 -0.74164721871E+03  0.15671394753E+04  0.46999998093E+01 0. -1.
</event>
<event>
 5   0  0.6780150E-06  0.2981435E+04  0.7818609E-02  0.8249052E-01
       -2   -1    0    0    0  501  0.00000000000E+00  0.00000000000E+00  0.76662336447E+03  0.76662336447E+03  0.25500000920E-02 0.  1.
        2   -1    0    0  501    0  0.00000000000E+00  0.00000000000E+00 -0.28987366596E+04  0.28987366596E+04  0.25500000920E-02 0. -1.
    10030    2    1    2    0    0  0.00000000000E+00  0.00000000000E+00 -0.21321132951E+04  0.36653600241E+04  0.29814353930E+04 0.  0.
        5    1    3    3  502    0  0.12213983840E+04  0.27794541300E+03 -0.72488788386E+02  0.12547288072E+04  0.46999998093E+01 0.  1.
       -5    1    3    3    0  502 -0.12213983840E+04 -0.27794541300E+03 -0.20596245068E+04  0.24106312169E+04  0.46999998093E+01 0. -1.
</event>
<event>
 5   0  0.7201538E-06  0.2970885E+04  0.7818609E-02  0.8252094E-01
       -2   -1    0    0    0  501  0.00000000000E+00  0.00000000000E+00  0.79989470189E+03  0.79989470190E+03  0.25500000920E-02 0.  1.
        2   -1    0    0  501    0  0.00000000000E+00  0.00000000000E+00 -0.27585368918E+04  0.27585368918E+04  0.25500000920E-02 0. -1.
    10030    2    1    2    0    0  0.00000000000E+00  0.00000000000E+00 -0.19586421899E+04  0.35584315937E+04  0.29708847468E+04 0.  0.
        3    1    3    3  502    0  0.64694698762E+03 -0.12626049528E+04 -0.15066485231E+04  0.20694688821E+04  0.10100000352E+00 0. -1.
       -3    1    3    3    0  502 -0.64694698762E+03  0.12626049528E+04 -0.45199366686E+03  0.14889627117E+04  0.10100000352E+00 0.  1.
</event>
<event>
 5   0  0.2628425E-06  0.3204048E+04  0.7818609E-02  0.8187749E-01
        1   -1    0    0  501    0  0.00000000000E+00  0.00000000000E+00  0.24129965580E+04  0.24129965580E+04  0.50400001928E-02 0. -1.
       -1   -1    0    0    0  501  0.00000000000E+00  0.00000000000E+00 -0.10636076467E+04  0.10636076467E+04  0.50400001928E-02 0.  1.
    10030    2    1    2    0    0  0.00000000000E+00  0.00000000000E+00  0.13493889113E+04  0.34766042047E+04  0.32040484332E+04 0.  0.
        1    1    3    3  502    0 -0.89977274153E+03 -0.67751364074E+03 -0.56145529276E+03  0.12585101373E+04  0.50400001928E-02 0.  1.
       -1    1    3    3    0  502  0.89977274153E+03  0.67751364074E+03  0.19108442040E+04  0.22180940674E+04  0.50400001928E-02 0. -1.
</event>
<event>
 5   0  0.2628425E-06  0.3021326E+04  0.7818609E-02  0.8237667E-01
        1   -1    0    0  501    0  0.00000000000E+00  0.00000000000E+00  0.21379555087E+04  0.21379555087E+04  0.50400001928E-02 0.  1.
       -1   -1    0    0    0  501  0.00000000000E+00  0.00000000000E+00 -0.10674229028E+04  0.10674229028E+04  0.50400001928E-02 0. -1.
    10030    2    1    2    0    0  0.00000000000E+00  0.00000000000E+00  0.10705326059E+04  0.32053784115E+04  0.30213259838E+04 0.  0.
        1    1    3    3  502    0 -0.26266954869E+03  0.35332377753E+03 -0.99784969168E+03  0.10906589709E+04  0.50400001928E-02 0. -1.
       -1    1    3    3    0  502  0.26266954869E+03 -0.35332377753E+03  0.20683822976E+04  0.21147194406E+04  0.50400001928E-02 0.  1.
</event>
<event>
 5   0  0.6792811E-06  0.3026740E+04  0.7818609E-02  0.8236136E-01
       -2   -1    0    0    0  501  0.00000000000E+00  0.00000000000E+00  0.13962487533E+04  0.13962487533E+04  0.25500000920E-02 0.  1.
        2   -1    0    0  501    0  0.00000000000E+00  0.00000000000E+00 -0.16403154258E+04  0.16403154258E+04  0.25500000920E-02 0. -1.
    10030    2    1    2    0    0  0.00000000000E+00  0.00000000000E+00 -0.24406667248E+03  0.30365641792E+04  0.30267397433E+04 0.  0.
        2    1    3    3  502    0 -0.14501086329E+04 -0.67822429865E+02  0.30699176397E+03  0.14837987978E+04  0.25500000920E-02 0.  1.
       -2    1    3    3    0  502  0.14501086329E+04  0.67822429865E+02 -0.55105843645E+03  0.15527653814E+04  0.25500000920E-02 0. -1.
</event>
<event>
 5   0  0.7193153E-06  0.2545301E+04  0.7818609E-02  0.8387022E-01
       -2   -1    0    0    0  501  0.00000000000E+00  0.00000000000E+00  0.12401180412E+04  0.12401180412E+04  0.25500000920E-02 0.  1.
        2   -1    0    0  501    0  0.00000000000E+00  0.00000000000E+00 -0.13060368755E+04  0.13060368755E+04  0.25500000920E-02 0. -1.
    10030    2    1    2    0    0  0.00000000000E+00  0.00000000000E+00 -0.65918834257E+02  0.25461549167E+04  0.25453014688E+04 0.  0.
        4    1    3    3  502    0  0.21955264207E+01  0.67168323257E+03  0.10483632970E+04  0.12450824875E+04  0.12699999809E+01 0.  1.
       -4    1    3    3    0  502 -0.21955264207E+01 -0.67168323257E+03 -0.11142821312E+04  0.13010724293E+04  0.12699999809E+01 0. -1.
</event>
<event>
 5   0  0.2672155E-06  0.2974215E+04  0.7818609E-02  0.8251133E-01
       -1   -1    0    0    0  501  0.00000000000E+00  0.00000000000E+00  0.11083760590E+04  0.11083760591E+04  0.50400001928E-02 0.  1.
        1   -1    0    0  501    0  0.00000000000E+00  0.00000000000E+00 -0.19952506961E+04  0.19952506961E+04  0.50400001928E-02 0. -1.
    10030    2    1    2    0    0  0.00000000000E+00  0.00000000000E+00 -0.88687463702E+03  0.31036267551E+04  0.29742145876E+04 0.  0.
        5    1    3    3  502    0  0.60980738551E+03 -0.10232650600E+04 -0.13724142481E+04  0.18172725137E+04  0.46999998093E+01 0. -1.
       -5    1    3    3    0  502 -0.60980738551E+03  0.10232650600E+04  0.48553961111E+03  0.12863542414E+04  0.46999998093E+01 0.  1.
</event>
<event>
 5   0  0.7217255E-06  0.2962625E+04  0.7818609E-02  0.8254485E-01
        2   -1    0    0  501    0  0.00000000000E+00  0.00000000000E+00  0.23824357133E+04  0.23824357133E+04  0.25500000920E-02 0. -1.
       -2   -1    0    0    0  501  0.00000000000E+00  0.00000000000E+00 -0.92102668536E+03  0.92102668536E+03  0.25500000920E-02 0.  1.
    10030    2    1    2    0    0  0.00000000000E+00  0.00000000000E+00  0.14614090280E+04  0.33034623987E+04  0.29626250982E+04 0.  0.
        1    1    3    3  502    0 -0.80746792750E+03  0.64984398503E+03  0.19107501791E+04  0.21737681352E+04  0.50400001928E-02 0. -1.
       -1    1    3    3    0  502  0.80746792750E+03 -0.64984398503E+03 -0.44934115111E+03  0.11296942635E+04  0.50400001928E-02 0.  1.
</event>
<event>
 5   0  0.2672155E-06  0.2984715E+04  0.7818609E-02  0.8248109E-01
        1   -1    0    0  501    0  0.00000000000E+00  0.00000000000E+00  0.81124816404E+03  0.81124816406E+03  0.50400001928E-02 0. -1.
       -1   -1    0    0    0  501  0.00000000000E+00  0.00000000000E+00 -0.27453140917E+04  0.27453140917E+04  0.50400001928E-02 0.  1.
    10030    2    1    2    0    0  0.00000000000E+00  0.00000000000E+00 -0.19340659277E+04  0.35565622558E+04  0.29847150729E+04 0.  0.
        5    1    3    3  502    0  0.83737002358E+03  0.23812934957E+03 -0.24113754324E+04  0.25637175565E+04  0.46999998093E+01 0.  1.
       -5    1    3    3    0  502 -0.83737002358E+03 -0.23812934957E+03  0.47730950475E+03  0.99284469926E+03  0.46999998093E+01 0. -1.
</event>
<event>
 5   0  0.2504260E-06  0.2856527E+04  0.7818609E-02  0.8285931E-01
        1   -1    0    0  501    0  0.00000000000E+00  0.00000000000E+00  0.15577678897E+04  0.15577678897E+04  0.50400001928E-02 0.  1.
       -1   -1    0    0    0  501  0.00000000000E+00  0.00000000000E+00 -0.13095252536E+04  0.13095252536E+04  0.50400001928E-02 0. -1.
    10030    2    1    2    0    0  0.00000000000E+00  0.00000000000E+00  0.24824263607E+03  0.28672931434E+04  0.28565268358E+04 0.  0.
        4    1    3    3  502    0 -0.84361898866E+03  0.52944507038E+03 -0.90342134305E+03  0.13446846532E+04  0.12699999809E+01 0. -1.
       -4    1    3    3    0  502  0.84361898866E+03 -0.52944507038E+03  0.11516639791E+04  0.15226084902E+04  0.12699999809E+01 0.  1.
</event>
<event>
 5   0  0.2628425E-06  0.2671421E+04  0.7818609E-02  0.8344338E-01
       -1   -1    0    0    0  501  0.00000000000E+00  0.00000000000E+00  0.88967969078E+03  0.88967969079E+03  0.50400001928E-02 0.  1.
        1   -1    0    0  501    0  0.00000000000E+00  0.00000000000E+00 -0.20053541390E+04  0.20053541390E+04  0.50400001928E-02 0. -1.
    10030    2    1    2    0    0  0.00000000000E+00  0.00000000000E+00 -0.11156744482E+04  0.28950338298E+04  0.26714212325E+04 0.  0.
        1    1    3    3  502    0 -0.71766225847E+03  0.72729561145E+03 -0.14901545515E+04  0.18068089581E+04  0.50400001928E-02 0. -1.
       -1    1    3    3    0  502  0.71766225847E+03 -0.72729561145E+03  0.37448010325E+03  0.10882248717E+04  0.50400001928E-02 0.  1.
</event>
<event>
 5   0  0.2628425E-06  0.3022318E+04  0.7818609E-02  0.8237387E-01
        1   -1    0    0  501    0  0.00000000000E+00  0.00000000000E+00  0.19865923772E+04  0.19865923772E+04  0.50400001928E-02 0. -1.
       -1   -1    0    0    0  501  0.00000000000E+00  0.00000000000E+00 -0.11495065049E+04  0.11495065049E+04  0.50400001928E-02 0.  1.
    10030    2    1    2    0    0  0.00000000000E+00  0.00000000000E+00  0.83708587233E+03  0.31360988821E+04  0.30223175612E+04 0.  0.
        1    1    3    3  502    0  0.52993516155E+03  0.33655725418E+03  0.18448826128E+04  0.19487672810E+04  0.50400001928E-02 0. -1.
       -1    1    3    3    0  502 -0.52993516155E+03 -0.33655725418E+03 -0.10077967404E+04  0.11873316010E+04  0.50400001928E-02 0.  1.
</event>
<event>
 5   0  0.2628425E-06  0.3010750E+04  0.7818609E-02  0.8240668E-01
        1   -1    0    0  501    0  0.00000000000E+00  0.00000000000E+00  0.25119214185E+04  0.25119214185E+04  0.50400001928E-02 0. -1.
       -1   -1    0    0    0  501  0.00000000000E+00  0.00000000000E+00 -0.90215942852E+03  0.90215942853E+03  0.50400001928E-02 0.  1.
    10030    2    1    2    0    0  0.00000000000E+00  0.00000000000E+00  0.16097619899E+04  0.34140808470E+04  0.30107498012E+04 0.  0.
        1    1    3    3  502    0 -0.90160850188E+02  0.11450356523E+04  0.19083377394E+04  0.22273276704E+04  0.50400001928E-02 0. -1.
       -1    1    3    3    0  502  0.90160850188E+02 -0.11450356523E+04 -0.29857574947E+03  0.11867531765E+04  0.50400001928E-02 0.  1.
</event>
<event>
 5   0  0.2422083E-06  0.2999694E+04  0.7818609E-02  0.8243818E-01
        1   -1    0    0  501    0  0.00000000000E+00  0.00000000000E+00  0.20085045536E+04  0.20085045536E+04  0.50400001928E-02 0.  1.
       -1   -1    0    0    0  501  0.00000000000E+00  0.00000000000E+00 -0.11200075581E+04  0.11200075581E+04  0.50400001928E-02 0. -1.
    10030    2    1    2    0    0  0.00000000000E+00  0.00000000000E+00  0.88849699551E+03  0.31285121117E+04  0.29996935047E+04 0.  0.
        2    1    3    3  502    0 -0.10233988124E+04 -0.22458714651E+03  0.15635347133E+04  0.18821331822E+04  0.25500000920E-02 0.  1.
       -2    1    3    3    0  502  0.10233988124E+04  0.22458714651E+03 -0.67503771782E+03  0.12463789296E+04  0.25500000920E-02 0. -1.
</event>
<event>
 5   0  0.2672155E-06  0.2717240E+04  0.7818609E-02  0.8329433E-01
       -1   -1    0    0    0  501  0.00000000000E+00  0.00000000000E+00  0.92762595722E+03  0.92762595724E+03  0.50400001928E-02 0. -1.
        1   -1    0    0  501    0  0.00000000000E+00  0.00000000000E+00 -0.19898626895E+04  0.19898626895E+04  0.50400001928E-02 0.  1.
    10030    2    1    2    0    0  0.00000000000E+00  0.00000000000E+00 -0.10622367322E+04  0.29174886467E+04  0.27172399836E+04 0.  0.
        5    1    3    3  502    0  0.85181014385E+03 -0.10560758265E+04 -0.60665588224E+03  0.14862469923E+04  0.46999998093E+01 0.  1.
       -5    1    3    3    0  502 -0.85181014385E+03  0.10560758265E+04 -0.45558085001E+03  0.14312416545E+04  0.46999998093E+01 0. -1.
</event>
<event>
 5   0  0.7201538E-06  0.2912128E+04  0.7818609E-02  0.8269278E-01
       -2   -1    0    0    0  501  0.00000000000E+00  0.00000000000E+00  0.20241336783E+04  0.20241336783E+04  0.25500000920E-02 0.  1.
        2   -1    0    0  501    0  0.00000000000E+00  0.00000000000E+00 -0.10474221159E+04  0.10474221159E+04  0.25500000920E-02 0. -1.
    10030    2    1    2    0    0  0.00000000000E+00  0.00000000000E+00  0.97671156246E+03  0.30715557942E+04  0.29121280056E+04 0.  0.
        3    1    3    3  502    0 -0.15348088201E+03 -0.12028364934E+04 -0.36184443628E+03  0.12654261801E+04  0.10100000352E+00 0. -1.
       -3    1    3    3    0  502  0.15348088201E+03  0.12028364934E+04  0.13385559987E+04  0.18061296141E+04  0.10100000352E+00 0.  1.
</event>
<event>
 5   0  0.2552990E-06  0.2948970E+04  0.7818609E-02  0.8258455E-01
        1   -1    0    0  501    0  0.00000000000E+00  0.00000000000E+00  0.16829839788E+04  0.16829839788E+04  0.50400001928E-02 0.  1.
       -1   -1    0    0    0  501  0.00000000000E+00  0.00000000000E+00 -0.12918164210E+04  0.12918164210E+04  0.50400001928E-02 0. -1.
    10030    2    1    2    0    0  0.00000000000E+00  0.00000000000E+00  0.39116755782E+03  0.29748003998E+04  0.29489702203E+04 0.  0.
        3    1    3    3  502    0  0.75054039399E+03  0.62070583378E+02  0.14743396432E+04  0.16555485599E+04  0.10100000352E+00 0.  1.
       -3    1    3    3    0  502 -0.75054039399E+03 -0.62070583378E+02 -0.10831720854E+04  0.13192518399E+04  0.10100000352E+00 0. -1.
</event>
<event>
 5   0  0.2422083E-06  0.2998649E+04  0.7818609E-02  0.8244117E-01
        1   -1    0    0  501    0  0.00000000000E+00  0.00000000000E+00  0.17656969229E+04  0.17656969229E+04  0.50400001928E-02 0. -1.
       -1   -1    0    0    0  501  0.00000000000E+00  0.00000000000E+00 -0.12731368547E+04  0.12731368547E+04  0.50400001928E-02 0.  1.
    10030    2    1    2    0    0  0.00000000000E+00  0.00000000000E+00  0.49256006821E+03  0.30388337775E+04  0.29986489135E+04 0.  0.
        2    1    3    3  502    0 -0.96629811325E+02  0.12105029216E+04 -0.64489028969E+03  0.13749684103E+04  0.25500000920E-02 0.  1.
       -2    1    3    3    0  502  0.96629811325E+02 -0.12105029216E+04  0.11374503579E+04  0.16638653672E+04  0.25500000920E-02 0. -1.
</event>
<event>
 5   0  0.6780150E-06  0.3033833E+04  0.7818609E-02  0.8234135E-01
        2   -1    0    0  501    0  0.00000000000E+00  0.00000000000E+00  0.24133008553E+04  0.24133008553E+04  0.25500000920E-02 0. -1.
       -2   -1    0    0    0  501  0.00000000000E+00  0.00000000000E+00 -0.95348053641E+03  0.95348053641E+03  0.25500000920E-02 0.  1.
    10030    2    1    2    0    0  0.00000000000E+00  0.00000000000E+00  0.14598203189E+04  0.33667813917E+04  0.30338328194E+04 0.  0.
        5    1    3    3  502    0  0.16657087588E+03 -0.54308581824E+02 -0.94220668417E+03  0.95836882485E+03  0.46999998093E+01 0.  1.
       -5    1    3    3    0  502 -0.16657087588E+03  0.54308581824E+02  0.24020270030E+04  0.24084125668E+04  0.46999998093E+01 0. -1.
</event>
<event>
 5   0  0.7201538E-06  0.2952190E+04  0.7818609E-02  0.8257517E-01
       -2   -1    0    0    0  501  0.00000000000E+00  0.00000000000E+00  0.86320164694E+03  0.86320164694E+03  0.25500000920E-02 0. -1.
        2   -1    0    0  501    0  0.00000000000E+00  0.00000000000E+00 -0.25241567229E+04  0.25241567229E+04  0.25500000920E-02 0.  1.
    10030    2    1    2    0    0  0.00000000000E+00  0.00000000000E+00 -0.16609550759E+04  0.33873583698E+04  0.29521898586E+04 0.  0.
        3    1    3    3  502    0  0.11969437357E+04 -0.75070111318E+03 -0.34013153580E+03  0.14532432486E+04  0.10100000352E+00 0. -1.
       -3    1    3    3    0  502 -0.11969437357E+04  0.75070111318E+03 -0.13208235401E+04  0.19341151212E+04  0.10100000352E+00 0.  1.
</event>
<event>
 5   0  0.2628425E-06  0.2985339E+04  0.7818609E-02  0.8247930E-01
       -1   -1    0    0    0  501  0.00000000000E+00  0.00000000000E+00  0.16153163573E+04  0.16153163573E+04  0.50400001928E-02 0. -1.
        1   -1    0    0  501    0  0.00000000000E+00  0.00000000000E+00 -0.13793348186E+04  0.13793348187E+04  0.50400001928E-02 0.  1.
    10030    2    1    2    0    0  0.00000000000E+00  0.00000000000E+00  0.23598153869E+03  0.29946511760E+04  0.29853389053E+04 0.  0.
        1    1    3    3  502    0  0.39559812357E+03 -0.13961665533E+04  0.46877168230E+03  0.15249674784E+04  0.50400001928E-02 0. -1.
       -1    1    3    3    0  502 -0.39559812357E+03  0.13961665533E+04 -0.23279014362E+03  0.14696836976E+04  0.50400001928E-02 0.  1.
</event>
<event>
 5   0  0.7193153E-06  0.2961112E+04  0.7818609E-02  0.8254924E-01
        2   -1    0    0  501    0  0.00000000000E+00  0.00000000000E+00  0.15931620116E+04  0.15931620116E+04  0.25500000920E-02 0. -1.
       -2   -1    0    0    0  501  0.00000000000E+00  0.00000000000E+00 -0.13759087646E+04  0.13759087646E+04  0.25500000920E-02 0.  1.
    10030    2    1    2    0    0  0.00000000000E+00  0.00000000000E+00  0.21725324702E+03  0.29690707762E+04  0.29611116664E+04 0.  0.
        4    1    3    3  502    0  0.70607344785E+03 -0.41399932907E+03 -0.11284272514E+04  0.13940175152E+04  0.12699999809E+01 0.  1.
       -4    1    3    3    0  502 -0.70607344785E+03  0.41399932907E+03  0.13456804984E+04  0.15750532610E+04  0.12699999809E+01 0. -1.
</event>
<event>
 5   0  0.7217255E-06  0.3041613E+04  0.7818609E-02  0.8231947E-01
        2   -1    0    0  501    0  0.00000000000E+00  0.00000000000E+00  0.22564264290E+04  0.22564264290E+04  0.25500000920E-02 0.  1.
       -2   -1    0    0    0  501  0.00000000000E+00  0.00000000000E+00 -0.10250070229E+04  0.10250070229E+04  0.25500000920E-02 0. -1.
    10030    2    1    2    0    0  0.00000000000E+00  0.00000000000E+00  0.12314194060E+04  0.32814334519E+04  0.30416133459E+04 0.  0.
        1    1    3    3  502    0  0.76537467548E+02 -0.45921457441E+03 -0.94624109223E+03  0.10545654147E+04  0.50400001928E-02 0. -1.
       -1    1    3    3    0  502 -0.76537467548E+02  0.45921457441E+03  0.21776604983E+04  0.22268680372E+04  0.50400001928E-02 0.  1.
</event>
<event>
 5   0  0.7201538E-06  0.2955053E+04  0.7818609E-02  0.8256683E-01
        2   -1    0    0  501    0  0.00000000000E+00  0.00000000000E+00  0.16108577452E+04  0.16108577452E+04  0.25500000920E-02 0. -1.
       -2   -1    0    0    0  501  0.00000000000E+00  0.00000000000E+00 -0.13552314586E+04  0.13552314586E+04  0.25500000920E-02 0.  1.
    10030    2    1    2    0    0  0.00000000000E+00  0.00000000000E+00  0.25562628668E+03  0.29660892038E+04  0.29550533610E+04 0.  0.
        3    1    3    3  502    0 -0.55656185257E+03  0.42062629606E+03  0.14351355146E+04  0.15957134868E+04  0.10100000352E+00 0. -1.
       -3    1    3    3    0  502  0.55656185257E+03 -0.42062629606E+03 -0.11795092279E+04  0.13703757169E+04  0.10100000352E+00 0.  1.
</event>
<event>
 5   0  0.2672155E-06  0.3072101E+04  0.7818609E-02  0.8223436E-01
        1   -1    0    0  501    0  0.00000000000E+00  0.00000000000E+00  0.24625448120E+04  0.24625448120E+04  0.50400001928E-02 0. -1.
       -1   -1    0    0    0  501  0.00000000000E+00  0.00000000000E+00 -0.95813534975E+03  0.95813534976E+03  0.50400001928E-02 0.  1.
    10030    2    1    2    0    0  0.00000000000E+00  0.00000000000E+00  0.15044094623E+04  0.34206801618E+04  0.30721010626E+04 0.  0.
        5    1    3    3  502    0 -0.25139042513E+03 -0.74007786142E+03 -0.72014801233E+03  0.10628017861E+04  0.46999998093E+01 0.  1.
       -5    1    3    3    0  502  0.25139042513E+03  0.74007786142E+03  0.22245574746E+04  0.23578783757E+04  0.46999998093E+01 0. -1.
</event>
<event>
 5   0  0.2422083E-06  0.2159838E+04  0.7818609E-02  0.8535333E-01
       -1   -1    0    0    0  501  0.00000000000E+00  0.00000000000E+00  0.72817575286E+03  0.72817575288E+03  0.50400001928E-02 0.  1.
        1   -1    0    0  501    0  0.00000000000E+00  0.00000000000E+00 -0.16015702164E+04  0.16015702164E+04  0.50400001928E-02 0. -1.
    10030    2    1    2    0    0  0.00000000000E+00  0.00000000000E+00 -0.87339446350E+03  0.23297459693E+04  0.21598375847E+04 0.  0.
        2    1    3    3  502    0 -0.51119382343E+03 -0.92306639970E+03 -0.68468255158E+03  0.12578397751E+04  0.25500000920E-02 0.  1.
       -2    1    3    3    0  502  0.51119382343E+03  0.92306639970E+03 -0.18871191192E+03  0.10719061942E+04  0.25500000920E-02 0. -1.
</event>
<event>
 5   0  0.2552990E-06  0.3027680E+04  0.7818609E-02  0.8235871E-01
        1   -1    0    0  501    0  0.00000000000E+00  0.00000000000E+00  0.16751889705E+04  0.16751889705E+04  0.50400001928E-02 0.  1.
       -1   -1    0    0    0  501  0.00000000000E+00  0.00000000000E+00 -0.13680312644E+04  0.13680312644E+04  0.50400001928E-02 0. -1.
    10030    2    1    2    0    0  0.00000000000E+00  0.00000000000E+00  0.30715770614E+03  0.30432202349E+04  0.30276795639E+04 0.  0.
        3    1    3    3  502    0  0.28274646210E+03  0.12542702998E+03 -0.13359294945E+04  0.13712713539E+04  0.10100000352E+00 0. -1.
       -3    1    3    3    0  502 -0.28274646210E+03 -0.12542702998E+03  0.16430872006E+04  0.16719488810E+04  0.10100000352E+00 0.  1.
</event>
<event>
 5   0  0.6792811E-06  0.2848814E+04  0.7818609E-02  0.8288272E-01
        2   -1    0    0  501    0  0.00000000000E+00  0.00000000000E+00  0.27382408687E+04  0.27382408687E+04  0.25500000920E-02 0. -1.
       -2   -1    0    0    0  501  0.00000000000E+00  0.00000000000E+00 -0.74096282864E+03  0.74096282865E+03  0.25500000920E-02 0.  1.
    10030    2    1    2    0    0  0.00000000000E+00  0.00000000000E+00  0.19972780401E+04  0.34792036974E+04  0.28488135773E+04 0.  0.
        2    1    3    3  502    0 -0.13242454691E+04  0.19289874920E+02  0.16390106088E+04  0.21072147346E+04  0.25500000920E-02 0.  1.
       -2    1    3    3    0  502  0.13242454691E+04 -0.19289874920E+02  0.35826743124E+03  0.13719889628E+04  0.25500000920E-02 0. -1.
</event>
<event>
 5   0  0.7193153E-06  0.2506554E+04  0.7818609E-02  0.8400654E-01
       -2   -1    0    0    0  501  0.00000000000E+00  0.00000000000E+00  0.12569222452E+04  0.12569222452E+04  0.25500000920E-02 0. -1.
        2   -1    0    0  501    0  0.00000000000E+00  0.00000000000E+00 -0.12496419779E+04  0.12496419779E+04  0.25500000920E-02 0.  1.
    10030    2    1    2    0    0  0.00000000000E+00  0.00000000000E+00  0.72802672475E+01  0.25065642231E+04  0.25065536504E+04 0.  0.
        4    1    3    3  502    0 -0.63371964033E+02  0.12234156079E+04 -0.26082162599E+03  0.12525139875E+04  0.12699999809E+01 0.  1.
       -4    1    3    3    0  502  0.63371964033E+02 -0.12234156079E+04  0.26810189324E+03  0.12540502356E+04  0.12699999809E+01 0. -1.
</event>
<event>
 5   0  0.2422083E-06  0.3027708E+04  0.7818609E-02  0.8235863E-01
       -1   -1    0    0    0  501  0.00000000000E+00  0.00000000000E+00  0.21549008352E+04  0.21549008352E+04  0.50400001928E-02 0.  1.
        1   -1    0    0  501    0  0.00000000000E+00  0.00000000000E+00 -0.10635079189E+04  0.10635079189E+04  0.50400001928E-02 0. -1.
    10030    2    1    2    0    0  0.00000000000E+00  0.00000000000E+00  0.10913929163E+04  0.32184087540E+04  0.30277081118E+04 0.  0.
        2    1    3    3  502    0 -0.57815806916E+03  0.87114162825E+03 -0.61806578529E+03  0.12145615688E+04  0.25500000920E-02 0. -1.
       -2    1    3    3    0  502  0.57815806916E+03 -0.87114162825E+03  0.17094587016E+04  0.20038471853E+04  0.25500000920E-02 0.  1.
</event>
<event>
 5   0  0.2672155E-06  0.2975214E+04  0.7818609E-02  0.8250844E-01
       -1   -1    0    0    0  501  0.00000000000E+00  0.00000000000E+00  0.14870275473E+04  0.14870275473E+04  0.50400001928E-02 0. -1.
        1   -1    0    0  501    0  0.00000000000E+00  0.00000000000E+00 -0.14881867104E+04  0.14881867104E+04  0.50400001928E-02 0.  1.
    10030    2    1    2    0    0  0.00000000000E+00  0.00000000000E+00 -0.11591631053E+01  0.29752142577E+04  0.29752140319E+04 0.  0.
        5    1    3    3  502    0  0.11723838539E+03 -0.24746373000E+03 -0.14627593693E+04  0.14881768038E+04  0.46999998093E+01 0.  1.
       -5    1    3    3    0  502 -0.11723838539E+03  0.24746373000E+03  0.14616002062E+04  0.14870374540E+04  0.46999998093E+01 0. -1.
</event>
<event>
 5   0  0.2422083E-06  0.2913421E+04  0.7818609E-02  0.8268896E-01
       -1   -1    0    0    0  501  0.00000000000E+00  0.00000000000E+00  0.13623044432E+04  0.13623044432E+04  0.50400001928E-02 0.  1.
        1   -1    0    0  501    0  0.00000000000E+00  0.00000000000E+00 -0.15576583881E+04  0.15576583882E+04  0.50400001928E-02 0. -1.
    10030    2    1    2    0    0  0.00000000000E+00  0.00000000000E+00 -0.19535394493E+03  0.29199628314E+04  0.29134206309E+04 0.  0.
        2    1    3    3  502    0 -0.89119860328E+03  0.18615410621E+03 -0.12373833602E+04  0.15362310640E+04  0.25500000920E-02 0. -1.
       -2    1    3    3    0  502  0.89119860328E+03 -0.18615410621E+03  0.10420294153E+04  0.13837317674E+04  0.25500000920E-02 0.  1.
</event>
<event>
 5   0  0.6792811E-06  0.2994345E+04  0.7818609E-02  0.8245347E-01
       -2   -1    0    0    0  501  0.00000000000E+00  0.00000000000E+00  0.15349799345E+04  0.15349799345E+04  0.25500000920E-02 0.  1.
        2   -1    0    0  501    0  0.00000000000E+00  0.00000000000E+00 -0.14602967420E+04  0.14602967420E+04  0.25500000920E-02 0. -1.
    10030    2    1    2    0    0  0.00000000000E+00  0.00000000000E+00  0.74683192457E+02  0.29952766764E+04  0.29943454693E+04 0.  0.
        2    1    3    3  502    0 -0.27960915959E+03 -0.14375307972E+04 -0.27396270857E+03  0.14898763844E+04  0.25500000920E-02 0.  1.
       -2    1    3    3    0  502  0.27960915959E+03  0.14375307972E+04  0.34864590103E+03  0.15054002921E+04  0.25500000920E-02 0. -1.
</event>
<event>
 5   0  0.7201538E-06  0.3151676E+04  0.7818609E-02  0.8201697E-01
        2   -1    0    0  501    0  0.00000000000E+00  0.00000000000E+00  0.14110915460E+04  0.14110915460E+04  0.25500000920E-02 0. -1.
       -2   -1    0    0    0  501  0.00000000000E+00  0.00000000000E+00 -0.17598191945E+04  0.17598191945E+04  0.25500000920E-02 0.  1.
    10030    2    1    2    0    0  0.00000000000E+00  0.00000000000E+00 -0.34872764845E+03  0.31709107405E+04  0.31516763716E+04 0.  0.
        3    1    3    3  502    0  0.68707828876E+03  0.98294711623E+03 -0.12028570948E+04  0.16985661037E+04  0.10100000352E+00 0.  1.
       -3    1    3    3    0  502 -0.68707828876E+03 -0.98294711623E+03  0.85412944630E+03  0.14723446368E+04  0.10100000352E+00 0. -1.
</event>
<event>
 5   0  0.6792811E-06  0.2988838E+04  0.7818609E-02  0.8246925E-01
        2   -1    0    0  501    0  0.00000000000E+00  0.00000000000E+00  0.14183210380E+04  0.14183210380E+04  0.25500000920E-02 0. -1.
       -2   -1    0    0    0  501  0.00000000000E+00  0.00000000000E+00 -0.15746003045E+04  0.15746003045E+04  0.25500000920E-02 0.  1.
    10030    2    1    2    0    0  0.00000000000E+00  0.00000000000E+00 -0.15627926646E+03  0.29929213425E+04  0.29888383953E+04 0.  0.
        2    1    3    3  502    0 -0.12782933395E+04  0.77192488202E+03 -0.13641580932E+03  0.14995036373E+04  0.25500000920E-02 0.  1.
       -2    1    3    3    0  502  0.12782933395E+04 -0.77192488202E+03 -0.19863457139E+02  0.14934177052E+04  0.25500000920E-02 0. -1.
</event>
<event>
 5   0  0.2552990E-06  0.2769340E+04  0.7818609E-02  0.8312851E-01
       -1   -1    0    0    0  501  0.00000000000E+00  0.00000000000E+00  0.13598014594E+04  0.13598014594E+04  0.50400001928E-02 0. -1.
        1   -1    0    0  501    0  0.00000000000E+00  0.00000000000E+00 -0.14099936593E+04  0.14099936593E+04  0.50400001928E-02 0.  1.
    10030    2    1    2    0    0  0.00000000000E+00  0.00000000000E+00 -0.50192199885E+02  0.27697951187E+04  0.27693403082E+04 0.  0.
        3    1    3    3  502    0  0.43848395151E+03  0.24863365381E+03  0.12647763378E+04  0.13615234351E+04  0.10100000352E+00 0. -1.
       -3    1    3    3    0  502 -0.43848395151E+03 -0.24863365381E+03 -0.13149685376E+04  0.14082716836E+04  0.10100000352E+00 0.  1.
</event>
<event>
 5   0  0.2672155E-06  0.2968024E+04  0.7818609E-02  0.8252921E-01
        1   -1    0    0  501    0  0.00000000000E+00  0.00000000000E+00  0.23715572869E+04  0.23715572869E+04  0.50400001928E-02 0.  1.
       -1   -1    0    0    0  501  0.00000000000E+00  0.00000000000E+00 -0.92862683215E+03  0.92862683217E+03  0.50400001928E-02 0. -1.
    10030    2    1    2    0    0  0.00000000000E+00  0.00000000000E+00  0.14429304548E+04  0.33001841191E+04  0.29680240772E+04 0.  0.
        5    1    3    3  502    0 -0.96751160099E+03  0.82202332638E+03  0.15758807932E+04  0.20236658350E+04  0.46999998093E+01 0.  1.
       -5    1    3    3    0  502  0.96751160099E+03 -0.82202332638E+03 -0.13295033848E+03  0.12765182841E+04  0.46999998093E+01 0. -1.
</event>
<event>
 5   0  0.6780150E-06  0.2997177E+04  0.7818609E-02  0.8244537E-01
        2   -1    0    0  501    0  0.00000000000E+00  0.00000000000E+00  0.16698855650E+04  0.16698855650E+04  0.25500000920E-02 0. -1.
       -2   -1    0    0    0  501  0.00000000000E+00  0.00000000000E+00 -0.13448635174E+04  0.13448635174E+04  0.25500000920E-02 0.  1.
    10030    2    1    2    0    0  0.00000000000E+00  0.00000000000E+00  0.32502204759E+03  0.30147490824E+04  0.29971774553E+04 0.  0.
        5    1    3    3  502    0 -0.12184578477E+04  0.38702659592E+03  0.94896251666E+03  0.15921623851E+04  0.46999998093E+01 0. -1.
       -5    1    3    3    0  502  0.12184578477E+04 -0.38702659592E+03 -0.62394046906E+03  0.14225866973E+04  0.46999998093E+01 0.  1.
</event>
<event>
 5   0  0.2672155E-06  0.2997608E+04  0.7818609E-02  0.8244414E-01
       -1   -1    0    0    0  501  0.00000000000E+00  0.00000000000E+00  0.11012488342E+04  0.11012488342E+04  0.50400001928E-02 0.  1.
        1   -1    0    0  501    0  0.00000000000E+00  0.00000000000E+00 -0.20398783391E+04  0.20398783391E+04  0.50400001928E-02 0. -1.
    10030    2    1    2    0    0  0.00000000000E+00  0.00000000000E+00 -0.93862950496E+03  0.31411271733E+04  0.29976081417E+04 0.  0.
        5    1    3    3  502    0  0.84925535862E+03 -0.10812467695E+04 -0.10945934945E+04  0.17574089589E+04  0.46999998093E+01 0. -1.
       -5    1    3    3    0  502 -0.84925535862E+03  0.10812467695E+04  0.15596398953E+03  0.13837182144E+04  0.46999998093E+01 0.  1.
</event>
<event>
 5   0  0.2422083E-06  0.2989959E+04  0.7818609E-02  0.8246604E-01
       -1   -1    0    0    0  501  0.00000000000E+00  0.00000000000E+00  0.99629147644E+03  0.99629147646E+03  0.50400001928E-02 0.  1.
        1   -1    0    0  501    0  0.00000000000E+00  0.00000000000E+00 -0.22432836045E+04  0.22432836045E+04  0.50400001928E-02 0. -1.
    10030    2    1    2    0    0  0.00000000000E+00  0.00000000000E+00 -0.12469921280E+04  0.32395750809E+04  0.29899594207E+04 0.  0.
        2    1    3    3  502    0  0.39091281554E+03  0.11654160916E+04 -0.15453860403E+04  0.19746456668E+04  0.25500000920E-02 0. -1.
       -2    1    3    3    0  502 -0.39091281554E+03 -0.11654160916E+04  0.29839391230E+03  0.12649294141E+04  0.25500000920E-02 0.  1.
</event>
<event>
 5   0  0.6780150E-06  0.2192285E+04  0.7818609E-02  0.8521646E-01
        2   -1    0    0  501    0  0.00000000000E+00  0.00000000000E+00  0.18968146541E+04  0.18968146541E+04  0.25500000920E-02 0. -1.
       -2   -1    0    0    0  501  0.00000000000E+00  0.00000000000E+00 -0.63344506522E+03  0.63344506523E+03  0.25500000920E-02 0.  1.
    10030    2    1    2    0    0  0.00000000000E+00  0.00000000000E+00  0.12633695889E+04  0.25302597194E+04  0.21922845457E+04 0.  0.
        5    1    3    3  502    0  0.55120507423E+03 -0.74172745745E+03 -0.48704610532E+02  0.92540849578E+03  0.46999998093E+01 0.  1.
       -5    1    3    3    0  502 -0.55120507423E+03  0.74172745745E+03  0.13120741994E+04  0.16048512236E+04  0.46999998093E+01 0. -1.
</event>
<event>
 5   0  0.2628425E-06  0.3021541E+04  0.7818609E-02  0.8237606E-01
       -1   -1    0    0    0  501  0.00000000000E+00  0.00000000000E+00  0.15864909978E+04  0.15864909978E+04  0.50400001928E-02 0. -1.
        1   -1    0    0  501    0  0.00000000000E+00  0.00000000000E+00 -0.14386636612E+04  0.14386636612E+04  0.50400001928E-02 0.  1.
    10030    2    1    2    0    0  0.00000000000E+00  0.00000000000E+00  0.14782733662E+03  0.30251546590E+04  0.30215406317E+04 0.  0.
        1    1    3    3  502    0  0.76729954251E+03  0.10281617666E+04  0.87271615881E+03  0.15516116461E+04  0.50400001928E-02 0.  1.
       -1    1    3    3    0  502 -0.76729954251E+03 -0.10281617666E+04 -0.72488882219E+03  0.14735430129E+04  0.50400001928E-02 0. -1.
</event>
<event>
 5   0  0.7201538E-06  0.2985832E+04  0.7818609E-02  0.8247788E-01
        2   -1    0    0  501    0  0.00000000000E+00  0.00000000000E+00  0.22356273877E+04  0.22356273877E+04  0.25500000920E-02 0. -1.
       -2   -1    0    0    0  501  0.00000000000E+00  0.00000000000E+00 -0.99694548573E+03  0.99694548573E+03  0.25500000920E-02 0.  1.
    10030    2    1    2    0    0  0.00000000000E+00  0.00000000000E+00  0.12386819020E+04  0.32325728735E+04  0.29858323007E+04 0.  0.
        3    1    3    3  502    0 -0.51411323491E+03 -0.11470691410E+04  0.14913301062E+04  0.19504218848E+04  0.10100000352E+00 0.  1.
       -3    1    3    3    0  502  0.51411323491E+03  0.11470691410E+04 -0.25264820425E+03  0.12821509887E+04  0.10100000352E+00 0. -1.
</event>
<event>
 5   0  0.7217255E-06  0.3006913E+04  0.7818609E-02  0.8241760E-01
       -2   -1    0    0    0  501  0.00000000000E+00  0.00000000000E+00  0.11855628976E+04  0.11855628976E+04  0.25500000920E-02 0. -1.
        2   -1    0    0  501    0  0.00000000000E+00  0.00000000000E+00 -0.19065887561E+04  0.19065887561E+04  0.25500000920E-02 0.  1.
    10030    2    1    2    0    0  0.00000000000E+00  0.00000000000E+00 -0.72102585854E+03  0.30921516537E+04  0.30069126294E+04 0.  0.
        1    1    3    3  502    0 -0.11403004094E+04  0.95980104306E+03 -0.56327697728E+03  0.15933562122E+04  0.50400001928E-02 0.  1.
       -1    1    3    3    0  502  0.11403004094E+04 -0.95980104306E+03 -0.15774888126E+03  0.14987954415E+04  0.50400001928E-02 0. -1.
</event>
<event>
 5   0  0.7201538E-06  0.2992734E+04  0.7818609E-02  0.8245809E-01
       -2   -1    0    0    0  501  0.00000000000E+00  0.00000000000E+00  0.12728206645E+04  0.12728206645E+04  0.25500000920E-02 0.  1.
        2   -1    0    0  501    0  0.00000000000E+00  0.00000000000E+00 -0.17591745344E+04  0.17591745344E+04  0.25500000920E-02 0. -1.
    10030    2    1    2    0    0  0.00000000000E+00  0.00000000000E+00 -0.48635386993E+03  0.30319951989E+04  0.29927336666E+04 0.  0.
        3    1    3    3  502    0  0.81498358393E+03 -0.39872638586E+03 -0.14487172777E+04  0.17093749541E+04  0.10100000352E+00 0. -1.
       -3    1    3    3    0  502 -0.81498358393E+03  0.39872638586E+03  0.96236340780E+03  0.13226202447E+04  0.10100000352E+00 0.  1.
</event>
<event>
 5   0  0.2422083E-06  0.2999658E+04  0.7818609E-02  0.8243828E-01
        1   -1    0    0  501    0  0.00000000000E+00  0.00000000000E+00  0.84055485959E+03  0.84055485961E+03  0.50400001928E-02 0.  1.
       -1   -1    0    0    0  501  0.00000000000E+00  0.00000000000E+00 -0.26761936898E+04  0.26761936898E+04  0.50400001928E-02 0. -1.
    10030    2    1    2    0    0  0.00000000000E+00  0.00000000000E+00 -0.18356388302E+04  0.35167485494E+04  0.29996583880E+04 0.  0.
        2    1    3    3  502    0  0.85377930629E+03  0.90699371671E+03 -0.18972406386E+04  0.22696032135E+04  0.25500000920E-02 0. -1.
       -2    1    3    3    0  502 -0.85377930629E+03 -0.90699371671E+03  0.61601808413E+02  0.12471453359E+04  0.25500000920E-02 0.  1.
</event>
<event>
 5   0  0.7193153E-06  0.3009280E+04  0.7818609E-02  0.8241086E-01
       -2   -1    0    0    0  501  0.00000000000E+00  0.00000000000E+00  0.86125925607E+03  0.86125925608E+03  0.25500000920E-02 0. -1.
        2   -1    0    0  501    0  0.00000000000E+00  0.00000000000E+00 -0.26286406829E+04  0.26286406829E+04  0.25500000920E-02 0.  1.
    10030    2    1    2    0    0  0.00000000000E+00  0.00000000000E+00 -0.17673814268E+04  0.34898999390E+04  0.30092797271E+04 0.  0.
        4    1    3    3  502    0 -0.74644510226E+03  0.82237751208E+03 -0.20609301818E+04  0.23411364527E+04  0.12699999809E+01 0.  1.
       -4    1    3    3    0  502  0.74644510226E+03 -0.82237751208E+03  0.29354875493E+03  0.11487634863E+04  0.12699999809E+01 0. -1.
</event>
<event>
 5   0  0.2672155E-06  0.2875040E+04  0.7818609E-02  0.8280343E-01
        1   -1    0    0  501    0  0.00000000000E+00  0.00000000000E+00  0.14056535344E+04  0.14056535344E+04  0.50400001928E-02 0. -1.
       -1   -1    0    0    0  501  0.00000000000E+00  0.00000000000E+00 -0.14701090873E+04  0.14701090873E+04  0.50400001928E-02 0.  1.
    10030    2    1    2    0    0  0.00000000000E+00  0.00000000000E+00 -0.64455552927E+02  0.28757626217E+04  0.28750401976E+04 0.  0.
        5    1    3    3  502    0  0.14009369702E+04  0.81137834000E+02 -0.34413012181E+03  0.14448720958E+04  0.46999998093E+01 0.  1.
       -5    1    3    3    0  502 -0.14009369702E+04 -0.81137834000E+02  0.27967456888E+03  0.14308905259E+04  0.46999998093E+01 0. -1.
</event>
<event>
 5   0  0.2422083E-06  0.2951573E+04  0.7818609E-02  0.8257696E-01
        1   -1    0    0  501    0  0.00000000000E+00  0.00000000000E+00  0.12545911437E+04  0.12545911437E+04  0.50400001928E-02 0. -1.
       -1   -1    0    0    0  501  0.00000000000E+00  0.00000000000E+00 -0.17359809235E+04  0.17359809235E+04  0.50400001928E-02 0.  1.
    10030    2    1    2    0    0  0.00000000000E+00  0.00000000000E+00 -0.48138977974E+03  0.29905720672E+04  0.29515733379E+04 0.  0.
        2    1    3    3  502    0  0.12902417362E+04  0.69004956135E+03 -0.43573285812E+03  0.15266811254E+04  0.25500000920E-02 0.  1.
       -2    1    3    3    0  502 -0.12902417362E+04 -0.69004956135E+03 -0.45656921620E+02  0.14638909418E+04  0.25500000920E-02 0. -1.
</event>
<event>
 5   0  0.2422083E-06  0.3008387E+04  0.7818609E-02  0.8241340E-01
       -1   -1    0    0    0  501  0.00000000000E+00  0.00000000000E+00  0.25338803119E+04  0.25338803119E+04  0.50400001928E-02 0.  1.
        1   -1    0    0  501    0  0.00000000000E+00  0.00000000000E+00 -0.89293801842E+03  0.89293801844E+03  0.50400001928E-02 0. -1.
    10030    2    1    2    0    0  0.00000000000E+00  0.00000000000E+00  0.16409422935E+04  0.34268183304E+04  0.30083869862E+04 0.  0.
        2    1    3    3  502    0  0.17215389602E+03 -0.86856193309E+03  0.22055581139E+04  0.23766622371E+04  0.25500000920E-02 0.  1.
       -2    1    3    3    0  502 -0.17215389602E+03  0.86856193309E+03 -0.56461582040E+03  0.10501560932E+04  0.25500000920E-02 0. -1.
</event>
<event>
 5   0  0.2552990E-06  0.2727720E+04  0.7818609E-02  0.8326066E-01
       -1   -1    0    0    0  501  0.00000000000E+00  0.00000000000E+00  0.88140352977E+03  0.88140352979E+03  0.50400001928E-02 0. -1.
        1   -1    0    0  501    0  0.00000000000E+00  0.00000000000E+00 -0.21104007055E+04  0.21104007055E+04  0.50400001928E-02 0.  1.
    10030    2    1    2    0    0  0.00000000000E+00  0.00000000000E+00 -0.12289971757E+04  0.29918042353E+04  0.27277203897E+04 0.  0.
        3    1    3    3  502    0  0.88775496552E+02 -0.93009244096E+03 -0.17042500127E+04  0.19435588886E+04  0.10100000352E+00 0.  1.
       -3    1    3    3    0  502 -0.88775496552E+02  0.93009244096E+03  0.47525283699E+03  0.10482453467E+04  0.10100000352E+00 0. -1.
</event>
<event>
 5   0  0.2672155E-06  0.2987956E+04  0.7818609E-02  0.8247179E-01
       -1   -1    0    0    0  501  0.00000000000E+00  0.00000000000E+00  0.19898033352E+04  0.19898033352E+04  0.50400001928E-02 0. -1.
        1   -1    0    0  501    0  0.00000000000E+00  0.00000000000E+00 -0.11217038065E+04  0.11217038065E+04  0.50400001928E-02 0.  1.
    10030    2    1    2    0    0  0.00000000000E+00  0.00000000000E+00  0.86809952873E+03  0.31115071418E+04  0.29879558065E+04 0.  0.
        5    1    3    3  502    0  0.45042072922E+03 -0.55150491691E+03  0.18017156869E+04  0.19373275441E+04  0.46999998093E+01 0. -1.
       -5    1    3    3    0  502 -0.45042072922E+03  0.55150491691E+03 -0.93361615820E+03  0.11741795976E+04  0.46999998093E+01 0.  1.
</event>
<event>
 5   0  0.6780150E-06  0.3020346E+04  0.7818609E-02  0.8237945E-01
       -2   -1    0    0    0  501  0.00000000000E+00  0.00000000000E+00  0.10027185373E+04  0.10027185373E+04  0.25500000920E-02 0. -1.
        2   -1    0    0  501    0  0.00000000000E+00  0.00000000000E+00 -0.22744391782E+04  0.22744391782E+04  0.25500000920E-02 0.  1.
    10030    2    1    2    0    0  0.00000000000E+00  0.00000000000E+00 -0.12717206409E+04  0.32771577156E+04  0.30203458915E+04 0.  0.
        5    1    3    3  502    0  0.45198983252E+03  0.41627887372E+03 -0.21326543165E+04  0.22194187151E+04  0.46999998093E+01 0.  1.
       -5    1    3    3    0  502 -0.45198983252E+03 -0.41627887372E+03  0.86093367555E+03  0.10577390005E+04  0.46999998093E+01 0. -1.
</event>
<event>
 5   0  0.2628425E-06  0.2953717E+04  0.7818609E-02  0.8257072E-01
        1   -1    0    0  501    0  0.00000000000E+00  0.00000000000E+00  0.85458867063E+03  0.85458867065E+03  0.50400001928E-02 0. -1.
       -1   -1    0    0    0  501  0.00000000000E+00  0.00000000000E+00 -0.25522347936E+04  0.25522347936E+04  0.50400001928E-02 0.  1.
    10030    2    1    2    0    0  0.00000000000E+00  0.00000000000E+00 -0.16976461229E+04  0.34068234642E+04  0.29537169393E+04 0.  0.
        1    1    3    3  502    0 -0.14532429106E+04  0.25924943515E+03 -0.79742592275E+03  0.16778001458E+04  0.50400001928E-02 0. -1.
       -1    1    3    3    0  502  0.14532429106E+04 -0.25924943515E+03 -0.90022020020E+03  0.17290233185E+04  0.50400001928E-02 0.  1.
</event>
<event>
 5   0  0.2672155E-06  0.3188749E+04  0.7818609E-02  0.8191795E-01
       -1   -1    0    0    0  501  0.00000000000E+00  0.00000000000E+00  0.17490186147E+04  0.17490186147E+04  0.50400001928E-02 0. -1.
        1   -1    0    0  501    0  0.00000000000E+00  0.00000000000E+00 -0.14534038968E+04  0.14534038968E+04  0.50400001928E-02 0.  1.
    10030    2    1    2    0    0  0.00000000000E+00  0.00000000000E+00  0.29561471788E+03  0.32024225115E+04  0.31887492658E+04 0.  0.
        5    1    3    3  502    0 -0.11415767902E+04 -0.96172079960E+03  0.71048107044E+03  0.16531515072E+04  0.46999998093E+01 0. -1.
       -5    1    3    3    0  502  0.11415767902E+04  0.96172079960E+03 -0.41486635256E+03  0.15492710043E+04  0.46999998093E+01 0.  1.
</event>
<event>
 5   0  0.2504260E-06  0.3166557E+04  0.7818609E-02  0.8197706E-01
       -1   -1    0    0    0  501  0.00000000000E+00  0.00000000000E+00  0.14888527395E+04  0.14888527395E+04  0.50400001928E-02 0.  1.
        1   -1    0    0  501    0  0.00000000000E+00  0.00000000000E+00 -0.16836928047E+04  0.16836928047E+04  0.50400001928E-02 0. -1.
    10030    2    1    2    0    0  0.00000000000E+00  0.00000000000E+00 -0.19484006521E+03  0.31725455443E+04  0.31665568966E+04 0.  0.
        4    1    3    3  502    0 -0.10849538114E+04 -0.20702702206E+03 -0.12339304156E+04  0.16560709055E+04  0.12699999809E+01 0. -1.
       -4    1    3    3    0  502  0.10849538114E+04  0.20702702206E+03  0.10390903504E+04  0.15164746387E+04  0.12699999809E+01 0.  1.
</event>
<event>
 5   0  0.2422083E-06  0.3102677E+04  0.7818609E-02  0.8215004E-01
        1   -1    0    0  501    0  0.00000000000E+00  0.00000000000E+00  0.14360512364E+04  0.14360512364E+04  0.50400001928E-02 0. -1.
       -1   -1    0    0    0  501  0.00000000000E+00  0.00000000000E+00 -0.16758805847E+04  0.16758805847E+04  0.50400001928E-02 0.  1.
    10030    2    1    2    0    0  0.00000000000E+00  0.00000000000E+00 -0.23982934827E+03  0.31119318211E+04  0.31026765127E+04 0.  0.
        2    1    3    3  502    0  0.54949285230E+03  0.20400516922E+03  0.13207159747E+04  0.14449398568E+04  0.25500000920E-02 0. -1.
       -2    1    3    3    0  502 -0.54949285230E+03 -0.20400516922E+03 -0.15605453230E+04  0.16669919643E+04  0.25500000920E-02 0.  1.
</event>
<event>
 5   0  0.6792811E-06  0.2973530E+04  0.7818609E-02  0.8251330E-01
        2   -1    0    0  501    0  0.00000000000E+00  0.00000000000E+00  0.24589811819E+04  0.24589811819E+04  0.25500000920E-02 0.  1.
       -2   -1    0    0    0  501  0.00000000000E+00  0.00000000000E+00 -0.89893729889E+03  0.89893729890E+03  0.25500000920E-02 0. -1.
    10030    2    1    2    0    0  0.00000000000E+00  0.00000000000E+00  0.15600438830E+04  0.33579184808E+04  0.29735298227E+04 0.  0.
        2    1    3    3  502    0  0.94874859409E+03 -0.10143183671E+04  0.18086536086E+03  0.14005991301E+04  0.25500000920E-02 0. -1.
       -2    1    3    3    0  502 -0.94874859409E+03  0.10143183671E+04  0.13791785221E+04  0.19573193506E+04  0.25500000920E-02 0.  1.
</event>
<event>
 5   0  0.7201538E-06  0.2903678E+04  0.7818609E-02  0.8271784E-01
        2   -1    0    0  501    0  0.00000000000E+00  0.00000000000E+00  0.15838816741E+04  0.15838816741E+04  0.25500000920E-02 0.  1.
       -2   -1    0    0    0  501  0.00000000000E+00  0.00000000000E+00 -0.13308044332E+04  0.13308044332E+04  0.25500000920E-02 0. -1.
    10030    2    1    2    0    0  0.00000000000E+00  0.00000000000E+00  0.25307724099E+03  0.29146861073E+04  0.29036781871E+04 0.  0.
        3    1    3    3  502    0  0.89336317271E+03  0.55606244902E+03  0.11305973913E+04  0.15445237703E+04  0.10100000352E+00 0.  1.
       -3    1    3    3    0  502 -0.89336317271E+03 -0.55606244902E+03 -0.87752015027E+03  0.13701623371E+04  0.10100000352E+00 0. -1.
</event>
<event>
 5   0  0.7193153E-06  0.2720836E+04  0.7818609E-02  0.8328276E-01
        2   -1    0    0  501    0  0.00000000000E+00  0.00000000000E+00  0.19427707282E+04  0.19427707282E+04  0.25500000920E-02 0. -1.
       -2   -1    0    0    0  501  0.00000000000E+00  0.00000000000E+00 -0.95262752022E+03  0.95262752022E+03  0.25500000920E-02 0.  1.
    10030    2    1    2    0    0  0.00000000000E+00  0.00000000000E+00  0.99014320803E+03  0.28953982485E+04  0.27208357989E+04 0.  0.
        4    1    3    3  502    0 -0.10706175660E+04 -0.17902508483E+03  0.13677219521E+04  0.17461205299E+04  0.12699999809E+01 0. -1.
       -4    1    3    3    0  502  0.10706175660E+04  0.17902508483E+03 -0.37757874409E+03  0.11492777186E+04  0.12699999809E+01 0.  1.
</event>
<event>
 5   0  0.2672155E-06  0.2915117E+04  0.7818609E-02  0.8268394E-01
        1   -1    0    0  501    0  0.00000000000E+00  0.00000000000E+00  0.25124323070E+04  0.25124323070E+04  0.50400001928E-02 0. -1.
       -1   -1    0    0    0  501  0.00000000000E+00  0.00000000000E+00 -0.84558594247E+03  0.84558594248E+03  0.50400001928E-02 0.  1.
    10030    2    1    2    0    0  0.00000000000E+00  0.00000000000E+00  0.16668463645E+04  0.33580182495E+04  0.29151174523E+04 0.  0.
        5    1    3    3  502    0  0.42398416678E+03  0.91875548722E+03  0.20418991714E+04  0.22788700127E+04  0.46999998093E+01 0. -1.
       -5    1    3    3    0  502 -0.42398416678E+03 -0.91875548722E+03 -0.37505280682E+03  0.10791482367E+04  0.46999998093E+01 0.  1.
</event>
<event>
 5   0  0.7217255E-06  0.2999576E+04  0.7818609E-02  0.8243852E-01
       -2   -1    0    0    0  501  0.00000000000E+00  0.00000000000E+00  0.95420280201E+03  0.95420280201E+03  0.25500000920E-02 0. -1.
        2   -1    0    0  501    0  0.00000000000E+00  0.00000000000E+00 -0.23573227775E+04  0.23573227775E+04  0.25500000920E-02 0.  1.
    10030    2    1    2    0    0  0.00000000000E+00  0.00000000000E+00 -0.14031199755E+04  0.33115255796E+04  0.29995759698E+04 0.  0.
        1    1    3    3  502    0 -0.14511000683E+04 -0.11746296228E+03 -0.30369923309E+03  0.14871859937E+04  0.50400001928E-02 0.  1.
       -1    1    3    3    0  502  0.14511000683E+04  0.11746296228E+03 -0.10994207424E+04  0.18243395859E+04  0.50400001928E-02 0. -1.
</event>
<event>
 5   0  0.6780150E-06  0.3000208E+04  0.7818609E-02  0.8243671E-01
        2   -1    0    0  501    0  0.00000000000E+00  0.00000000000E+00  0.15433911204E+04  0.15433911204E+04  0.25500000920E-02 0. -1.
       -2   -1    0    0    0  501  0.00000000000E+00  0.00000000000E+00 -0.14580311926E+04  0.14580311927E+04  0.25500000920E-02 0.  1.
    10030    2    1    2    0    0  0.00000000000E+00  0.00000000000E+00  0.85359927796E+02  0.30014223131E+04  0.30002082568E+04 0.  0.
        5    1    3    3  502    0 -0.41454078649E+02  0.11707969425E+04 -0.89461238651E+03  0.14740547254E+04  0.46999998093E+01 0.  1.
       -5    1    3    3    0  502  0.41454078649E+02 -0.11707969425E+04  0.97997231431E+03  0.15273675877E+04  0.46999998093E+01 0. -1.
</event>
<event>
 5   0  0.2504260E-06  0.3026255E+04  0.7818609E-02  0.8236273E-01
       -1   -1    0    0    0  501  0.00000000000E+00  0.00000000000E+00  0.19202003562E+04  0.19202003562E+04  0.50400001928E-02 0. -1.
        1   -1    0    0  501    0  0.00000000000E+00  0.00000000000E+00 -0.11923523360E+04  0.11923523360E+04  0.50400001928E-02 0.  1.
    10030    2    1    2    0    0  0.00000000000E+00  0.00000000000E+00  0.72784802015E+03  0.31125526922E+04  0.30262553629E+04 0.  0.
        4    1    3    3  502    0  0.64576530652E+03  0.77457381036E+03 -0.79632996222E+03  0.12849593147E+04  0.12699999809E+01 0. -1.
       -4    1    3    3    0  502 -0.64576530652E+03 -0.77457381036E+03  0.15241779824E+04  0.18275933775E+04  0.12699999809E+01 0.  1.
</event>
<event>
 5   0  0.2422083E-06  0.2980454E+04  0.7818609E-02  0.8249334E-01
       -1   -1    0    0    0  501  0.00000000000E+00  0.00000000000E+00  0.14932126822E+04  0.14932126822E+04  0.50400001928E-02 0.  1.
        1   -1    0    0  501    0  0.00000000000E+00  0.00000000000E+00 -0.14872476228E+04  0.14872476228E+04  0.50400001928E-02 0. -1.
    10030    2    1    2    0    0  0.00000000000E+00  0.00000000000E+00  0.59650594014E+01  0.29804603049E+04  0.29804543357E+04 0.  0.
        2    1    3    3  502    0  0.39642229667E+03  0.14365191806E+04  0.92289981577E+01  0.14902426541E+04  0.25500000920E-02 0.  1.
       -2    1    3    3    0  502 -0.39642229667E+03 -0.14365191806E+04 -0.32639387563E+01  0.14902176509E+04  0.25500000920E-02 0. -1.
</event>
<event>
 5   0  0.2422083E-06  0.3009469E+04  0.7818609E-02  0.8241032E-01
       -1   -1    0    0    0  501  0.00000000000E+00  0.00000000000E+00  0.14816518227E+04  0.14816518227E+04  0.50400001928E-02 0. -1.
        1   -1    0    0  501    0  0.00000000000E+00  0.00000000000E+00 -0.15281771960E+04  0.15281771960E+04  0.50400001928E-02 0.  1.
    10030    2    1    2    0    0  0.00000000000E+00  0.00000000000E+00 -0.46525373320E+02  0.30098290186E+04  0.30094694069E+04 0.  0.
        2    1    3    3  502    0 -0.70498190808E+03 -0.12686687487E+04 -0.42043309752E+03  0.15110538952E+04  0.25500000920E-02 0. -1.
       -2    1    3    3    0  502  0.70498190808E+03  0.12686687487E+04  0.37390772420E+03  0.14987751235E+04  0.25500000920E-02 0.  1.
</event>
<event>
 5   0  0.2672155E-06  0.2985888E+04  0.7818609E-02  0.8247772E-01
        1   -1    0    0  501    0  0.00000000000E+00  0.00000000000E+00  0.85247573293E+03  0.85247573295E+03  0.50400001928E-02 0.  1.
       -1   -1    0    0    0  501  0.00000000000E+00  0.00000000000E+00 -0.26145991985E+04  0.26145991985E+04  0.50400001928E-02 0. -1.
    10030    2    1    2    0    0  0.00000000000E+00  0.00000000000E+00 -0.17621234655E+04  0.34670749314E+04  0.29858883891E+04 0.  0.
        5    1    3    3  502    0 -0.39935957704E+03 -0.11095987958E+04 -0.19441120653E+04  0.22738274718E+04  0.46999998093E+01 0. -1.
       -5    1    3    3    0  502  0.39935957704E+03  0.11095987958E+04  0.18198859976E+03  0.11932474596E+04  0.46999998093E+01 0.  1.
</event>
<event>
 5   0  0.2422083E-06  0.2979765E+04  0.7818609E-02  0.8249533E-01
       -1   -1    0    0    0  501  0.00000000000E+00  0.00000000000E+00  0.12183430201E+04  0.12183430201E+04  0.50400001928E-02 0. -1.
        1   -1    0    0  501    0  0.00000000000E+00  0.00000000000E+00 -0.18219418490E+04  0.18219418490E+04  0.50400001928E-02 0.  1.
    10030    2    1    2    0    0  0.00000000000E+00  0.00000000000E+00 -0.60359882896E+03  0.30402848691E+04  0.29797651819E+04 0.  0.
        2    1    3    3  502    0  0.41218521794E+03 -0.12290763530E+02  0.11589564672E+04  0.12301332487E+04  0.25500000920E-02 0. -1.
       -2    1    3    3    0  502 -0.41218521794E+03  0.12290763530E+02 -0.17625552962E+04  0.18101516204E+04  0.25500000920E-02 0.  1.
</event>
<event>
 5   0  0.6792811E-06  0.2997332E+04  0.7818609E-02  0.8244493E-01
       -2   -1    0    0    0  501  0.00000000000E+00  0.00000000000E+00  0.12806930831E+04  0.12806930831E+04  0.25500000920E-02 0. -1.
        2   -1    0    0  501    0  0.00000000000E+00  0.00000000000E+00 -0.17537378861E+04  0.17537378861E+04  0.25500000920E-02 0.  1.
    10030    2    1    2    0    0  0.00000000000E+00  0.00000000000E+00 -0.47304480302E+03  0.30344309691E+04  0.29973321339E+04 0.  0.
        2    1    3    3  502    0 -0.47155430720E+03 -0.52384229095E+03  0.11024305773E+04  0.13084828574E+04  0.25500000920E-02 0. -1.
       -2    1    3    3    0  502  0.47155430720E+03  0.52384229095E+03 -0.15754753803E+04  0.17259481117E+04  0.25500000920E-02 0.  1.
</event>
<event>
 5   0  0.6792811E-06  0.2948037E+04  0.7818609E-02  0.8258727E-01
       -2   -1    0    0    0  501  0.00000000000E+00  0.00000000000E+00  0.14283576343E+04  0.14283576343E+04  0.25500000920E-02 0.  1.
        2   -1    0    0  501    0  0.00000000000E+00  0.00000000000E+00 -0.15211390470E+04  0.15211390470E+04  0.25500000920E-02 0. -1.
    10030    2    1    2    0    0  0.00000000000E+00  0.00000000000E+00 -0.92781412695E+02  0.29494966813E+04  0.29480370219E+04 0.  0.
        2    1    3    3  502    0 -0.20771066244E+03 -0.98828649536E+03 -0.11206432758E+04  0.15085407743E+04  0.25500000920E-02 0. -1.
       -2    1    3    3    0  502  0.20771066244E+03  0.98828649536E+03  0.10278618631E+04  0.14409559070E+04  0.25500000920E-02 0.  1.
</event>
<event>
 5   0  0.7201538E-06  0.2974441E+04  0.7818609E-02  0.8251067E-01
        2   -1    0    0  501    0  0.00000000000E+00  0.00000000000E+00  0.16707039249E+04  0.16707039249E+04  0.25500000920E-02 0. -1.
       -2   -1    0    0    0  501  0.00000000000E+00  0.00000000000E+00 -0.13238880246E+04  0.13238880246E+04  0.25500000920E-02 0.  1.
    10030    2    1    2    0    0  0.00000000000E+00  0.00000000000E+00  0.34681590035E+03  0.29945919495E+04  0.29744410694E+04 0.  0.
        3    1    3    3  502    0  0.99064445740E+03  0.28523442194E+03 -0.90581026570E+03  0.13723073140E+04  0.10100000352E+00 0.  1.
       -3    1    3    3    0  502 -0.99064445740E+03 -0.28523442194E+03  0.12526261661E+04  0.16222846355E+04  0.10100000352E+00 0. -1.
</event>
<event>
 5   0  0.2628425E-06  0.2907244E+04  0.7818609E-02  0.8270726E-01
       -1   -1    0    0    0  501  0.00000000000E+00  0.00000000000E+00  0.11529308030E+04  0.11529308030E+04  0.50400001928E-02 0.  1.
        1   -1    0    0  501    0  0.00000000000E+00  0.00000000000E+00 -0.18327349609E+04  0.18327349609E+04  0.50400001928E-02 0. -1.
    10030    2    1    2    0    0  0.00000000000E+00  0.00000000000E+00 -0.67980415798E+03  0.29856657639E+04  0.29072437739E+04 0.  0.
        1    1    3    3  502    0  0.15001749198E+03 -0.72900211133E+03  0.94240537085E+03  0.12008651920E+04  0.50400001928E-02 0.  1.
       -1    1    3    3    0  502 -0.15001749198E+03  0.72900211133E+03 -0.16222095288E+04  0.17848005720E+04  0.50400001928E-02 0. -1.
</event>
<event>
 5   0  0.2422083E-06  0.3026117E+04  0.7818609E-02  0.8236312E-01
        1   -1    0    0  501    0  0.00000000000E+00  0.00000000000E+00  0.86989592014E+03  0.86989592016E+03  0.50400001928E-02 0. -1.
       -1   -1    0    0    0  501  0.00000000000E+00  0.00000000000E+00 -0.26317469024E+04  0.26317469024E+04  0.50400001928E-02 0.  1.
    10030    2    1    2    0    0  0.00000000000E+00  0.00000000000E+00 -0.17618509823E+04  0.35016428226E+04  0.30261169133E+04 0.  0.
        2    1    3    3  502    0 -0.47053721867E+03  0.70460608709E+03  0.56964657826E+03  0.10209663247E+04  0.25500000920E-02 0. -1.
       -2    1    3    3    0  502  0.47053721867E+03 -0.70460608709E+03 -0.23314975605E+04  0.24806764978E+04  0.25500000920E-02 0.  1.
</event>
<event>
 5   0  0.2422083E-06  0.2726974E+04  0.7818609E-02  0.8326305E-01
        1   -1    0    0  501    0  0.00000000000E+00  0.00000000000E+00  0.19134564772E+04  0.19134564772E+04  0.50400001928E-02 0. -1.
       -1   -1    0    0    0  501  0.00000000000E+00  0.00000000000E+00 -0.97159115375E+03  0.97159115377E+03  0.50400001928E-02 0.  1.
    10030    2    1    2    0    0  0.00000000000E+00  0.00000000000E+00  0.94186532342E+03  0.28850476309E+04  0.27269744306E+04 0.  0.
        2    1    3    3  502    0 -0.99980034901E+03 -0.91800764337E+03  0.33397353255E+03  0.13978115365E+04  0.25500000920E-02 0.  1.
       -2    1    3    3    0  502  0.99980034901E+03  0.91800764337E+03  0.60789179086E+03  0.14872360944E+04  0.25500000920E-02 0. -1.
</event>
<event>
 5   0  0.7201538E-06  0.2946351E+04  0.7818609E-02  0.8259219E-01
        2   -1    0    0  501    0  0.00000000000E+00  0.00000000000E+00  0.18029390185E+04  0.18029390185E+04  0.25500000920E-02 0.  1.
       -2   -1    0    0    0  501  0.00000000000E+00  0.00000000000E+00 -0.12037269182E+04  0.12037269182E+04  0.25500000920E-02 0. -1.
    10030    2    1    2    0    0  0.00000000000E+00  0.00000000000E+00  0.59921210033E+03  0.30066659368E+04  0.29463511186E+04 0.  0.
        3    1    3    3  502    0  0.69304996799E+03  0.11522922728E+03  0.16209683367E+04  0.17666732555E+04  0.10100000352E+00 0.  1.
       -3    1    3    3    0  502 -0.69304996799E+03 -0.11522922728E+03 -0.10217562363E+04  0.12399926813E+04  0.10100000352E+00 0. -1.
</event>
<event>
 5   0  0.6792811E-06  0.2986942E+04  0.7818609E-02  0.8247469E-01
        2   -1    0    0  501    0  0.00000000000E+00  0.00000000000E+00  0.18591896042E+04  0.18591896042E+04  0.25500000920E-02 0. -1.
       -2   -1    0    0    0  501  0.00000000000E+00  0.00000000000E+00 -0.11996926151E+04  0.11996926151E+04  0.25500000920E-02 0.  1.
    10030    2    1    2    0    0  0.00000000000E+00  0.00000000000E+00  0.65949698906E+03  0.30588822194E+04  0.29869422748E+04 0.  0.
        2    1    3    3  502    0 -0.42281980159E+02 -0.19513997733E+03 -0.11859622987E+04  0.12026528803E+04  0.25500000920E-02 0.  1.
       -2    1    3    3    0  502  0.42281980159E+02  0.19513997733E+03  0.18454592877E+04  0.18562293391E+04  0.25500000920E-02 0. -1.
</event>
<event>
 5   0  0.6792811E-06  0.3002342E+04  0.7818609E-02  0.8243062E-01
       -2   -1    0    0    0  501  0.00000000000E+00  0.00000000000E+00  0.11203306791E+04  0.11203306791E+04  0.25500000920E-02 0.  1.
        2   -1    0    0  501    0  0.00000000000E+00  0.00000000000E+00 -0.20114731048E+04  0.20114731048E+04  0.25500000920E-02 0. -1.
    10030    2    1    2    0    0  0.00000000000E+00  0.00000000000E+00 -0.89114242562E+03  0.31318037839E+04  0.30023424385E+04 0.  0.
        2    1    3    3  502    0 -0.13533058512E+04  0.42290749835E+03  0.68875862314E+02  0.14195180039E+04  0.25500000920E-02 0.  1.
       -2    1    3    3    0  502  0.13533058512E+04 -0.42290749835E+03 -0.96001828794E+03  0.17122857800E+04  0.25500000920E-02 0. -1.
</event>
<event>
 5   0  0.2504260E-06  0.3009787E+04  0.7818609E-02  0.8240942E-01
        1   -1    0    0  501    0  0.00000000000E+00  0.00000000000E+00  0.20200058368E+04  0.20200058368E+04  0.50400001928E-02 0. -1.
       -1   -1    0    0    0  501  0.00000000000E+00  0.00000000000E+00 -0.11211372647E+04  0.11211372647E+04  0.50400001928E-02 0.  1.
    10030    2    1    2    0    0  0.00000000000E+00  0.00000000000E+00  0.89886857213E+03  0.31411431015E+04  0.30097865829E+04 0.  0.
        4    1    3    3  502    0  0.11620758321E+04 -0.93149598774E+03  0.67471908486E+03  0.16350389815E+04  0.12699999809E+01 0. -1.
       -4    1    3    3    0  502 -0.11620758321E+04  0.93149598774E+03  0.22414948727E+03  0.15061041200E+04  0.12699999809E+01 0.  1.
</event>
<event>
 5   0  0.2298500E-06  0.2243566E+04  0.7818609E-02  0.8500511E-01
        3   -1    0    0  501    0  0.00000000000E+00  0.00000000000E+00  0.18183610706E+04  0.18183610734E+04  0.10100000352E+00 0.  1.
       -3   -1    0    0    0  501  0.00000000000E+00  0.00000000000E+00 -0.69205018211E+03  0.69205018948E+03  0.10100000352E+00 0. -1.
    10030    2    1    2    0    0  0.00000000000E+00  0.00000000000E+00  0.11263108884E+04  0.25104112628E+04  0.22435660211E+04 0.  0.
        3    1    3    3  502    0 -0.78182660523E+02  0.84414368777E+03 -0.25886884689E+03  0.88639956233E+03  0.10100000352E+00 0. -1.
       -3    1    3    3    0  502  0.78182660523E+02 -0.84414368777E+03  0.13851797353E+04  0.16240117005E+04  0.10100000352E+00 0.  1.
</event>
<event>
 5   0  0.7217255E-06  0.2735158E+04  0.7818609E-02  0.8323687E-01
       -2   -1    0    0    0  501  0.00000000000E+00  0.00000000000E+00  0.91703505839E+03  0.91703505839E+03  0.25500000920E-02 0. -1.
        2   -1    0    0  501    0  0.00000000000E+00  0.00000000000E+00 -0.20394774084E+04  0.20394774084E+04  0.25500000920E-02 0.  1.
    10030    2    1    2    0    0  0.00000000000E+00  0.00000000000E+00 -0.11224423500E+04  0.29565124668E+04  0.27351579730E+04 0.  0.
        1    1    3    3  502    0 -0.28629254009E+03  0.10953632966E+04  0.26799191227E+03  0.11634448139E+04  0.50400001928E-02 0. -1.
       -1    1    3    3    0  502  0.28629254009E+03 -0.10953632966E+04 -0.13904342623E+04  0.17930676528E+04  0.50400001928E-02 0.  1.
</event>
<event>
 5   0  0.7201538E-06  0.2343598E+04  0.7818609E-02  0.8460927E-01
       -2   -1    0    0    0  501  0.00000000000E+00  0.00000000000E+00  0.11240458511E+04  0.11240458511E+04  0.25500000920E-02 0. -1.
        2   -1    0    0  501    0  0.00000000000E+00  0.00000000000E+00 -0.12215808081E+04  0.12215808081E+04  0.25500000920E-02 0.  1.
    10030    2    1    2    0    0  0.00000000000E+00  0.00000000000E+00 -0.97534957008E+02  0.23456266592E+04  0.23435979511E+04 0.  0.
        3    1    3    3  502    0 -0.83146586486E+02  0.50835751542E+03 -0.11021861040E+04  0.12166161828E+04  0.10100000352E+00 0.  1.
       -3    1    3    3    0  502  0.83146586486E+02 -0.50835751542E+03  0.10046511470E+04  0.11290104763E+04  0.10100000352E+00 0. -1.
</event>
<event>
 5   0  0.2422083E-06  0.2989258E+04  0.7818609E-02  0.8246805E-01
        1   -1    0    0  501    0  0.00000000000E+00  0.00000000000E+00  0.23438540786E+04  0.23438540786E+04  0.50400001928E-02 0.  1.
       -1   -1    0    0    0  501  0.00000000000E+00  0.00000000000E+00 -0.95309518245E+03  0.95309518246E+03  0.50400001928E-02 0. -1.
    10030    2    1    2    0    0  0.00000000000E+00  0.00000000000E+00  0.13907588961E+04  0.32969492610E+04  0.29892581225E+04 0.  0.
        2    1    3    3  502    0  0.73264141317E+03 -0.82466782791E+03 -0.41692956324E+03  0.11792670297E+04  0.25500000920E-02 0. -1.
       -2    1    3    3    0  502 -0.73264141317E+03  0.82466782791E+03  0.18076884594E+04  0.21176822313E+04  0.25500000920E-02 0.  1.
</event>
<event>
 5   0  0.7201538E-06  0.2982266E+04  0.7818609E-02  0.8248813E-01
        2   -1    0    0  501    0  0.00000000000E+00  0.00000000000E+00  0.96607281386E+03  0.96607281386E+03  0.25500000920E-02 0. -1.
       -2   -1    0    0    0  501  0.00000000000E+00  0.00000000000E+00 -0.23015624833E+04  0.23015624833E+04  0.25500000920E-02 0.  1.
    10030    2    1    2    0    0  0.00000000000E+00  0.00000000000E+00 -0.13354896695E+04  0.32676352972E+04  0.29822655445E+04 0.  0.
        3    1    3    3  502    0  0.96828333796E+03 -0.87497452817E+03  0.12261370404E+03  0.13107963908E+04  0.10100000352E+00 0. -1.
       -3    1    3    3    0  502 -0.96828333796E+03  0.87497452817E+03 -0.14581033735E+04  0.19568389064E+04  0.10100000352E+00 0.  1.
</event>
<event>
 5   0  0.6792811E-06  0.2989319E+04  0.7818609E-02  0.8246787E-01
       -2   -1    0    0    0  501  0.00000000000E+00  0.00000000000E+00  0.10547201565E+04  0.10547201565E+04  0.25500000920E-02 0. -1.
        2   -1    0    0  501    0  0.00000000000E+00  0.00000000000E+00 -0.21181043839E+04  0.21181043839E+04  0.25500000920E-02 0.  1.
    10030    2    1    2    0    0  0.00000000000E+00  0.00000000000E+00 -0.10633842274E+04  0.31728245404E+04  0.29893192451E+04 0.  0.
        2    1    3    3  502    0 -0.11623336878E+03  0.12714973753E+04  0.29304833934E+03  0.13099973666E+04  0.25500000920E-02 0. -1.
       -2    1    3    3    0  502  0.11623336878E+03 -0.12714973753E+04 -0.13564325667E+04  0.18628271738E+04  0.25500000920E-02 0.  1.
</event>
<event>
 5   0  0.6780150E-06  0.3021281E+04  0.7818609E-02  0.8237680E-01
        2   -1    0    0  501    0  0.00000000000E+00  0.00000000000E+00  0.21433418824E+04  0.21433418824E+04  0.25500000920E-02 0.  1.
       -2   -1    0    0    0  501  0.00000000000E+00  0.00000000000E+00 -0.10647088208E+04  0.10647088208E+04  0.25500000920E-02 0. -1.
    10030    2    1    2    0    0  0.00000000000E+00  0.00000000000E+00  0.10786330615E+04  0.32080507032E+04  0.30212811906E+04 0.  0.
        5    1    3    3  502    0 -0.65819049138E+02 -0.73671577992E+03  0.19379088346E+04  0.20742697580E+04  0.46999998093E+01 0.  1.
       -5    1    3    3    0  502  0.65819049138E+02  0.73671577992E+03 -0.85927577305E+03  0.11337809452E+04  0.46999998093E+01 0. -1.
</event>
<event>
 5   0  0.2672155E-06  0.2947776E+04  0.7818609E-02  0.8258803E-01
        1   -1    0    0  501    0  0.00000000000E+00  0.00000000000E+00  0.12029752846E+04  0.12029752847E+04  0.50400001928E-02 0.  1.
       -1   -1    0    0    0  501  0.00000000000E+00  0.00000000000E+00 -0.18058103878E+04  0.18058103878E+04  0.50400001928E-02 0. -1.
    10030    2    1    2    0    0  0.00000000000E+00  0.00000000000E+00 -0.60283510319E+03  0.30087856725E+04  0.29477756125E+04 0.  0.
        5    1    3    3  502    0 -0.30653126518E+03  0.99522667349E+02 -0.17693973500E+04  0.17985147344E+04  0.46999998093E+01 0. -1.
       -5    1    3    3    0  502  0.30653126518E+03 -0.99522667349E+02  0.11665622468E+04  0.12102709381E+04  0.46999998093E+01 0.  1.
</event>
<event>
 5   0  0.2672155E-06  0.2377030E+04  0.7818609E-02  0.8448153E-01
        1   -1    0    0  501    0  0.00000000000E+00  0.00000000000E+00  0.12562971428E+04  0.12562971428E+04  0.50400001928E-02 0.  1.
       -1   -1    0    0    0  501  0.00000000000E+00  0.00000000000E+00 -0.11243903964E+04  0.11243903964E+04  0.50400001928E-02 0. -1.
    10030    2    1    2    0    0  0.00000000000E+00  0.00000000000E+00  0.13190674638E+03  0.23806875392E+04  0.23770304520E+04 0.  0.
        5    1    3    3  502    0  0.69616326893E+03  0.36284608258E+03  0.95965227445E+03  0.12398609416E+04  0.46999998093E+01 0.  1.
       -5    1    3    3    0  502 -0.69616326893E+03 -0.36284608258E+03 -0.82774552807E+03  0.11408265976E+04  0.46999998093E+01 0. -1.
</event>
<event>
 5   0  0.7217255E-06  0.3011042E+04  0.7818609E-02  0.8240585E-01
        2   -1    0    0  501    0  0.00000000000E+00  0.00000000000E+00  0.16336339527E+04  0.16336339527E+04  0.25500000920E-02 0.  1.
       -2   -1    0    0    0  501  0.00000000000E+00  0.00000000000E+00 -0.13874544928E+04  0.13874544928E+04  0.25500000920E-02 0. -1.
    10030    2    1    2    0    0  0.00000000000E+00  0.00000000000E+00  0.24617945996E+03  0.30210884455E+04  0.30110415256E+04 0.  0.
        1    1    3    3  502    0  0.12414462857E+04 -0.76313040669E+03 -0.25637304186E+03  0.14796229366E+04  0.50400001928E-02 0.  1.
       -1    1    3    3    0  502 -0.12414462857E+04  0.76313040669E+03  0.50255250182E+03  0.15414655089E+04  0.50400001928E-02 0. -1.
</event>
<event>
 5   0  0.2504260E-06  0.2856088E+04  0.7818609E-02  0.8286064E-01
       -1   -1    0    0    0  501  0.00000000000E+00  0.00000000000E+00  0.11035701866E+04  0.11035701866E+04  0.50400001928E-02 0.  1.
        1   -1    0    0  501    0  0.00000000000E+00  0.00000000000E+00 -0.18479206329E+04  0.18479206329E+04  0.50400001928E-02 0. -1.
    10030    2    1    2    0    0  0.00000000000E+00  0.00000000000E+00 -0.74435044634E+03  0.29514908195E+04  0.28560883164E+04 0.  0.
        4    1    3    3  502    0  0.99321955168E+03  0.27687368899E+02 -0.14321350500E+04  0.17430616979E+04  0.12699999809E+01 0. -1.
       -4    1    3    3    0  502 -0.99321955168E+03 -0.27687368899E+02  0.68778460365E+03  0.12084291217E+04  0.12699999809E+01 0.  1.
</event>
<event>
 5   0  0.6792811E-06  0.3011802E+04  0.7818609E-02  0.8240369E-01
       -2   -1    0    0    0  501  0.00000000000E+00  0.00000000000E+00  0.10863087828E+04  0.10863087828E+04  0.25500000920E-02 0.  1.
        2   -1    0    0  501    0  0.00000000000E+00  0.00000000000E+00 -0.20875625184E+04  0.20875625184E+04  0.25500000920E-02 0. -1.
    10030    2    1    2    0    0  0.00000000000E+00  0.00000000000E+00 -0.10012537356E+04  0.31738713012E+04  0.30118017852E+04 0.  0.
        2    1    3    3  502    0 -0.34833698814E+03  0.54269577308E+03  0.93343987070E+03  0.11345339799E+04  0.25500000920E-02 0.  1.
       -2    1    3    3    0  502  0.34833698814E+03 -0.54269577308E+03 -0.19346936063E+04  0.20393373212E+04  0.25500000920E-02 0. -1.
</event>
<event>
 5   0  0.2628425E-06  0.2970646E+04  0.7818609E-02  0.8252163E-01
       -1   -1    0    0    0  501  0.00000000000E+00  0.00000000000E+00  0.11266324950E+04  0.11266324950E+04  0.50400001928E-02 0.  1.
        1   -1    0    0  501    0  0.00000000000E+00  0.00000000000E+00 -0.19582116907E+04  0.19582116907E+04  0.50400001928E-02 0. -1.
    10030    2    1    2    0    0  0.00000000000E+00  0.00000000000E+00 -0.83157919575E+03  0.30848441857E+04  0.29706463424E+04 0.  0.
        1    1    3    3  502    0 -0.89411370777E+03  0.67820566299E+03 -0.14262223923E+04  0.18148037238E+04  0.50400001928E-02 0. -1.
       -1    1    3    3    0  502  0.89411370777E+03 -0.67820566299E+03  0.59464319651E+03  0.12700404619E+04  0.50400001928E-02 0.  1.
</event>
<event>
 5   0  0.7193153E-06  0.2966533E+04  0.7818609E-02  0.8253353E-01
        2   -1    0    0  501    0  0.00000000000E+00  0.00000000000E+00  0.13588418664E+04  0.13588418664E+04  0.25500000920E-02 0. -1.
       -2   -1    0    0    0  501  0.00000000000E+00  0.00000000000E+00 -0.16190845911E+04  0.16190845911E+04  0.25500000920E-02 0.  1.
    10030    2    1    2    0    0  0.00000000000E+00  0.00000000000E+00 -0.26024272468E+03  0.29779264575E+04  0.29665332815E+04 0.  0.
        4    1    3    3  502    0  0.14792680370E+03  0.11953945426E+04  0.73878245091E+03  0.14130292192E+04  0.12699999809E+01 0. -1.
       -4    1    3    3    0  502 -0.14792680370E+03 -0.11953945426E+04 -0.99902517559E+03  0.15648972382E+04  0.12699999809E+01 0.  1.
</event>
<event>
 5   0  0.2504260E-06  0.3129895E+04  0.7818609E-02  0.8207581E-01
       -1   -1    0    0    0  501  0.00000000000E+00  0.00000000000E+00  0.12035887216E+04  0.12035887217E+04  0.50400001928E-02 0.  1.
        1   -1    0    0  501    0  0.00000000000E+00  0.00000000000E+00 -0.20347991885E+04  0.20347991885E+04  0.50400001928E-02 0. -1.
    10030    2    1    2    0    0  0.00000000000E+00  0.00000000000E+00 -0.83121046683E+03  0.32383879101E+04  0.31298954322E+04 0.  0.
        4    1    3    3  502    0 -0.93103590493E+03  0.10200189130E+04  0.34597533933E+03  0.14237159083E+04  0.12699999809E+01 0.  1.
       -4    1    3    3    0  502  0.93103590493E+03 -0.10200189130E+04 -0.11771858062E+04  0.18146720019E+04  0.12699999809E+01 0. -1.
</event>
<event>
 5   0  0.6780150E-06  0.2446268E+04  0.7818609E-02  0.8422382E-01
        2   -1    0    0  501    0  0.00000000000E+00  0.00000000000E+00  0.15774187949E+04  0.15774187949E+04  0.25500000920E-02 0.  1.
       -2   -1    0    0    0  501  0.00000000000E+00  0.00000000000E+00 -0.94842097373E+03  0.94842097374E+03  0.25500000920E-02 0. -1.
    10030    2    1    2    0    0  0.00000000000E+00  0.00000000000E+00  0.62899782113E+03  0.25258397686E+04  0.24462682350E+04 0.  0.
        5    1    3    3  502    0  0.63262651590E+03 -0.96726367702E+03  0.72779339550E+03  0.13658406371E+04  0.46999998093E+01 0.  1.
       -5    1    3    3    0  502 -0.63262651590E+03  0.96726367702E+03 -0.98795574371E+02  0.11599991315E+04  0.46999998093E+01 0. -1.
</event>
<event>
 5   0  0.2504260E-06  0.3000087E+04  0.7818609E-02  0.8243706E-01
        1   -1    0    0  501    0  0.00000000000E+00  0.00000000000E+00  0.13751407956E+04  0.13751407956E+04  0.50400001928E-02 0. -1.
       -1   -1    0    0    0  501  0.00000000000E+00  0.00000000000E+00 -0.16362912015E+04  0.16362912015E+04  0.50400001928E-02 0.  1.
    10030    2    1    2    0    0  0.00000000000E+00  0.00000000000E+00 -0.26115040590E+03  0.30114319970E+04  0.30000871885E+04 0.  0.
        4    1    3    3  502    0 -0.36962353350E+03  0.22722480378E+03  0.13107783036E+04  0.13807222900E+04  0.12699999809E+01 0. -1.
       -4    1    3    3    0  502  0.36962353350E+03 -0.22722480378E+03 -0.15719287095E+04  0.16307097070E+04  0.12699999809E+01 0.  1.
</event>
<event>
 5   0  0.2672155E-06  0.3000639E+04  0.7818609E-02  0.8243548E-01
       -1   -1    0    0    0  501  0.00000000000E+00  0.00000000000E+00  0.13591104977E+04  0.13591104978E+04  0.50400001928E-02 0. -1.
        1   -1    0    0  501    0  0.00000000000E+00  0.00000000000E+00 -0.16561999549E+04  0.16561999549E+04  0.50400001928E-02 0.  1.
    10030    2    1    2    0    0  0.00000000000E+00  0.00000000000E+00 -0.29708945717E+03  0.30153104527E+04  0.30006390953E+04 0.  0.
        5    1    3    3  502    0  0.14203233765E+04  0.14894054395E+03 -0.61061346176E+03  0.15531814669E+04  0.46999998093E+01 0.  1.
       -5    1    3    3    0  502 -0.14203233765E+04 -0.14894054395E+03  0.31352400459E+03  0.14621289857E+04  0.46999998093E+01 0. -1.
</event>
<event>
 5   0  0.7217255E-06  0.3044586E+04  0.7818609E-02  0.8231112E-01
       -2   -1    0    0    0  501  0.00000000000E+00  0.00000000000E+00  0.18913655390E+04  0.18913655390E+04  0.25500000920E-02 0. -1.
        2   -1    0    0  501    0  0.00000000000E+00  0.00000000000E+00 -0.12252398780E+04  0.12252398780E+04  0.25500000920E-02 0.  1.
    10030    2    1    2    0    0  0.00000000000E+00  0.00000000000E+00  0.66612566108E+03  0.31166054170E+04  0.30445863313E+04 0.  0.
        1    1    3    3  502    0  0.11190589814E+03  0.45721813263E+03  0.18149972244E+04  0.18750430063E+04  0.50400001928E-02 0. -1.
       -1    1    3    3    0  502 -0.11190589814E+03 -0.45721813263E+03 -0.11488715633E+04  0.12415624107E+04  0.50400001928E-02 0.  1.
</event>
<event>
 5   0  0.2672155E-06  0.2995432E+04  0.7818609E-02  0.8245036E-01
       -1   -1    0    0    0  501  0.00000000000E+00  0.00000000000E+00  0.15522048170E+04  0.15522048170E+04  0.50400001928E-02 0. -1.
        1   -1    0    0  501    0  0.00000000000E+00  0.00000000000E+00 -0.14451402317E+04  0.14451402317E+04  0.50400001928E-02 0.  1.
    10030    2    1    2    0    0  0.00000000000E+00  0.00000000000E+00  0.10706458525E+03  0.29973450487E+04  0.29954322753E+04 0.  0.
        5    1    3    3  502    0  0.61072808050E+02 -0.22518040253E+03  0.15339010209E+04  0.15515510089E+04  0.46999998093E+01 0. -1.
       -5    1    3    3    0  502 -0.61072808050E+02  0.22518040253E+03 -0.14268364356E+04  0.14457940398E+04  0.46999998093E+01 0.  1.
</event>
<event>
 5   0  0.7217255E-06  0.3025429E+04  0.7818609E-02  0.8236507E-01
       -2   -1    0    0    0  501  0.00000000000E+00  0.00000000000E+00  0.11900937191E+04  0.11900937191E+04  0.25500000920E-02 0.  1.
        2   -1    0    0  501    0  0.00000000000E+00  0.00000000000E+00 -0.19227938199E+04  0.19227938199E+04  0.25500000920E-02 0. -1.
    10030    2    1    2    0    0  0.00000000000E+00  0.00000000000E+00 -0.73270010079E+03  0.31128875390E+04  0.30254287948E+04 0.  0.
        1    1    3    3  502    0  0.95564819281E+03 -0.17795820481E+03 -0.15588947940E+04  0.18371405961E+04  0.50400001928E-02 0. -1.
       -1    1    3    3    0  502 -0.95564819281E+03  0.17795820481E+03  0.82619469320E+03  0.12757469428E+04  0.50400001928E-02 0.  1.
</event>
<event>
 5   0  0.2552990E-06  0.2887666E+04  0.7818609E-02  0.8276557E-01
        1   -1    0    0  501    0  0.00000000000E+00  0.00000000000E+00  0.18665260382E+04  0.18665260382E+04  0.50400001928E-02 0. -1.
       -1   -1    0    0    0  501  0.00000000000E+00  0.00000000000E+00 -0.11168632653E+04  0.11168632653E+04  0.50400001928E-02 0.  1.
    10030    2    1    2    0    0  0.00000000000E+00  0.00000000000E+00  0.74966277289E+03  0.29833893035E+04  0.28876664391E+04 0.  0.
        3    1    3    3  502    0 -0.74441044080E+03 -0.63935000975E+03 -0.71939911311E+03  0.12167376190E+04  0.10100000352E+00 0.  1.
       -3    1    3    3    0  502  0.74441044080E+03  0.63935000975E+03  0.14690618860E+04  0.17666516845E+04  0.10100000352E+00 0. -1.
</event>
<event>
 5   0  0.2672155E-06  0.2996882E+04  0.7818609E-02  0.8244622E-01
        1   -1    0    0  501    0  0.00000000000E+00  0.00000000000E+00  0.63854922693E+03  0.63854922695E+03  0.50400001928E-02 0. -1.
       -1   -1    0    0    0  501  0.00000000000E+00  0.00000000000E+00 -0.35162923804E+04  0.35162923804E+04  0.50400001928E-02 0.  1.
    10030    2    1    2    0    0  0.00000000000E+00  0.00000000000E+00 -0.28777431535E+04  0.41548416074E+04  0.29968822341E+04 0.  0.
        5    1    3    3  502    0  0.12881577226E+04  0.61986619303E+03 -0.20615423693E+04  0.25086975597E+04  0.46999998093E+01 0.  1.
       -5    1    3    3    0  502 -0.12881577226E+04 -0.61986619303E+03 -0.81620078419E+03  0.16461440477E+04  0.46999998093E+01 0. -1.
</event>
<event>
 5   0  0.7193153E-06  0.3073104E+04  0.7818609E-02  0.8223158E-01
        2   -1    0    0  501    0  0.00000000000E+00  0.00000000000E+00  0.22070886370E+04  0.22070886370E+04  0.25500000920E-02 0.  1.
       -2   -1    0    0    0  501  0.00000000000E+00  0.00000000000E+00 -0.10697313402E+04  0.10697313402E+04  0.25500000920E-02 0. -1.
    10030    2    1    2    0    0  0.00000000000E+00  0.00000000000E+00  0.11373572968E+04  0.32768199772E+04  0.30731038938E+04 0.  0.
        4    1    3    3  502    0  0.51710562955E+03  0.14406983776E+04  0.71165786196E+03  0.16880368991E+04  0.12699999809E+01 0.  1.
       -4    1    3    3    0  502 -0.51710562955E+03 -0.14406983776E+04  0.42569943487E+03  0.15887830781E+04  0.12699999809E+01 0. -1.
</event>
<event>
 5   0  0.6792811E-06  0.2992419E+04  0.7818609E-02  0.8245899E-01
       -2   -1    0    0    0  501  0.00000000000E+00  0.00000000000E+00  0.10258396686E+04  0.10258396687E+04  0.25500000920E-02 0.  1.
        2   -1    0    0  501    0  0.00000000000E+00  0.00000000000E+00 -0.21822547187E+04  0.21822547187E+04  0.25500000920E-02 0. -1.
    10030    2    1    2    0    0  0.00000000000E+00  0.00000000000E+00 -0.11564150501E+04  0.32080943874E+04  0.29924193941E+04 0.  0.
        2    1    3    3  502    0  0.11779301475E+04  0.43025241989E+03 -0.14531188428E+04  0.19194246400E+04  0.25500000920E-02 0. -1.
       -2    1    3    3    0  502 -0.11779301475E+04 -0.43025241989E+03  0.29670379274E+03  0.12886697474E+04  0.25500000920E-02 0.  1.
</event>
<event>
 5   0  0.2504260E-06  0.2946279E+04  0.7818609E-02  0.8259240E-01
       -1   -1    0    0    0  501  0.00000000000E+00  0.00000000000E+00  0.10255454809E+04  0.10255454809E+04  0.50400001928E-02 0.  1.
        1   -1    0    0  501    0  0.00000000000E+00  0.00000000000E+00 -0.21160837978E+04  0.21160837978E+04  0.50400001928E-02 0. -1.
    10030    2    1    2    0    0  0.00000000000E+00  0.00000000000E+00 -0.10905383169E+04  0.31416292787E+04  0.29462791287E+04 0.  0.
        4    1    3    3  502    0  0.10000034004E+04  0.10812662907E+04 -0.51163456065E+03  0.15591392269E+04  0.12699999809E+01 0. -1.
       -4    1    3    3    0  502 -0.10000034004E+04 -0.10812662907E+04 -0.57890375626E+03  0.15824900518E+04  0.12699999809E+01 0.  1.
</event>
<event>
 5   0  0.6780150E-06  0.2974546E+04  0.7818609E-02  0.8251037E-01
       -2   -1    0    0    0  501  0.00000000000E+00  0.00000000000E+00  0.74956771337E+03  0.74956771337E+03  0.25500000920E-02 0. -1.
        2   -1    0    0  501    0  0.00000000000E+00  0.00000000000E+00 -0.29510096727E+04  0.29510096727E+04  0.25500000920E-02 0.  1.
    10030    2    1    2    0    0  0.00000000000E+00  0.00000000000E+00 -0.22014419593E+04  0.37005773860E+04  0.29745464007E+04 0.  0.
        5    1    3    3  502    0  0.51156257076E+03 -0.85278286451E+03  0.27511397716E+03  0.10318161989E+04  0.46999998093E+01 0. -1.
       -5    1    3    3    0  502 -0.51156257076E+03  0.85278286451E+03 -0.24765559365E+04  0.26687611872E+04  0.46999998093E+01 0.  1.
</event>
<event>
 5   0  0.2628425E-06  0.3015336E+04  0.7818609E-02  0.8239365E-01
       -1   -1    0    0    0  501  0.00000000000E+00  0.00000000000E+00  0.90750719301E+03  0.90750719302E+03  0.50400001928E-02 0. -1.
        1   -1    0    0  501    0  0.00000000000E+00  0.00000000000E+00 -0.25047329912E+04  0.25047329912E+04  0.50400001928E-02 0.  1.
    10030    2    1    2    0    0  0.00000000000E+00  0.00000000000E+00 -0.15972257982E+04  0.34122401842E+04  0.30153362705E+04 0.  0.
        1    1    3    3  502    0 -0.98113313727E+03  0.49551983292E+03 -0.19663860147E+04  0.22527396869E+04  0.50400001928E-02 0.  1.
       -1    1    3    3    0  502  0.98113313727E+03 -0.49551983292E+03  0.36916021653E+03  0.11595004974E+04  0.50400001928E-02 0. -1.
</event>
<event>
 5   0  0.7193153E-06  0.2988399E+04  0.7818609E-02  0.8247051E-01
       -2   -1    0    0    0  501  0.00000000000E+00  0.00000000000E+00  0.13666180160E+04  0.13666180160E+04  0.25500000920E-02 0.  1.
        2   -1    0    0  501    0  0.00000000000E+00  0.00000000000E+00 -0.16336917665E+04  0.16336917665E+04  0.25500000920E-02 0. -1.
    10030    2    1    2    0    0  0.00000000000E+00  0.00000000000E+00 -0.26707375047E+03  0.30003097825E+04  0.29883993044E+04 0.  0.
        4    1    3    3  502    0 -0.84363091036E+03 -0.91174020774E+03 -0.96729697448E+03  0.15743723731E+04  0.12699999809E+01 0. -1.
       -4    1    3    3    0  502  0.84363091036E+03  0.91174020774E+03  0.70022322400E+03  0.14259374094E+04  0.12699999809E+01 0.  1.
</event>
<event>
 5   0  0.2422083E-06  0.2960936E+04  0.7818609E-02  0.8254975E-01
       -1   -1    0    0    0  501  0.00000000000E+00  0.00000000000E+00  0.75058865426E+03  0.75058865427E+03  0.50400001928E-02 0.  1.
        1   -1    0    0  501    0  0.00000000000E+00  0.00000000000E+00 -0.29200885867E+04  0.29200885867E+04  0.50400001928E-02 0. -1.
    10030    2    1    2    0    0  0.00000000000E+00  0.00000000000E+00 -0.21694999324E+04  0.36706772410E+04  0.29609359079E+04 0.  0.
        2    1    3    3  502    0  0.67619147760E+03 -0.11504980921E+04 -0.18794215576E+04  0.23050176063E+04  0.25500000920E-02 0. -1.
       -2    1    3    3    0  502 -0.67619147760E+03  0.11504980921E+04 -0.29007837484E+03  0.13656596347E+04  0.25500000920E-02 0.  1.
</event>
<event>
 5   0  0.2422083E-06  0.3013948E+04  0.7818609E-02  0.8239759E-01
       -1   -1    0    0    0  501  0.00000000000E+00  0.00000000000E+00  0.13850809515E+04  0.13850809515E+04  0.50400001928E-02 0.  1.
        1   -1    0    0  501    0  0.00000000000E+00  0.00000000000E+00 -0.16395939466E+04  0.16395939466E+04  0.50400001928E-02 0. -1.
    10030    2    1    2    0    0  0.00000000000E+00  0.00000000000E+00 -0.25451299505E+03  0.30246748981E+04  0.30139478055E+04 0.  0.
        2    1    3    3  502    0 -0.14853424926E+04 -0.89494404874E+02 -0.36626117209E+03  0.15324486338E+04  0.25500000920E-02 0.  1.
       -2    1    3    3    0  502  0.14853424926E+04  0.89494404874E+02  0.11174817704E+03  0.14922262643E+04  0.25500000920E-02 0. -1.
</event>
<event>
 5   0  0.6792811E-06  0.3013222E+04  0.7818609E-02  0.8239965E-01
       -2   -1    0    0    0  501  0.00000000000E+00  0.00000000000E+00  0.91148005986E+03  0.91148005987E+03  0.25500000920E-02 0. -1.
        2   -1    0    0  501    0  0.00000000000E+00  0.00000000000E+00 -0.24903193413E+04  0.24903193413E+04  0.25500000920E-02 0.  1.
    10030    2    1    2    0    0  0.00000000000E+00  0.00000000000E+00 -0.15788392814E+04  0.34017994012E+04  0.30132218121E+04 0.  0.
        2    1    3    3  502    0  0.38589394689E+03 -0.89931885595E+03 -0.20826491585E+04  0.23011119182E+04  0.25500000920E-02 0.  1.
       -2    1    3    3    0  502 -0.38589394689E+03  0.89931885595E+03  0.50380987703E+03  0.11006874829E+04  0.25500000920E-02 0. -1.
</event>
<event>
 5   0  0.2672155E-06  0.2965143E+04  0.7818609E-02  0.8253755E-01
        1   -1    0    0  501    0  0.00000000000E+00  0.00000000000E+00  0.29305183123E+04  0.29305183123E+04  0.50400001928E-02 0. -1.
       -1   -1    0    0    0  501  0.00000000000E+00  0.00000000000E+00 -0.75004401877E+03  0.75004401879E+03  0.50400001928E-02 0.  1.
    10030    2    1    2    0    0  0.00000000000E+00  0.00000000000E+00  0.21804742935E+04  0.36805623311E+04  0.29651426489E+04 0.  0.
        5    1    3    3  502    0 -0.62287295916E+02  0.10002388073E+04 -0.26590418235E+03  0.10368628179E+04  0.46999998093E+01 0. -1.
       -5    1    3    3    0  502  0.62287295916E+02 -0.10002388073E+04  0.24463784759E+04  0.26436995132E+04  0.46999998093E+01 0.  1.
</event>
<event>
 5   0  0.2504260E-06  0.3002536E+04  0.7818609E-02  0.8243007E-01
       -1   -1    0    0    0  501  0.00000000000E+00  0.00000000000E+00  0.11930796779E+04  0.11930796780E+04  0.50400001928E-02 0.  1.
        1   -1    0    0  501    0  0.00000000000E+00  0.00000000000E+00 -0.18890653671E+04  0.18890653671E+04  0.50400001928E-02 0. -1.
    10030    2    1    2    0    0  0.00000000000E+00  0.00000000000E+00 -0.69598568919E+03  0.30821450451E+04  0.30025359281E+04 0.  0.
        4    1    3    3  502    0 -0.42307829260E+03  0.13124845628E+04 -0.95718621587E+03  0.16786357657E+04  0.12699999809E+01 0. -1.
       -4    1    3    3    0  502  0.42307829260E+03 -0.13124845628E+04  0.26120052668E+03  0.14035092794E+04  0.12699999809E+01 0.  1.
</event>
<event>
 5   0  0.2672155E-06  0.3387612E+04  0.7818609E-02  0.8140953E-01
        1   -1    0    0  501    0  0.00000000000E+00  0.00000000000E+00  0.30388700831E+04  0.30388700831E+04  0.50400001928E-02 0.  1.
       -1   -1    0    0    0  501  0.00000000000E+00  0.00000000000E+00 -0.94409382155E+03  0.94409382157E+03  0.50400001928E-02 0. -1.
    10030    2    1    2    0    0  0.00000000000E+00  0.00000000000E+00  0.20947762615E+04  0.39829639046E+04  0.33876118254E+04 0.  0.
        5    1    3    3  502    0  0.71107224025E+03  0.12605149011E+04  0.12710238096E+02  0.14473096375E+04  0.46999998093E+01 0. -1.
       -5    1    3    3    0  502 -0.71107224025E+03 -0.12605149011E+04  0.20820660234E+04  0.25356542671E+04  0.46999998093E+01 0.  1.
</event>
<event>
 5   0  0.6792811E-06  0.2982558E+04  0.7818609E-02  0.8248729E-01
       -2   -1    0    0    0  501  0.00000000000E+00  0.00000000000E+00  0.18587647856E+04  0.18587647856E+04  0.25500000920E-02 0. -1.
        2   -1    0    0  501    0  0.00000000000E+00  0.00000000000E+00 -0.11964466629E+04  0.11964466629E+04  0.25500000920E-02 0.  1.
    10030    2    1    2    0    0  0.00000000000E+00  0.00000000000E+00  0.66231812270E+03  0.30552114486E+04  0.29825579122E+04 0.  0.
        2    1    3    3  502    0  0.10155040942E+04 -0.10807024247E+03 -0.78204456379E+03  0.12862820229E+04  0.25500000920E-02 0.  1.
       -2    1    3    3    0  502 -0.10155040942E+04  0.10807024247E+03  0.14443626865E+04  0.17689294256E+04  0.25500000920E-02 0. -1.
</event>
<event>
 5   0  0.6792811E-06  0.3127234E+04  0.7818609E-02  0.8208303E-01
        2   -1    0    0  501    0  0.00000000000E+00  0.00000000000E+00  0.29504867319E+04  0.29504867319E+04  0.25500000920E-02 0.  1.
       -2   -1    0    0    0  501  0.00000000000E+00  0.00000000000E+00 -0.82864250955E+03  0.82864250956E+03  0.25500000920E-02 0. -1.
    10030    2    1    2    0    0  0.00000000000E+00  0.00000000000E+00  0.21218442223E+04  0.37791292414E+04  0.31272343883E+04 0.  0.
        2    1    3    3  502    0  0.58947480570E+03  0.11048734104E+04  0.21924105211E+04  0.25248543904E+04  0.25500000920E-02 0.  1.
       -2    1    3    3    0  502 -0.58947480570E+03 -0.11048734104E+04 -0.70566298806E+02  0.12542748511E+04  0.25500000920E-02 0. -1.
</event>
<event>
 5   0  0.2628425E-06  0.2946458E+04  0.7818609E-02  0.8259187E-01
       -1   -1    0    0    0  501  0.00000000000E+00  0.00000000000E+00  0.76390462295E+03  0.76390462297E+03  0.50400001928E-02 0.  1.
        1   -1    0    0  501    0  0.00000000000E+00  0.00000000000E+00 -0.28411976906E+04  0.28411976906E+04  0.50400001928E-02 0. -1.
    10030    2    1    2    0    0  0.00000000000E+00  0.00000000000E+00 -0.20772930676E+04  0.36051023136E+04  0.29464582472E+04 0.  0.
        1    1    3    3  502    0  0.10508746646E+03  0.14142100362E+04 -0.55019500517E+03  0.15211008993E+04  0.50400001928E-02 0.  1.
       -1    1    3    3    0  502 -0.10508746646E+03 -0.14142100362E+04 -0.15270980625E+04  0.20840014142E+04  0.50400001928E-02 0. -1.
</event>
<event>
 5   0  0.7201538E-06  0.3014257E+04  0.7818609E-02  0.8239671E-01
       -2   -1    0    0    0  501  0.00000000000E+00  0.00000000000E+00  0.11409615640E+04  0.11409615640E+04  0.25500000920E-02 0. -1.
        2   -1    0    0  501    0  0.00000000000E+00  0.00000000000E+00 -0.19908083622E+04  0.19908083622E+04  0.25500000920E-02 0.  1.
    10030    2    1    2    0    0  0.00000000000E+00  0.00000000000E+00 -0.84984679823E+03  0.31317699262E+04  0.30142566729E+04 0.  0.
        3    1    3    3  502    0  0.39579295933E+03 -0.12403684950E+04  0.36379600744E+03  0.13518556193E+04  0.10100000352E+00 0. -1.
       -3    1    3    3    0  502 -0.39579295933E+03  0.12403684950E+04 -0.12136428057E+04  0.17799143069E+04  0.10100000352E+00 0.  1.
</event>
<event>
 5   0  0.7201538E-06  0.2947086E+04  0.7818609E-02  0.8259004E-01
       -2   -1    0    0    0  501  0.00000000000E+00  0.00000000000E+00  0.16482549529E+04  0.16482549529E+04  0.25500000920E-02 0. -1.
        2   -1    0    0  501    0  0.00000000000E+00  0.00000000000E+00 -0.13173503222E+04  0.13173503222E+04  0.25500000920E-02 0.  1.
    10030    2    1    2    0    0  0.00000000000E+00  0.00000000000E+00  0.33090463069E+03  0.29656052751E+04  0.29470861496E+04 0.  0.
        3    1    3    3  502    0 -0.87292635380E+03 -0.11828622030E+04  0.63993284504E+02  0.14714817570E+04  0.10100000352E+00 0. -1.
       -3    1    3    3    0  502  0.87292635380E+03  0.11828622030E+04  0.26691134619E+03  0.14941235181E+04  0.10100000352E+00 0.  1.
</event>
<event>
 5   0  0.7193153E-06  0.2983139E+04  0.7818609E-02  0.8248562E-01
       -2   -1    0    0    0  501  0.00000000000E+00  0.00000000000E+00  0.15600247249E+04  0.15600247249E+04  0.25500000920E-02 0. -1.
        2   -1    0    0  501    0  0.00000000000E+00  0.00000000000E+00 -0.14261184051E+04  0.14261184051E+04  0.25500000920E-02 0.  1.
    10030    2    1    2    0    0  0.00000000000E+00  0.00000000000E+00  0.13390631972E+03  0.29861431300E+04  0.29831392677E+04 0.  0.
        4    1    3    3  502    0  0.25480800454E+03  0.56658028805E+03  0.14243562341E+04  0.15539410016E+04  0.12699999809E+01 0. -1.
       -4    1    3    3    0  502 -0.25480800454E+03 -0.56658028805E+03 -0.12904499144E+04  0.14322021284E+04  0.12699999809E+01 0.  1.
</event>
<event>
 5   0  0.2504260E-06  0.3211800E+04  0.7818609E-02  0.8185708E-01
       -1   -1    0    0    0  501  0.00000000000E+00  0.00000000000E+00  0.11705937787E+04  0.11705937787E+04  0.50400001928E-02 0.  1.
        1   -1    0    0  501    0  0.00000000000E+00  0.00000000000E+00 -0.22030832411E+04  0.22030832411E+04  0.50400001928E-02 0. -1.
    10030    2    1    2    0    0  0.00000000000E+00  0.00000000000E+00 -0.10324894624E+04  0.33736770198E+04  0.32118004521E+04 0.  0.
        4    1    3    3  502    0 -0.12023399333E+04  0.35907790795E+03 -0.15689304097E+04  0.20090053516E+04  0.12699999809E+01 0. -1.
       -4    1    3    3    0  502  0.12023399333E+04 -0.35907790795E+03  0.53644094731E+03  0.13646716682E+04  0.12699999809E+01 0.  1.
</event>
<event>
 5   0  0.2504260E-06  0.3022046E+04  0.7818609E-02  0.8237464E-01
        1   -1    0    0  501    0  0.00000000000E+00  0.00000000000E+00  0.17437767131E+04  0.17437767131E+04  0.50400001928E-02 0.  1.
       -1   -1    0    0    0  501  0.00000000000E+00  0.00000000000E+00 -0.13093361558E+04  0.13093361558E+04  0.50400001928E-02 0. -1.
    10030    2    1    2    0    0  0.00000000000E+00  0.00000000000E+00  0.43444055733E+03  0.30531128689E+04  0.30220455974E+04 0.  0.
        4    1    3    3  502    0 -0.14374696736E+04  0.44772053478E+03  0.87779980292E+02  0.15081378179E+04  0.12699999809E+01 0. -1.
       -4    1    3    3    0  502  0.14374696736E+04 -0.44772053478E+03  0.34666057704E+03  0.15449750511E+04  0.12699999809E+01 0.  1.
</event>
<event>
 5   0  0.6780150E-06  0.2874515E+04  0.7818609E-02  0.8280500E-01
        2   -1    0    0  501    0  0.00000000000E+00  0.00000000000E+00  0.13935857887E+04  0.13935857887E+04  0.25500000920E-02 0.  1.
       -2   -1    0    0    0  501  0.00000000000E+00  0.00000000000E+00 -0.14822982128E+04  0.14822982128E+04  0.25500000920E-02 0. -1.
    10030    2    1    2    0    0  0.00000000000E+00  0.00000000000E+00 -0.88712424149E+02  0.28758840015E+04  0.28745154193E+04 0.  0.
        5    1    3    3  502    0 -0.28333898145E+03  0.67459060540E+03  0.11932995271E+04  0.13997640211E+04  0.46999998093E+01 0.  1.
       -5    1    3    3    0  502  0.28333898145E+03 -0.67459060540E+03 -0.12820119513E+04  0.14761199804E+04  0.46999998093E+01 0. -1.
</event>
<event>
 5   0  0.2504260E-06  0.2989723E+04  0.7818609E-02  0.8246672E-01
       -1   -1    0    0    0  501  0.00000000000E+00  0.00000000000E+00  0.14475056750E+04  0.14475056750E+04  0.50400001928E-02 0.  1.
        1   -1    0    0  501    0  0.00000000000E+00  0.00000000000E+00 -0.15437666052E+04  0.15437666052E+04  0.50400001928E-02 0. -1.
    10030    2    1    2    0    0  0.00000000000E+00  0.00000000000E+00 -0.96260930131E+02  0.29912722802E+04  0.29897230118E+04 0.  0.
        4    1    3    3  502    0 -0.17949247084E+03  0.93750377383E+03  0.11028910113E+04  0.14585955809E+04  0.12699999809E+01 0.  1.
       -4    1    3    3    0  502  0.17949247084E+03 -0.93750377383E+03 -0.11991519414E+04  0.15326766993E+04  0.12699999809E+01 0. -1.
</event>
<event>
 5   0  0.7201538E-06  0.3014266E+04  0.7818609E-02  0.8239669E-01
       -2   -1    0    0    0  501  0.00000000000E+00  0.00000000000E+00  0.17953295550E+04  0.17953295550E+04  0.25500000920E-02 0.  1.
        2   -1    0    0  501    0  0.00000000000E+00  0.00000000000E+00 -0.12651995421E+04  0.12651995421E+04  0.25500000920E-02 0. -1.
    10030    2    1    2    0    0  0.00000000000E+00  0.00000000000E+00  0.53013001286E+03  0.30605290971E+04  0.30142661667E+04 0.  0.
        3    1    3    3  502    0 -0.11162055114E+03  0.10273823480E+04  0.13789329830E+04  0.17232033595E+04  0.10100000352E+00 0.  1.
       -3    1    3    3    0  502  0.11162055114E+03 -0.10273823480E+04 -0.84880297013E+03  0.13373257377E+04  0.10100000352E+00 0. -1.
</event>
<event>
 5   0  0.6780150E-06  0.2898673E+04  0.7818609E-02  0.8273272E-01
        2   -1    0    0  501    0  0.00000000000E+00  0.00000000000E+00  0.17554724686E+04  0.17554724686E+04  0.25500000920E-02 0. -1.
       -2   -1    0    0    0  501  0.00000000000E+00  0.00000000000E+00 -0.11965874411E+04  0.11965874411E+04  0.25500000920E-02 0.  1.
    10030    2    1    2    0    0  0.00000000000E+00  0.00000000000E+00  0.55888502747E+03  0.29520599098E+04  0.28986730131E+04 0.  0.
        5    1    3    3  502    0  0.77648292677E+03  0.81019780145E+03  0.12135086736E+04  0.16528676910E+04  0.46999998093E+01 0.  1.
       -5    1    3    3    0  502 -0.77648292677E+03 -0.81019780145E+03 -0.65462364618E+03  0.12991922187E+04  0.46999998093E+01 0. -1.
</event>
<event>
 5   0  0.2504260E-06  0.3066184E+04  0.7818609E-02  0.8225080E-01
       -1   -1    0    0    0  501  0.00000000000E+00  0.00000000000E+00  0.28942852828E+04  0.28942852828E+04  0.50400001928E-02 0.  1.
        1   -1    0    0  501    0  0.00000000000E+00  0.00000000000E+00 -0.81207281045E+03  0.81207281046E+03  0.50400001928E-02 0. -1.
    10030    2    1    2    0    0  0.00000000000E+00  0.00000000000E+00  0.20822124724E+04  0.37063580933E+04  0.30661835457E+04 0.  0.
        4    1    3    3  502    0 -0.96124939098E+03 -0.11938773540E+04  0.10024016310E+04  0.18314350031E+04  0.12699999809E+01 0.  1.
       -4    1    3    3    0  502  0.96124939098E+03  0.11938773540E+04  0.10798108414E+04  0.18749230902E+04  0.12699999809E+01 0. -1.
</event>
<event>
 5   0  0.2552990E-06  0.2565751E+04  0.7818609E-02  0.8379929E-01
        1   -1    0    0  501    0  0.00000000000E+00  0.00000000000E+00  0.16816927178E+04  0.16816927178E+04  0.50400001928E-02 0.  1.
       -1   -1    0    0    0  501  0.00000000000E+00  0.00000000000E+00 -0.97863856239E+03  0.97863856240E+03  0.50400001928E-02 0. -1.
    10030    2    1    2    0    0  0.00000000000E+00  0.00000000000E+00  0.70305415545E+03  0.26603312803E+04  0.25657508404E+04 0.  0.
        3    1    3    3  502    0  0.26899181431E+03  0.66203632850E+03 -0.75316757251E+03  0.10382244935E+04  0.10100000352E+00 0. -1.
       -3    1    3    3    0  502 -0.26899181431E+03 -0.66203632850E+03  0.14562217280E+04  0.16221067867E+04  0.10100000352E+00 0.  1.
</event>
<event>
 5   0  0.2504260E-06  0.3014182E+04  0.7818609E-02  0.8239693E-01
       -1   -1    0    0    0  501  0.00000000000E+00  0.00000000000E+00  0.13612804494E+04  0.13612804494E+04  0.50400001928E-02 0.  1.
        1   -1    0    0  501    0  0.00000000000E+00  0.00000000000E+00 -0.16685196461E+04  0.16685196461E+04  0.50400001928E-02 0. -1.
    10030    2    1    2    0    0  0.00000000000E+00  0.00000000000E+00 -0.30723919665E+03  0.30298000955E+04  0.30141819279E+04 0.  0.
        4    1    3    3  502    0 -0.14872316773E+03  0.10686122195E+04 -0.12113414033E+04  0.16221591366E+04  0.12699999809E+01 0. -1.
       -4    1    3    3    0  502  0.14872316773E+03 -0.10686122195E+04  0.90410220661E+03  0.14076409589E+04  0.12699999809E+01 0.  1.
</event>
<event>
 5   0  0.6780150E-06  0.2923074E+04  0.7818609E-02  0.8266045E-01
        2   -1    0    0  501    0  0.00000000000E+00  0.00000000000E+00  0.15108940241E+04  0.15108940241E+04  0.25500000920E-02 0. -1.
       -2   -1    0    0    0  501  0.00000000000E+00  0.00000000000E+00 -0.14137926524E+04  0.14137926524E+04  0.25500000920E-02 0.  1.
    10030    2    1    2    0    0  0.00000000000E+00  0.00000000000E+00  0.97101371638E+02  0.29246866765E+04  0.29230743198E+04 0.  0.
        5    1    3    3  502    0 -0.77538932545E+03 -0.63410636507E+03 -0.10163433355E+04  0.14269882108E+04  0.46999998093E+01 0.  1.
       -5    1    3    3    0  502  0.77538932545E+03  0.63410636507E+03  0.11134447071E+04  0.14976984657E+04  0.46999998093E+01 0. -1.
</event>
<event>
 5   0  0.2504260E-06  0.2996516E+04  0.7818609E-02  0.8244726E-01
        1   -1    0    0  501    0  0.00000000000E+00  0.00000000000E+00  0.17167867702E+04  0.17167867702E+04  0.50400001928E-02 0. -1.
       -1   -1    0    0    0  501  0.00000000000E+00  0.00000000000E+00 -0.13075455720E+04  0.13075455721E+04  0.50400001928E-02 0.  1.
    10030    2    1    2    0    0  0.00000000000E+00  0.00000000000E+00  0.40924119816E+03  0.30243323423E+04  0.29965159366E+04 0.  0.
        4    1    3    3  502    0  0.71576082182E+03 -0.11910622655E+04 -0.36078726840E+03  0.14356573199E+04  0.12699999809E+01 0. -1.
       -4    1    3    3    0  502 -0.71576082182E+03  0.11910622655E+04  0.77002846656E+03  0.15886750223E+04  0.12699999809E+01 0.  1.
</event>
<event>
 5   0  0.2422083E-06  0.2955909E+04  0.7818609E-02  0.8256435E-01
        1   -1    0    0  501    0  0.00000000000E+00  0.00000000000E+00  0.12643039235E+04  0.12643039235E+04  0.50400001928E-02 0.  1.
       -1   -1    0    0    0  501  0.00000000000E+00  0.00000000000E+00 -0.17277087120E+04  0.17277087121E+04  0.50400001928E-02 0. -1.
    10030    2    1    2    0    0  0.00000000000E+00  0.00000000000E+00 -0.46340478857E+03  0.29920126355E+04  0.29559085935E+04 0.  0.
        2    1    3    3  502    0 -0.70432592717E+03 -0.42608422395E+03  0.10107781088E+04  0.13035701603E+04  0.25500000920E-02 0.  1.
       -2    1    3    3    0  502  0.70432592717E+03  0.42608422395E+03 -0.14741828973E+04  0.16884424753E+04  0.25500000920E-02 0. -1.
</event>
<event>
 5   0  0.2672155E-06  0.3087649E+04  0.7818609E-02  0.8219136E-01
       -1   -1    0    0    0  501  0.00000000000E+00  0.00000000000E+00  0.13213239660E+04  0.13213239660E+04  0.50400001928E-02 0.  1.
        1   -1    0    0  501    0  0.00000000000E+00  0.00000000000E+00 -0.18037923240E+04  0.18037923240E+04  0.50400001928E-02 0. -1.
    10030    2    1    2    0    0  0.00000000000E+00  0.00000000000E+00 -0.48246835800E+03  0.31251162900E+04  0.30876489615E+04 0.  0.
        5    1    3    3  502    0 -0.12651608148E+04 -0.78976429529E+03 -0.64483660749E+03  0.16248679546E+04  0.46999998093E+01 0. -1.
       -5    1    3    3    0  502  0.12651608148E+04  0.78976429529E+03  0.16236824949E+03  0.15002483354E+04  0.46999998093E+01 0.  1.
</event>
<event>
 5   0  0.6792811E-06  0.2930093E+04  0.7818609E-02  0.8263980E-01
       -2   -1    0    0    0  501  0.00000000000E+00  0.00000000000E+00  0.71773766162E+03  0.71773766162E+03  0.25500000920E-02 0. -1.
        2   -1    0    0  501    0  0.00000000000E+00  0.00000000000E+00 -0.29904541175E+04  0.29904541175E+04  0.25500000920E-02 0.  1.
    10030    2    1    2    0    0  0.00000000000E+00  0.00000000000E+00 -0.22727164559E+04  0.37081917791E+04  0.29300932036E+04 0.  0.
        2    1    3    3  502    0 -0.11451427513E+04  0.67637711686E+03 -0.35876437940E+03  0.13775158093E+04  0.25500000920E-02 0. -1.
       -2    1    3    3    0  502  0.11451427513E+04 -0.67637711686E+03 -0.19139520765E+04  0.23306759698E+04  0.25500000920E-02 0.  1.
</event>
<event>
 5   0  0.7193153E-06  0.2955382E+04  0.7818609E-02  0.8256588E-01
        2   -1    0    0  501    0  0.00000000000E+00  0.00000000000E+00  0.20439627326E+04  0.20439627326E+04  0.25500000920E-02 0. -1.
       -2   -1    0    0    0  501  0.00000000000E+00  0.00000000000E+00 -0.10683026246E+04  0.10683026246E+04  0.25500000920E-02 0.  1.
    10030    2    1    2    0    0  0.00000000000E+00  0.00000000000E+00  0.97566010798E+03  0.31122653572E+04  0.29553820409E+04 0.  0.
        4    1    3    3  502    0 -0.78411293750E+03 -0.12432733209E+04  0.64756414212E+03  0.16062075147E+04  0.12699999809E+01 0. -1.
       -4    1    3    3    0  502  0.78411293750E+03  0.12432733209E+04  0.32809596585E+03  0.15060578425E+04  0.12699999809E+01 0.  1.
</event>
<event>
 5   0  0.7201538E-06  0.2904464E+04  0.7818609E-02  0.8271551E-01
        2   -1    0    0  501    0  0.00000000000E+00  0.00000000000E+00  0.18605962049E+04  0.18605962050E+04  0.25500000920E-02 0.  1.
       -2   -1    0    0    0  501  0.00000000000E+00  0.00000000000E+00 -0.11334954835E+04  0.11334954835E+04  0.25500000920E-02 0. -1.
    10030    2    1    2    0    0  0.00000000000E+00  0.00000000000E+00  0.72710072142E+03  0.29940916885E+04  0.29044637336E+04 0.  0.
        3    1    3    3  502    0 -0.78512496764E+03 -0.27555330196E+03 -0.86339952852E+03  0.11990869831E+04  0.10100000352E+00 0. -1.
       -3    1    3    3    0  502  0.78512496764E+03  0.27555330196E+03  0.15905002499E+04  0.17950047054E+04  0.10100000352E+00 0.  1.
</event>
<event>
 5   0  0.2628425E-06  0.2992015E+04  0.7818609E-02  0.8246015E-01
        1   -1    0    0  501    0  0.00000000000E+00  0.00000000000E+00  0.12312382941E+04  0.12312382941E+04  0.50400001928E-02 0. -1.
       -1   -1    0    0    0  501  0.00000000000E+00  0.00000000000E+00 -0.18177132150E+04  0.18177132150E+04  0.50400001928E-02 0.  1.
    10030    2    1    2    0    0  0.00000000000E+00  0.00000000000E+00 -0.58647492091E+03  0.30489515092E+04  0.29920147848E+04 0.  0.
        1    1    3    3  502    0  0.11537628931E+04  0.46112268699E+03  0.55582587693E+03  0.13611558880E+04  0.50400001928E-02 0. -1.
       -1    1    3    3    0  502 -0.11537628931E+04 -0.46112268699E+03 -0.11423007978E+04  0.16877956211E+04  0.50400001928E-02 0.  1.
</event>
<event>
 5   0  0.2552990E-06  0.3059069E+04  0.7818609E-02  0.8227062E-01
       -1   -1    0    0    0  501  0.00000000000E+00  0.00000000000E+00  0.11399800924E+04  0.11399800924E+04  0.50400001928E-02 0. -1.
        1   -1    0    0  501    0  0.00000000000E+00  0.00000000000E+00 -0.20522077349E+04  0.20522077349E+04  0.50400001928E-02 0.  1.
    10030    2    1    2    0    0  0.00000000000E+00  0.00000000000E+00 -0.91222764246E+03  0.31921878273E+04  0.30590691154E+04 0.  0.
        3    1    3    3  502    0 -0.75323607230E+03 -0.27077415962E+03 -0.18162091351E+04  0.19847667013E+04  0.10100000352E+00 0.  1.
       -3    1    3    3    0  502  0.75323607230E+03  0.27077415962E+03  0.90398149263E+03  0.12074211259E+04  0.10100000352E+00 0. -1.
</event>
<event>
 5   0  0.2672155E-06  0.2974319E+04  0.7818609E-02  0.8251102E-01
       -1   -1    0    0    0  501  0.00000000000E+00  0.00000000000E+00  0.10700232056E+04  0.10700232056E+04  0.50400001928E-02 0. -1.
        1   -1    0    0  501    0  0.00000000000E+00  0.00000000000E+00 -0.20669119893E+04  0.20669119893E+04  0.50400001928E-02 0.  1.
    10030    2    1    2    0    0  0.00000000000E+00  0.00000000000E+00 -0.99688878369E+03  0.31369351949E+04  0.29743192784E+04 0.  0.
        5    1    3    3  502    0 -0.10329735647E+04  0.99592427756E+03 -0.91060736682E+03  0.16994491515E+04  0.46999998093E+01 0.  1.
       -5    1    3    3    0  502  0.10329735647E+04 -0.99592427756E+03 -0.86281416864E+02  0.14374860434E+04  0.46999998093E+01 0. -1.
</event>
<event>
 5   0  0.2672155E-06  0.3005669E+04  0.7818609E-02  0.8242114E-01
        1   -1    0    0  501    0  0.00000000000E+00  0.00000000000E+00  0.16269150062E+04  0.16269150062E+04  0.50400001928E-02 0.  1.
       -1   -1    0    0    0  501  0.00000000000E+00  0.00000000000E+00 -0.13882169556E+04  0.13882169556E+04  0.50400001928E-02 0. -1.
    10030    2    1    2    0    0  0.00000000000E+00  0.00000000000E+00  0.23869805055E+03  0.30151319618E+04  0.30056686424E+04 0.  0.
        5    1    3    3  502    0 -0.18898196153E+03 -0.13723913342E+04 -0.46499401253E+03  0.14613054703E+04  0.46999998093E+01 0. -1.
       -5    1    3    3    0  502  0.18898196153E+03  0.13723913342E+04  0.70369206308E+03  0.15538264915E+04  0.46999998093E+01 0.  1.
</event>
<event>
 5   0  0.6792811E-06  0.2987310E+04  0.7818609E-02  0.8247364E-01
       -2   -1    0    0    0  501  0.00000000000E+00  0.00000000000E+00  0.10425526411E+04  0.10425526411E+04  0.25500000920E-02 0.  1.
        2   -1    0    0  501    0  0.00000000000E+00  0.00000000000E+00 -0.21399449420E+04  0.21399449420E+04  0.25500000920E-02 0. -1.
    10030    2    1    2    0    0  0.00000000000E+00  0.00000000000E+00 -0.10973923008E+04  0.31824975831E+04  0.29873099947E+04 0.  0.
        2    1    3    3  502    0 -0.74871402808E+03  0.12778065947E+04 -0.75539073943E+03  0.16625214460E+04  0.25500000920E-02 0. -1.
       -2    1    3    3    0  502  0.74871402808E+03 -0.12778065947E+04 -0.34200156140E+03  0.15199761371E+04  0.25500000920E-02 0.  1.
</event>
<event>
 5   0  0.6792811E-06  0.2986769E+04  0.7818609E-02  0.8247519E-01
        2   -1    0    0  501    0  0.00000000000E+00  0.00000000000E+00  0.33307839291E+04  0.33307839291E+04  0.25500000920E-02 0. -1.
       -2   -1    0    0    0  501  0.00000000000E+00  0.00000000000E+00 -0.66957144818E+03  0.66957144819E+03  0.25500000920E-02 0.  1.
    10030    2    1    2    0    0  0.00000000000E+00  0.00000000000E+00  0.26612124810E+04  0.40003553773E+04  0.29867693711E+04 0.  0.
        2    1    3    3  502    0 -0.12904975273E+04 -0.19209999947E+03  0.35746144668E+03  0.13527989368E+04  0.25500000920E-02 0.  1.
       -2    1    3    3    0  502  0.12904975273E+04  0.19209999947E+03  0.23037510343E+04  0.26475564405E+04  0.25500000920E-02 0. -1.
</event>
<event>
 5   0  0.2552990E-06  0.3019618E+04  0.7818609E-02  0.8238151E-01
       -1   -1    0    0    0  501  0.00000000000E+00  0.00000000000E+00  0.24360889968E+04  0.24360889968E+04  0.50400001928E-02 0. -1.
        1   -1    0    0  501    0  0.00000000000E+00  0.00000000000E+00 -0.93573041184E+03  0.93573041185E+03  0.50400001928E-02 0.  1.
    10030    2    1    2    0    0  0.00000000000E+00  0.00000000000E+00  0.15003585849E+04  0.33718194086E+04  0.30196175653E+04 0.  0.
        3    1    3    3  502    0 -0.17748544522E+03 -0.12381296605E+04 -0.19406097132E+03  0.12657510854E+04  0.10100000352E+00 0. -1.
       -3    1    3    3    0  502  0.17748544522E+03  0.12381296605E+04  0.16944195562E+04  0.21060683232E+04  0.10100000352E+00 0.  1.
</event>
<event>
 5   0  0.2628425E-06  0.2262268E+04  0.7818609E-02  0.8492949E-01
        1   -1    0    0  501    0  0.00000000000E+00  0.00000000000E+00  0.25393832796E+04  0.25393832796E+04  0.50400001928E-02 0. -1.
       -1   -1    0    0    0  501  0.00000000000E+00  0.00000000000E+00 -0.50384830958E+03  0.50384830961E+03  0.50400001928E-02 0.  1.
    10030    2    1    2    0    0  0.00000000000E+00  0.00000000000E+00  0.20355349700E+04  0.30432315892E+04  0.22622678647E+04 0.  0.
        1    1    3    3  502    0  0.11429883145E+03  0.57635703330E+03  0.23179782939E+04  0.23912914970E+04  0.50400001928E-02 0. -1.
       -1    1    3    3    0  502 -0.11429883145E+03 -0.57635703330E+03 -0.28244332381E+03  0.65194009226E+03  0.50400001928E-02 0.  1.
</event>
<event>
 5   0  0.7201538E-06  0.3038368E+04  0.7818609E-02  0.8232859E-01
        2   -1    0    0  501    0  0.00000000000E+00  0.00000000000E+00  0.15277343554E+04  0.15277343554E+04  0.25500000920E-02 0.  1.
       -2   -1    0    0    0  501  0.00000000000E+00  0.00000000000E+00 -0.15106818770E+04  0.15106818770E+04  0.25500000920E-02 0. -1.
    10030    2    1    2    0    0  0.00000000000E+00  0.00000000000E+00  0.17052478390E+02  0.30384162323E+04  0.30383683802E+04 0.  0.
        3    1    3    3  502    0  0.11897040268E+04  0.44722767853E+03 -0.82366012144E+03  0.15145376435E+04  0.10100000352E+00 0. -1.
       -3    1    3    3    0  502 -0.11897040268E+04 -0.44722767853E+03  0.84071259983E+03  0.15238785888E+04  0.10100000352E+00 0.  1.
</event>
<event>
 5   0  0.6780150E-06  0.3073400E+04  0.7818609E-02  0.8223076E-01
       -2   -1    0    0    0  501  0.00000000000E+00  0.00000000000E+00  0.17224068293E+04  0.17224068293E+04  0.25500000920E-02 0. -1.
        2   -1    0    0  501    0  0.00000000000E+00  0.00000000000E+00 -0.13710161950E+04  0.13710161950E+04  0.25500000920E-02 0.  1.
    10030    2    1    2    0    0  0.00000000000E+00  0.00000000000E+00  0.35139063427E+03  0.30934230243E+04  0.30734004994E+04 0.  0.
        5    1    3    3  502    0 -0.13383605103E+04  0.84856180994E+02 -0.57953702304E+03  0.14609225434E+04  0.46999998093E+01 0.  1.
       -5    1    3    3    0  502  0.13383605103E+04 -0.84856180994E+02  0.93092765731E+03  0.16325004809E+04  0.46999998093E+01 0. -1.
</event>
<event>
 5   0  0.2422083E-06  0.2979661E+04  0.7818609E-02  0.8249563E-01
        1   -1    0    0  501    0  0.00000000000E+00  0.00000000000E+00  0.19441045704E+04  0.19441045704E+04  0.50400001928E-02 0.  1.
       -1   -1    0    0    0  501  0.00000000000E+00  0.00000000000E+00 -0.11417058168E+04  0.11417058168E+04  0.50400001928E-02 0. -1.
    10030    2    1    2    0    0  0.00000000000E+00  0.00000000000E+00  0.80239875365E+03  0.30858103872E+04  0.29796613878E+04 0.  0.
        2    1    3    3  502    0 -0.96297776169E+03  0.90004623867E+03 -0.31793436221E+03  0.13559099011E+04  0.25500000920E-02 0. -1.
       -2    1    3    3    0  502  0.96297776169E+03 -0.90004623867E+03  0.11203331159E+04  0.17299004861E+04  0.25500000920E-02 0.  1.
</event>
<event>
 5   0  0.2422083E-06  0.3053485E+04  0.7818609E-02  0.8228621E-01
        1   -1    0    0  501    0  0.00000000000E+00  0.00000000000E+00  0.11454480783E+04  0.11454480783E+04  0.50400001928E-02 0. -1.
       -1   -1    0    0    0  501  0.00000000000E+00  0.00000000000E+00 -0.20349611115E+04  0.20349611115E+04  0.50400001928E-02 0.  1.
    10030    2    1    2    0    0  0.00000000000E+00  0.00000000000E+00 -0.88951303321E+03  0.31804091898E+04  0.30534847598E+04 0.  0.
        2    1    3    3  502    0 -0.86880087798E+03  0.12357115101E+04 -0.21385635914E+03  0.15256252634E+04  0.25500000920E-02 0.  1.
       -2    1    3    3    0  502  0.86880087798E+03 -0.12357115101E+04 -0.67565667407E+03  0.16547839264E+04  0.25500000920E-02 0. -1.
</event>
<event>
 5   0  0.2552990E-06  0.2985945E+04  0.7818609E-02  0.8247756E-01
        1   -1    0    0  501    0  0.00000000000E+00  0.00000000000E+00  0.17807735373E+04  0.17807735373E+04  0.50400001928E-02 0. -1.
       -1   -1    0    0    0  501  0.00000000000E+00  0.00000000000E+00 -0.12516847822E+04  0.12516847822E+04  0.50400001928E-02 0.  1.
    10030    2    1    2    0    0  0.00000000000E+00  0.00000000000E+00  0.52908875515E+03  0.30324583195E+04  0.29859451684E+04 0.  0.
        3    1    3    3  502    0  0.13384934455E+04  0.57162239802E+03 -0.73278631667E+02  0.14572874245E+04  0.10100000352E+00 0.  1.
       -3    1    3    3    0  502 -0.13384934455E+04 -0.57162239802E+03  0.60236738681E+03  0.15751708950E+04  0.10100000352E+00 0. -1.
</event>
<event>
 5   0  0.7201538E-06  0.2973954E+04  0.7818609E-02  0.8251208E-01
       -2   -1    0    0    0  501  0.00000000000E+00  0.00000000000E+00  0.13667006655E+04  0.13667006655E+04  0.25500000920E-02 0.  1.
        2   -1    0    0  501    0  0.00000000000E+00  0.00000000000E+00 -0.16178387000E+04  0.16178387000E+04  0.25500000920E-02 0. -1.
    10030    2    1    2    0    0  0.00000000000E+00  0.00000000000E+00 -0.25113803455E+03  0.29845393655E+04  0.29739544233E+04 0.  0.
        3    1    3    3  502    0  0.13911344705E+04  0.45076448795E+03 -0.39607891870E+03  0.15150320982E+04  0.10100000352E+00 0.  1.
       -3    1    3    3    0  502 -0.13911344705E+04 -0.45076448795E+03  0.14494088415E+03  0.14695072673E+04  0.10100000352E+00 0. -1.
</event>
<event>
 5   0  0.2672155E-06  0.2528010E+04  0.7818609E-02  0.8393074E-01
       -1   -1    0    0    0  501  0.00000000000E+00  0.00000000000E+00  0.13300317061E+04  0.13300317061E+04  0.50400001928E-02 0.  1.
        1   -1    0    0  501    0  0.00000000000E+00  0.00000000000E+00 -0.12012564078E+04  0.12012564078E+04  0.50400001928E-02 0. -1.
    10030    2    1    2    0    0  0.00000000000E+00  0.00000000000E+00  0.12877529826E+03  0.25312881139E+04  0.25280103715E+04 0.  0.
        5    1    3    3  502    0  0.11437550194E+03  0.58847979817E+03 -0.10498430047E+04  0.12089593264E+04  0.46999998093E+01 0. -1.
       -5    1    3    3    0  502 -0.11437550194E+03 -0.58847979817E+03  0.11786183030E+04  0.13223287876E+04  0.46999998093E+01 0.  1.
</event>
<event>
 5   0  0.2422083E-06  0.2978229E+04  0.7818609E-02  0.8249975E-01
       -1   -1    0    0    0  501  0.00000000000E+00  0.00000000000E+00  0.11434025011E+04  0.11434025011E+04  0.50400001928E-02 0.  1.
        1   -1    0    0  501    0  0.00000000000E+00  0.00000000000E+00 -0.19393532975E+04  0.19393532975E+04  0.50400001928E-02 0. -1.
    10030    2    1    2    0    0  0.00000000000E+00  0.00000000000E+00 -0.79595079643E+03  0.30827557987E+04  0.29782286084E+04 0.  0.
        2    1    3    3  502    0  0.13417673255E+04 -0.50596669480E+03  0.17509482143E+02  0.14341019608E+04  0.25500000920E-02 0. -1.
       -2    1    3    3    0  502 -0.13417673255E+04  0.50596669480E+03 -0.81346027857E+03  0.16486538378E+04  0.25500000920E-02 0.  1.
</event>
<event>
 5   0  0.7201538E-06  0.2913455E+04  0.7818609E-02  0.8268885E-01
        2   -1    0    0  501    0  0.00000000000E+00  0.00000000000E+00  0.10640180872E+04  0.10640180872E+04  0.25500000920E-02 0. -1.
       -2   -1    0    0    0  501  0.00000000000E+00  0.00000000000E+00 -0.19943792544E+04  0.19943792544E+04  0.25500000920E-02 0.  1.
    10030    2    1    2    0    0  0.00000000000E+00  0.00000000000E+00 -0.93036116721E+03  0.30583973416E+04  0.29134554051E+04 0.  0.
        3    1    3    3  502    0 -0.54048736361E+03 -0.41299067671E+03 -0.18174301432E+04  0.19405515259E+04  0.10100000352E+00 0.  1.
       -3    1    3    3    0  502  0.54048736361E+03  0.41299067671E+03  0.88706897596E+03  0.11178458157E+04  0.10100000352E+00 0. -1.
</event>
<event>
 5   0  0.6780150E-06  0.3048947E+04  0.7818609E-02  0.8229890E-01
       -2   -1    0    0    0  501  0.00000000000E+00  0.00000000000E+00  0.27976194932E+04  0.27976194932E+04  0.25500000920E-02 0. -1.
        2   -1    0    0  501    0  0.00000000000E+00  0.00000000000E+00 -0.83071293824E+03  0.83071293824E+03  0.25500000920E-02 0.  1.
    10030    2    1    2    0    0  0.00000000000E+00  0.00000000000E+00  0.19669065550E+04  0.36283324315E+04  0.30489465127E+04 0.  0.
        5    1    3    3  502    0 -0.94645475304E+03 -0.77747141730E+03 -0.96629756963E+02  0.12286569107E+04  0.46999998093E+01 0.  1.
       -5    1    3    3    0  502  0.94645475304E+03  0.77747141730E+03  0.20635363120E+04  0.23996755208E+04  0.46999998093E+01 0. -1.
</event>
<event>
 5   0  0.6780150E-06  0.2992889E+04  0.7818609E-02  0.8245764E-01
        2   -1    0    0  501    0  0.00000000000E+00  0.00000000000E+00  0.81402826558E+03  0.81402826559E+03  0.25500000920E-02 0.  1.
       -2   -1    0    0    0  501  0.00000000000E+00  0.00000000000E+00 -0.27509435969E+04  0.27509435969E+04  0.25500000920E-02 0. -1.
    10030    2    1    2    0    0  0.00000000000E+00  0.00000000000E+00 -0.19369153313E+04  0.35649718625E+04  0.29928888018E+04 0.  0.
        5    1    3    3  502    0 -0.75350685087E+03  0.12893062455E+04 -0.85395508440E+03  0.17202745552E+04  0.46999998093E+01 0. -1.
       -5    1    3    3    0  502  0.75350685087E+03 -0.12893062455E+04 -0.10829602469E+04  0.18446973073E+04  0.46999998093E+01 0.  1.
</event>
<event>
 5   0  0.6780150E-06  0.2357527E+04  0.7818609E-02  0.8455578E-01
       -2   -1    0    0    0  501  0.00000000000E+00  0.00000000000E+00  0.29899040955E+04  0.29899040955E+04  0.25500000920E-02 0. -1.
        2   -1    0    0  501    0  0.00000000000E+00  0.00000000000E+00 -0.46472518583E+03  0.46472518584E+03  0.25500000920E-02 0.  1.
    10030    2    1    2    0    0  0.00000000000E+00  0.00000000000E+00  0.25251789097E+04  0.34546292814E+04  0.23575272948E+04 0.  0.
        5    1    3    3  502    0  0.97769387941E+03  0.59364848842E+03  0.16800446253E+04  0.20324556287E+04  0.46999998093E+01 0.  1.
       -5    1    3    3    0  502 -0.97769387941E+03 -0.59364848842E+03  0.84513428435E+03  0.14221736526E+04  0.46999998093E+01 0. -1.
</event>
<event>
 5   0  0.6792811E-06  0.2986813E+04  0.7818609E-02  0.8247507E-01
        2   -1    0    0  501    0  0.00000000000E+00  0.00000000000E+00  0.19823470999E+04  0.19823470999E+04  0.25500000920E-02 0. -1.
       -2   -1    0    0    0  501  0.00000000000E+00  0.00000000000E+00 -0.11250616993E+04  0.11250616993E+04  0.25500000920E-02 0.  1.
    10030    2    1    2    0    0  0.00000000000E+00  0.00000000000E+00  0.85728540057E+03  0.31074087992E+04  0.29868128812E+04 0.  0.
        2    1    3    3  502    0 -0.99453899965E+03  0.23244351307E+03  0.15621872651E+04  0.18664315846E+04  0.25500000920E-02 0. -1.
       -2    1    3    3    0  502  0.99453899965E+03 -0.23244351307E+03 -0.70490186453E+03  0.12409772146E+04  0.25500000920E-02 0.  1.
</event>
<event>
 5   0  0.7193153E-06  0.2980792E+04  0.7818609E-02  0.8249237E-01
        2   -1    0    0  501    0  0.00000000000E+00  0.00000000000E+00  0.27121752975E+04  0.27121752975E+04  0.25500000920E-02 0.  1.
       -2   -1    0    0    0  501  0.00000000000E+00  0.00000000000E+00 -0.81900332321E+03  0.81900332321E+03  0.25500000920E-02 0. -1.
    10030    2    1    2    0    0  0.00000000000E+00  0.00000000000E+00  0.18931719743E+04  0.35311786207E+04  0.29807922314E+04 0.  0.
        4    1    3    3  502    0  0.14372365246E+04 -0.38880046629E+03  0.86743313963E+03  0.17231530677E+04  0.12699999809E+01 0.  1.
       -4    1    3    3    0  502 -0.14372365246E+04  0.38880046629E+03  0.10257388346E+04  0.18080255529E+04  0.12699999809E+01 0. -1.
</event>
<event>
 5   0  0.6780150E-06  0.3021169E+04  0.7818609E-02  0.8237712E-01
       -2   -1    0    0    0  501  0.00000000000E+00  0.00000000000E+00  0.12114821849E+04  0.12114821849E+04  0.25500000920E-02 0. -1.
        2   -1    0    0  501    0  0.00000000000E+00  0.00000000000E+00 -0.18835318960E+04  0.18835318960E+04  0.25500000920E-02 0.  1.
    10030    2    1    2    0    0  0.00000000000E+00  0.00000000000E+00 -0.67204971103E+03  0.30950140809E+04  0.30211688710E+04 0.  0.
        5    1    3    3  502    0 -0.12366135747E+04  0.82204390915E+03 -0.62006331972E+03  0.16091830015E+04  0.46999998093E+01 0. -1.
       -5    1    3    3    0  502  0.12366135747E+04 -0.82204390915E+03 -0.51986391314E+02  0.14858310795E+04  0.46999998093E+01 0.  1.
</event>
<event>
 5   0  0.6780150E-06  0.3004196E+04  0.7818609E-02  0.8242534E-01
       -2   -1    0    0    0  501  0.00000000000E+00  0.00000000000E+00  0.14294430646E+04  0.14294430646E+04  0.25500000920E-02 0. -1.
        2   -1    0    0  501    0  0.00000000000E+00  0.00000000000E+00 -0.15784453554E+04  0.15784453554E+04  0.25500000920E-02 0.  1.
    10030    2    1    2    0    0  0.00000000000E+00  0.00000000000E+00 -0.14900229085E+03  0.30078884200E+04  0.30041955769E+04 0.  0.
        5    1    3    3  502    0 -0.81947755131E+03  0.40140793347E+03  0.11201142363E+04  0.14447663404E+04  0.46999998093E+01 0. -1.
       -5    1    3    3    0  502  0.81947755131E+03 -0.40140793347E+03 -0.12691165271E+04  0.15631220796E+04  0.46999998093E+01 0.  1.
</event>
<event>
 5   0  0.7217255E-06  0.3065004E+04  0.7818609E-02  0.8225408E-01
        2   -1    0    0  501    0  0.00000000000E+00  0.00000000000E+00  0.24147687497E+04  0.24147687497E+04  0.25500000920E-02 0. -1.
       -2   -1    0    0    0  501  0.00000000000E+00  0.00000000000E+00 -0.97258276861E+03  0.97258276861E+03  0.25500000920E-02 0.  1.
    10030    2    1    2    0    0  0.00000000000E+00  0.00000000000E+00  0.14421859810E+04  0.33873515183E+04  0.30650040627E+04 0.  0.
        1    1    3    3  502    0  0.56322884916E+03  0.14167836251E+04  0.89251876242E+03  0.17666613479E+04  0.50400001928E-02 0. -1.
       -1    1    3    3    0  502 -0.56322884916E+03 -0.14167836251E+04  0.54966721862E+03  0.16206901703E+04  0.50400001928E-02 0.  1.
</event>
<event>
 5   0  0.7217255E-06  0.3005912E+04  0.7818609E-02  0.8242045E-01
        2   -1    0    0  501    0  0.00000000000E+00  0.00000000000E+00  0.21859878363E+04  0.21859878363E+04  0.25500000920E-02 0. -1.
       -2   -1    0    0    0  501  0.00000000000E+00  0.00000000000E+00 -0.10333438670E+04  0.10333438670E+04  0.25500000920E-02 0.  1.
    10030    2    1    2    0    0  0.00000000000E+00  0.00000000000E+00  0.11526439693E+04  0.32193317033E+04  0.30059122568E+04 0.  0.
        1    1    3    3  502    0 -0.46968622995E+03 -0.26830633848E+03  0.20781234172E+04  0.21473682458E+04  0.50400001928E-02 0. -1.
       -1    1    3    3    0  502  0.46968622995E+03  0.26830633848E+03 -0.92547944785E+03  0.10719634575E+04  0.50400001928E-02 0.  1.
</event>
<event>
 5   0  0.2422083E-06  0.2996319E+04  0.7818609E-02  0.8244783E-01
        1   -1    0    0  501    0  0.00000000000E+00  0.00000000000E+00  0.27146221176E+04  0.27146221176E+04  0.50400001928E-02 0.  1.
       -1   -1    0    0    0  501  0.00000000000E+00  0.00000000000E+00 -0.82681199380E+03  0.82681199382E+03  0.50400001928E-02 0. -1.
    10030    2    1    2    0    0  0.00000000000E+00  0.00000000000E+00  0.18878101238E+04  0.35414341114E+04  0.29963191589E+04 0.  0.
        2    1    3    3  502    0  0.14902225043E+04  0.14850622881E+03  0.89567843305E+03  0.17450091884E+04  0.25500000920E-02 0.  1.
       -2    1    3    3    0  502 -0.14902225043E+04 -0.14850622881E+03  0.99213169077E+03  0.17964249230E+04  0.25500000920E-02 0. -1.
</event>
<event>
 5   0  0.7201538E-06  0.2805993E+04  0.7818609E-02  0.8301410E-01
        2   -1    0    0  501    0  0.00000000000E+00  0.00000000000E+00  0.13909305760E+04  0.13909305760E+04  0.25500000920E-02 0.  1.
       -2   -1    0    0    0  501  0.00000000000E+00  0.00000000000E+00 -0.14151668657E+04  0.14151668657E+04  0.25500000920E-02 0. -1.
    10030    2    1    2    0    0  0.00000000000E+00  0.00000000000E+00 -0.24236289688E+02  0.28060974416E+04  0.28059927751E+04 0.  0.
        3    1    3    3  502    0  0.11709333167E+03  0.11810226676E+04  0.73615669245E+03  0.13965858641E+04  0.10100000352E+00 0.  1.
       -3    1    3    3    0  502 -0.11709333167E+03 -0.11810226676E+04 -0.76039298214E+03  0.14095115775E+04  0.10100000352E+00 0. -1.
</event>
<event>
 5   0  0.2504260E-06  0.3052265E+04  0.7818609E-02  0.8228962E-01
        1   -1    0    0  501    0  0.00000000000E+00  0.00000000000E+00  0.19164969948E+04  0.19164969948E+04  0.50400001928E-02 0. -1.
       -1   -1    0    0    0  501  0.00000000000E+00  0.00000000000E+00 -0.12152796407E+04  0.12152796407E+04  0.50400001928E-02 0.  1.
    10030    2    1    2    0    0  0.00000000000E+00  0.00000000000E+00  0.70121735406E+03  0.31317766355E+04  0.30522645883E+04 0.  0.
        4    1    3    3  502    0 -0.15113715805E+04  0.14467098312E+03  0.19197050570E+03  0.15303685947E+04  0.12699999809E+01 0. -1.
       -4    1    3    3    0  502  0.15113715805E+04 -0.14467098312E+03  0.50924684837E+03  0.16014080408E+04  0.12699999809E+01 0.  1.
</event>
<event>
 5   0  0.2628425E-06  0.2923566E+04  0.7818609E-02  0.8265900E-01
       -1   -1    0    0    0  501  0.00000000000E+00  0.00000000000E+00  0.12581042725E+04  0.12581042726E+04  0.50400001928E-02 0.  1.
        1   -1    0    0  501    0  0.00000000000E+00  0.00000000000E+00 -0.16984355077E+04  0.16984355077E+04  0.50400001928E-02 0. -1.
    10030    2    1    2    0    0  0.00000000000E+00  0.00000000000E+00 -0.44033123519E+03  0.29565397803E+04  0.29235656100E+04 0.  0.
        1    1    3    3  502    0  0.12403706641E+04 -0.76476359934E+03 -0.10298715714E+03  0.14608179564E+04  0.50400001928E-02 0.  1.
       -1    1    3    3    0  502 -0.12403706641E+04  0.76476359934E+03 -0.33734407805E+03  0.14957218238E+04  0.50400001928E-02 0. -1.
</event>
<event>
 5   0  0.2672155E-06  0.2978897E+04  0.7818609E-02  0.8249783E-01
       -1   -1    0    0    0  501  0.00000000000E+00  0.00000000000E+00  0.14846501477E+04  0.14846501478E+04  0.50400001928E-02 0.  1.
        1   -1    0    0  501    0  0.00000000000E+00  0.00000000000E+00 -0.14942623424E+04  0.14942623424E+04  0.50400001928E-02 0. -1.
    10030    2    1    2    0    0  0.00000000000E+00  0.00000000000E+00 -0.96121946093E+01  0.29789124901E+04  0.29788969820E+04 0.  0.
        5    1    3    3  502    0 -0.14123014706E+04  0.23081011845E+03 -0.41780457036E+03  0.14907888863E+04  0.46999998093E+01 0.  1.
       -5    1    3    3    0  502  0.14123014706E+04 -0.23081011845E+03  0.40819237575E+03  0.14881236038E+04  0.46999998093E+01 0. -1.
</event>
<event>
 5   0  0.7193153E-06  0.2949308E+04  0.7818609E-02  0.8258356E-01
       -2   -1    0    0    0  501  0.00000000000E+00  0.00000000000E+00  0.91726119294E+03  0.91726119295E+03  0.25500000920E-02 0.  1.
        2   -1    0    0  501    0  0.00000000000E+00  0.00000000000E+00 -0.23707579804E+04  0.23707579804E+04  0.25500000920E-02 0. -1.
    10030    2    1    2    0    0  0.00000000000E+00  0.00000000000E+00 -0.14534967874E+04  0.32880191733E+04  0.29493079142E+04 0.  0.
        4    1    3    3  502    0 -0.10712739727E+04  0.84803112831E+02 -0.18525662927E+04  0.21416869459E+04  0.12699999809E+01 0. -1.
       -4    1    3    3    0  502  0.10712739727E+04 -0.84803112831E+02  0.39906950529E+03  0.11463322274E+04  0.12699999809E+01 0.  1.
</event>
<event>
 5   0  0.2422083E-06  0.2992838E+04  0.7818609E-02  0.8245779E-01
       -1   -1    0    0    0  501  0.00000000000E+00  0.00000000000E+00  0.89491841368E+03  0.89491841370E+03  0.50400001928E-02 0.  1.
        1   -1    0    0  501    0  0.00000000000E+00  0.00000000000E+00 -0.25022051095E+04  0.25022051095E+04  0.50400001928E-02 0. -1.
    10030    2    1    2    0    0  0.00000000000E+00  0.00000000000E+00 -0.16072866958E+04  0.33971235232E+04  0.29928377352E+04 0.  0.
        2    1    3    3  502    0 -0.10773355399E+04  0.20364057490E+03  0.35233194282E+03  0.11516332520E+04  0.25500000920E-02 0.  1.
       -2    1    3    3    0  502  0.10773355399E+04 -0.20364057490E+03 -0.19596186387E+04  0.22454902712E+04  0.25500000920E-02 0. -1.
</event>
<event>
 5   0  0.6792811E-06  0.3048257E+04  0.7818609E-02  0.8230083E-01
       -2   -1    0    0    0  501  0.00000000000E+00  0.00000000000E+00  0.14315135138E+04  0.14315135138E+04  0.25500000920E-02 0. -1.
        2   -1    0    0  501    0  0.00000000000E+00  0.00000000000E+00 -0.16227356578E+04  0.16227356579E+04  0.25500000920E-02 0.  1.
    10030    2    1    2    0    0  0.00000000000E+00  0.00000000000E+00 -0.19122214408E+03  0.30542491716E+04  0.30482572224E+04 0.  0.
        2    1    3    3  502    0 -0.69139071775E+03 -0.10180526760E+04 -0.99655355907E+03  0.15835312980E+04  0.25500000920E-02 0.  1.
       -2    1    3    3    0  502  0.69139071775E+03  0.10180526760E+04  0.80533141499E+03  0.14707178736E+04  0.25500000920E-02 0. -1.
</event>
<event>
 5   0  0.7217255E-06  0.2993195E+04  0.7818609E-02  0.8245677E-01
       -2   -1    0    0    0  501  0.00000000000E+00  0.00000000000E+00  0.16496067501E+04  0.16496067501E+04  0.25500000920E-02 0. -1.
        2   -1    0    0  501    0  0.00000000000E+00  0.00000000000E+00 -0.13577810025E+04  0.13577810025E+04  0.25500000920E-02 0.  1.
    10030    2    1    2    0    0  0.00000000000E+00  0.00000000000E+00  0.29182574758E+03  0.30073877526E+04  0.29931954209E+04 0.  0.
        1    1    3    3  502    0  0.65267895860E+03  0.81479850215E+03 -0.93151410098E+03  0.13991443608E+04  0.50400001928E-02 0.  1.
       -1    1    3    3    0  502 -0.65267895860E+03 -0.81479850215E+03  0.12233398486E+04  0.16082433918E+04  0.50400001928E-02 0. -1.
</event>
<event>
 5   0  0.6780150E-06  0.3044710E+04  0.7818609E-02  0.8231078E-01
       -2   -1    0    0    0  501  0.00000000000E+00  0.00000000000E+00  0.11363843182E+04  0.11363843182E+04  0.25500000920E-02 0.  1.
        2   -1    0    0  501    0  0.00000000000E+00  0.00000000000E+00 -0.20394193564E+04  0.20394193564E+04  0.25500000920E-02 0. -1.
    10030    2    1    2    0    0  0.00000000000E+00  0.00000000000E+00 -0.90303503820E+03  0.31758036746E+04  0.30447096248E+04 0.  0.
        5    1    3    3  502    0 -0.38791427313E+03  0.95532167896E+03  0.71671726427E+03  0.12557160190E+04  0.46999998093E+01 0.  1.
       -5    1    3    3    0  502  0.38791427313E+03 -0.95532167896E+03 -0.16197523025E+04  0.19200876555E+04  0.46999998093E+01 0. -1.
</event>
<event>
 5   0  0.2422083E-06  0.2564830E+04  0.7818609E-02  0.8380247E-01
       -1   -1    0    0    0  501  0.00000000000E+00  0.00000000000E+00  0.10494554576E+04  0.10494554576E+04  0.50400001928E-02 0. -1.
        1   -1    0    0  501    0  0.00000000000E+00  0.00000000000E+00 -0.15670868092E+04  0.15670868092E+04  0.50400001928E-02 0.  1.
    10030    2    1    2    0    0  0.00000000000E+00  0.00000000000E+00 -0.51763135155E+03  0.26165422668E+04  0.25648296665E+04 0.  0.
        2    1    3    3  502    0 -0.37005258880E+03 -0.93816026078E+03 -0.10669388268E+04  0.14681423819E+04  0.25500000920E-02 0.  1.
       -2    1    3    3    0  502  0.37005258880E+03  0.93816026078E+03  0.54930747523E+03  0.11483998849E+04  0.25500000920E-02 0. -1.
</event>
<event>
 5   0  0.2504260E-06  0.3015713E+04  0.7818609E-02  0.8239258E-01
        1   -1    0    0  501    0  0.00000000000E+00  0.00000000000E+00  0.16043345085E+04  0.16043345085E+04  0.50400001928E-02 0.  1.
       -1   -1    0    0    0  501  0.00000000000E+00  0.00000000000E+00 -0.14171802636E+04  0.14171802636E+04  0.50400001928E-02 0. -1.
    10030    2    1    2    0    0  0.00000000000E+00  0.00000000000E+00  0.18715424493E+03  0.30215147721E+04  0.30157129848E+04 0.  0.
        4    1    3    3  502    0  0.68936242470E+02  0.69232419226E+03  0.14338968368E+04  0.15937775078E+04  0.12699999809E+01 0.  1.
       -4    1    3    3    0  502 -0.68936242470E+02 -0.69232419226E+03 -0.12467425919E+04  0.14277372644E+04  0.12699999809E+01 0. -1.
</event>
<event>
 5   0  0.7193153E-06  0.3030832E+04  0.7818609E-02  0.8234981E-01
        2   -1    0    0  501    0  0.00000000000E+00  0.00000000000E+00  0.15769270533E+04  0.15769270533E+04  0.25500000920E-02 0. -1.
       -2   -1    0    0    0  501  0.00000000000E+00  0.00000000000E+00 -0.14563041951E+04  0.14563041951E+04  0.25500000920E-02 0.  1.
    10030    2    1    2    0    0  0.00000000000E+00  0.00000000000E+00  0.12062285821E+03  0.30332312484E+04  0.30308318879E+04 0.  0.
        4    1    3    3  502    0 -0.33536522635E+03 -0.10442170102E+04 -0.98628166008E+03  0.14749956357E+04  0.12699999809E+01 0.  1.
       -4    1    3    3    0  502  0.33536522635E+03  0.10442170102E+04  0.11069045183E+04  0.15582356128E+04  0.12699999809E+01 0. -1.
</event>
<event>
 5   0  0.7201538E-06  0.3003535E+04  0.7818609E-02  0.8242722E-01
        2   -1    0    0  501    0  0.00000000000E+00  0.00000000000E+00  0.14320769745E+04  0.14320769745E+04  0.25500000920E-02 0.  1.
       -2   -1    0    0    0  501  0.00000000000E+00  0.00000000000E+00 -0.15748489689E+04  0.15748489689E+04  0.25500000920E-02 0. -1.
    10030    2    1    2    0    0  0.00000000000E+00  0.00000000000E+00 -0.14277199435E+03  0.30069259434E+04  0.30035345490E+04 0.  0.
        3    1    3    3  502    0 -0.69881512354E+03  0.13292631069E+04 -0.76076624318E+02  0.15036856876E+04  0.10100000352E+00 0. -1.
       -3    1    3    3    0  502  0.69881512354E+03 -0.13292631069E+04 -0.66695370035E+02  0.15032402558E+04  0.10100000352E+00 0.  1.
</event>
<event>
 5   0  0.2628425E-06  0.2981417E+04  0.7818609E-02  0.8249057E-01
       -1   -1    0    0    0  501  0.00000000000E+00  0.00000000000E+00  0.14099973962E+04  0.14099973962E+04  0.50400001928E-02 0. -1.
        1   -1    0    0  501    0  0.00000000000E+00  0.00000000000E+00 -0.15760394563E+04  0.15760394563E+04  0.50400001928E-02 0.  1.
    10030    2    1    2    0    0  0.00000000000E+00  0.00000000000E+00 -0.16604206014E+03  0.29860368525E+04  0.29814167972E+04 0.  0.
        1    1    3    3  502    0 -0.71287463010E+01  0.74486868136E+03 -0.13762738334E+04  0.15649312560E+04  0.50400001928E-02 0.  1.
       -1    1    3    3    0  502  0.71287463010E+01 -0.74486868136E+03  0.12102317732E+04  0.14211055965E+04  0.50400001928E-02 0. -1.
</event>
<event>
 5   0  0.2552990E-06  0.3022273E+04  0.7818609E-02  0.8237399E-01
       -1   -1    0    0    0  501  0.00000000000E+00  0.00000000000E+00  0.16488316869E+04  0.16488316869E+04  0.50400001928E-02 0. -1.
        1   -1    0    0  501    0  0.00000000000E+00  0.00000000000E+00 -0.13849399509E+04  0.13849399509E+04  0.50400001928E-02 0.  1.
    10030    2    1    2    0    0  0.00000000000E+00  0.00000000000E+00  0.26389173603E+03  0.30337716379E+04  0.30222725725E+04 0.  0.
        3    1    3    3  502    0  0.56507480011E+03 -0.49148159078E+03  0.14494445795E+04  0.16314880579E+04  0.10100000352E+00 0. -1.
       -3    1    3    3    0  502 -0.56507480011E+03  0.49148159078E+03 -0.11855528435E+04  0.14022835800E+04  0.10100000352E+00 0.  1.
</event>
<event>
 5   0  0.2422083E-06  0.2829855E+04  0.7818609E-02  0.8294059E-01
        1   -1    0    0  501    0  0.00000000000E+00  0.00000000000E+00  0.84466544368E+03  0.84466544369E+03  0.50400001928E-02 0.  1.
       -1   -1    0    0    0  501  0.00000000000E+00  0.00000000000E+00 -0.23701919464E+04  0.23701919464E+04  0.50400001928E-02 0. -1.
    10030    2    1    2    0    0  0.00000000000E+00  0.00000000000E+00 -0.15255265027E+04  0.32148573901E+04  0.28298545772E+04 0.  0.
        2    1    3    3  502    0  0.10720418481E+04 -0.89430393489E+03 -0.50130876353E+03  0.14833623051E+04  0.25500000920E-02 0. -1.
       -2    1    3    3    0  502 -0.10720418481E+04  0.89430393489E+03 -0.10242177392E+04  0.17314950850E+04  0.25500000920E-02 0.  1.
</event>
<event>
 5   0  0.2422083E-06  0.3122920E+04  0.7818609E-02  0.8209476E-01
        1   -1    0    0  501    0  0.00000000000E+00  0.00000000000E+00  0.19598670624E+04  0.19598670624E+04  0.50400001928E-02 0.  1.
       -1   -1    0    0    0  501  0.00000000000E+00  0.00000000000E+00 -0.12440423073E+04  0.12440423074E+04  0.50400001928E-02 0. -1.
    10030    2    1    2    0    0  0.00000000000E+00  0.00000000000E+00  0.71582475503E+03  0.32039093697E+04  0.31229201350E+04 0.  0.
        2    1    3    3  502    0 -0.62174736587E+03  0.13942784760E+03 -0.11045913186E+04  0.12751987660E+04  0.25500000920E-02 0. -1.
       -2    1    3    3    0  502  0.62174736587E+03 -0.13942784760E+03  0.18204160737E+04  0.19287106037E+04  0.25500000920E-02 0.  1.
</event>
<event>
 5   0  0.6780150E-06  0.2961203E+04  0.7818609E-02  0.8254897E-01
       -2   -1    0    0    0  501  0.00000000000E+00  0.00000000000E+00  0.19336874583E+04  0.19336874583E+04  0.25500000920E-02 0.  1.
        2   -1    0    0  501    0  0.00000000000E+00  0.00000000000E+00 -0.11336791555E+04  0.11336791555E+04  0.25500000920E-02 0. -1.
    10030    2    1    2    0    0  0.00000000000E+00  0.00000000000E+00  0.80000830283E+03  0.30673666138E+04  0.29612032451E+04 0.  0.
        5    1    3    3  502    0 -0.13276224462E+04 -0.25427640919E+03  0.10257486360E+04  0.16968854428E+04  0.46999998093E+01 0.  1.
       -5    1    3    3    0  502  0.13276224462E+04  0.25427640919E+03 -0.22574033317E+03  0.13704811709E+04  0.46999998093E+01 0. -1.
</event>
<event>
 5   0  0.2672155E-06  0.3014669E+04  0.7818609E-02  0.8239555E-01
       -1   -1    0    0    0  501  0.00000000000E+00  0.00000000000E+00  0.99934634111E+03  0.99934634112E+03  0.50400001928E-02 0.  1.
        1   -1    0    0  501    0  0.00000000000E+00  0.00000000000E+00 -0.22735427728E+04  0.22735427728E+04  0.50400001928E-02 0. -1.
    10030    2    1    2    0    0  0.00000000000E+00  0.00000000000E+00 -0.12741964316E+04  0.32728891139E+04  0.30146685731E+04 0.  0.
        5    1    3    3  502    0 -0.58581247599E+03 -0.10238221110E+04  0.38171025376E+03  0.12398035247E+04  0.46999998093E+01 0.  1.
       -5    1    3    3    0  502  0.58581247599E+03  0.10238221110E+04 -0.16559066854E+04  0.20330855892E+04  0.46999998093E+01 0. -1.
</event>
<event>
 5   0  0.2552990E-06  0.2282074E+04  0.7818609E-02  0.8485023E-01
       -1   -1    0    0    0  501  0.00000000000E+00  0.00000000000E+00  0.10898719235E+04  0.10898719235E+04  0.50400001928E-02 0. -1.
        1   -1    0    0  501    0  0.00000000000E+00  0.00000000000E+00 -0.11946044463E+04  0.11946044463E+04  0.50400001928E-02 0.  1.
    10030    2    1    2    0    0  0.00000000000E+00  0.00000000000E+00 -0.10473252279E+03  0.22844763697E+04  0.22820743596E+04 0.  0.
        3    1    3    3  502    0  0.18568968167E+03 -0.42924491892E+03  0.98951449245E+03  0.10944728408E+04  0.10100000352E+00 0. -1.
       -3    1    3    3    0  502 -0.18568968167E+03  0.42924491892E+03 -0.10942470152E+04  0.11900035289E+04  0.10100000352E+00 0.  1.
</event>
<event>
 5   0  0.2672155E-06  0.3043560E+04  0.7818609E-02  0.8231400E-01
        1   -1    0    0  501    0  0.00000000000E+00  0.00000000000E+00  0.74903246043E+03  0.74903246045E+03  0.50400001928E-02 0.  1.
       -1   -1    0    0    0  501  0.00000000000E+00  0.00000000000E+00 -0.30917418355E+04  0.30917418355E+04  0.50400001928E-02 0. -1.
    10030    2    1    2    0    0  0.00000000000E+00  0.00000000000E+00 -0.23427093750E+04  0.38407742959E+04  0.30435604111E+04 0.  0.
        5    1    3    3  502    0 -0.14110737927E+04 -0.41472355259E+03 -0.67828203946E+03  0.16196337513E+04  0.46999998093E+01 0.  1.
       -5    1    3    3    0  502  0.14110737927E+04  0.41472355259E+03 -0.16644273356E+04  0.22211405446E+04  0.46999998093E+01 0. -1.
</event>
<event>
 5   0  0.2628425E-06  0.2846149E+04  0.7818609E-02  0.8289082E-01
       -1   -1    0    0    0  501  0.00000000000E+00  0.00000000000E+00  0.84659165674E+03  0.84659165675E+03  0.50400001928E-02 0.  1.
        1   -1    0    0  501    0  0.00000000000E+00  0.00000000000E+00 -0.23921113598E+04  0.23921113598E+04  0.50400001928E-02 0. -1.
    10030    2    1    2    0    0  0.00000000000E+00  0.00000000000E+00 -0.15455197030E+04  0.32387030165E+04  0.28461493420E+04 0.  0.
        1    1    3    3  502    0  0.67897706166E+03 -0.42868879801E+03  0.56417191959E+03  0.98136328170E+03  0.50400001928E-02 0.  1.
       -1    1    3    3    0  502 -0.67897706166E+03  0.42868879801E+03 -0.21096916226E+04  0.22573397348E+04  0.50400001928E-02 0. -1.
</event>
<event>
 5   0  0.6792811E-06  0.3017938E+04  0.7818609E-02  0.8238627E-01
       -2   -1    0    0    0  501  0.00000000000E+00  0.00000000000E+00  0.85484369730E+03  0.85484369730E+03  0.25500000920E-02 0. -1.
        2   -1    0    0  501    0  0.00000000000E+00  0.00000000000E+00 -0.26636303615E+04  0.26636303615E+04  0.25500000920E-02 0.  1.
    10030    2    1    2    0    0  0.00000000000E+00  0.00000000000E+00 -0.18087866642E+04  0.35184740588E+04  0.30179381216E+04 0.  0.
        2    1    3    3  502    0  0.11769068188E+04  0.77049081353E+03 -0.26772423726E+03  0.14319364585E+04  0.25500000920E-02 0. -1.
       -2    1    3    3    0  502 -0.11769068188E+04 -0.77049081353E+03 -0.15410624270E+04  0.20865376004E+04  0.25500000920E-02 0.  1.
</event>
<event>
 5   0  0.7217255E-06  0.2808881E+04  0.7818609E-02  0.8300517E-01
       -2   -1    0    0    0  501  0.00000000000E+00  0.00000000000E+00  0.14972763064E+04  0.14972763064E+04  0.25500000920E-02 0.  1.
        2   -1    0    0  501    0  0.00000000000E+00  0.00000000000E+00 -0.13173604993E+04  0.13173604993E+04  0.25500000920E-02 0. -1.
    10030    2    1    2    0    0  0.00000000000E+00  0.00000000000E+00  0.17991580716E+03  0.28146368057E+04  0.28088806757E+04 0.  0.
        1    1    3    3  502    0 -0.57215936956E+03  0.81507608168E+03 -0.90239334054E+03  0.13438858226E+04  0.50400001928E-02 0. -1.
       -1    1    3    3    0  502  0.57215936956E+03 -0.81507608168E+03  0.10823091477E+04  0.14707509831E+04  0.50400001928E-02 0.  1.
</event>
<event>
 5   0  0.2298500E-06  0.2847024E+04  0.7818609E-02  0.8288816E-01
        3   -1    0    0  501    0  0.00000000000E+00  0.00000000000E+00  0.22324258391E+04  0.22324258414E+04  0.10100000352E+00 0.  1.
       -3   -1    0    0    0  501  0.00000000000E+00  0.00000000000E+00 -0.90770608016E+03  0.90770608578E+03  0.10100000352E+00 0. -1.
    10030    2    1    2    0    0  0.00000000000E+00  0.00000000000E+00  0.13247197589E+04  0.31401319271E+04  0.28470240744E+04 0.  0.
        2    1    3    3  502    0  0.20811866062E+03 -0.98839607018E+03  0.17686966154E+04  0.20367935305E+04  0.25500000920E-02 0.  1.
       -2    1    3    3    0  502 -0.20811866062E+03  0.98839607018E+03 -0.44397685649E+03  0.11033383967E+04  0.25500000920E-02 0. -1.
</event>
<event>
 5   0  0.2422083E-06  0.3030942E+04  0.7818609E-02  0.8234950E-01
       -1   -1    0    0    0  501  0.00000000000E+00  0.00000000000E+00  0.13956716571E+04  0.13956716572E+04  0.50400001928E-02 0.  1.
        1   -1    0    0  501    0  0.00000000000E+00  0.00000000000E+00 -0.16455539055E+04  0.16455539055E+04  0.50400001928E-02 0. -1.
    10030    2    1    2    0    0  0.00000000000E+00  0.00000000000E+00 -0.24988224839E+03  0.30412255627E+04  0.30309423922E+04 0.  0.
        2    1    3    3  502    0  0.59859753907E+02  0.87265706224E+02  0.13919598684E+04  0.13959766362E+04  0.25500000920E-02 0.  1.
       -2    1    3    3    0  502 -0.59859753907E+02 -0.87265706224E+02 -0.16418421168E+04  0.16452489265E+04  0.25500000920E-02 0. -1.
</event>
<event>
 5   0  0.2552990E-06  0.3043987E+04  0.7818609E-02  0.8231281E-01
        1   -1    0    0  501    0  0.00000000000E+00  0.00000000000E+00  0.18769627646E+04  0.18769627646E+04  0.50400001928E-02 0.  1.
       -1   -1    0    0    0  501  0.00000000000E+00  0.00000000000E+00 -0.12341556562E+04  0.12341556562E+04  0.50400001928E-02 0. -1.
    10030    2    1    2    0    0  0.00000000000E+00  0.00000000000E+00  0.64280710840E+03  0.31111184208E+04  0.30439869989E+04 0.  0.
        3    1    3    3  502    0  0.87983717998E+03 -0.11396638344E+03 -0.94254370872E+03  0.12944073752E+04  0.10100000352E+00 0. -1.
       -3    1    3    3    0  502 -0.87983717998E+03  0.11396638344E+03  0.15853508171E+04  0.18167110456E+04  0.10100000352E+00 0.  1.
</event>
<event>
 5   0  0.6792811E-06  0.3053170E+04  0.7818609E-02  0.8228709E-01
        2   -1    0    0  501    0  0.00000000000E+00  0.00000000000E+00  0.16966182697E+04  0.16966182697E+04  0.25500000920E-02 0. -1.
       -2   -1    0    0    0  501  0.00000000000E+00  0.00000000000E+00 -0.13735925171E+04  0.13735925171E+04  0.25500000920E-02 0.  1.
    10030    2    1    2    0    0  0.00000000000E+00  0.00000000000E+00  0.32302575261E+03  0.30702107867E+04  0.30531702603E+04 0.  0.
        2    1    3    3  502    0 -0.11782632842E+04  0.64043384396E+03 -0.57194287472E+03  0.14579363934E+04  0.25500000920E-02 0.  1.
       -2    1    3    3    0  502  0.11782632842E+04 -0.64043384396E+03  0.89496862734E+03  0.16122743933E+04  0.25500000920E-02 0. -1.
</event>
<event>
 5   0  0.7201538E-06  0.3007022E+04  0.7818609E-02  0.8241729E-01
        2   -1    0    0  501    0  0.00000000000E+00  0.00000000000E+00  0.11590398497E+04  0.11590398497E+04  0.25500000920E-02 0. -1.
       -2   -1    0    0    0  501  0.00000000000E+00  0.00000000000E+00 -0.19503603340E+04  0.19503603340E+04  0.25500000920E-02 0.  1.
    10030    2    1    2    0    0  0.00000000000E+00  0.00000000000E+00 -0.79132048429E+03  0.31094001836E+04  0.30070220141E+04 0.  0.
        3    1    3    3  502    0  0.29657241473E+03 -0.65058332199E+03 -0.17633137016E+04  0.19027582812E+04  0.10100000352E+00 0.  1.
       -3    1    3    3    0  502 -0.29657241473E+03  0.65058332199E+03  0.97199321734E+03  0.12066419025E+04  0.10100000352E+00 0. -1.
</event>
<event>
 5   0  0.2628425E-06  0.2937644E+04  0.7818609E-02  0.8261765E-01
       -1   -1    0    0    0  501  0.00000000000E+00  0.00000000000E+00  0.80860850991E+03  0.80860850993E+03  0.50400001928E-02 0. -1.
        1   -1    0    0  501    0  0.00000000000E+00  0.00000000000E+00 -0.26680873678E+04  0.26680873679E+04  0.50400001928E-02 0.  1.
    10030    2    1    2    0    0  0.00000000000E+00  0.00000000000E+00 -0.18594788579E+04  0.34766958778E+04  0.29376440566E+04 0.  0.
        1    1    3    3  502    0  0.66950330569E+03  0.75229248274E+03  0.33569585109E+03  0.10615415020E+04  0.50400001928E-02 0. -1.
       -1    1    3    3    0  502 -0.66950330569E+03 -0.75229248274E+03 -0.21951747090E+04  0.24151543758E+04  0.50400001928E-02 0.  1.
</event>
<event>
 5   0  0.6792811E-06  0.3016209E+04  0.7818609E-02  0.8239117E-01
        2   -1    0    0  501    0  0.00000000000E+00  0.00000000000E+00  0.23810037806E+04  0.23810037806E+04  0.25500000920E-02 0. -1.
       -2   -1    0    0    0  501  0.00000000000E+00  0.00000000000E+00 -0.95521859716E+03  0.95521859717E+03  0.25500000920E-02 0.  1.
    10030    2    1    2    0    0  0.00000000000E+00  0.00000000000E+00  0.14257851834E+04  0.33362223778E+04  0.30162089392E+04 0.  0.
        2    1    3    3  502    0  0.59281240775E+03  0.12249693740E+04 -0.59881443184E+01  0.13608866139E+04  0.25500000920E-02 0.  1.
       -2    1    3    3    0  502 -0.59281240775E+03 -0.12249693740E+04  0.14317733278E+04  0.19753357639E+04  0.25500000920E-02 0. -1.
</event>
<event>
 5   0  0.2504260E-06  0.2374969E+04  0.7818609E-02  0.8448935E-01
       -1   -1    0    0    0  501  0.00000000000E+00  0.00000000000E+00  0.71357313986E+03  0.71357313988E+03  0.50400001928E-02 0. -1.
        1   -1    0    0  501    0  0.00000000000E+00  0.00000000000E+00 -0.19761390707E+04  0.19761390707E+04  0.50400001928E-02 0.  1.
    10030    2    1    2    0    0  0.00000000000E+00  0.00000000000E+00 -0.12625659309E+04  0.26897122106E+04  0.23749692727E+04 0.  0.
        4    1    3    3  502    0 -0.88831100664E+03 -0.75679938873E+03 -0.38244582030E+03  0.12280505599E+04  0.12699999809E+01 0. -1.
       -4    1    3    3    0  502  0.88831100664E+03  0.75679938873E+03 -0.88012011057E+03  0.14616616507E+04  0.12699999809E+01 0.  1.
</event>
<event>
 5   0  0.2552990E-06  0.2988048E+04  0.7818609E-02  0.8247152E-01
        1   -1    0    0  501    0  0.00000000000E+00  0.00000000000E+00  0.23516329445E+04  0.23516329445E+04  0.50400001928E-02 0. -1.
       -1   -1    0    0    0  501  0.00000000000E+00  0.00000000000E+00 -0.94917375728E+03  0.94917375730E+03  0.50400001928E-02 0.  1.
    10030    2    1    2    0    0  0.00000000000E+00  0.00000000000E+00  0.14024591872E+04  0.33008067018E+04  0.29880483783E+04 0.  0.
        3    1    3    3  502    0  0.11928175355E+04 -0.33319303074E+03 -0.22186527349E+03  0.12581953260E+04  0.10100000352E+00 0.  1.
       -3    1    3    3    0  502 -0.11928175355E+04  0.33319303074E+03  0.16243244607E+04  0.20426113758E+04  0.10100000352E+00 0. -1.
</event>
<event>
 5   0  0.6780150E-06  0.2788692E+04  0.7818609E-02  0.8306788E-01
        2   -1    0    0  501    0  0.00000000000E+00  0.00000000000E+00  0.11191073262E+04  0.11191073262E+04  0.25500000920E-02 0. -1.
       -2   -1    0    0    0  501  0.00000000000E+00  0.00000000000E+00 -0.17372782400E+04  0.17372782400E+04  0.25500000920E-02 0.  1.
    10030    2    1    2    0    0  0.00000000000E+00  0.00000000000E+00 -0.61817091382E+03  0.28563855662E+04  0.27886920275E+04 0.  0.
        5    1    3    3  502    0 -0.82740909335E+03 -0.72054912989E+03 -0.11904268334E+04  0.16189301998E+04  0.46999998093E+01 0.  1.
       -5    1    3    3    0  502  0.82740909335E+03  0.72054912989E+03  0.57225591955E+03  0.12374553664E+04  0.46999998093E+01 0. -1.
</event>
<event>
 5   0  0.6792811E-06  0.3000547E+04  0.7818609E-02  0.8243575E-01
       -2   -1    0    0    0  501  0.00000000000E+00  0.00000000000E+00  0.72317634449E+03  0.72317634450E+03  0.25500000920E-02 0.  1.
        2   -1    0    0  501    0  0.00000000000E+00  0.00000000000E+00 -0.31124097953E+04  0.31124097953E+04  0.25500000920E-02 0. -1.
    10030    2    1    2    0    0  0.00000000000E+00  0.00000000000E+00 -0.23892334508E+04  0.38355861397E+04  0.30005473756E+04 0.  0.
        2    1    3    3  502    0  0.29037531039E+03 -0.14476693092E+04 -0.15346454575E+04  0.21296011199E+04  0.25500000920E-02 0. -1.
       -2    1    3    3    0  502 -0.29037531039E+03  0.14476693092E+04 -0.85458799323E+03  0.17059850198E+04  0.25500000920E-02 0.  1.
</event>
<event>
 5   0  0.2298500E-06  0.2986640E+04  0.7818609E-02  0.8247556E-01
        3   -1    0    0  501    0  0.00000000000E+00  0.00000000000E+00  0.16898030692E+04  0.16898030722E+04  0.10100000352E+00 0.  1.
       -3   -1    0    0    0  501  0.00000000000E+00  0.00000000000E+00 -0.13196827489E+04  0.13196827527E+04  0.10100000352E+00 0. -1.
    10030    2    1    2    0    0  0.00000000000E+00  0.00000000000E+00  0.37012032037E+03  0.30094858250E+04  0.29866395630E+04 0.  0.
        5    1    3    3  502    0 -0.12750233901E+04 -0.44850359859E+03  0.82485153387E+03  0.15834273795E+04  0.46999998093E+01 0.  1.
       -5    1    3    3    0  502  0.12750233901E+04  0.44850359859E+03 -0.45473121350E+03  0.14260584454E+04  0.46999998093E+01 0. -1.
</event>
<event>
 5   0  0.2672155E-06  0.3023372E+04  0.7818609E-02  0.8237088E-01
        1   -1    0    0  501    0  0.00000000000E+00  0.00000000000E+00  0.24405565558E+04  0.24405565558E+04  0.50400001928E-02 0.  1.
       -1   -1    0    0    0  501  0.00000000000E+00  0.00000000000E+00 -0.93634127998E+03  0.93634128000E+03  0.50400001928E-02 0. -1.
    10030    2    1    2    0    0  0.00000000000E+00  0.00000000000E+00  0.15042152758E+04  0.33768978358E+04  0.30233715282E+04 0.  0.
        5    1    3    3  502    0  0.68858660580E+03  0.45993586414E+03 -0.66048099629E+03  0.10592212938E+04  0.46999998093E+01 0. -1.
       -5    1    3    3    0  502 -0.68858660580E+03 -0.45993586414E+03  0.21646962721E+04  0.23176765419E+04  0.46999998093E+01 0.  1.
</event>
<event>
 5   0  0.2422083E-06  0.2992522E+04  0.7818609E-02  0.8245870E-01
        1   -1    0    0  501    0  0.00000000000E+00  0.00000000000E+00  0.16612572752E+04  0.16612572753E+04  0.50400001928E-02 0.  1.
       -1   -1    0    0    0  501  0.00000000000E+00  0.00000000000E+00 -0.13476517593E+04  0.13476517593E+04  0.50400001928E-02 0. -1.
    10030    2    1    2    0    0  0.00000000000E+00  0.00000000000E+00  0.31360551598E+03  0.30089090345E+04  0.29925215385E+04 0.  0.
        2    1    3    3  502    0  0.26489720319E+03 -0.38218659031E+03 -0.12731523106E+04  0.13554165131E+04  0.25500000920E-02 0. -1.
       -2    1    3    3    0  502 -0.26489720319E+03  0.38218659031E+03  0.15867578266E+04  0.16534925214E+04  0.25500000920E-02 0.  1.
</event>
<event>
 5   0  0.2628425E-06  0.3015376E+04  0.7818609E-02  0.8239354E-01
        1   -1    0    0  501    0  0.00000000000E+00  0.00000000000E+00  0.25877708211E+04  0.25877708211E+04  0.50400001928E-02 0. -1.
       -1   -1    0    0    0  501  0.00000000000E+00  0.00000000000E+00 -0.87840971412E+03  0.87840971413E+03  0.50400001928E-02 0.  1.
    10030    2    1    2    0    0  0.00000000000E+00  0.00000000000E+00  0.17093611070E+04  0.34661805353E+04  0.30153759482E+04 0.  0.
        1    1    3    3  502    0 -0.12193786612E+03 -0.93205650762E+03 -0.50033060551E+03  0.10648609728E+04  0.50400001928E-02 0.  1.
       -1    1    3    3    0  502  0.12193786612E+03  0.93205650762E+03  0.22096917125E+04  0.24013195624E+04  0.50400001928E-02 0. -1.
</event>
<event>
 5   0  0.6792811E-06  0.2929020E+04  0.7818609E-02  0.8264295E-01
        2   -1    0    0  501    0  0.00000000000E+00  0.00000000000E+00  0.19159060792E+04  0.19159060792E+04  0.25500000920E-02 0.  1.
       -2   -1    0    0    0  501  0.00000000000E+00  0.00000000000E+00 -0.11194651865E+04  0.11194651865E+04  0.25500000920E-02 0. -1.
    10030    2    1    2    0    0  0.00000000000E+00  0.00000000000E+00  0.79644089277E+03  0.30353712657E+04  0.29290204207E+04 0.  0.
        2    1    3    3  502    0  0.77161657464E+03  0.39723965546E+03 -0.82427266944E+03  0.11969197616E+04  0.25500000920E-02 0. -1.
       -2    1    3    3    0  502 -0.77161657464E+03 -0.39723965546E+03  0.16207135622E+04  0.18384515041E+04  0.25500000920E-02 0.  1.
</event>
<event>
 5   0  0.2628425E-06  0.3059410E+04  0.7818609E-02  0.8226967E-01
        1   -1    0    0  501    0  0.00000000000E+00  0.00000000000E+00  0.16076233533E+04  0.16076233533E+04  0.50400001928E-02 0. -1.
       -1   -1    0    0    0  501  0.00000000000E+00  0.00000000000E+00 -0.14555631987E+04  0.14555631987E+04  0.50400001928E-02 0.  1.
    10030    2    1    2    0    0  0.00000000000E+00  0.00000000000E+00  0.15206015465E+03  0.30631865520E+04  0.30594100022E+04 0.  0.
        1    1    3    3  502    0 -0.11630955861E+04  0.94535852154E+03 -0.23013049832E+03  0.15163951078E+04  0.50400001928E-02 0.  1.
       -1    1    3    3    0  502  0.11630955861E+04 -0.94535852154E+03  0.38219065297E+03  0.15467914442E+04  0.50400001928E-02 0. -1.
</event>
<event>
 5   0  0.6780150E-06  0.3000834E+04  0.7818609E-02  0.8243493E-01
       -2   -1    0    0    0  501  0.00000000000E+00  0.00000000000E+00  0.14461127895E+04  0.14461127895E+04  0.25500000920E-02 0. -1.
        2   -1    0    0  501    0  0.00000000000E+00  0.00000000000E+00 -0.15567608372E+04  0.15567608372E+04  0.25500000920E-02 0.  1.
    10030    2    1    2    0    0  0.00000000000E+00  0.00000000000E+00 -0.11064804765E+03  0.30028736267E+04  0.30008343885E+04 0.  0.
        5    1    3    3  502    0 -0.59038767015E+03  0.36954643412E+03  0.12745288462E+04  0.14524352095E+04  0.46999998093E+01 0. -1.
       -5    1    3    3    0  502  0.59038767015E+03 -0.36954643412E+03 -0.13851768939E+04  0.15504384172E+04  0.46999998093E+01 0.  1.
</event>
<event>
 5   0  0.2552990E-06  0.3061290E+04  0.7818609E-02  0.8226442E-01
       -1   -1    0    0    0  501  0.00000000000E+00  0.00000000000E+00  0.20581162381E+04  0.20581162381E+04  0.50400001928E-02 0. -1.
        1   -1    0    0  501    0  0.00000000000E+00  0.00000000000E+00 -0.11383588434E+04  0.11383588434E+04  0.50400001928E-02 0.  1.
    10030    2    1    2    0    0  0.00000000000E+00  0.00000000000E+00  0.91975739468E+03  0.31964750815E+04  0.30612904601E+04 0.  0.
        3    1    3    3  502    0  0.11554011926E+04 -0.67807194090E+03 -0.31318105370E+03  0.13757964441E+04  0.10100000352E+00 0.  1.
       -3    1    3    3    0  502 -0.11554011926E+04  0.67807194090E+03  0.12329384484E+04  0.18206786374E+04  0.10100000352E+00 0. -1.
</event>
<event>
 5   0  0.2298500E-06  0.2951506E+04  0.7818609E-02  0.8257716E-01
        3   -1    0    0  501    0  0.00000000000E+00  0.00000000000E+00  0.18035628636E+04  0.18035628665E+04  0.10100000352E+00 0. -1.
       -3   -1    0    0    0  501  0.00000000000E+00  0.00000000000E+00 -0.12075251163E+04  0.12075251205E+04  0.10100000352E+00 0.  1.
    10030    2    1    2    0    0  0.00000000000E+00  0.00000000000E+00  0.59603774738E+03  0.30110879870E+04  0.29515063728E+04 0.  0.
        1    1    3    3  502    0 -0.10619942254E+04 -0.51284681183E+03 -0.60702192562E+03  0.13263933072E+04  0.50400001928E-02 0.  1.
       -1    1    3    3    0  502  0.10619942254E+04  0.51284681183E+03  0.12030596730E+04  0.16846946798E+04  0.50400001928E-02 0. -1.
</event>
<event>
 5   0  0.2672155E-06  0.3014979E+04  0.7818609E-02  0.8239466E-01
        1   -1    0    0  501    0  0.00000000000E+00  0.00000000000E+00  0.67302997191E+03  0.67302997193E+03  0.50400001928E-02 0.  1.
       -1   -1    0    0    0  501  0.00000000000E+00  0.00000000000E+00 -0.33765578337E+04  0.33765578337E+04  0.50400001928E-02 0. -1.
    10030    2    1    2    0    0  0.00000000000E+00  0.00000000000E+00 -0.27035278618E+04  0.40495878056E+04  0.30149790208E+04 0.  0.
        5    1    3    3  502    0 -0.78420108627E+02  0.15048534629E+04 -0.14082544009E+04  0.20625072620E+04  0.46999998093E+01 0. -1.
       -5    1    3    3    0  502  0.78420108627E+02 -0.15048534629E+04 -0.12952734609E+04  0.19870805436E+04  0.46999998093E+01 0.  1.
</event>
<event>
 5   0  0.6792811E-06  0.3000848E+04  0.7818609E-02  0.8243489E-01
        2   -1    0    0  501    0  0.00000000000E+00  0.00000000000E+00  0.17835447792E+04  0.17835447792E+04  0.25500000920E-02 0.  1.
       -2   -1    0    0    0  501  0.00000000000E+00  0.00000000000E+00 -0.12622461048E+04  0.12622461048E+04  0.25500000920E-02 0. -1.
    10030    2    1    2    0    0  0.00000000000E+00  0.00000000000E+00  0.52129867442E+03  0.30457908840E+04  0.30008481803E+04 0.  0.
        2    1    3    3  502    0  0.12683434820E+04  0.51772221198E+03 -0.36051387304E+03  0.14165810000E+04  0.25500000920E-02 0. -1.
       -2    1    3    3    0  502 -0.12683434820E+04 -0.51772221198E+03  0.88181254746E+03  0.16292098839E+04  0.25500000920E-02 0.  1.
</event>
<event>
 5   0  0.2298500E-06  0.3032677E+04  0.7818609E-02  0.8234461E-01
       -3   -1    0    0    0  501  0.00000000000E+00  0.00000000000E+00  0.13195817444E+04  0.13195817483E+04  0.10100000352E+00 0. -1.
        3   -1    0    0  501    0  0.00000000000E+00  0.00000000000E+00 -0.17424325958E+04  0.17424325987E+04  0.10100000352E+00 0.  1.
    10030    2    1    2    0    0  0.00000000000E+00  0.00000000000E+00 -0.42285085138E+03  0.30620143470E+04  0.30326768734E+04 0.  0.
        3    1    3    3  502    0  0.71601836937E+03  0.46393096117E+03  0.10542432579E+04  0.13562238381E+04  0.10100000352E+00 0. -1.
       -3    1    3    3    0  502 -0.71601836937E+03 -0.46393096117E+03 -0.14770941093E+04  0.17057905088E+04  0.10100000352E+00 0.  1.
</event>
<event>
 5   0  0.2628425E-06  0.2986857E+04  0.7818609E-02  0.8247494E-01
        1   -1    0    0  501    0  0.00000000000E+00  0.00000000000E+00  0.22093579940E+04  0.22093579940E+04  0.50400001928E-02 0.  1.
       -1   -1    0    0    0  501  0.00000000000E+00  0.00000000000E+00 -0.10094920918E+04  0.10094920918E+04  0.50400001928E-02 0. -1.
    10030    2    1    2    0    0  0.00000000000E+00  0.00000000000E+00  0.11998659022E+04  0.32188500858E+04  0.29868574943E+04 0.  0.
        1    1    3    3  502    0 -0.66982434315E+03  0.51507142434E+03 -0.72712013277E+03  0.11147497075E+04  0.50400001928E-02 0. -1.
       -1    1    3    3    0  502  0.66982434315E+03 -0.51507142434E+03  0.19269860350E+04  0.21041003783E+04  0.50400001928E-02 0.  1.
</event>
<event>
 5   0  0.6792811E-06  0.3036515E+04  0.7818609E-02  0.8233380E-01
        2   -1    0    0  501    0  0.00000000000E+00  0.00000000000E+00  0.21714696865E+04  0.21714696865E+04  0.25500000920E-02 0.  1.
       -2   -1    0    0    0  501  0.00000000000E+00  0.00000000000E+00 -0.10615418500E+04  0.10615418500E+04  0.25500000920E-02 0. -1.
    10030    2    1    2    0    0  0.00000000000E+00  0.00000000000E+00  0.11099278365E+04  0.32330115366E+04  0.30365150738E+04 0.  0.
        2    1    3    3  502    0 -0.76342087858E+03 -0.53046936471E+02  0.19511086588E+04  0.20958173618E+04  0.25500000920E-02 0.  1.
       -2    1    3    3    0  502  0.76342087858E+03  0.53046936471E+02 -0.84118082233E+03  0.11371941748E+04  0.25500000920E-02 0. -1.
</event>
<event>
 5   0  0.2422083E-06  0.2985407E+04  0.7818609E-02  0.8247910E-01
       -1   -1    0    0    0  501  0.00000000000E+00  0.00000000000E+00  0.15889507620E+04  0.15889507620E+04  0.50400001928E-02 0. -1.
        1   -1    0    0  501    0  0.00000000000E+00  0.00000000000E+00 -0.14022865958E+04  0.14022865958E+04  0.50400001928E-02 0.  1.
    10030    2    1    2    0    0  0.00000000000E+00  0.00000000000E+00  0.18666416620E+03  0.29912373579E+04  0.29854074128E+04 0.  0.
        2    1    3    3  502    0  0.14472518134E+04  0.63665711258E+02 -0.26733366219E+03  0.14731118155E+04  0.25500000920E-02 0. -1.
       -2    1    3    3    0  502 -0.14472518134E+04 -0.63665711258E+02  0.45399782839E+03  0.15181255423E+04  0.25500000920E-02 0.  1.
</event>
<event>
 5   0  0.2422083E-06  0.3077943E+04  0.7818609E-02  0.8221817E-01
       -1   -1    0    0    0  501  0.00000000000E+00  0.00000000000E+00  0.17225768722E+04  0.17225768722E+04  0.50400001928E-02 0. -1.
        1   -1    0    0  501    0  0.00000000000E+00  0.00000000000E+00 -0.13749360947E+04  0.13749360947E+04  0.50400001928E-02 0.  1.
    10030    2    1    2    0    0  0.00000000000E+00  0.00000000000E+00  0.34764077745E+03  0.30975129669E+04  0.30779428958E+04 0.  0.
        2    1    3    3  502    0 -0.10386841656E+04 -0.87965731176E+03 -0.54891808779E+03  0.14676419349E+04  0.25500000920E-02 0.  1.
       -2    1    3    3    0  502  0.10386841656E+04  0.87965731176E+03  0.89655886524E+03  0.16298710320E+04  0.25500000920E-02 0. -1.
</event>
<event>
 5   0  0.2504260E-06  0.3026092E+04  0.7818609E-02  0.8236319E-01
       -1   -1    0    0    0  501  0.00000000000E+00  0.00000000000E+00  0.10586775849E+04  0.10586775850E+04  0.50400001928E-02 0.  1.
        1   -1    0    0  501    0  0.00000000000E+00  0.00000000000E+00 -0.21624217913E+04  0.21624217913E+04  0.50400001928E-02 0. -1.
    10030    2    1    2    0    0  0.00000000000E+00  0.00000000000E+00 -0.11037442063E+04  0.32210993762E+04  0.30260915251E+04 0.  0.
        4    1    3    3  502    0 -0.80258580982E+03 -0.97850630656E+03  0.33083691616E+03  0.13080799869E+04  0.12699999809E+01 0.  1.
       -4    1    3    3    0  502  0.80258580982E+03  0.97850630656E+03 -0.14345811225E+04  0.19130193893E+04  0.12699999809E+01 0. -1.
</event>
<event>
 5   0  0.2504260E-06  0.3004562E+04  0.7818609E-02  0.8242429E-01
        1   -1    0    0  501    0  0.00000000000E+00  0.00000000000E+00  0.10330180742E+04  0.10330180742E+04  0.50400001928E-02 0.  1.
       -1   -1    0    0    0  501  0.00000000000E+00  0.00000000000E+00 -0.21847132073E+04  0.21847132073E+04  0.50400001928E-02 0. -1.
    10030    2    1    2    0    0  0.00000000000E+00  0.00000000000E+00 -0.11516951331E+04  0.32177312815E+04  0.30045620180E+04 0.  0.
        4    1    3    3  502    0 -0.74541488555E+03  0.64254032472E+03 -0.17914308554E+04  0.20439490070E+04  0.12699999809E+01 0. -1.
       -4    1    3    3    0  502  0.74541488555E+03 -0.64254032472E+03  0.63973572236E+03  0.11737822745E+04  0.12699999809E+01 0.  1.
</event>
<event>
 5   0  0.2672155E-06  0.2338682E+04  0.7818609E-02  0.8462824E-01
        1   -1    0    0  501    0  0.00000000000E+00  0.00000000000E+00  0.14094667375E+04  0.14094667375E+04  0.50400001928E-02 0.  1.
       -1   -1    0    0    0  501  0.00000000000E+00  0.00000000000E+00 -0.97012423121E+03  0.97012423123E+03  0.50400001928E-02 0. -1.
    10030    2    1    2    0    0  0.00000000000E+00  0.00000000000E+00  0.43934250626E+03  0.23795909687E+04  0.23386815389E+04 0.  0.
        5    1    3    3  502    0 -0.24796858592E+03  0.73496334761E+03  0.11100069770E+04  0.13541776549E+04  0.46999998093E+01 0.  1.
       -5    1    3    3    0  502  0.24796858592E+03 -0.73496334761E+03 -0.67066447074E+03  0.10254133139E+04  0.46999998093E+01 0. -1.
</event>
<event>
 5   0  0.2552990E-06  0.2900573E+04  0.7818609E-02  0.8272707E-01
        1   -1    0    0  501    0  0.00000000000E+00  0.00000000000E+00  0.22545734364E+04  0.22545734364E+04  0.50400001928E-02 0. -1.
       -1   -1    0    0    0  501  0.00000000000E+00  0.00000000000E+00 -0.93291776408E+03  0.93291776409E+03  0.50400001928E-02 0.  1.
    10030    2    1    2    0    0  0.00000000000E+00  0.00000000000E+00  0.13216556723E+04  0.31874912005E+04  0.29005734669E+04 0.  0.
        3    1    3    3  502    0 -0.36980604111E+03  0.97286720138E+03  0.17707370487E+04  0.20539563786E+04  0.10100000352E+00 0. -1.
       -3    1    3    3    0  502  0.36980604111E+03 -0.97286720138E+03 -0.44908137636E+03  0.11335348219E+04  0.10100000352E+00 0.  1.
</event>
<event>
 5   0  0.6780150E-06  0.3117663E+04  0.7818609E-02  0.8210907E-01
       -2   -1    0    0    0  501  0.00000000000E+00  0.00000000000E+00  0.17826888661E+04  0.17826888661E+04  0.25500000920E-02 0. -1.
        2   -1    0    0  501    0  0.00000000000E+00  0.00000000000E+00 -0.13630849049E+04  0.13630849049E+04  0.25500000920E-02 0.  1.
    10030    2    1    2    0    0  0.00000000000E+00  0.00000000000E+00  0.41960396125E+03  0.31457737710E+04  0.31176634094E+04 0.  0.
        5    1    3    3  502    0 -0.14181140754E+04 -0.25604285591E+03  0.80957611200E+03  0.16528886974E+04  0.46999998093E+01 0. -1.
       -5    1    3    3    0  502  0.14181140754E+04  0.25604285591E+03 -0.38997215075E+03  0.14928850737E+04  0.46999998093E+01 0.  1.
</event>
<event>
 5   0  0.2672155E-06  0.2927983E+04  0.7818609E-02  0.8264600E-01
        1   -1    0    0  501    0  0.00000000000E+00  0.00000000000E+00  0.20125401559E+04  0.20125401560E+04  0.50400001928E-02 0.  1.
       -1   -1    0    0    0  501  0.00000000000E+00  0.00000000000E+00 -0.10649582483E+04  0.10649582484E+04  0.50400001928E-02 0. -1.
    10030    2    1    2    0    0  0.00000000000E+00  0.00000000000E+00  0.94758190761E+03  0.30774984043E+04  0.29279830869E+04 0.  0.
        5    1    3    3  502    0 -0.17739971891E+03  0.14153153293E+04  0.82026135302E+03  0.16454297065E+04  0.46999998093E+01 0.  1.
       -5    1    3    3    0  502  0.17739971891E+03 -0.14153153293E+04  0.12732055459E+03  0.14320686978E+04  0.46999998093E+01 0. -1.
</event>
<event>
 5   0  0.7217255E-06  0.3013669E+04  0.7818609E-02  0.8239838E-01
       -2   -1    0    0    0  501  0.00000000000E+00  0.00000000000E+00  0.10095449345E+04  0.10095449345E+04  0.25500000920E-02 0. -1.
        2   -1    0    0  501    0  0.00000000000E+00  0.00000000000E+00 -0.22490825247E+04  0.22490825247E+04  0.25500000920E-02 0.  1.
    10030    2    1    2    0    0  0.00000000000E+00  0.00000000000E+00 -0.12395375903E+04  0.32586274592E+04  0.30136687742E+04 0.  0.
        1    1    3    3  502    0  0.12771981135E+04  0.58505720786E+03 -0.12090657145E+04  0.18534742673E+04  0.50400001928E-02 0.  1.
       -1    1    3    3    0  502 -0.12771981135E+04 -0.58505720786E+03 -0.30471875808E+02  0.14051531919E+04  0.50400001928E-02 0. -1.
</event>
<event>
 5   0  0.2552990E-06  0.3005548E+04  0.7818609E-02  0.8242148E-01
       -1   -1    0    0    0  501  0.00000000000E+00  0.00000000000E+00  0.16302488237E+04  0.16302488237E+04  0.50400001928E-02 0. -1.
        1   -1    0    0  501    0  0.00000000000E+00  0.00000000000E+00 -0.13852667804E+04  0.13852667804E+04  0.50400001928E-02 0.  1.
    10030    2    1    2    0    0  0.00000000000E+00  0.00000000000E+00  0.24498204324E+03  0.30155156041E+04  0.30055478963E+04 0.  0.
        3    1    3    3  502    0 -0.13500944315E+04  0.24592454261E+03  0.73697272328E+03  0.15576786125E+04  0.10100000352E+00 0. -1.
       -3    1    3    3    0  502  0.13500944315E+04 -0.24592454261E+03 -0.49199068004E+03  0.14578369916E+04  0.10100000352E+00 0.  1.
</event>
<event>
 5   0  0.2504260E-06  0.3059184E+04  0.7818609E-02  0.8227030E-01
       -1   -1    0    0    0  501  0.00000000000E+00  0.00000000000E+00  0.90246858157E+03  0.90246858159E+03  0.50400001928E-02 0. -1.
        1   -1    0    0  501    0  0.00000000000E+00  0.00000000000E+00 -0.25925024962E+04  0.25925024962E+04  0.50400001928E-02 0.  1.
    10030    2    1    2    0    0  0.00000000000E+00  0.00000000000E+00 -0.16900339146E+04  0.34949710778E+04  0.30591842380E+04 0.  0.
        4    1    3    3  502    0  0.14245313715E+04  0.48340335673E+03 -0.11613792251E+04  0.19004661931E+04  0.12699999809E+01 0. -1.
       -4    1    3    3    0  502 -0.14245313715E+04 -0.48340335673E+03 -0.52865468951E+03  0.15945048847E+04  0.12699999809E+01 0.  1.
</event>
<event>
 5   0  0.7217255E-06  0.2701301E+04  0.7818609E-02  0.8334583E-01
        2   -1    0    0  501    0  0.00000000000E+00  0.00000000000E+00  0.15126249693E+04  0.15126249693E+04  0.25500000920E-02 0. -1.
       -2   -1    0    0    0  501  0.00000000000E+00  0.00000000000E+00 -0.12060205333E+04  0.12060205333E+04  0.25500000920E-02 0.  1.
    10030    2    1    2    0    0  0.00000000000E+00  0.00000000000E+00  0.30660443605E+03  0.27186455026E+04  0.27013009992E+04 0.  0.
        1    1    3    3  502    0  0.24122722821E+03 -0.70387254386E+03 -0.98115753457E+03  0.12313802180E+04  0.50400001928E-02 0.  1.
       -1    1    3    3    0  502 -0.24122722821E+03  0.70387254386E+03  0.12877619706E+04  0.14872652846E+04  0.50400001928E-02 0. -1.
</event>
<event>
 5   0  0.7201538E-06  0.2982401E+04  0.7818609E-02  0.8248774E-01
       -2   -1    0    0    0  501  0.00000000000E+00  0.00000000000E+00  0.16464736108E+04  0.16464736108E+04  0.25500000920E-02 0. -1.
        2   -1    0    0  501    0  0.00000000000E+00  0.00000000000E+00 -0.13505710964E+04  0.13505710964E+04  0.25500000920E-02 0.  1.
    10030    2    1    2    0    0  0.00000000000E+00  0.00000000000E+00  0.29590251438E+03  0.29970447071E+04  0.29824014952E+04 0.  0.
        3    1    3    3  502    0  0.68660142303E+03  0.30635369397E+03 -0.11461625937E+04  0.13707526405E+04  0.10100000352E+00 0.  1.
       -3    1    3    3    0  502 -0.68660142303E+03 -0.30635369397E+03  0.14420651081E+04  0.16262920667E+04  0.10100000352E+00 0. -1.
</event>
<event>
 5   0  0.7217255E-06  0.3016104E+04  0.7818609E-02  0.8239147E-01
       -2   -1    0    0    0  501  0.00000000000E+00  0.00000000000E+00  0.15258994178E+04  0.15258994178E+04  0.25500000920E-02 0.  1.
        2   -1    0    0  501    0  0.00000000000E+00  0.00000000000E+00 -0.14904137386E+04  0.14904137386E+04  0.25500000920E-02 0. -1.
    10030    2    1    2    0    0  0.00000000000E+00  0.00000000000E+00  0.35485679148E+02  0.30163131564E+04  0.30161044120E+04 0.  0.
        1    1    3    3  502    0  0.87480409583E+03  0.10332344297E+04  0.68214253789E+03  0.15159729664E+04  0.50400001928E-02 0.  1.
       -1    1    3    3    0  502 -0.87480409583E+03 -0.10332344297E+04 -0.64665685874E+03  0.15003401900E+04  0.50400001928E-02 0. -1.
</event>
<event>
 5   0  0.7201538E-06  0.2944962E+04  0.7818609E-02  0.8259624E-01
       -2   -1    0    0    0  501  0.00000000000E+00  0.00000000000E+00  0.10464995074E+04  0.10464995075E+04  0.25500000920E-02 0.  1.
        2   -1    0    0  501    0  0.00000000000E+00  0.00000000000E+00 -0.20718591617E+04  0.20718591617E+04  0.25500000920E-02 0. -1.
    10030    2    1    2    0    0  0.00000000000E+00  0.00000000000E+00 -0.10253596542E+04  0.31183586691E+04  0.29449615225E+04 0.  0.
        3    1    3    3  502    0 -0.92414290396E+03 -0.10787457764E+04 -0.10193972402E+03  0.14241222822E+04  0.10100000352E+00 0. -1.
       -3    1    3    3    0  502  0.92414290396E+03  0.10787457764E+04 -0.92341993023E+03  0.16942363870E+04  0.10100000352E+00 0.  1.
</event>
<event>
 5   0  0.6792811E-06  0.3147985E+04  0.7818609E-02  0.8202691E-01
        2   -1    0    0  501    0  0.00000000000E+00  0.00000000000E+00  0.24232832480E+04  0.24232832480E+04  0.25500000920E-02 0.  1.
       -2   -1    0    0    0  501  0.00000000000E+00  0.00000000000E+00 -0.10223536971E+04  0.10223536971E+04  0.25500000920E-02 0. -1.
    10030    2    1    2    0    0  0.00000000000E+00  0.00000000000E+00  0.14009295509E+04  0.34456369451E+04  0.31479851256E+04 0.  0.
        2    1    3    3  502    0  0.12678076793E+04 -0.86061553481E+03  0.10942867183E+04  0.18829388817E+04  0.25500000920E-02 0.  1.
       -2    1    3    3    0  502 -0.12678076793E+04  0.86061553481E+03  0.30664283261E+03  0.15626980634E+04  0.25500000920E-02 0. -1.
</event>
<event>
 5   0  0.7217255E-06  0.2546251E+04  0.7818609E-02  0.8386691E-01
       -2   -1    0    0    0  501  0.00000000000E+00  0.00000000000E+00  0.10949780950E+04  0.10949780950E+04  0.25500000920E-02 0.  1.
        2   -1    0    0  501    0  0.00000000000E+00  0.00000000000E+00 -0.14802565447E+04  0.14802565447E+04  0.25500000920E-02 0. -1.
    10030    2    1    2    0    0  0.00000000000E+00  0.00000000000E+00 -0.38527844974E+03  0.25752346397E+04  0.25462509628E+04 0.  0.
        1    1    3    3  502    0  0.45121319780E+03 -0.29600654335E+03  0.97358447330E+03  0.11131396814E+04  0.50400001928E-02 0.  1.
       -1    1    3    3    0  502 -0.45121319780E+03  0.29600654335E+03 -0.13588629230E+04  0.14620949583E+04  0.50400001928E-02 0. -1.
</event>
<event>
 5   0  0.2672155E-06  0.3037594E+04  0.7818609E-02  0.8233077E-01
       -1   -1    0    0    0  501  0.00000000000E+00  0.00000000000E+00  0.13318006194E+04  0.13318006194E+04  0.50400001928E-02 0.  1.
        1   -1    0    0  501    0  0.00000000000E+00  0.00000000000E+00 -0.17320488827E+04  0.17320488827E+04  0.50400001928E-02 0. -1.
    10030    2    1    2    0    0  0.00000000000E+00  0.00000000000E+00 -0.40024826331E+03  0.30638495022E+04  0.30375936364E+04 0.  0.
        5    1    3    3  502    0  0.89412148532E+03  0.10163822872E+04  0.49447587827E+03  0.14411851611E+04  0.46999998093E+01 0.  1.
       -5    1    3    3    0  502 -0.89412148532E+03 -0.10163822872E+04 -0.89472414158E+03  0.16226643411E+04  0.46999998093E+01 0. -1.
</event>
<event>
 5   0  0.2672155E-06  0.2381637E+04  0.7818609E-02  0.8446410E-01
        1   -1    0    0  501    0  0.00000000000E+00  0.00000000000E+00  0.11613685488E+04  0.11613685488E+04  0.50400001928E-02 0.  1.
       -1   -1    0    0    0  501  0.00000000000E+00  0.00000000000E+00 -0.12210153424E+04  0.12210153424E+04  0.50400001928E-02 0. -1.
    10030    2    1    2    0    0  0.00000000000E+00  0.00000000000E+00 -0.59646793590E+02  0.23823838913E+04  0.23816370978E+04 0.  0.
        5    1    3    3  502    0 -0.76174483655E+03 -0.87997933511E+03  0.22206481479E+03  0.11848855211E+04  0.46999998093E+01 0.  1.
       -5    1    3    3    0  502  0.76174483655E+03  0.87997933511E+03 -0.28171160838E+03  0.11974983702E+04  0.46999998093E+01 0. -1.
</event>
<event>
 5   0  0.6792811E-06  0.2972817E+04  0.7818609E-02  0.8251536E-01
       -2   -1    0    0    0  501  0.00000000000E+00  0.00000000000E+00  0.11011920676E+04  0.11011920676E+04  0.25500000920E-02 0. -1.
        2   -1    0    0  501    0  0.00000000000E+00  0.00000000000E+00 -0.20063799425E+04  0.20063799425E+04  0.25500000920E-02 0.  1.
    10030    2    1    2    0    0  0.00000000000E+00  0.00000000000E+00 -0.90518787488E+03  0.31075720102E+04  0.29728166290E+04 0.  0.
        2    1    3    3  502    0  0.84556943687E+03 -0.71850657278E+03 -0.14864505689E+04  0.18549325221E+04  0.25500000920E-02 0. -1.
       -2    1    3    3    0  502 -0.84556943687E+03  0.71850657278E+03  0.58126269401E+03  0.12526394881E+04  0.25500000920E-02 0.  1.
</event>
<event>
 5   0  0.2552990E-06  0.3106378E+04  0.7818609E-02  0.8213990E-01
       -1   -1    0    0    0  501  0.00000000000E+00  0.00000000000E+00  0.10510442584E+04  0.10510442584E+04  0.50400001928E-02 0.  1.
        1   -1    0    0  501    0  0.00000000000E+00  0.00000000000E+00 -0.22952372021E+04  0.22952372021E+04  0.50400001928E-02 0. -1.
    10030    2    1    2    0    0  0.00000000000E+00  0.00000000000E+00 -0.12441929437E+04  0.33462814605E+04  0.31063778797E+04 0.  0.
        3    1    3    3  502    0  0.43030641922E+03 -0.14220191796E+04 -0.13424866812E+03  0.14917522840E+04  0.10100000352E+00 0. -1.
       -3    1    3    3    0  502 -0.43030641922E+03  0.14220191796E+04 -0.11099442755E+04  0.18545291765E+04  0.10100000352E+00 0.  1.
</event>
<event>
 5   0  0.2672155E-06  0.2939331E+04  0.7818609E-02  0.8261271E-01
       -1   -1    0    0    0  501  0.00000000000E+00  0.00000000000E+00  0.79272303689E+03  0.79272303691E+03  0.50400001928E-02 0.  1.
        1   -1    0    0  501    0  0.00000000000E+00  0.00000000000E+00 -0.27246805458E+04  0.27246805458E+04  0.50400001928E-02 0. -1.
    10030    2    1    2    0    0  0.00000000000E+00  0.00000000000E+00 -0.19319575089E+04  0.35174035827E+04  0.29393312415E+04 0.  0.
        5    1    3    3  502    0 -0.34985290937E+03 -0.12886680396E+04 -0.23138388918E+03  0.13552206347E+04  0.46999998093E+01 0.  1.
       -5    1    3    3    0  502  0.34985290937E+03  0.12886680396E+04 -0.17005736197E+04  0.21621829480E+04  0.46999998093E+01 0. -1.
</event>
<event>
 5   0  0.2298500E-06  0.2877587E+04  0.7818609E-02  0.8279577E-01
       -4   -1    0    0    0  501  0.00000000000E+00  0.00000000000E+00  0.77574400700E+03  0.77574504658E+03  0.12699999809E+01 0.  1.
        4   -1    0    0  501    0  0.00000000000E+00  0.00000000000E+00 -0.26685662614E+04  0.26685665636E+04  0.12699999809E+01 0. -1.
    10030    2    1    2    0    0  0.00000000000E+00  0.00000000000E+00 -0.18928222544E+04  0.34443116102E+04  0.28775869025E+04 0.  0.
        1    1    3    3  502    0 -0.78464551907E+03 -0.11632040270E+04 -0.56523666826E+03  0.15126812916E+04  0.50400001928E-02 0. -1.
       -1    1    3    3    0  502  0.78464551907E+03  0.11632040270E+04 -0.13275855861E+04  0.19316303185E+04  0.50400001928E-02 0.  1.
</event>
<event>
 5   0  0.7201538E-06  0.2927173E+04  0.7818609E-02  0.8264838E-01
        2   -1    0    0  501    0  0.00000000000E+00  0.00000000000E+00  0.24131486668E+04  0.24131486668E+04  0.25500000920E-02 0.  1.
       -2   -1    0    0    0  501  0.00000000000E+00  0.00000000000E+00 -0.88767266030E+03  0.88767266030E+03  0.25500000920E-02 0. -1.
    10030    2    1    2    0    0  0.00000000000E+00  0.00000000000E+00  0.15254760065E+04  0.33008213271E+04  0.29271734467E+04 0.  0.
        3    1    3    3  502    0  0.58438777091E+03 -0.10275369309E+04 -0.21040647238E+03  0.12006715225E+04  0.10100000352E+00 0. -1.
       -3    1    3    3    0  502 -0.58438777091E+03  0.10275369309E+04  0.17358824789E+04  0.21001498046E+04  0.10100000352E+00 0.  1.
</event>
<event>
 5   0  0.2672155E-06  0.2943629E+04  0.7818609E-02  0.8260014E-01
       -1   -1    0    0    0  501  0.00000000000E+00  0.00000000000E+00  0.93131787389E+03  0.93131787390E+03  0.50400001928E-02 0. -1.
        1   -1    0    0  501    0  0.00000000000E+00  0.00000000000E+00 -0.23259924955E+04  0.23259924956E+04  0.50400001928E-02 0.  1.
    10030    2    1    2    0    0  0.00000000000E+00  0.00000000000E+00 -0.13946746217E+04  0.32573103695E+04  0.29436293148E+04 0.  0.
        5    1    3    3  502    0  0.43170350676E+03  0.66799855383E+03  0.67302623716E+03  0.10419099729E+04  0.46999998093E+01 0. -1.
       -5    1    3    3    0  502 -0.43170350676E+03 -0.66799855383E+03 -0.20677008588E+04  0.22154003966E+04  0.46999998093E+01 0.  1.
</event>
<event>
 5   0  0.6792811E-06  0.2834846E+04  0.7818609E-02  0.8292531E-01
        2   -1    0    0  501    0  0.00000000000E+00  0.00000000000E+00  0.10198794239E+04  0.10198794239E+04  0.25500000920E-02 0.  1.
       -2   -1    0    0    0  501  0.00000000000E+00  0.00000000000E+00 -0.19699265133E+04  0.19699265133E+04  0.25500000920E-02 0. -1.
    10030    2    1    2    0    0  0.00000000000E+00  0.00000000000E+00 -0.95004708932E+03  0.29898059372E+04  0.28348456872E+04 0.  0.
        2    1    3    3  502    0  0.18241715172E+03  0.61511160843E+02 -0.19560748445E+04  0.19655249775E+04  0.25500000920E-02 0. -1.
       -2    1    3    3    0  502 -0.18241715172E+03 -0.61511160843E+02  0.10060277552E+04  0.10242809597E+04  0.25500000920E-02 0.  1.
</event>
<event>
 5   0  0.2628425E-06  0.2987875E+04  0.7818609E-02  0.8247202E-01
        1   -1    0    0  501    0  0.00000000000E+00  0.00000000000E+00  0.16558466284E+04  0.16558466284E+04  0.50400001928E-02 0.  1.
       -1   -1    0    0    0  501  0.00000000000E+00  0.00000000000E+00 -0.13478600498E+04  0.13478600498E+04  0.50400001928E-02 0. -1.
    10030    2    1    2    0    0  0.00000000000E+00  0.00000000000E+00  0.30798657861E+03  0.30037066781E+04  0.29878751774E+04 0.  0.
        1    1    3    3  502    0 -0.12036246901E+04 -0.82826953183E+03  0.46726392121E+03  0.15339747013E+04  0.50400001928E-02 0.  1.
       -1    1    3    3    0  502  0.12036246901E+04  0.82826953183E+03 -0.15927734260E+03  0.14697319769E+04  0.50400001928E-02 0. -1.
</event>
<event>
 5   0  0.7201538E-06  0.2991040E+04  0.7818609E-02  0.8246294E-01
       -2   -1    0    0    0  501  0.00000000000E+00  0.00000000000E+00  0.18692044522E+04  0.18692044522E+04  0.25500000920E-02 0. -1.
        2   -1    0    0  501    0  0.00000000000E+00  0.00000000000E+00 -0.11965412295E+04  0.11965412295E+04  0.25500000920E-02 0.  1.
    10030    2    1    2    0    0  0.00000000000E+00  0.00000000000E+00  0.67266322273E+03  0.30657456817E+04  0.29910400822E+04 0.  0.
        3    1    3    3  502    0  0.73177162911E+03 -0.67046807428E+03 -0.81034315297E+03  0.12812779525E+04  0.10100000352E+00 0.  1.
       -3    1    3    3    0  502 -0.73177162911E+03  0.67046807428E+03  0.14830063757E+04  0.17844677292E+04  0.10100000352E+00 0. -1.
</event>
<event>
 5   0  0.2422083E-06  0.3024943E+04  0.7818609E-02  0.8236644E-01
        1   -1    0    0  501    0  0.00000000000E+00  0.00000000000E+00  0.16517417988E+04  0.16517417988E+04  0.50400001928E-02 0.  1.
       -1   -1    0    0    0  501  0.00000000000E+00  0.00000000000E+00 -0.13849439672E+04  0.13849439672E+04  0.50400001928E-02 0. -1.
    10030    2    1    2    0    0  0.00000000000E+00  0.00000000000E+00  0.26679783155E+03  0.30366857660E+04  0.30249428687E+04 0.  0.
        2    1    3    3  502    0  0.12874849414E+04  0.76322677470E+03  0.35204537855E+03  0.15375527739E+04  0.25500000920E-02 0. -1.
       -2    1    3    3    0  502 -0.12874849414E+04 -0.76322677470E+03 -0.85247547000E+02  0.14991329921E+04  0.25500000920E-02 0.  1.
</event>
<event>
 5   0  0.2552990E-06  0.3019043E+04  0.7818609E-02  0.8238314E-01
        1   -1    0    0  501    0  0.00000000000E+00  0.00000000000E+00  0.18425933367E+04  0.18425933367E+04  0.50400001928E-02 0. -1.
       -1   -1    0    0    0  501  0.00000000000E+00  0.00000000000E+00 -0.12366561831E+04  0.12366561831E+04  0.50400001928E-02 0.  1.
    10030    2    1    2    0    0  0.00000000000E+00  0.00000000000E+00  0.60593715358E+03  0.30792495199E+04  0.30190425256E+04 0.  0.
        3    1    3    3  502    0  0.13655378233E+04 -0.47697242490E+02  0.95739168564E+03  0.16684026564E+04  0.10100000352E+00 0. -1.
       -3    1    3    3    0  502 -0.13655378233E+04  0.47697242490E+02 -0.35145453206E+03  0.14108468635E+04  0.10100000352E+00 0.  1.
</event>
<event>
 5   0  0.2672155E-06  0.2999862E+04  0.7818609E-02  0.8243770E-01
       -1   -1    0    0    0  501  0.00000000000E+00  0.00000000000E+00  0.13056613143E+04  0.13056613143E+04  0.50400001928E-02 0. -1.
        1   -1    0    0  501    0  0.00000000000E+00  0.00000000000E+00 -0.17231061739E+04  0.17231061739E+04  0.50400001928E-02 0.  1.
    10030    2    1    2    0    0  0.00000000000E+00  0.00000000000E+00 -0.41744485964E+03  0.30287674882E+04  0.29998620446E+04 0.  0.
        5    1    3    3  502    0  0.82868188344E+03 -0.12078755176E+04  0.11702245762E+03  0.14694874193E+04  0.46999998093E+01 0.  1.
       -5    1    3    3    0  502 -0.82868188344E+03  0.12078755176E+04 -0.53446731726E+03  0.15592800689E+04  0.46999998093E+01 0. -1.
</event>
<event>
 5   0  0.2422083E-06  0.2895054E+04  0.7818609E-02  0.8274351E-01
       -1   -1    0    0    0  501  0.00000000000E+00  0.00000000000E+00  0.19339079768E+04  0.19339079768E+04  0.50400001928E-02 0.  1.
        1   -1    0    0  501    0  0.00000000000E+00  0.00000000000E+00 -0.10834713785E+04  0.10834713786E+04  0.50400001928E-02 0. -1.
    10030    2    1    2    0    0  0.00000000000E+00  0.00000000000E+00  0.85043659825E+03  0.30173793553E+04  0.28950536725E+04 0.  0.
        2    1    3    3  502    0  0.63996110910E+02 -0.26383325023E+03 -0.10566997265E+04  0.10910168642E+04  0.25500000920E-02 0. -1.
       -2    1    3    3    0  502 -0.63996110910E+02  0.26383325023E+03  0.19071363247E+04  0.19263624911E+04  0.25500000920E-02 0.  1.
</event>
<event>
 5   0  0.7193153E-06  0.2939367E+04  0.7818609E-02  0.8261260E-01
        2   -1    0    0  501    0  0.00000000000E+00  0.00000000000E+00  0.20194269740E+04  0.20194269740E+04  0.25500000920E-02 0. -1.
       -2   -1    0    0    0  501  0.00000000000E+00  0.00000000000E+00 -0.10695950296E+04  0.10695950296E+04  0.25500000920E-02 0.  1.
    10030    2    1    2    0    0  0.00000000000E+00  0.00000000000E+00  0.94983194439E+03  0.30890220036E+04  0.29393666352E+04 0.  0.
        4    1    3    3  502    0  0.99322710835E+03 -0.10535370276E+04  0.21003747602E+03  0.14630644933E+04  0.12699999809E+01 0. -1.
       -4    1    3    3    0  502 -0.99322710835E+03  0.10535370276E+04  0.73979446837E+03  0.16259575104E+04  0.12699999809E+01 0.  1.
</event>
<event>
 5   0  0.2504260E-06  0.2997842E+04  0.7818609E-02  0.8244347E-01
       -1   -1    0    0    0  501  0.00000000000E+00  0.00000000000E+00  0.12134039712E+04  0.12134039712E+04  0.50400001928E-02 0.  1.
        1   -1    0    0  501    0  0.00000000000E+00  0.00000000000E+00 -0.18516207018E+04  0.18516207018E+04  0.50400001928E-02 0. -1.
    10030    2    1    2    0    0  0.00000000000E+00  0.00000000000E+00 -0.63821673057E+03  0.30650246730E+04  0.29978418322E+04 0.  0.
        4    1    3    3  502    0  0.50029105742E+03  0.11426666149E+04 -0.11688686824E+04  0.17094542242E+04  0.12699999809E+01 0. -1.
       -4    1    3    3    0  502 -0.50029105742E+03 -0.11426666149E+04  0.53065195187E+03  0.13555704489E+04  0.12699999809E+01 0.  1.
</event>
<event>
 5   0  0.2672155E-06  0.3001270E+04  0.7818609E-02  0.8243368E-01
       -1   -1    0    0    0  501  0.00000000000E+00  0.00000000000E+00  0.13258736609E+04  0.13258736609E+04  0.50400001928E-02 0.  1.
        1   -1    0    0  501    0  0.00000000000E+00  0.00000000000E+00 -0.16984310948E+04  0.16984310948E+04  0.50400001928E-02 0. -1.
    10030    2    1    2    0    0  0.00000000000E+00  0.00000000000E+00 -0.37255743394E+03  0.30243047557E+04  0.30012697669E+04 0.  0.
        5    1    3    3  502    0 -0.17560972662E+03  0.66348534799E+03 -0.15309988864E+04  0.16778054903E+04  0.46999998093E+01 0. -1.
       -5    1    3    3    0  502  0.17560972662E+03 -0.66348534799E+03  0.11584414525E+04  0.13464992654E+04  0.46999998093E+01 0.  1.
</event>
<event>
 5   0  0.2422083E-06  0.2524999E+04  0.7818609E-02  0.8394133E-01
       -1   -1    0    0    0  501  0.00000000000E+00  0.00000000000E+00  0.15012173184E+04  0.15012173184E+04  0.50400001928E-02 0. -1.
        1   -1    0    0  501    0  0.00000000000E+00  0.00000000000E+00 -0.10617413775E+04  0.10617413775E+04  0.50400001928E-02 0.  1.
    10030    2    1    2    0    0  0.00000000000E+00  0.00000000000E+00  0.43947594091E+03  0.25629586959E+04  0.25249986484E+04 0.  0.
        2    1    3    3  502    0 -0.11485591944E+04  0.36512945223E+03  0.60141871732E+03  0.13469269518E+04  0.25500000920E-02 0.  1.
       -2    1    3    3    0  502  0.11485591944E+04 -0.36512945223E+03 -0.16194277641E+03  0.12160317441E+04  0.25500000920E-02 0. -1.
</event>
<event>
 5   0  0.7217255E-06  0.3004774E+04  0.7818609E-02  0.8242369E-01
       -2   -1    0    0    0  501  0.00000000000E+00  0.00000000000E+00  0.21032676308E+04  0.21032676308E+04  0.25500000920E-02 0.  1.
        2   -1    0    0  501    0  0.00000000000E+00  0.00000000000E+00 -0.10731712595E+04  0.10731712596E+04  0.25500000920E-02 0. -1.
    10030    2    1    2    0    0  0.00000000000E+00  0.00000000000E+00  0.10300963713E+04  0.31764388904E+04  0.30047737835E+04 0.  0.
        1    1    3    3  502    0 -0.59695821940E+03  0.92274147489E+03  0.15979523648E+04  0.19393975109E+04  0.50400001928E-02 0.  1.
       -1    1    3    3    0  502  0.59695821940E+03 -0.92274147489E+03 -0.56785599349E+03  0.12370413795E+04  0.50400001928E-02 0. -1.
</event>
<event>
 5   0  0.7201538E-06  0.2708127E+04  0.7818609E-02  0.8332373E-01
        2   -1    0    0  501    0  0.00000000000E+00  0.00000000000E+00  0.22492427418E+04  0.22492427418E+04  0.25500000920E-02 0.  1.
       -2   -1    0    0    0  501  0.00000000000E+00  0.00000000000E+00 -0.81515808885E+03  0.81515808886E+03  0.25500000920E-02 0. -1.
    10030    2    1    2    0    0  0.00000000000E+00  0.00000000000E+00  0.14340846530E+04  0.30644008307E+04  0.27081273344E+04 0.  0.
        3    1    3    3  502    0 -0.74044003889E+03  0.11336000118E+04  0.73255608541E+03  0.15394605764E+04  0.10100000352E+00 0.  1.
       -3    1    3    3    0  502  0.74044003889E+03 -0.11336000118E+04  0.70152856759E+03  0.15249402543E+04  0.10100000352E+00 0. -1.
</event>
<event>
 5   0  0.7201538E-06  0.2775364E+04  0.7818609E-02  0.8310958E-01
       -2   -1    0    0    0  501  0.00000000000E+00  0.00000000000E+00  0.16385424059E+04  0.16385424059E+04  0.25500000920E-02 0. -1.
        2   -1    0    0  501    0  0.00000000000E+00  0.00000000000E+00 -0.11752286525E+04  0.11752286525E+04  0.25500000920E-02 0.  1.
    10030    2    1    2    0    0  0.00000000000E+00  0.00000000000E+00  0.46331375339E+03  0.28137710584E+04  0.27753644688E+04 0.  0.
        3    1    3    3  502    0  0.65699723297E+03  0.12062913675E+04  0.31753894251E+02  0.13739696312E+04  0.10100000352E+00 0.  1.
       -3    1    3    3    0  502 -0.65699723297E+03 -0.12062913675E+04  0.43155985914E+03  0.14398014272E+04  0.10100000352E+00 0. -1.
</event>
<event>
 5   0  0.2504260E-06  0.2981502E+04  0.7818609E-02  0.8249033E-01
       -1   -1    0    0    0  501  0.00000000000E+00  0.00000000000E+00  0.96210211071E+03  0.96210211072E+03  0.50400001928E-02 0. -1.
        1   -1    0    0  501    0  0.00000000000E+00  0.00000000000E+00 -0.23098777945E+04  0.23098777945E+04  0.50400001928E-02 0.  1.
    10030    2    1    2    0    0  0.00000000000E+00  0.00000000000E+00 -0.13477756838E+04  0.32719799053E+04  0.29815018374E+04 0.  0.
        4    1    3    3  502    0 -0.20710116413E+03  0.82892204251E+03 -0.20145167186E+04  0.21882143102E+04  0.12699999809E+01 0.  1.
       -4    1    3    3    0  502  0.20710116413E+03 -0.82892204251E+03  0.66674103479E+03  0.10837655951E+04  0.12699999809E+01 0. -1.
</event>
<event>
 5   0  0.7217255E-06  0.2936322E+04  0.7818609E-02  0.8262152E-01
        2   -1    0    0  501    0  0.00000000000E+00  0.00000000000E+00  0.29351068975E+04  0.29351068975E+04  0.25500000920E-02 0.  1.
       -2   -1    0    0    0  501  0.00000000000E+00  0.00000000000E+00 -0.73438455574E+03  0.73438455574E+03  0.25500000920E-02 0. -1.
    10030    2    1    2    0    0  0.00000000000E+00  0.00000000000E+00  0.22007223417E+04  0.36694914532E+04  0.29363223086E+04 0.  0.
        1    1    3    3  502    0 -0.92244182512E+03  0.17603046169E+03  0.25106908554E+04  0.26805697558E+04  0.50400001928E-02 0. -1.
       -1    1    3    3    0  502  0.92244182512E+03 -0.17603046169E+03 -0.30996851367E+03  0.98892169744E+03  0.50400001928E-02 0.  1.
</event>
<event>
 5   0  0.2422083E-06  0.2992656E+04  0.7818609E-02  0.8245831E-01
       -1   -1    0    0    0  501  0.00000000000E+00  0.00000000000E+00  0.33141379941E+04  0.33141379941E+04  0.50400001928E-02 0. -1.
        1   -1    0    0  501    0  0.00000000000E+00  0.00000000000E+00 -0.67558975604E+03  0.67558975606E+03  0.50400001928E-02 0.  1.
    10030    2    1    2    0    0  0.00000000000E+00  0.00000000000E+00  0.26385482380E+04  0.39897277502E+04  0.29926561306E+04 0.  0.
        2    1    3    3  502    0  0.12013273684E+04 -0.13321133432E+03  0.14330917215E+03  0.12171566146E+04  0.25500000920E-02 0.  1.
       -2    1    3    3    0  502 -0.12013273684E+04  0.13321133432E+03  0.24952390659E+04  0.27725711355E+04  0.25500000920E-02 0. -1.
</event>
<event>
 5   0  0.2628425E-06  0.2929183E+04  0.7818609E-02  0.8264247E-01
        1   -1    0    0  501    0  0.00000000000E+00  0.00000000000E+00  0.11145629731E+04  0.11145629731E+04  0.50400001928E-02 0. -1.
       -1   -1    0    0    0  501  0.00000000000E+00  0.00000000000E+00 -0.19245467535E+04  0.19245467535E+04  0.50400001928E-02 0.  1.
    10030    2    1    2    0    0  0.00000000000E+00  0.00000000000E+00 -0.80998378038E+03  0.30391097266E+04  0.29291831977E+04 0.  0.
        1    1    3    3  502    0  0.89828550899E+03 -0.53492020129E+03  0.65915591036E+03  0.12359381018E+04  0.50400001928E-02 0. -1.
       -1    1    3    3    0  502 -0.89828550899E+03  0.53492020129E+03 -0.14691396907E+04  0.18031716248E+04  0.50400001928E-02 0.  1.
</event>
<event>
 5   0  0.2672155E-06  0.3029550E+04  0.7818609E-02  0.8235343E-01
        1   -1    0    0  501    0  0.00000000000E+00  0.00000000000E+00  0.11613492849E+04  0.11613492849E+04  0.50400001928E-02 0. -1.
       -1   -1    0    0    0  501  0.00000000000E+00  0.00000000000E+00 -0.19757559742E+04  0.19757559742E+04  0.50400001928E-02 0.  1.
    10030    2    1    2    0    0  0.00000000000E+00  0.00000000000E+00 -0.81440668936E+03  0.31371052591E+04  0.30295496614E+04 0.  0.
        5    1    3    3  502    0  0.14441404667E+04 -0.14892597228E+03  0.40344557890E+02  0.14523671734E+04  0.46999998093E+01 0.  1.
       -5    1    3    3    0  502 -0.14441404667E+04  0.14892597228E+03 -0.85475124725E+03  0.16847380858E+04  0.46999998093E+01 0. -1.
</event>
<event>
 5   0  0.6792811E-06  0.2766334E+04  0.7818609E-02  0.8313797E-01
       -2   -1    0    0    0  501  0.00000000000E+00  0.00000000000E+00  0.10049054491E+04  0.10049054491E+04  0.25500000920E-02 0.  1.
        2   -1    0    0  501    0  0.00000000000E+00  0.00000000000E+00 -0.19038118875E+04  0.19038118875E+04  0.25500000920E-02 0. -1.
    10030    2    1    2    0    0  0.00000000000E+00  0.00000000000E+00 -0.89890643835E+03  0.29087173366E+04  0.27663339928E+04 0.  0.
        2    1    3    3  502    0 -0.30349701238E+03  0.11450970645E+04 -0.12002007838E+04  0.16863687749E+04  0.25500000920E-02 0. -1.
       -2    1    3    3    0  502  0.30349701238E+03 -0.11450970645E+04  0.30129434547E+03  0.12223485617E+04  0.25500000920E-02 0.  1.
</event>
<event>
 5   0  0.7217255E-06  0.2956266E+04  0.7818609E-02  0.8256331E-01
        2   -1    0    0  501    0  0.00000000000E+00  0.00000000000E+00  0.24212191901E+04  0.24212191901E+04  0.25500000920E-02 0.  1.
       -2   -1    0    0    0  501  0.00000000000E+00  0.00000000000E+00 -0.90238739205E+03  0.90238739205E+03  0.25500000920E-02 0. -1.
    10030    2    1    2    0    0  0.00000000000E+00  0.00000000000E+00  0.15188317981E+04  0.33236065822E+04  0.29562663416E+04 0.  0.
        1    1    3    3  502    0  0.10089162798E+04 -0.82626810956E+03 -0.22930974818E+02  0.13042840481E+04  0.50400001928E-02 0. -1.
       -1    1    3    3    0  502 -0.10089162798E+04  0.82626810956E+03  0.15417627729E+04  0.20193225340E+04  0.50400001928E-02 0.  1.
</event>
<event>
 5   0  0.6780150E-06  0.2997338E+04  0.7818609E-02  0.8244491E-01
       -2   -1    0    0    0  501  0.00000000000E+00  0.00000000000E+00  0.95604620956E+03  0.95604620957E+03  0.25500000920E-02 0. -1.
        2   -1    0    0  501    0  0.00000000000E+00  0.00000000000E+00 -0.23492680884E+04  0.23492680884E+04  0.25500000920E-02 0.  1.
    10030    2    1    2    0    0  0.00000000000E+00  0.00000000000E+00 -0.13932218788E+04  0.33053142980E+04  0.29973380531E+04 0.  0.
        5    1    3    3  502    0 -0.22954797720E+03 -0.90368808858E+03  0.59724997584E+03  0.11072822851E+04  0.46999998093E+01 0. -1.
       -5    1    3    3    0  502  0.22954797720E+03  0.90368808858E+03 -0.19904718547E+04  0.21980320129E+04  0.46999998093E+01 0.  1.
</event>
<event>
 5   0  0.2422083E-06  0.3016390E+04  0.7818609E-02  0.8239066E-01
        1   -1    0    0  501    0  0.00000000000E+00  0.00000000000E+00  0.13154481894E+04  0.13154481894E+04  0.50400001928E-02 0. -1.
       -1   -1    0    0    0  501  0.00000000000E+00  0.00000000000E+00 -0.17291835989E+04  0.17291835989E+04  0.50400001928E-02 0.  1.
    10030    2    1    2    0    0  0.00000000000E+00  0.00000000000E+00 -0.41373540948E+03  0.30446317883E+04  0.30163895202E+04 0.  0.
        2    1    3    3  502    0 -0.30888499940E+03  0.42241288960E+03 -0.16346110783E+04  0.17163321268E+04  0.25500000920E-02 0.  1.
       -2    1    3    3    0  502  0.30888499940E+03 -0.42241288960E+03  0.12208756688E+04  0.13282996615E+04  0.25500000920E-02 0. -1.
</event>
<event>
 5   0  0.7193153E-06  0.3009114E+04  0.7818609E-02  0.8241133E-01
        2   -1    0    0  501    0  0.00000000000E+00  0.00000000000E+00  0.16923840493E+04  0.16923840493E+04  0.25500000920E-02 0.  1.
       -2   -1    0    0    0  501  0.00000000000E+00  0.00000000000E+00 -0.13375752949E+04  0.13375752949E+04  0.25500000920E-02 0. -1.
    10030    2    1    2    0    0  0.00000000000E+00  0.00000000000E+00  0.35480875437E+03  0.30299593442E+04  0.30091135531E+04 0.  0.
        4    1    3    3  502    0  0.12134460861E+04  0.24673367580E+03 -0.68312734387E+03  0.14142112613E+04  0.12699999809E+01 0.  1.
       -4    1    3    3    0  502 -0.12134460861E+04 -0.24673367580E+03  0.10379360982E+04  0.16157480829E+04  0.12699999809E+01 0. -1.
</event>
<event>
 5   0  0.7217255E-06  0.3016325E+04  0.7818609E-02  0.8239085E-01
       -2   -1    0    0    0  501  0.00000000000E+00  0.00000000000E+00  0.20561167135E+04  0.20561167135E+04  0.25500000920E-02 0.  1.
        2   -1    0    0  501    0  0.00000000000E+00  0.00000000000E+00 -0.11062375881E+04  0.11062375881E+04  0.25500000920E-02 0. -1.
    10030    2    1    2    0    0  0.00000000000E+00  0.00000000000E+00  0.94987912542E+03  0.31623543015E+04  0.30163246469E+04 0.  0.
        1    1    3    3  502    0  0.88442161971E+03  0.84639471376E+03 -0.44859753053E+03  0.13037735069E+04  0.50400001928E-02 0. -1.
       -1    1    3    3    0  502 -0.88442161971E+03 -0.84639471376E+03  0.13984766560E+04  0.18585807946E+04  0.50400001928E-02 0.  1.
</event>
<event>
 5   0  0.2628425E-06  0.2999231E+04  0.7818609E-02  0.8243950E-01
       -1   -1    0    0    0  501  0.00000000000E+00  0.00000000000E+00  0.12651493690E+04  0.12651493690E+04  0.50400001928E-02 0. -1.
        1   -1    0    0  501    0  0.00000000000E+00  0.00000000000E+00 -0.17775347201E+04  0.17775347201E+04  0.50400001928E-02 0.  1.
    10030    2    1    2    0    0  0.00000000000E+00  0.00000000000E+00 -0.51238535109E+03  0.30426840891E+04  0.29992311878E+04 0.  0.
        1    1    3    3  502    0  0.53408225543E+03 -0.11543775954E+04 -0.10620662470E+04  0.16570504522E+04  0.50400001928E-02 0.  1.
       -1    1    3    3    0  502 -0.53408225543E+03  0.11543775954E+04  0.54968089586E+03  0.13856336369E+04  0.50400001928E-02 0. -1.
</event>
<event>
 5   0  0.2672155E-06  0.2407647E+04  0.7818609E-02  0.8436646E-01
       -1   -1    0    0    0  501  0.00000000000E+00  0.00000000000E+00  0.10952494395E+04  0.10952494395E+04  0.50400001928E-02 0. -1.
        1   -1    0    0  501    0  0.00000000000E+00  0.00000000000E+00 -0.13231606759E+04  0.13231606759E+04  0.50400001928E-02 0.  1.
    10030    2    1    2    0    0  0.00000000000E+00  0.00000000000E+00 -0.22791123640E+03  0.24184101154E+04  0.24076469747E+04 0.  0.
        5    1    3    3  502    0 -0.58435201797E+03 -0.44005326532E+03 -0.10742916978E+04  0.12997072359E+04  0.46999998093E+01 0.  1.
       -5    1    3    3    0  502  0.58435201797E+03  0.44005326532E+03  0.84638046138E+03  0.11187028795E+04  0.46999998093E+01 0. -1.
</event>
<event>
 5   0  0.6780150E-06  0.2327549E+04  0.7818609E-02  0.8467138E-01
        2   -1    0    0  501    0  0.00000000000E+00  0.00000000000E+00  0.67231523088E+03  0.67231523089E+03  0.25500000920E-02 0. -1.
       -2   -1    0    0    0  501  0.00000000000E+00  0.00000000000E+00 -0.20144878066E+04  0.20144878066E+04  0.25500000920E-02 0.  1.
    10030    2    1    2    0    0  0.00000000000E+00  0.00000000000E+00 -0.13421725757E+04  0.26868030375E+04  0.23275487834E+04 0.  0.
        5    1    3    3  502    0  0.78420613654E+03 -0.25747660777E+03 -0.16181274545E+04  0.18164889257E+04  0.46999998093E+01 0.  1.
       -5    1    3    3    0  502 -0.78420613654E+03  0.25747660777E+03  0.27595487876E+03  0.87031411183E+03  0.46999998093E+01 0. -1.
</event>
<event>
 5   0  0.6780150E-06  0.2958786E+04  0.7818609E-02  0.8255599E-01
       -2   -1    0    0    0  501  0.00000000000E+00  0.00000000000E+00  0.95994438992E+03  0.95994438993E+03  0.25500000920E-02 0.  1.
        2   -1    0    0  501    0  0.00000000000E+00  0.00000000000E+00 -0.22799280512E+04  0.22799280512E+04  0.25500000920E-02 0. -1.
    10030    2    1    2    0    0  0.00000000000E+00  0.00000000000E+00 -0.13199836613E+04  0.32398724411E+04  0.29587863337E+04 0.  0.
        5    1    3    3  502    0 -0.13979538408E+04  0.16953518694E+03 -0.11564570418E+04  0.18222052849E+04  0.46999998093E+01 0.  1.
       -5    1    3    3    0  502  0.13979538408E+04 -0.16953518694E+03 -0.16352661946E+03  0.14176671563E+04  0.46999998093E+01 0. -1.
</event>
<event>
 5   0  0.6780150E-06  0.2983714E+04  0.7818609E-02  0.8248397E-01
        2   -1    0    0  501    0  0.00000000000E+00  0.00000000000E+00  0.22415999405E+04  0.22415999405E+04  0.25500000920E-02 0.  1.
       -2   -1    0    0    0  501  0.00000000000E+00  0.00000000000E+00 -0.99287878758E+03  0.99287878759E+03  0.25500000920E-02 0. -1.
    10030    2    1    2    0    0  0.00000000000E+00  0.00000000000E+00  0.12487211529E+04  0.32344787281E+04  0.29837138141E+04 0.  0.
        5    1    3    3  502    0  0.35261140447E+03  0.13884436671E+04  0.17281428178E+03  0.14429128474E+04  0.46999998093E+01 0. -1.
       -5    1    3    3    0  502 -0.35261140447E+03 -0.13884436671E+04  0.10759068711E+04  0.17915658806E+04  0.46999998093E+01 0.  1.
</event>
<event>
 5   0  0.7193153E-06  0.2993439E+04  0.7818609E-02  0.8245607E-01
        2   -1    0    0  501    0  0.00000000000E+00  0.00000000000E+00  0.30307430429E+04  0.30307430429E+04  0.25500000920E-02 0.  1.
       -2   -1    0    0    0  501  0.00000000000E+00  0.00000000000E+00 -0.73914867167E+03  0.73914867168E+03  0.25500000920E-02 0. -1.
    10030    2    1    2    0    0  0.00000000000E+00  0.00000000000E+00  0.22915943713E+04  0.37698917146E+04  0.29934392891E+04 0.  0.
        4    1    3    3  502    0  0.45124398953E+03  0.18709744821E+03 -0.63592800256E+03  0.80189315408E+03  0.12699999809E+01 0. -1.
       -4    1    3    3    0  502 -0.45124398953E+03 -0.18709744821E+03  0.29275223738E+04  0.29679985605E+04  0.12699999809E+01 0.  1.
</event>
<event>
 5   0  0.7193153E-06  0.3000480E+04  0.7818609E-02  0.8243594E-01
       -2   -1    0    0    0  501  0.00000000000E+00  0.00000000000E+00  0.10513766352E+04  0.10513766352E+04  0.25500000920E-02 0. -1.
        2   -1    0    0  501    0  0.00000000000E+00  0.00000000000E+00 -0.21407356623E+04  0.21407356623E+04  0.25500000920E-02 0.  1.
    10030    2    1    2    0    0  0.00000000000E+00  0.00000000000E+00 -0.10893590271E+04  0.31921122976E+04  0.30004796001E+04 0.  0.
        4    1    3    3  502    0 -0.32846652096E+03  0.34392865055E+03 -0.20584175923E+04  0.21126433133E+04  0.12699999809E+01 0.  1.
       -4    1    3    3    0  502  0.32846652096E+03 -0.34392865055E+03  0.96905856526E+03  0.10794689842E+04  0.12699999809E+01 0. -1.
</event>
<event>
 5   0  0.2672155E-06  0.2984406E+04  0.7818609E-02  0.8248198E-01
       -1   -1    0    0    0  501  0.00000000000E+00  0.00000000000E+00  0.89264931280E+03  0.89264931281E+03  0.50400001928E-02 0. -1.
        1   -1    0    0  501    0  0.00000000000E+00  0.00000000000E+00 -0.24944504346E+04  0.24944504346E+04  0.50400001928E-02 0.  1.
    10030    2    1    2    0    0  0.00000000000E+00  0.00000000000E+00 -0.16018011218E+04  0.33870997474E+04  0.29844057809E+04 0.  0.
        5    1    3    3  502    0 -0.88366646501E+03  0.66745645781E+03 -0.19359937594E+04  0.22303494055E+04  0.46999998093E+01 0.  1.
       -5    1    3    3    0  502  0.88366646501E+03 -0.66745645781E+03  0.33419263756E+03  0.11567503419E+04  0.46999998093E+01 0. -1.
</event>
<event>
 5   0  0.7201538E-06  0.2975079E+04  0.7818609E-02  0.8250883E-01
       -2   -1    0    0    0  501  0.00000000000E+00  0.00000000000E+00  0.16297153777E+04  0.16297153777E+04  0.25500000920E-02 0.  1.
        2   -1    0    0  501    0  0.00000000000E+00  0.00000000000E+00 -0.13577666746E+04  0.13577666746E+04  0.25500000920E-02 0. -1.
    10030    2    1    2    0    0  0.00000000000E+00  0.00000000000E+00  0.27194870308E+03  0.29874820522E+04  0.29750786402E+04 0.  0.
        3    1    3    3  502    0  0.19988734529E+03  0.12263802919E+04  0.95719170779E+03  0.15684959505E+04  0.10100000352E+00 0.  1.
       -3    1    3    3    0  502 -0.19988734529E+03 -0.12263802919E+04 -0.68524300472E+03  0.14189861017E+04  0.10100000352E+00 0. -1.
</event>
<event>
 5   0  0.6792811E-06  0.3010368E+04  0.7818609E-02  0.8240777E-01
       -2   -1    0    0    0  501  0.00000000000E+00  0.00000000000E+00  0.91993646902E+03  0.91993646902E+03  0.25500000920E-02 0. -1.
        2   -1    0    0  501    0  0.00000000000E+00  0.00000000000E+00 -0.24627552736E+04  0.24627552736E+04  0.25500000920E-02 0.  1.
    10030    2    1    2    0    0  0.00000000000E+00  0.00000000000E+00 -0.15428188046E+04  0.33826917426E+04  0.30103676788E+04 0.  0.
        2    1    3    3  502    0  0.77777656652E+03  0.36766455966E+03  0.61644520845E+03  0.10583564196E+04  0.25500000920E-02 0. -1.
       -2    1    3    3    0  502 -0.77777656652E+03 -0.36766455966E+03 -0.21592640130E+04  0.23243353230E+04  0.25500000920E-02 0.  1.
</event>
<event>
 5   0  0.2552990E-06  0.2981079E+04  0.7818609E-02  0.8249155E-01
       -1   -1    0    0    0  501  0.00000000000E+00  0.00000000000E+00  0.16336455900E+04  0.16336455901E+04  0.50400001928E-02 0. -1.
        1   -1    0    0  501    0  0.00000000000E+00  0.00000000000E+00 -0.13599696830E+04  0.13599696830E+04  0.50400001928E-02 0.  1.
    10030    2    1    2    0    0  0.00000000000E+00  0.00000000000E+00  0.27367590702E+03  0.29936152731E+04  0.29810793182E+04 0.  0.
        3    1    3    3  502    0  0.53328701146E+02 -0.73531232989E+03  0.14377315102E+04  0.16157351511E+04  0.10100000352E+00 0. -1.
       -3    1    3    3    0  502 -0.53328701146E+02  0.73531232989E+03 -0.11640556032E+04  0.13778801219E+04  0.10100000352E+00 0.  1.
</event>
<event>
 5   0  0.6780150E-06  0.3050071E+04  0.7818609E-02  0.8229576E-01
        2   -1    0    0  501    0  0.00000000000E+00  0.00000000000E+00  0.16723704204E+04  0.16723704204E+04  0.25500000920E-02 0. -1.
       -2   -1    0    0    0  501  0.00000000000E+00  0.00000000000E+00 -0.13906808247E+04  0.13906808247E+04  0.25500000920E-02 0.  1.
    10030    2    1    2    0    0  0.00000000000E+00  0.00000000000E+00  0.28168959571E+03  0.30630512451E+04  0.30500711306E+04 0.  0.
        5    1    3    3  502    0 -0.14908343517E+04 -0.19008735540E+02  0.46277569459E+03  0.15611315863E+04  0.46999998093E+01 0.  1.
       -5    1    3    3    0  502  0.14908343517E+04  0.19008735540E+02 -0.18108609888E+03  0.15019196588E+04  0.46999998093E+01 0. -1.
</event>
<event>
 5   0  0.6792811E-06  0.2972110E+04  0.7818609E-02  0.8251740E-01
        2   -1    0    0  501    0  0.00000000000E+00  0.00000000000E+00  0.20807201762E+04  0.20807201762E+04  0.25500000920E-02 0.  1.
       -2   -1    0    0    0  501  0.00000000000E+00  0.00000000000E+00 -0.10613436367E+04  0.10613436367E+04  0.25500000920E-02 0. -1.
    10030    2    1    2    0    0  0.00000000000E+00  0.00000000000E+00  0.10193765395E+04  0.31420638130E+04  0.29721097684E+04 0.  0.
        2    1    3    3  502    0 -0.95065157926E+03 -0.90929620186E+02 -0.69399357565E+03  0.11805226402E+04  0.25500000920E-02 0. -1.
       -2    1    3    3    0  502  0.95065157926E+03  0.90929620186E+02  0.17133701151E+04  0.19615411728E+04  0.25500000920E-02 0.  1.
</event>
<event>
 5   0  0.2628425E-06  0.2834607E+04  0.7818609E-02  0.8292604E-01
        1   -1    0    0  501    0  0.00000000000E+00  0.00000000000E+00  0.11516295784E+04  0.11516295784E+04  0.50400001928E-02 0. -1.
       -1   -1    0    0    0  501  0.00000000000E+00  0.00000000000E+00 -0.17442669037E+04  0.17442669037E+04  0.50400001928E-02 0.  1.
    10030    2    1    2    0    0  0.00000000000E+00  0.00000000000E+00 -0.59263732533E+03  0.28958964821E+04  0.28346071043E+04 0.  0.
        1    1    3    3  502    0 -0.79191205645E+01  0.13055560499E+04 -0.85979662927E+03  0.15632624718E+04  0.50400001928E-02 0.  1.
       -1    1    3    3    0  502  0.79191205645E+01 -0.13055560499E+04  0.26715930394E+03  0.13326340104E+04  0.50400001928E-02 0. -1.
</event>
<event>
 5   0  0.6780150E-06  0.2866404E+04  0.7818609E-02  0.8282944E-01
       -2   -1    0    0    0  501  0.00000000000E+00  0.00000000000E+00  0.10183698734E+04  0.10183698734E+04  0.25500000920E-02 0.  1.
        2   -1    0    0  501    0  0.00000000000E+00  0.00000000000E+00 -0.20170157842E+04  0.20170157842E+04  0.25500000920E-02 0. -1.
    10030    2    1    2    0    0  0.00000000000E+00  0.00000000000E+00 -0.99864591088E+03  0.30353856576E+04  0.28664040949E+04 0.  0.
        5    1    3    3  502    0 -0.57195560461E+03  0.86641139929E+03 -0.15456216213E+04  0.18619264788E+04  0.46999998093E+01 0. -1.
       -5    1    3    3    0  502  0.57195560461E+03 -0.86641139929E+03  0.54697571039E+03  0.11734591788E+04  0.46999998093E+01 0.  1.
</event>
<event>
 5   0  0.2298500E-06  0.3002439E+04  0.7818609E-02  0.8243035E-01
       -4   -1    0    0    0  501  0.00000000000E+00  0.00000000000E+00  0.12287468756E+04  0.12287475319E+04  0.12699999809E+01 0.  1.
        4   -1    0    0  501    0  0.00000000000E+00  0.00000000000E+00 -0.18341106794E+04  0.18341111191E+04  0.12699999809E+01 0. -1.
    10030    2    1    2    0    0  0.00000000000E+00  0.00000000000E+00 -0.60536380382E+03  0.30628586510E+04  0.30024386390E+04 0.  0.
        4    1    3    3  502    0  0.78419827389E+03  0.12072387041E+04  0.13163879342E+03  0.14455872877E+04  0.12699999809E+01 0. -1.
       -4    1    3    3    0  502 -0.78419827389E+03 -0.12072387041E+04 -0.73700259723E+03  0.16172713633E+04  0.12699999809E+01 0.  1.
</event>
<event>
 5   0  0.7201538E-06  0.3004883E+04  0.7818609E-02  0.8242338E-01
        2   -1    0    0  501    0  0.00000000000E+00  0.00000000000E+00  0.11504263160E+04  0.11504263160E+04  0.25500000920E-02 0. -1.
       -2   -1    0    0    0  501  0.00000000000E+00  0.00000000000E+00 -0.19621682729E+04  0.19621682729E+04  0.25500000920E-02 0.  1.
    10030    2    1    2    0    0  0.00000000000E+00  0.00000000000E+00 -0.81174195692E+03  0.31125945889E+04  0.30048827049E+04 0.  0.
        3    1    3    3  502    0 -0.22128594991E+03  0.51593034984E+03 -0.18494467854E+04  0.19327713315E+04  0.10100000352E+00 0.  1.
       -3    1    3    3    0  502  0.22128594991E+03 -0.51593034984E+03  0.10377048285E+04  0.11798232574E+04  0.10100000352E+00 0. -1.
</event>
<event>
 5   0  0.2422083E-06  0.3029344E+04  0.7818609E-02  0.8235401E-01
        1   -1    0    0  501    0  0.00000000000E+00  0.00000000000E+00  0.24457322834E+04  0.24457322834E+04  0.50400001928E-02 0.  1.
       -1   -1    0    0    0  501  0.00000000000E+00  0.00000000000E+00 -0.93805466847E+03  0.93805466848E+03  0.50400001928E-02 0. -1.
    10030    2    1    2    0    0  0.00000000000E+00  0.00000000000E+00  0.15076776149E+04  0.33837869519E+04  0.30293435502E+04 0.  0.
        2    1    3    3  502    0  0.54323846158E+03  0.13919958722E+04  0.10307791808E+04  0.18152868241E+04  0.25500000920E-02 0.  1.
       -2    1    3    3    0  502 -0.54323846158E+03 -0.13919958722E+04  0.47689843409E+03  0.15685001277E+04  0.25500000920E-02 0. -1.
</event>
<event>
 5   0  0.2672155E-06  0.3022204E+04  0.7818609E-02  0.8237419E-01
        1   -1    0    0  501    0  0.00000000000E+00  0.00000000000E+00  0.15316802658E+04  0.15316802658E+04  0.50400001928E-02 0.  1.
       -1   -1    0    0    0  501  0.00000000000E+00  0.00000000000E+00 -0.14908005839E+04  0.14908005839E+04  0.50400001928E-02 0. -1.
    10030    2    1    2    0    0  0.00000000000E+00  0.00000000000E+00  0.40879681942E+02  0.30224808497E+04  0.30222043840E+04 0.  0.
        5    1    3    3  502    0  0.11736873857E+04 -0.68457095496E+03 -0.64085303675E+03  0.15022963012E+04  0.46999998093E+01 0. -1.
       -5    1    3    3    0  502 -0.11736873857E+04  0.68457095496E+03  0.68173271870E+03  0.15201845485E+04  0.46999998093E+01 0.  1.
</event>
<event>
 5   0  0.6792811E-06  0.2968047E+04  0.7818609E-02  0.8252914E-01
        2   -1    0    0  501    0  0.00000000000E+00  0.00000000000E+00  0.10445999264E+04  0.10445999264E+04  0.25500000920E-02 0.  1.
       -2   -1    0    0    0  501  0.00000000000E+00  0.00000000000E+00 -0.21082962004E+04  0.21082962004E+04  0.25500000920E-02 0. -1.
    10030    2    1    2    0    0  0.00000000000E+00  0.00000000000E+00 -0.10636962740E+04  0.31528961269E+04  0.29680472071E+04 0.  0.
        2    1    3    3  502    0 -0.10607068074E+04 -0.10373564392E+04 -0.49631741946E+03  0.15644610235E+04  0.25500000920E-02 0. -1.
       -2    1    3    3    0  502  0.10607068074E+04  0.10373564392E+04 -0.56737885454E+03  0.15884351034E+04  0.25500000920E-02 0.  1.
</event>
<event>
 5   0  0.7217255E-06  0.2933945E+04  0.7818609E-02  0.8262849E-01
       -2   -1    0    0    0  501  0.00000000000E+00  0.00000000000E+00  0.96616887610E+03  0.96616887610E+03  0.25500000920E-02 0.  1.
        2   -1    0    0  501    0  0.00000000000E+00  0.00000000000E+00 -0.22273622247E+04  0.22273622247E+04  0.25500000920E-02 0. -1.
    10030    2    1    2    0    0  0.00000000000E+00  0.00000000000E+00 -0.12611933486E+04  0.31935311008E+04  0.29339448238E+04 0.  0.
        1    1    3    3  502    0  0.54391901543E+03  0.44630347631E+03 -0.20317219642E+04  0.21500997252E+04  0.50400001928E-02 0. -1.
       -1    1    3    3    0  502 -0.54391901543E+03 -0.44630347631E+03  0.77052861557E+03  0.10434313757E+04  0.50400001928E-02 0.  1.
</event>
<event>
 5   0  0.2504260E-06  0.2969165E+04  0.7818609E-02  0.8252591E-01
       -1   -1    0    0    0  501  0.00000000000E+00  0.00000000000E+00  0.14624985592E+04  0.14624985592E+04  0.50400001928E-02 0.  1.
        1   -1    0    0  501    0  0.00000000000E+00  0.00000000000E+00 -0.15070001782E+04  0.15070001782E+04  0.50400001928E-02 0. -1.
    10030    2    1    2    0    0  0.00000000000E+00  0.00000000000E+00 -0.44501619061E+02  0.29694987374E+04  0.29691652627E+04 0.  0.
        4    1    3    3  502    0 -0.11201229749E+04 -0.92078465674E+03  0.29631928642E+03  0.14799752010E+04  0.12699999809E+01 0. -1.
       -4    1    3    3    0  502  0.11201229749E+04  0.92078465674E+03 -0.34082090548E+03  0.14895235364E+04  0.12699999809E+01 0.  1.
</event>
<event>
 5   0  0.2552990E-06  0.2936298E+04  0.7818609E-02  0.8262159E-01
        1   -1    0    0  501    0  0.00000000000E+00  0.00000000000E+00  0.15328729071E+04  0.15328729071E+04  0.50400001928E-02 0. -1.
       -1   -1    0    0    0  501  0.00000000000E+00  0.00000000000E+00 -0.14061576661E+04  0.14061576661E+04  0.50400001928E-02 0.  1.
    10030    2    1    2    0    0  0.00000000000E+00  0.00000000000E+00  0.12671524104E+03  0.29390305733E+04  0.29362976617E+04 0.  0.
        3    1    3    3  502    0 -0.13490156476E+04 -0.56493491126E+03  0.19179816546E+03  0.14750529543E+04  0.10100000352E+00 0. -1.
       -3    1    3    3    0  502  0.13490156476E+04  0.56493491126E+03 -0.65082924417E+02  0.14639776189E+04  0.10100000352E+00 0.  1.
</event>
<event>
 5   0  0.6792811E-06  0.3064093E+04  0.7818609E-02  0.8225662E-01
       -2   -1    0    0    0  501  0.00000000000E+00  0.00000000000E+00  0.85021220969E+03  0.85021220969E+03  0.25500000920E-02 0.  1.
        2   -1    0    0  501    0  0.00000000000E+00  0.00000000000E+00 -0.27606822801E+04  0.27606822801E+04  0.25500000920E-02 0. -1.
    10030    2    1    2    0    0  0.00000000000E+00  0.00000000000E+00 -0.19104700704E+04  0.36108944898E+04  0.30640925453E+04 0.  0.
        2    1    3    3  502    0  0.45258840838E+02 -0.97031699351E+03  0.44092423342E+03  0.10667603340E+04  0.25500000920E-02 0.  1.
       -2    1    3    3    0  502 -0.45258840838E+02  0.97031699351E+03 -0.23513943038E+04  0.25441341558E+04  0.25500000920E-02 0. -1.
</event>
<event>
 5   0  0.2628425E-06  0.2972233E+04  0.7818609E-02  0.8251705E-01
       -1   -1    0    0    0  501  0.00000000000E+00  0.00000000000E+00  0.12960235088E+04  0.12960235089E+04  0.50400001928E-02 0. -1.
        1   -1    0    0  501    0  0.00000000000E+00  0.00000000000E+00 -0.17040913525E+04  0.17040913525E+04  0.50400001928E-02 0.  1.
    10030    2    1    2    0    0  0.00000000000E+00  0.00000000000E+00 -0.40806784363E+03  0.30001148613E+04  0.29722331362E+04 0.  0.
        1    1    3    3  502    0 -0.92872919596E+03  0.36924395597E+03  0.90613045468E+03  0.13490557510E+04  0.50400001928E-02 0. -1.
       -1    1    3    3    0  502  0.92872919596E+03 -0.36924395597E+03 -0.13141982983E+04  0.16510591103E+04  0.50400001928E-02 0.  1.
</event>
<event>
 5   0  0.2628425E-06  0.2946030E+04  0.7818609E-02  0.8259312E-01
       -1   -1    0    0    0  501  0.00000000000E+00  0.00000000000E+00  0.25294772134E+04  0.25294772134E+04  0.50400001928E-02 0. -1.
        1   -1    0    0  501    0  0.00000000000E+00  0.00000000000E+00 -0.85779534382E+03  0.85779534383E+03  0.50400001928E-02 0.  1.
    10030    2    1    2    0    0  0.00000000000E+00  0.00000000000E+00  0.16716818696E+04  0.33872725573E+04  0.29460303977E+04 0.  0.
        1    1    3    3  502    0 -0.59858059922E+03  0.12938933099E+04  0.40977958426E+03  0.14833670951E+04  0.50400001928E-02 0.  1.
       -1    1    3    3    0  502  0.59858059922E+03 -0.12938933099E+04  0.12619022854E+04  0.19039054622E+04  0.50400001928E-02 0. -1.
</event>
<event>
 5   0  0.2422083E-06  0.2991586E+04  0.7818609E-02  0.8246138E-01
       -1   -1    0    0    0  501  0.00000000000E+00  0.00000000000E+00  0.90613721620E+03  0.90613721622E+03  0.50400001928E-02 0.  1.
        1   -1    0    0  501    0  0.00000000000E+00  0.00000000000E+00 -0.24691584389E+04  0.24691584389E+04  0.50400001928E-02 0. -1.
    10030    2    1    2    0    0  0.00000000000E+00  0.00000000000E+00 -0.15630212227E+04  0.33752956552E+04  0.29915857696E+04 0.  0.
        2    1    3    3  502    0 -0.93304362522E+03  0.11067942195E+04 -0.35659934559E+03  0.14908812643E+04  0.25500000920E-02 0.  1.
       -2    1    3    3    0  502  0.93304362522E+03 -0.11067942195E+04 -0.12064218772E+04  0.18844143909E+04  0.25500000920E-02 0. -1.
</event>
<event>
 5   0  0.7193153E-06  0.3126082E+04  0.7818609E-02  0.8208616E-01
        2   -1    0    0  501    0  0.00000000000E+00  0.00000000000E+00  0.24828259712E+04  0.24828259712E+04  0.25500000920E-02 0. -1.
       -2   -1    0    0    0  501  0.00000000000E+00  0.00000000000E+00 -0.98399826735E+03  0.98399826736E+03  0.25500000920E-02 0.  1.
    10030    2    1    2    0    0  0.00000000000E+00  0.00000000000E+00  0.14988277039E+04  0.34668242386E+04  0.31260815433E+04 0.  0.
        4    1    3    3  502    0  0.87072630498E+03  0.33283452776E+03 -0.64199517345E+03  0.11318580020E+04  0.12699999809E+01 0.  1.
       -4    1    3    3    0  502 -0.87072630498E+03 -0.33283452776E+03  0.21408228773E+04  0.23349662366E+04  0.12699999809E+01 0. -1.
</event>
<event>
 5   0  0.2298500E-06  0.3011759E+04  0.7818609E-02  0.8240381E-01
       -4   -1    0    0    0  501  0.00000000000E+00  0.00000000000E+00  0.13938827765E+04  0.13938833551E+04  0.12699999809E+01 0. -1.
        4   -1    0    0  501    0  0.00000000000E+00  0.00000000000E+00 -0.16268733575E+04  0.16268738532E+04  0.12699999809E+01 0.  1.
    10030    2    1    2    0    0  0.00000000000E+00  0.00000000000E+00 -0.23299058104E+03  0.30207572083E+04  0.30117585396E+04 0.  0.
        5    1    3    3  502    0  0.85882993138E+03 -0.97413066364E+03  0.64810181293E+03  0.14514053365E+04  0.46999998093E+01 0.  1.
       -5    1    3    3    0  502 -0.85882993138E+03  0.97413066364E+03 -0.88109239397E+03  0.15693518718E+04  0.46999998093E+01 0. -1.
</event>
<event>
 5   0  0.7193153E-06  0.3067443E+04  0.7818609E-02  0.8224730E-01
        2   -1    0    0  501    0  0.00000000000E+00  0.00000000000E+00  0.12531370874E+04  0.12531370874E+04  0.25500000920E-02 0.  1.
       -2   -1    0    0    0  501  0.00000000000E+00  0.00000000000E+00 -0.18771309110E+04  0.18771309110E+04  0.25500000920E-02 0. -1.
    10030    2    1    2    0    0  0.00000000000E+00  0.00000000000E+00 -0.62399382364E+03  0.31302679984E+04  0.30674434713E+04 0.  0.
        4    1    3    3  502    0  0.11178658051E+04 -0.63169048687E+03  0.54401818301E+03  0.13944942545E+04  0.12699999809E+01 0.  1.
       -4    1    3    3    0  502 -0.11178658051E+04  0.63169048687E+03 -0.11680120067E+04  0.17357737439E+04  0.12699999809E+01 0. -1.
</event>
<event>
 5   0  0.7217255E-06  0.2992754E+04  0.7818609E-02  0.8245803E-01
        2   -1    0    0  501    0  0.00000000000E+00  0.00000000000E+00  0.17400706522E+04  0.17400706522E+04  0.25500000920E-02 0. -1.
       -2   -1    0    0    0  501  0.00000000000E+00  0.00000000000E+00 -0.12868125054E+04  0.12868125054E+04  0.25500000920E-02 0.  1.
    10030    2    1    2    0    0  0.00000000000E+00  0.00000000000E+00  0.45325814675E+03  0.30268831576E+04  0.29927543672E+04 0.  0.
        1    1    3    3  502    0 -0.41751538924E+03  0.11646791450E+04  0.10778610692E+04  0.16409086189E+04  0.50400001928E-02 0. -1.
       -1    1    3    3    0  502  0.41751538924E+03 -0.11646791450E+04 -0.62460292250E+03  0.13859745387E+04  0.50400001928E-02 0.  1.
</event>
<event>
 5   0  0.6780150E-06  0.2996433E+04  0.7818609E-02  0.8244750E-01
        2   -1    0    0  501    0  0.00000000000E+00  0.00000000000E+00  0.12434871477E+04  0.12434871477E+04  0.25500000920E-02 0. -1.
       -2   -1    0    0    0  501  0.00000000000E+00  0.00000000000E+00 -0.18051277222E+04  0.18051277222E+04  0.25500000920E-02 0.  1.
    10030    2    1    2    0    0  0.00000000000E+00  0.00000000000E+00 -0.56164057444E+03  0.30486148699E+04  0.29964332948E+04 0.  0.
        5    1    3    3  502    0  0.64258043348E+03 -0.21518016240E+03  0.10786446642E+04  0.12738557679E+04  0.46999998093E+01 0. -1.
       -5    1    3    3    0  502 -0.64258043348E+03  0.21518016240E+03 -0.16402852387E+04  0.17747591020E+04  0.46999998093E+01 0.  1.
</event>
<event>
 5   0  0.7201538E-06  0.3033417E+04  0.7818609E-02  0.8234252E-01
        2   -1    0    0  501    0  0.00000000000E+00  0.00000000000E+00  0.19545677709E+04  0.19545677709E+04  0.25500000920E-02 0. -1.
       -2   -1    0    0    0  501  0.00000000000E+00  0.00000000000E+00 -0.11769375682E+04  0.11769375682E+04  0.25500000920E-02 0.  1.
    10030    2    1    2    0    0  0.00000000000E+00  0.00000000000E+00  0.77763020271E+03  0.31315053391E+04  0.30334167133E+04 0.  0.
        3    1    3    3  502    0 -0.13851359482E+04 -0.64156036042E+02  0.10232497465E+04  0.17232984785E+04  0.10100000352E+00 0. -1.
       -3    1    3    3    0  502  0.13851359482E+04  0.64156036042E+02 -0.24561954378E+03  0.14082068607E+04  0.10100000352E+00 0.  1.
</event>
<event>
 5   0  0.7193153E-06  0.3058664E+04  0.7818609E-02  0.8227175E-01
        2   -1    0    0  501    0  0.00000000000E+00  0.00000000000E+00  0.14720088833E+04  0.14720088833E+04  0.25500000920E-02 0. -1.
       -2   -1    0    0    0  501  0.00000000000E+00  0.00000000000E+00 -0.15888873335E+04  0.15888873335E+04  0.25500000920E-02 0.  1.
    10030    2    1    2    0    0  0.00000000000E+00  0.00000000000E+00 -0.11687845016E+03  0.30608962168E+04  0.30586639367E+04 0.  0.
        4    1    3    3  502    0  0.95794775517E+03 -0.11909155710E+04 -0.11243096602E+03  0.15325097500E+04  0.12699999809E+01 0.  1.
       -4    1    3    3    0  502 -0.95794775517E+03  0.11909155710E+04 -0.44474841397E+01  0.15283864668E+04  0.12699999809E+01 0. -1.
</event>
<event>
 5   0  0.2552990E-06  0.2859195E+04  0.7818609E-02  0.8285123E-01
        1   -1    0    0  501    0  0.00000000000E+00  0.00000000000E+00  0.17365178328E+04  0.17365178328E+04  0.50400001928E-02 0. -1.
       -1   -1    0    0    0  501  0.00000000000E+00  0.00000000000E+00 -0.11769233245E+04  0.11769233245E+04  0.50400001928E-02 0.  1.
    10030    2    1    2    0    0  0.00000000000E+00  0.00000000000E+00  0.55959450830E+03  0.29134411574E+04  0.28591945306E+04 0.  0.
        3    1    3    3  502    0  0.68297081142E+03  0.10022561336E+04 -0.49138525039E+03  0.13085969437E+04  0.10100000352E+00 0.  1.
       -3    1    3    3    0  502 -0.68297081142E+03 -0.10022561336E+04  0.10509797587E+04  0.16048442136E+04  0.10100000352E+00 0. -1.
</event>
<event>
 5   0  0.2422083E-06  0.2960027E+04  0.7818609E-02  0.8255238E-01
       -1   -1    0    0    0  501  0.00000000000E+00  0.00000000000E+00  0.15823443004E+04  0.15823443004E+04  0.50400001928E-02 0. -1.
        1   -1    0    0  501    0  0.00000000000E+00  0.00000000000E+00 -0.13843007508E+04  0.13843007508E+04  0.50400001928E-02 0.  1.
    10030    2    1    2    0    0  0.00000000000E+00  0.00000000000E+00  0.19804354959E+03  0.29666450511E+04  0.29600272992E+04 0.  0.
        2    1    3    3  502    0  0.93970223093E+03  0.10814620743E+04  0.47111978605E+03  0.15081625754E+04  0.25500000920E-02 0.  1.
       -2    1    3    3    0  502 -0.93970223093E+03 -0.10814620743E+04 -0.27307623647E+03  0.14584824757E+04  0.25500000920E-02 0. -1.
</event>
<event>
 5   0  0.2672155E-06  0.3077872E+04  0.7818609E-02  0.8221837E-01
       -1   -1    0    0    0  501  0.00000000000E+00  0.00000000000E+00  0.11676443728E+04  0.11676443728E+04  0.50400001928E-02 0. -1.
        1   -1    0    0  501    0  0.00000000000E+00  0.00000000000E+00 -0.20282917679E+04  0.20282917679E+04  0.50400001928E-02 0.  1.
    10030    2    1    2    0    0  0.00000000000E+00  0.00000000000E+00 -0.86064739512E+03  0.31959361408E+04  0.30778716473E+04 0.  0.
        5    1    3    3  502    0  0.88239150765E+03 -0.66268619611E+03  0.68345073280E+03  0.12980349616E+04  0.46999998093E+01 0. -1.
       -5    1    3    3    0  502 -0.88239150765E+03  0.66268619611E+03 -0.15440981279E+04  0.18979011792E+04  0.46999998093E+01 0.  1.
</event>
<event>
 5   0  0.7193153E-06  0.3028154E+04  0.7818609E-02  0.8235737E-01
       -2   -1    0    0    0  501  0.00000000000E+00  0.00000000000E+00  0.29651278877E+04  0.29651278877E+04  0.25500000920E-02 0.  1.
        2   -1    0    0  501    0  0.00000000000E+00  0.00000000000E+00 -0.77313017652E+03  0.77313017653E+03  0.25500000920E-02 0. -1.
    10030    2    1    2    0    0  0.00000000000E+00  0.00000000000E+00  0.21919977111E+04  0.37382580642E+04  0.30281544526E+04 0.  0.
        4    1    3    3  502    0  0.14748593685E+04 -0.27612519931E+03  0.13458836804E+04  0.20156536847E+04  0.12699999809E+01 0.  1.
       -4    1    3    3    0  502 -0.14748593685E+04  0.27612519931E+03  0.84611403071E+03  0.17226043795E+04  0.12699999809E+01 0. -1.
</event>
<event>
 5   0  0.2628425E-06  0.2983180E+04  0.7818609E-02  0.8248550E-01
        1   -1    0    0  501    0  0.00000000000E+00  0.00000000000E+00  0.20179202750E+04  0.20179202750E+04  0.50400001928E-02 0.  1.
       -1   -1    0    0    0  501  0.00000000000E+00  0.00000000000E+00 -0.11025417515E+04  0.11025417515E+04  0.50400001928E-02 0. -1.
    10030    2    1    2    0    0  0.00000000000E+00  0.00000000000E+00  0.91537852351E+03  0.31204620265E+04  0.29831804198E+04 0.  0.
        1    1    3    3  502    0  0.54689926575E+03 -0.13540085785E+04  0.13972144699E+03  0.14669560731E+04  0.50400001928E-02 0. -1.
       -1    1    3    3    0  502 -0.54689926575E+03  0.13540085785E+04  0.77565707652E+03  0.16535059534E+04  0.50400001928E-02 0.  1.
</event>
<event>
 5   0  0.2672155E-06  0.2982183E+04  0.7818609E-02  0.8248837E-01
       -1   -1    0    0    0  501  0.00000000000E+00  0.00000000000E+00  0.14019235299E+04  0.14019235299E+04  0.50400001928E-02 0. -1.
        1   -1    0    0  501    0  0.00000000000E+00  0.00000000000E+00 -0.15859308480E+04  0.15859308480E+04  0.50400001928E-02 0.  1.
    10030    2    1    2    0    0  0.00000000000E+00  0.00000000000E+00 -0.18400731815E+03  0.29878543779E+04  0.29821829405E+04 0.  0.
        5    1    3    3  502    0  0.23078602807E+03 -0.12139910835E+04 -0.92803359344E+03  0.15454141782E+04  0.46999998093E+01 0.  1.
       -5    1    3    3    0  502 -0.23078602807E+03  0.12139910835E+04  0.74402627529E+03  0.14424401997E+04  0.46999998093E+01 0. -1.
</event>
<event>
 5   0  0.2628425E-06  0.2886066E+04  0.7818609E-02  0.8277035E-01
       -1   -1    0    0    0  501  0.00000000000E+00  0.00000000000E+00  0.11733017655E+04  0.11733017655E+04  0.50400001928E-02 0. -1.
        1   -1    0    0  501    0  0.00000000000E+00  0.00000000000E+00 -0.17747730965E+04  0.17747730965E+04  0.50400001928E-02 0.  1.
    10030    2    1    2    0    0  0.00000000000E+00  0.00000000000E+00 -0.60147133097E+03  0.29480748620E+04  0.28860661167E+04 0.  0.
        1    1    3    3  502    0  0.17739700891E+03  0.39054816373E+03 -0.17081436593E+04  0.17611792435E+04  0.50400001928E-02 0.  1.
       -1    1    3    3    0  502 -0.17739700891E+03 -0.39054816373E+03  0.11066723283E+04  0.11868956185E+04  0.50400001928E-02 0. -1.
</event>
<event>
 5   0  0.2422083E-06  0.3147544E+04  0.7818609E-02  0.8202810E-01
       -1   -1    0    0    0  501  0.00000000000E+00  0.00000000000E+00  0.12133525491E+04  0.12133525491E+04  0.50400001928E-02 0.  1.
        1   -1    0    0  501    0  0.00000000000E+00  0.00000000000E+00 -0.20412514675E+04  0.20412514675E+04  0.50400001928E-02 0. -1.
    10030    2    1    2    0    0  0.00000000000E+00  0.00000000000E+00 -0.82789891839E+03  0.32546040166E+04  0.31475435956E+04 0.  0.
        2    1    3    3  502    0 -0.10940860555E+04 -0.82373780442E+03  0.38778778844E+03  0.14233578736E+04  0.25500000920E-02 0.  1.
       -2    1    3    3    0  502  0.10940860555E+04  0.82373780442E+03 -0.12156867068E+04  0.18312461431E+04  0.25500000920E-02 0. -1.
</event>
<event>
 5   0  0.6780150E-06  0.3008268E+04  0.7818609E-02  0.8241374E-01
       -2   -1    0    0    0  501  0.00000000000E+00  0.00000000000E+00  0.12916317801E+04  0.12916317801E+04  0.25500000920E-02 0. -1.
        2   -1    0    0  501    0  0.00000000000E+00  0.00000000000E+00 -0.17515975987E+04  0.17515975987E+04  0.25500000920E-02 0.  1.
    10030    2    1    2    0    0  0.00000000000E+00  0.00000000000E+00 -0.45996581861E+03  0.30432293788E+04  0.30082680229E+04 0.  0.
        5    1    3    3  502    0  0.65124486705E+03 -0.57762531389E+03 -0.14708705642E+04  0.17091673957E+04  0.46999998093E+01 0.  1.
       -5    1    3    3    0  502 -0.65124486705E+03  0.57762531389E+03  0.10109047456E+04  0.13340619831E+04  0.46999998093E+01 0. -1.
</event>
<event>
 5   0  0.7193153E-06  0.3037026E+04  0.7818609E-02  0.8233236E-01
       -2   -1    0    0    0  501  0.00000000000E+00  0.00000000000E+00  0.88770011434E+03  0.88770011434E+03  0.25500000920E-02 0. -1.
        2   -1    0    0  501    0  0.00000000000E+00  0.00000000000E+00 -0.25975901547E+04  0.25975901547E+04  0.25500000920E-02 0.  1.
    10030    2    1    2    0    0  0.00000000000E+00  0.00000000000E+00 -0.17098900404E+04  0.34852902690E+04  0.30370255694E+04 0.  0.
        4    1    3    3  502    0 -0.54181922232E+03 -0.14058400960E+04 -0.63743012081E+03  0.16359319108E+04  0.12699999809E+01 0. -1.
       -4    1    3    3    0  502  0.54181922232E+03  0.14058400960E+04 -0.10724599195E+04  0.18493583582E+04  0.12699999809E+01 0.  1.
</event>
<event>
 5   0  0.2552990E-06  0.2976395E+04  0.7818609E-02  0.8250504E-01
       -1   -1    0    0    0  501  0.00000000000E+00  0.00000000000E+00  0.19583705150E+04  0.19583705150E+04  0.50400001928E-02 0.  1.
        1   -1    0    0  501    0  0.00000000000E+00  0.00000000000E+00 -0.11309056578E+04  0.11309056578E+04  0.50400001928E-02 0. -1.
    10030    2    1    2    0    0  0.00000000000E+00  0.00000000000E+00  0.82746485723E+03  0.30892761729E+04  0.29763953337E+04 0.  0.
        3    1    3    3  502    0  0.21934087251E+02  0.11613997649E+04  0.13792829632E+04  0.18032614955E+04  0.10100000352E+00 0.  1.
       -3    1    3    3    0  502 -0.21934087251E+02 -0.11613997649E+04 -0.55181810602E+03  0.12860146774E+04  0.10100000352E+00 0. -1.
</event>
<event>
 5   0  0.2422083E-06  0.3079337E+04  0.7818609E-02  0.8221432E-01
       -1   -1    0    0    0  501  0.00000000000E+00  0.00000000000E+00  0.84376743385E+03  0.84376743386E+03  0.50400001928E-02 0.  1.
        1   -1    0    0  501    0  0.00000000000E+00  0.00000000000E+00 -0.28095165817E+04  0.28095165817E+04  0.50400001928E-02 0. -1.
    10030    2    1    2    0    0  0.00000000000E+00  0.00000000000E+00 -0.19657491478E+04  0.36532840155E+04  0.30793366795E+04 0.  0.
        2    1    3    3  502    0 -0.27165629594E+03  0.36736684616E+03  0.76148628639E+03  0.88804105037E+03  0.25500000920E-02 0.  1.
       -2    1    3    3    0  502  0.27165629594E+03 -0.36736684616E+03 -0.27272354342E+04  0.27652429652E+04  0.25500000920E-02 0. -1.
</event>
<event>
 5   0  0.7193153E-06  0.2747892E+04  0.7818609E-02  0.8319631E-01
        2   -1    0    0  501    0  0.00000000000E+00  0.00000000000E+00  0.13035373739E+04  0.13035373739E+04  0.25500000920E-02 0. -1.
       -2   -1    0    0    0  501  0.00000000000E+00  0.00000000000E+00 -0.14481579154E+04  0.14481579154E+04  0.25500000920E-02 0.  1.
    10030    2    1    2    0    0  0.00000000000E+00  0.00000000000E+00 -0.14462054143E+03  0.27516952893E+04  0.27478922585E+04 0.  0.
        4    1    3    3  502    0 -0.35699813890E+03 -0.53691728421E+02 -0.13998130585E+04  0.14456170601E+04  0.12699999809E+01 0.  1.
       -4    1    3    3    0  502  0.35699813890E+03  0.53691728421E+02  0.12551925171E+04  0.13060782292E+04  0.12699999809E+01 0. -1.
</event>
<event>
 5   0  0.2628425E-06  0.3000986E+04  0.7818609E-02  0.8243449E-01
        1   -1    0    0  501    0  0.00000000000E+00  0.00000000000E+00  0.15106389489E+04  0.15106389489E+04  0.50400001928E-02 0.  1.
       -1   -1    0    0    0  501  0.00000000000E+00  0.00000000000E+00 -0.14904152088E+04  0.14904152088E+04  0.50400001928E-02 0. -1.
    10030    2    1    2    0    0  0.00000000000E+00  0.00000000000E+00  0.20223740093E+02  0.30010541576E+04  0.30009860142E+04 0.  0.
        1    1    3    3  502    0  0.37638058915E+03  0.85581922349E+03  0.11837612754E+04  0.15084361599E+04  0.50400001928E-02 0.  1.
       -1    1    3    3    0  502 -0.37638058915E+03 -0.85581922349E+03 -0.11635375353E+04  0.14926179978E+04  0.50400001928E-02 0. -1.
</event>
<event>
 5   0  0.7217255E-06  0.2943140E+04  0.7818609E-02  0.8260157E-01
       -2   -1    0    0    0  501  0.00000000000E+00  0.00000000000E+00  0.12848834903E+04  0.12848834903E+04  0.25500000920E-02 0.  1.
        2   -1    0    0  501    0  0.00000000000E+00  0.00000000000E+00 -0.16853805576E+04  0.16853805576E+04  0.25500000920E-02 0. -1.
    10030    2    1    2    0    0  0.00000000000E+00  0.00000000000E+00 -0.40049706733E+03  0.29702640478E+04  0.29431395844E+04 0.  0.
        1    1    3    3  502    0 -0.34742083363E+03 -0.10797037805E+04 -0.11464693770E+04  0.16127161938E+04  0.50400001928E-02 0. -1.
       -1    1    3    3    0  502  0.34742083363E+03  0.10797037805E+04  0.74597230965E+03  0.13575478541E+04  0.50400001928E-02 0.  1.
</event>
<event>
 5   0  0.2628425E-06  0.2894819E+04  0.7818609E-02  0.8274421E-01
       -1   -1    0    0    0  501  0.00000000000E+00  0.00000000000E+00  0.14818893071E+04  0.14818893071E+04  0.50400001928E-02 0. -1.
        1   -1    0    0  501    0  0.00000000000E+00  0.00000000000E+00 -0.14137316318E+04  0.14137316318E+04  0.50400001928E-02 0.  1.
    10030    2    1    2    0    0  0.00000000000E+00  0.00000000000E+00  0.68157675293E+02  0.28956209389E+04  0.28948186737E+04 0.  0.
        1    1    3    3  502    0  0.17773994073E+03  0.13506563078E+04 -0.45506572414E+03  0.14362968919E+04  0.50400001928E-02 0.  1.
       -1    1    3    3    0  502 -0.17773994073E+03 -0.13506563078E+04  0.52322339943E+03  0.14593240470E+04  0.50400001928E-02 0. -1.
</event>
<event>
 5   0  0.2628425E-06  0.2941714E+04  0.7818609E-02  0.8260573E-01
        1   -1    0    0  501    0  0.00000000000E+00  0.00000000000E+00  0.14792215748E+04  0.14792215748E+04  0.50400001928E-02 0. -1.
       -1   -1    0    0    0  501  0.00000000000E+00  0.00000000000E+00 -0.14625395928E+04  0.14625395928E+04  0.50400001928E-02 0.  1.
    10030    2    1    2    0    0  0.00000000000E+00  0.00000000000E+00  0.16681982039E+02  0.29417611676E+04  0.29417138675E+04 0.  0.
        1    1    3    3  502    0  0.11952815546E+04  0.85474710687E+03  0.72603273608E+02  0.14712449989E+04  0.50400001928E-02 0. -1.
       -1    1    3    3    0  502 -0.11952815546E+04 -0.85474710687E+03 -0.55921291570E+02  0.14705161687E+04  0.50400001928E-02 0.  1.
</event>
<event>
 5   0  0.6780150E-06  0.2980991E+04  0.7818609E-02  0.8249180E-01
       -2   -1    0    0    0  501  0.00000000000E+00  0.00000000000E+00  0.10819023195E+04  0.10819023195E+04  0.25500000920E-02 0. -1.
        2   -1    0    0  501    0  0.00000000000E+00  0.00000000000E+00 -0.20533987722E+04  0.20533987722E+04  0.25500000920E-02 0.  1.
    10030    2    1    2    0    0  0.00000000000E+00  0.00000000000E+00 -0.97149645268E+03  0.31353010917E+04  0.29809910396E+04 0.  0.
        5    1    3    3  502    0  0.48153092741E+03 -0.60518831945E+02 -0.19679605448E+04  0.20269250995E+04  0.46999998093E+01 0.  1.
       -5    1    3    3    0  502 -0.48153092741E+03  0.60518831945E+02  0.99646409216E+03  0.11083759922E+04  0.46999998093E+01 0. -1.
</event>
<event>
 5   0  0.2672155E-06  0.2959937E+04  0.7818609E-02  0.8255265E-01
       -1   -1    0    0    0  501  0.00000000000E+00  0.00000000000E+00  0.11415510280E+04  0.11415510280E+04  0.50400001928E-02 0. -1.
        1   -1    0    0  501    0  0.00000000000E+00  0.00000000000E+00 -0.19187111290E+04  0.19187111290E+04  0.50400001928E-02 0.  1.
    10030    2    1    2    0    0  0.00000000000E+00  0.00000000000E+00 -0.77716010095E+03  0.30602621570E+04  0.29599369329E+04 0.  0.
        5    1    3    3  502    0 -0.11279168457E+04 -0.45807291810E+03 -0.12586851683E+04  0.17510961287E+04  0.46999998093E+01 0.  1.
       -5    1    3    3    0  502  0.11279168457E+04  0.45807291810E+03  0.48152506738E+03  0.13091660283E+04  0.46999998093E+01 0. -1.
</event>
<event>
 5   0  0.7201538E-06  0.2635821E+04  0.7818609E-02  0.8356134E-01
        2   -1    0    0  501    0  0.00000000000E+00  0.00000000000E+00  0.17186158203E+04  0.17186158203E+04  0.25500000920E-02 0. -1.
       -2   -1    0    0    0  501  0.00000000000E+00  0.00000000000E+00 -0.10106321327E+04  0.10106321327E+04  0.25500000920E-02 0.  1.
    10030    2    1    2    0    0  0.00000000000E+00  0.00000000000E+00  0.70798368756E+03  0.27292479530E+04  0.26358212168E+04 0.  0.
        3    1    3    3  502    0 -0.35591487454E+03 -0.12564977536E+04  0.53755016436E+03  0.14122401326E+04  0.10100000352E+00 0. -1.
       -3    1    3    3    0  502  0.35591487454E+03  0.12564977536E+04  0.17043352320E+03  0.13170078203E+04  0.10100000352E+00 0.  1.
</event>
<event>
 5   0  0.7193153E-06  0.2834409E+04  0.7818609E-02  0.8292665E-01
        2   -1    0    0  501    0  0.00000000000E+00  0.00000000000E+00  0.23465050344E+04  0.23465050344E+04  0.25500000920E-02 0.  1.
       -2   -1    0    0    0  501  0.00000000000E+00  0.00000000000E+00 -0.85594031037E+03  0.85594031038E+03  0.25500000920E-02 0. -1.
    10030    2    1    2    0    0  0.00000000000E+00  0.00000000000E+00  0.14905647240E+04  0.32024453448E+04  0.28344087549E+04 0.  0.
        4    1    3    3  502    0  0.99415350966E+03  0.28941127647E+03 -0.34802479338E+03  0.10923474527E+04  0.12699999809E+01 0. -1.
       -4    1    3    3    0  502 -0.99415350966E+03 -0.28941127647E+03  0.18385895174E+04  0.21100978921E+04  0.12699999809E+01 0.  1.
</event>
<event>
 5   0  0.7201538E-06  0.3027532E+04  0.7818609E-02  0.8235912E-01
        2   -1    0    0  501    0  0.00000000000E+00  0.00000000000E+00  0.17174867903E+04  0.17174867903E+04  0.25500000920E-02 0. -1.
       -2   -1    0    0    0  501  0.00000000000E+00  0.00000000000E+00 -0.13342099302E+04  0.13342099302E+04  0.25500000920E-02 0.  1.
    10030    2    1    2    0    0  0.00000000000E+00  0.00000000000E+00  0.38327686008E+03  0.30516967204E+04  0.30275322826E+04 0.  0.
        3    1    3    3  502    0  0.15723559094E+03 -0.11310716397E+04  0.11932707966E+04  0.16516480525E+04  0.10100000352E+00 0. -1.
       -3    1    3    3    0  502 -0.15723559094E+03  0.11310716397E+04 -0.80999393653E+03  0.14000486679E+04  0.10100000352E+00 0.  1.
</event>
<event>
 5   0  0.7217255E-06  0.2910801E+04  0.7818609E-02  0.8269671E-01
        2   -1    0    0  501    0  0.00000000000E+00  0.00000000000E+00  0.24004974699E+04  0.24004974699E+04  0.25500000920E-02 0.  1.
       -2   -1    0    0    0  501  0.00000000000E+00  0.00000000000E+00 -0.88239632020E+03  0.88239632021E+03  0.25500000920E-02 0. -1.
    10030    2    1    2    0    0  0.00000000000E+00  0.00000000000E+00  0.15181011497E+04  0.32828937901E+04  0.29108006693E+04 0.  0.
        1    1    3    3  502    0 -0.35525596206E+03 -0.12054739089E+03 -0.82692795732E+03  0.90804642979E+03  0.50400001928E-02 0. -1.
       -1    1    3    3    0  502  0.35525596206E+03  0.12054739089E+03  0.23450291070E+04  0.23748473603E+04  0.50400001928E-02 0.  1.
</event>
<event>
 5   0  0.2422083E-06  0.2854650E+04  0.7818609E-02  0.8286500E-01
        1   -1    0    0  501    0  0.00000000000E+00  0.00000000000E+00  0.80910429186E+03  0.80910429187E+03  0.50400001928E-02 0.  1.
       -1   -1    0    0    0  501  0.00000000000E+00  0.00000000000E+00 -0.25179158043E+04  0.25179158043E+04  0.50400001928E-02 0. -1.
    10030    2    1    2    0    0  0.00000000000E+00  0.00000000000E+00 -0.17088115124E+04  0.33270200962E+04  0.28546498796E+04 0.  0.
        2    1    3    3  502    0 -0.11129994977E+04 -0.49615474895E+03  0.11753183552E+02  0.12186367606E+04  0.25500000920E-02 0.  1.
       -2    1    3    3    0  502  0.11129994977E+04  0.49615474895E+03 -0.17205646960E+04  0.21083833356E+04  0.25500000920E-02 0. -1.
</event>
<event>
 5   0  0.2504260E-06  0.3082528E+04  0.7818609E-02  0.8220549E-01
        1   -1    0    0  501    0  0.00000000000E+00  0.00000000000E+00  0.28809136502E+04  0.28809136502E+04  0.50400001928E-02 0.  1.
       -1   -1    0    0    0  501  0.00000000000E+00  0.00000000000E+00 -0.82456280792E+03  0.82456280793E+03  0.50400001928E-02 0. -1.
    10030    2    1    2    0    0  0.00000000000E+00  0.00000000000E+00  0.20563508423E+04  0.37054764582E+04  0.30825276958E+04 0.  0.
        4    1    3    3  502    0 -0.45182425045E+03 -0.14547122460E+04  0.13104997281E+04  0.20094138504E+04  0.12699999809E+01 0.  1.
       -4    1    3    3    0  502  0.45182425045E+03  0.14547122460E+04  0.74585111421E+03  0.16960626078E+04  0.12699999809E+01 0. -1.
</event>
<event>
 5   0  0.6780150E-06  0.3042388E+04  0.7818609E-02  0.8231729E-01
       -2   -1    0    0    0  501  0.00000000000E+00  0.00000000000E+00  0.10107657692E+04  0.10107657692E+04  0.25500000920E-02 0. -1.
        2   -1    0    0  501    0  0.00000000000E+00  0.00000000000E+00 -0.22893845608E+04  0.22893845608E+04  0.25500000920E-02 0.  1.
    10030    2    1    2    0    0  0.00000000000E+00  0.00000000000E+00 -0.12786187915E+04  0.33001503300E+04  0.30423882373E+04 0.  0.
        5    1    3    3  502    0  0.16666577412E+03 -0.13132652006E+03  0.99462619729E+03  0.10170189268E+04  0.46999998093E+01 0. -1.
       -5    1    3    3    0  502 -0.16666577412E+03  0.13132652006E+03 -0.22732449888E+04  0.22831314032E+04  0.46999998093E+01 0.  1.
</event>
<event>
 5   0  0.2628425E-06  0.3021202E+04  0.7818609E-02  0.8237702E-01
       -1   -1    0    0    0  501  0.00000000000E+00  0.00000000000E+00  0.97850743917E+03  0.97850743918E+03  0.50400001928E-02 0. -1.
        1   -1    0    0  501    0  0.00000000000E+00  0.00000000000E+00 -0.23320370464E+04  0.23320370464E+04  0.50400001928E-02 0.  1.
    10030    2    1    2    0    0  0.00000000000E+00  0.00000000000E+00 -0.13535296072E+04  0.33105444856E+04  0.30212021437E+04 0.  0.
        1    1    3    3  502    0  0.57838069613E+03 -0.10936297558E+04 -0.16265933517E+04  0.20436135163E+04  0.50400001928E-02 0.  1.
       -1    1    3    3    0  502 -0.57838069613E+03  0.10936297558E+04  0.27306374444E+03  0.12669309693E+04  0.50400001928E-02 0. -1.
</event>
<event>
 5   0  0.2504260E-06  0.2990265E+04  0.7818609E-02  0.8246516E-01
       -1   -1    0    0    0  501  0.00000000000E+00  0.00000000000E+00  0.14586578367E+04  0.14586578367E+04  0.50400001928E-02 0. -1.
        1   -1    0    0  501    0  0.00000000000E+00  0.00000000000E+00 -0.15325190959E+04  0.15325190959E+04  0.50400001928E-02 0.  1.
    10030    2    1    2    0    0  0.00000000000E+00  0.00000000000E+00 -0.73861259182E+02  0.29911769326E+04  0.29902648639E+04 0.  0.
        4    1    3    3  502    0  0.95640997391E+03  0.93174951260E+03 -0.70984837203E+03  0.15122048527E+04  0.12699999809E+01 0.  1.
       -4    1    3    3    0  502 -0.95640997391E+03 -0.93174951260E+03  0.63598711285E+03  0.14789720799E+04  0.12699999809E+01 0. -1.
</event>
<event>
 5   0  0.2672155E-06  0.3020881E+04  0.7818609E-02  0.8237793E-01
       -1   -1    0    0    0  501  0.00000000000E+00  0.00000000000E+00  0.94785484218E+03  0.94785484219E+03  0.50400001928E-02 0.  1.
        1   -1    0    0  501    0  0.00000000000E+00  0.00000000000E+00 -0.24069410453E+04  0.24069410453E+04  0.50400001928E-02 0. -1.
    10030    2    1    2    0    0  0.00000000000E+00  0.00000000000E+00 -0.14590862031E+04  0.33547958875E+04  0.30208811461E+04 0.  0.
        5    1    3    3  502    0  0.89442606189E+03 -0.37997053487E+03 -0.20136569634E+04  0.22358917782E+04  0.46999998093E+01 0. -1.
       -5    1    3    3    0  502 -0.89442606189E+03  0.37997053487E+03  0.55457076030E+03  0.11189041093E+04  0.46999998093E+01 0.  1.
</event>
<event>
 5   0  0.7193153E-06  0.3011278E+04  0.7818609E-02  0.8240518E-01
        2   -1    0    0  501    0  0.00000000000E+00  0.00000000000E+00  0.29010214964E+04  0.29010214964E+04  0.25500000920E-02 0. -1.
       -2   -1    0    0    0  501  0.00000000000E+00  0.00000000000E+00 -0.78143113165E+03  0.78143113166E+03  0.25500000920E-02 0.  1.
    10030    2    1    2    0    0  0.00000000000E+00  0.00000000000E+00  0.21195903647E+04  0.36824526280E+04  0.30112778091E+04 0.  0.
        4    1    3    3  502    0  0.66544605785E+03  0.29005026881E+02 -0.59145880986E+03  0.89077768503E+03  0.12699999809E+01 0.  1.
       -4    1    3    3    0  502 -0.66544605785E+03 -0.29005026881E+02  0.27110491746E+04  0.27916749430E+04  0.12699999809E+01 0. -1.
</event>
<event>
 5   0  0.2628425E-06  0.2989583E+04  0.7818609E-02  0.8246712E-01
        1   -1    0    0  501    0  0.00000000000E+00  0.00000000000E+00  0.15809046558E+04  0.15809046558E+04  0.50400001928E-02 0.  1.
       -1   -1    0    0    0  501  0.00000000000E+00  0.00000000000E+00 -0.14133689448E+04  0.14133689449E+04  0.50400001928E-02 0. -1.
    10030    2    1    2    0    0  0.00000000000E+00  0.00000000000E+00  0.16753571093E+03  0.29942736006E+04  0.29895829443E+04 0.  0.
        1    1    3    3  502    0 -0.27463879985E+03 -0.74826689998E+03 -0.11827602909E+04  0.14262719691E+04  0.50400001928E-02 0. -1.
       -1    1    3    3    0  502  0.27463879985E+03  0.74826689998E+03  0.13502960018E+04  0.15680016316E+04  0.50400001928E-02 0.  1.
</event>
<event>
 5   0  0.6792811E-06  0.2994930E+04  0.7818609E-02  0.8245180E-01
        2   -1    0    0  501    0  0.00000000000E+00  0.00000000000E+00  0.19892304750E+04  0.19892304750E+04  0.25500000920E-02 0.  1.
       -2   -1    0    0    0  501  0.00000000000E+00  0.00000000000E+00 -0.11272704886E+04  0.11272704886E+04  0.25500000920E-02 0. -1.
    10030    2    1    2    0    0  0.00000000000E+00  0.00000000000E+00  0.86195998645E+03  0.31165009636E+04  0.29949295881E+04 0.  0.
        2    1    3    3  502    0 -0.21595807985E+03  0.31421250657E+03  0.19378761483E+04  0.19750269258E+04  0.25500000920E-02 0.  1.
       -2    1    3    3    0  502  0.21595807985E+03 -0.31421250657E+03 -0.10759161619E+04  0.11414740378E+04  0.25500000920E-02 0. -1.
</event>
<event>
 5   0  0.6780150E-06  0.2824569E+04  0.7818609E-02  0.8295681E-01
       -2   -1    0    0    0  501  0.00000000000E+00  0.00000000000E+00  0.15161082253E+04  0.15161082253E+04  0.25500000920E-02 0.  1.
        2   -1    0    0  501    0  0.00000000000E+00  0.00000000000E+00 -0.13155706341E+04  0.13155706341E+04  0.25500000920E-02 0. -1.
    10030    2    1    2    0    0  0.00000000000E+00  0.00000000000E+00  0.20053759117E+03  0.28316788594E+04  0.28245689648E+04 0.  0.
        5    1    3    3  502    0 -0.23150006778E+03  0.26423078664E+02  0.14966981598E+04  0.15147336175E+04  0.46999998093E+01 0.  1.
       -5    1    3    3    0  502  0.23150006778E+03 -0.26423078664E+02 -0.12961605686E+04  0.13169452419E+04  0.46999998093E+01 0. -1.
</event>
<event>
 5   0  0.2552990E-06  0.3093827E+04  0.7818609E-02  0.8217434E-01
        1   -1    0    0  501    0  0.00000000000E+00  0.00000000000E+00  0.29848082357E+04  0.29848082358E+04  0.50400001928E-02 0.  1.
       -1   -1    0    0    0  501  0.00000000000E+00  0.00000000000E+00 -0.80170684309E+03  0.80170684311E+03  0.50400001928E-02 0. -1.
    10030    2    1    2    0    0  0.00000000000E+00  0.00000000000E+00  0.21831013927E+04  0.37865150789E+04  0.30938268781E+04 0.  0.
        3    1    3    3  502    0 -0.90280626222E+03 -0.12376917753E+04  0.82905161296E+03  0.17419146549E+04  0.10100000352E+00 0. -1.
       -3    1    3    3    0  502  0.90280626222E+03  0.12376917753E+04  0.13540497797E+04  0.20446004240E+04  0.10100000352E+00 0.  1.
</event>
<event>
 5   0  0.2672155E-06  0.2760650E+04  0.7818609E-02  0.8315590E-01
       -1   -1    0    0    0  501  0.00000000000E+00  0.00000000000E+00  0.12109705856E+04  0.12109705856E+04  0.50400001928E-02 0.  1.
        1   -1    0    0  501    0  0.00000000000E+00  0.00000000000E+00 -0.15733638266E+04  0.15733638266E+04  0.50400001928E-02 0. -1.
    10030    2    1    2    0    0  0.00000000000E+00  0.00000000000E+00 -0.36239324103E+03  0.27843344123E+04  0.27606501514E+04 0.  0.
        5    1    3    3  502    0  0.16593278739E+03 -0.95729064364E+03 -0.11700858810E+04  0.15208754470E+04  0.46999998093E+01 0. -1.
       -5    1    3    3    0  502 -0.16593278739E+03  0.95729064364E+03  0.80769263996E+03  0.12634589653E+04  0.46999998093E+01 0.  1.
</event>
<event>
 5   0  0.6792811E-06  0.3037905E+04  0.7818609E-02  0.8232989E-01
        2   -1    0    0  501    0  0.00000000000E+00  0.00000000000E+00  0.20096886756E+04  0.20096886756E+04  0.25500000920E-02 0.  1.
       -2   -1    0    0    0  501  0.00000000000E+00  0.00000000000E+00 -0.11480471750E+04  0.11480471750E+04  0.25500000920E-02 0. -1.
    10030    2    1    2    0    0  0.00000000000E+00  0.00000000000E+00  0.86164150052E+03  0.31577358506E+04  0.30379054671E+04 0.  0.
        2    1    3    3  502    0  0.16795697135E+03 -0.11262471768E+04  0.14757475111E+04  0.18639938208E+04  0.25500000920E-02 0.  1.
       -2    1    3    3    0  502 -0.16795697135E+03  0.11262471768E+04 -0.61410601058E+03  0.12937420298E+04  0.25500000920E-02 0. -1.
</event>
<event>
 5   0  0.2504260E-06  0.3060381E+04  0.7818609E-02  0.8226696E-01
       -1   -1    0    0    0  501  0.00000000000E+00  0.00000000000E+00  0.11855558595E+04  0.11855558596E+04  0.50400001928E-02 0. -1.
        1   -1    0    0  501    0  0.00000000000E+00  0.00000000000E+00 -0.19750085546E+04  0.19750085546E+04  0.50400001928E-02 0.  1.
    10030    2    1    2    0    0  0.00000000000E+00  0.00000000000E+00 -0.78945269508E+03  0.31605644142E+04  0.30603809989E+04 0.  0.
        4    1    3    3  502    0 -0.28541944852E+03  0.43327468006E+03  0.10919431451E+04  0.12089386482E+04  0.12699999809E+01 0. -1.
       -4    1    3    3    0  502  0.28541944852E+03 -0.43327468006E+03 -0.18813958402E+04  0.19516257660E+04  0.12699999809E+01 0.  1.
</event>
<event>
 5   0  0.7201538E-06  0.3044204E+04  0.7818609E-02  0.8231220E-01
        2   -1    0    0  501    0  0.00000000000E+00  0.00000000000E+00  0.15304365795E+04  0.15304365795E+04  0.25500000920E-02 0. -1.
       -2   -1    0    0    0  501  0.00000000000E+00  0.00000000000E+00 -0.15138129129E+04  0.15138129129E+04  0.25500000920E-02 0.  1.
    10030    2    1    2    0    0  0.00000000000E+00  0.00000000000E+00  0.16623666635E+02  0.30442494925E+04  0.30442041039E+04 0.  0.
        3    1    3    3  502    0  0.23545460358E+03 -0.38471378840E+03  0.14620704436E+04  0.15300632541E+04  0.10100000352E+00 0. -1.
       -3    1    3    3    0  502 -0.23545460358E+03  0.38471378840E+03 -0.14454467769E+04  0.15141862384E+04  0.10100000352E+00 0.  1.
</event>
<event>
 5   0  0.6780150E-06  0.3004863E+04  0.7818609E-02  0.8242344E-01
        2   -1    0    0  501    0  0.00000000000E+00  0.00000000000E+00  0.21477364108E+04  0.21477364108E+04  0.25500000920E-02 0. -1.
       -2   -1    0    0    0  501  0.00000000000E+00  0.00000000000E+00 -0.10510135774E+04  0.10510135775E+04  0.25500000920E-02 0.  1.
    10030    2    1    2    0    0  0.00000000000E+00  0.00000000000E+00  0.10967228334E+04  0.31987499883E+04  0.30048628112E+04 0.  0.
        5    1    3    3  502    0  0.13207664743E+04 -0.56107306839E+03  0.74616965324E+02  0.14369470586E+04  0.46999998093E+01 0.  1.
       -5    1    3    3    0  502 -0.13207664743E+04  0.56107306839E+03  0.10221058681E+04  0.17618029297E+04  0.46999998093E+01 0. -1.
</event>
<event>
 5   0  0.7217255E-06  0.3016487E+04  0.7818609E-02  0.8239039E-01
        2   -1    0    0  501    0  0.00000000000E+00  0.00000000000E+00  0.10823706162E+04  0.10823706162E+04  0.25500000920E-02 0. -1.
       -2   -1    0    0    0  501  0.00000000000E+00  0.00000000000E+00 -0.21016818349E+04  0.21016818349E+04  0.25500000920E-02 0.  1.
    10030    2    1    2    0    0  0.00000000000E+00  0.00000000000E+00 -0.10193112187E+04  0.31840524511E+04  0.30164871375E+04 0.  0.
        1    1    3    3  502    0  0.49166143271E+03  0.11701208165E+04  0.35039727119E+03  0.13166973598E+04  0.50400001928E-02 0. -1.
       -1    1    3    3    0  502 -0.49166143271E+03 -0.11701208165E+04 -0.13697084899E+04  0.18673550913E+04  0.50400001928E-02 0.  1.
</event>
<event>
 5   0  0.2504260E-06  0.2984161E+04  0.7818609E-02  0.8248268E-01
       -1   -1    0    0    0  501  0.00000000000E+00  0.00000000000E+00  0.21197728709E+04  0.21197728709E+04  0.50400001928E-02 0.  1.
        1   -1    0    0  501    0  0.00000000000E+00  0.00000000000E+00 -0.10502557311E+04  0.10502557312E+04  0.50400001928E-02 0. -1.
    10030    2    1    2    0    0  0.00000000000E+00  0.00000000000E+00  0.10695171397E+04  0.31700286020E+04  0.29841605898E+04 0.  0.
        4    1    3    3  502    0  0.44947656545E+03  0.14741754317E+03  0.20380102062E+04  0.20921874506E+04  0.12699999809E+01 0.  1.
       -4    1    3    3    0  502 -0.44947656545E+03 -0.14741754317E+03 -0.96849306650E+03  0.10778411514E+04  0.12699999809E+01 0. -1.
</event>
<event>
 5   0  0.7217255E-06  0.2972109E+04  0.7818609E-02  0.8251740E-01
       -2   -1    0    0    0  501  0.00000000000E+00  0.00000000000E+00  0.10924860325E+04  0.10924860325E+04  0.25500000920E-02 0.  1.
        2   -1    0    0  501    0  0.00000000000E+00  0.00000000000E+00 -0.20214060932E+04  0.20214060932E+04  0.25500000920E-02 0. -1.
    10030    2    1    2    0    0  0.00000000000E+00  0.00000000000E+00 -0.92892006069E+03  0.31138921258E+04  0.29721089636E+04 0.  0.
        1    1    3    3  502    0  0.46720020259E+03  0.41410054220E+03  0.94842799288E+03  0.11354606757E+04  0.50400001928E-02 0.  1.
       -1    1    3    3    0  502 -0.46720020259E+03 -0.41410054220E+03 -0.18773480536E+04  0.19784314501E+04  0.50400001928E-02 0. -1.
</event>
<event>
 5   0  0.2504260E-06  0.2454614E+04  0.7818609E-02  0.8419335E-01
       -1   -1    0    0    0  501  0.00000000000E+00  0.00000000000E+00  0.18141755829E+04  0.18141755829E+04  0.50400001928E-02 0. -1.
        1   -1    0    0  501    0  0.00000000000E+00  0.00000000000E+00 -0.83028485032E+03  0.83028485033E+03  0.50400001928E-02 0.  1.
    10030    2    1    2    0    0  0.00000000000E+00  0.00000000000E+00  0.98389073260E+03  0.26444604333E+04  0.24546140245E+04 0.  0.
        4    1    3    3  502    0 -0.85042796721E+03 -0.84055945623E+03  0.19394186187E+03  0.12113558460E+04  0.12699999809E+01 0. -1.
       -4    1    3    3    0  502  0.85042796721E+03  0.84055945623E+03  0.78994887073E+03  0.14331045873E+04  0.12699999809E+01 0.  1.
</event>
<event>
 5   0  0.7193153E-06  0.2907866E+04  0.7818609E-02  0.8270541E-01
       -2   -1    0    0    0  501  0.00000000000E+00  0.00000000000E+00  0.17342362895E+04  0.17342362895E+04  0.25500000920E-02 0.  1.
        2   -1    0    0  501    0  0.00000000000E+00  0.00000000000E+00 -0.12189351401E+04  0.12189351401E+04  0.25500000920E-02 0. -1.
    10030    2    1    2    0    0  0.00000000000E+00  0.00000000000E+00  0.51530114944E+03  0.29531714296E+04  0.29078662655E+04 0.  0.
        4    1    3    3  502    0  0.39273315061E+02  0.14324298991E+04  0.50749596432E+03  0.15201814286E+04  0.12699999809E+01 0.  1.
       -4    1    3    3    0  502 -0.39273315061E+02 -0.14324298991E+04  0.78051851203E+01  0.14329900010E+04  0.12699999809E+01 0. -1.
</event>
<event>
 5   0  0.2628425E-06  0.3040648E+04  0.7818609E-02  0.8232218E-01
        1   -1    0    0  501    0  0.00000000000E+00  0.00000000000E+00  0.11934962377E+04  0.11934962377E+04  0.50400001928E-02 0.  1.
       -1   -1    0    0    0  501  0.00000000000E+00  0.00000000000E+00 -0.19366504422E+04  0.19366504422E+04  0.50400001928E-02 0. -1.
    10030    2    1    2    0    0  0.00000000000E+00  0.00000000000E+00 -0.74315420451E+03  0.31301466800E+04  0.30406479682E+04 0.  0.
        1    1    3    3  502    0  0.88534318725E+03  0.77816867307E+03 -0.13600514748E+04  0.17997552770E+04  0.50400001928E-02 0. -1.
       -1    1    3    3    0  502 -0.88534318725E+03 -0.77816867307E+03  0.61689727031E+03  0.13303914030E+04  0.50400001928E-02 0.  1.
</event>
<event>
 5   0  0.6780150E-06  0.2905109E+04  0.7818609E-02  0.8271359E-01
        2   -1    0    0  501    0  0.00000000000E+00  0.00000000000E+00  0.16785252922E+04  0.16785252922E+04  0.25500000920E-02 0. -1.
       -2   -1    0    0    0  501  0.00000000000E+00  0.00000000000E+00 -0.12570046567E+04  0.12570046567E+04  0.25500000920E-02 0.  1.
    10030    2    1    2    0    0  0.00000000000E+00  0.00000000000E+00  0.42152063546E+03  0.29355299489E+04  0.29051086787E+04 0.  0.
        5    1    3    3  502    0 -0.11630298125E+03  0.10093489256E+04 -0.83817563128E+03  0.13171454422E+04  0.46999998093E+01 0.  1.
       -5    1    3    3    0  502  0.11630298125E+03 -0.10093489256E+04  0.12596962667E+04  0.16183845067E+04  0.46999998093E+01 0. -1.
</event>
<event>
 5   0  0.6780150E-06  0.2974981E+04  0.7818609E-02  0.8250911E-01
       -2   -1    0    0    0  501  0.00000000000E+00  0.00000000000E+00  0.11699407544E+04  0.11699407544E+04  0.25500000920E-02 0. -1.
        2   -1    0    0  501    0  0.00000000000E+00  0.00000000000E+00 -0.18912308100E+04  0.18912308100E+04  0.25500000920E-02 0.  1.
    10030    2    1    2    0    0  0.00000000000E+00  0.00000000000E+00 -0.72129005559E+03  0.30611715644E+04  0.29749810088E+04 0.  0.
        5    1    3    3  502    0  0.89063043540E+02 -0.23492029308E+03 -0.18692335440E+04  0.18860476934E+04  0.46999998093E+01 0.  1.
       -5    1    3    3    0  502 -0.89063043540E+02  0.23492029308E+03  0.11479434884E+04  0.11751238711E+04  0.46999998093E+01 0. -1.
</event>
<event>
 5   0  0.6792811E-06  0.2977034E+04  0.7818609E-02  0.8250320E-01
        2   -1    0    0  501    0  0.00000000000E+00  0.00000000000E+00  0.20695992877E+04  0.20695992877E+04  0.25500000920E-02 0. -1.
       -2   -1    0    0    0  501  0.00000000000E+00  0.00000000000E+00 -0.10705850996E+04  0.10705850996E+04  0.25500000920E-02 0.  1.
    10030    2    1    2    0    0  0.00000000000E+00  0.00000000000E+00  0.99901418809E+03  0.31401843873E+04  0.29770335299E+04 0.  0.
        2    1    3    3  502    0  0.10170444586E+04 -0.67967801654E+03  0.13941272670E+04  0.18547054951E+04  0.25500000920E-02 0. -1.
       -2    1    3    3    0  502 -0.10170444586E+04  0.67967801654E+03 -0.39511307893E+03  0.12854788921E+04  0.25500000920E-02 0.  1.
</event>
<event>
 5   0  0.6792811E-06  0.3006331E+04  0.7818609E-02  0.8241925E-01
       -2   -1    0    0    0  501  0.00000000000E+00  0.00000000000E+00  0.19705326373E+04  0.19705326373E+04  0.25500000920E-02 0. -1.
        2   -1    0    0  501    0  0.00000000000E+00  0.00000000000E+00 -0.11466478997E+04  0.11466478997E+04  0.25500000920E-02 0.  1.
    10030    2    1    2    0    0  0.00000000000E+00  0.00000000000E+00  0.82388473759E+03  0.31171805370E+04  0.30063313922E+04 0.  0.
        2    1    3    3  502    0 -0.87103499622E+03  0.16342275343E+03 -0.84694914094E+03  0.12258596202E+04  0.25500000920E-02 0.  1.
       -2    1    3    3    0  502  0.87103499622E+03 -0.16342275343E+03  0.16708338785E+04  0.18913209169E+04  0.25500000920E-02 0. -1.
</event>
<event>
 5   0  0.7217255E-06  0.2954109E+04  0.7818609E-02  0.8256958E-01
        2   -1    0    0  501    0  0.00000000000E+00  0.00000000000E+00  0.26444559413E+04  0.26444559413E+04  0.25500000920E-02 0.  1.
       -2   -1    0    0    0  501  0.00000000000E+00  0.00000000000E+00 -0.82500509008E+03  0.82500509008E+03  0.25500000920E-02 0. -1.
    10030    2    1    2    0    0  0.00000000000E+00  0.00000000000E+00  0.18194508513E+04  0.34694610314E+04  0.29541087401E+04 0.  0.
        1    1    3    3  502    0 -0.74772878079E+03 -0.12425811828E+04  0.58049449434E+03  0.15620756011E+04  0.50400001928E-02 0.  1.
       -1    1    3    3    0  502  0.74772878079E+03  0.12425811828E+04  0.12389563569E+04  0.19073854303E+04  0.50400001928E-02 0. -1.
</event>
<event>
 5   0  0.2672155E-06  0.2914116E+04  0.7818609E-02  0.8268690E-01
        1   -1    0    0  501    0  0.00000000000E+00  0.00000000000E+00  0.15386772782E+04  0.15386772782E+04  0.50400001928E-02 0. -1.
       -1   -1    0    0    0  501  0.00000000000E+00  0.00000000000E+00 -0.13797682329E+04  0.13797682330E+04  0.50400001928E-02 0.  1.
    10030    2    1    2    0    0  0.00000000000E+00  0.00000000000E+00  0.15890904524E+03  0.29184455112E+04  0.29141160095E+04 0.  0.
        5    1    3    3  502    0  0.48248996382E+03 -0.75287473784E+03 -0.10726367117E+04  0.13964915114E+04  0.46999998093E+01 0.  1.
       -5    1    3    3    0  502 -0.48248996382E+03  0.75287473784E+03  0.12315457569E+04  0.15219539998E+04  0.46999998093E+01 0. -1.
</event>
<event>
 5   0  0.2552990E-06  0.2988332E+04  0.7818609E-02  0.8247071E-01
        1   -1    0    0  501    0  0.00000000000E+00  0.00000000000E+00  0.15992085011E+04  0.15992085011E+04  0.50400001928E-02 0.  1.
       -1   -1    0    0    0  501  0.00000000000E+00  0.00000000000E+00 -0.13960228906E+04  0.13960228906E+04  0.50400001928E-02 0. -1.
    10030    2    1    2    0    0  0.00000000000E+00  0.00000000000E+00  0.20318561047E+03  0.29952313917E+04  0.29883317583E+04 0.  0.
        3    1    3    3  502    0  0.11591545113E+04 -0.39599706437E+03  0.95918434119E+03  0.15557915884E+04  0.10100000352E+00 0.  1.
       -3    1    3    3    0  502 -0.11591545113E+04  0.39599706437E+03 -0.75599873072E+03  0.14394398032E+04  0.10100000352E+00 0. -1.
</event>
<event>
 5   0  0.7201538E-06  0.3065204E+04  0.7818609E-02  0.8225353E-01
        2   -1    0    0  501    0  0.00000000000E+00  0.00000000000E+00  0.19566458839E+04  0.19566458839E+04  0.25500000920E-02 0.  1.
       -2   -1    0    0    0  501  0.00000000000E+00  0.00000000000E+00 -0.12004566993E+04  0.12004566993E+04  0.25500000920E-02 0. -1.
    10030    2    1    2    0    0  0.00000000000E+00  0.00000000000E+00  0.75618918466E+03  0.31571025832E+04  0.30652038493E+04 0.  0.
        3    1    3    3  502    0  0.21138114227E+03 -0.98527298586E+02 -0.11820734510E+04  0.12048598548E+04  0.10100000352E+00 0. -1.
       -3    1    3    3    0  502 -0.21138114227E+03  0.98527298586E+02  0.19382626357E+04  0.19522427285E+04  0.10100000352E+00 0.  1.
</event>
<event>
 5   0  0.2628425E-06  0.3032980E+04  0.7818609E-02  0.8234375E-01
       -1   -1    0    0    0  501  0.00000000000E+00  0.00000000000E+00  0.18088225018E+04  0.18088225018E+04  0.50400001928E-02 0.  1.
        1   -1    0    0  501    0  0.00000000000E+00  0.00000000000E+00 -0.12714027625E+04  0.12714027625E+04  0.50400001928E-02 0. -1.
    10030    2    1    2    0    0  0.00000000000E+00  0.00000000000E+00  0.53741973927E+03  0.30802252643E+04  0.30329800037E+04 0.  0.
        1    1    3    3  502    0  0.13496383258E+04  0.68368195522E+03  0.37423854830E+03  0.15585246605E+04  0.50400001928E-02 0.  1.
       -1    1    3    3    0  502 -0.13496383258E+04 -0.68368195522E+03  0.16318119097E+03  0.15217006038E+04  0.50400001928E-02 0. -1.
</event>
<event>
 5   0  0.6792811E-06  0.2970670E+04  0.7818609E-02  0.8252156E-01
       -2   -1    0    0    0  501  0.00000000000E+00  0.00000000000E+00  0.99022442622E+03  0.99022442622E+03  0.25500000920E-02 0.  1.
        2   -1    0    0  501    0  0.00000000000E+00  0.00000000000E+00 -0.22279993949E+04  0.22279993949E+04  0.25500000920E-02 0. -1.
    10030    2    1    2    0    0  0.00000000000E+00  0.00000000000E+00 -0.12377749687E+04  0.32182238212E+04  0.29706695693E+04 0.  0.
        2    1    3    3  502    0 -0.62814905844E+03 -0.11898359691E+04  0.62785043082E+02  0.13469308945E+04  0.25500000920E-02 0.  1.
       -2    1    3    3    0  502  0.62814905844E+03  0.11898359691E+04 -0.13005600118E+04  0.18712929266E+04  0.25500000920E-02 0. -1.
</event>
<event>
 5   0  0.2504260E-06  0.3005883E+04  0.7818609E-02  0.8242053E-01
       -1   -1    0    0    0  501  0.00000000000E+00  0.00000000000E+00  0.11325868737E+04  0.11325868737E+04  0.50400001928E-02 0. -1.
        1   -1    0    0  501    0  0.00000000000E+00  0.00000000000E+00 -0.19944012491E+04  0.19944012492E+04  0.50400001928E-02 0.  1.
    10030    2    1    2    0    0  0.00000000000E+00  0.00000000000E+00 -0.86181437547E+03  0.31269881228E+04  0.30058826828E+04 0.  0.
        4    1    3    3  502    0  0.31134552373E+03  0.12625283178E+04  0.35305793967E+03  0.13474291484E+04  0.12699999809E+01 0. -1.
       -4    1    3    3    0  502 -0.31134552373E+03 -0.12625283178E+04 -0.12148723151E+04  0.17795589744E+04  0.12699999809E+01 0.  1.
</event>
<event>
 5   0  0.2628425E-06  0.2404424E+04  0.7818609E-02  0.8437849E-01
       -1   -1    0    0    0  501  0.00000000000E+00  0.00000000000E+00  0.14868459951E+04  0.14868459952E+04  0.50400001928E-02 0.  1.
        1   -1    0    0  501    0  0.00000000000E+00  0.00000000000E+00 -0.97206644177E+03  0.97206644178E+03  0.50400001928E-02 0. -1.
    10030    2    1    2    0    0  0.00000000000E+00  0.00000000000E+00  0.51477955337E+03  0.24589124369E+04  0.24044235034E+04 0.  0.
        1    1    3    3  502    0  0.10775961052E+04 -0.34911595038E+03  0.66927985449E+03  0.13156864506E+04  0.50400001928E-02 0.  1.
       -1    1    3    3    0  502 -0.10775961052E+04  0.34911595038E+03 -0.15450030112E+03  0.11432259863E+04  0.50400001928E-02 0. -1.
</event>
<event>
 5   0  0.2422083E-06  0.2958588E+04  0.7818609E-02  0.8255656E-01
        1   -1    0    0  501    0  0.00000000000E+00  0.00000000000E+00  0.14831205253E+04  0.14831205253E+04  0.50400001928E-02 0.  1.
       -1   -1    0    0    0  501  0.00000000000E+00  0.00000000000E+00 -0.14754771614E+04  0.14754771614E+04  0.50400001928E-02 0. -1.
    10030    2    1    2    0    0  0.00000000000E+00  0.00000000000E+00  0.76433639104E+01  0.29585976866E+04  0.29585878135E+04 0.  0.
        2    1    3    3  502    0  0.83684729952E+03  0.11236472039E+04  0.47860113119E+03  0.14805254082E+04  0.25500000920E-02 0. -1.
       -2    1    3    3    0  502 -0.83684729952E+03 -0.11236472039E+04 -0.47095776728E+03  0.14780722784E+04  0.25500000920E-02 0.  1.
</event>
<event>
 5   0  0.2552990E-06  0.3007420E+04  0.7818609E-02  0.8241615E-01
        1   -1    0    0  501    0  0.00000000000E+00  0.00000000000E+00  0.19022301248E+04  0.19022301248E+04  0.50400001928E-02 0. -1.
       -1   -1    0    0    0  501  0.00000000000E+00  0.00000000000E+00 -0.11886800951E+04  0.11886800951E+04  0.50400001928E-02 0.  1.
    10030    2    1    2    0    0  0.00000000000E+00  0.00000000000E+00  0.71355002970E+03  0.30909102199E+04  0.30074195489E+04 0.  0.
        3    1    3    3  502    0  0.93353394679E+03 -0.69141205925E+02  0.15662529892E+04  0.18246683459E+04  0.10100000352E+00 0. -1.
       -3    1    3    3    0  502 -0.93353394679E+03  0.69141205925E+02 -0.85270295951E+03  0.12662418740E+04  0.10100000352E+00 0.  1.
</event>
<event>
 5   0  0.7193153E-06  0.2771652E+04  0.7818609E-02  0.8312124E-01
        2   -1    0    0  501    0  0.00000000000E+00  0.00000000000E+00  0.20466287018E+04  0.20466287018E+04  0.25500000920E-02 0. -1.
       -2   -1    0    0    0  501  0.00000000000E+00  0.00000000000E+00 -0.93837914964E+03  0.93837914964E+03  0.25500000920E-02 0.  1.
    10030    2    1    2    0    0  0.00000000000E+00  0.00000000000E+00  0.11082495521E+04  0.29850078514E+04  0.27716519989E+04 0.  0.
        4    1    3    3  502    0  0.81653986743E+03  0.18815908264E+03  0.17428912124E+04  0.19338595054E+04  0.12699999809E+01 0. -1.
       -4    1    3    3    0  502 -0.81653986743E+03 -0.18815908264E+03 -0.63464166027E+03  0.10511483460E+04  0.12699999809E+01 0.  1.
</event>
<event>
 5   0  0.7193153E-06  0.2992241E+04  0.7818609E-02  0.8245950E-01
        2   -1    0    0  501    0  0.00000000000E+00  0.00000000000E+00  0.22861813787E+04  0.22861813787E+04  0.25500000920E-02 0.  1.
       -2   -1    0    0    0  501  0.00000000000E+00  0.00000000000E+00 -0.97908957548E+03  0.97908957549E+03  0.25500000920E-02 0. -1.
    10030    2    1    2    0    0  0.00000000000E+00  0.00000000000E+00  0.13070918033E+04  0.32652709542E+04  0.29922408697E+04 0.  0.
        4    1    3    3  502    0 -0.15288157341E+03  0.46927501727E+03  0.21947866964E+04  0.22495959799E+04  0.12699999809E+01 0.  1.
       -4    1    3    3    0  502  0.15288157341E+03 -0.46927501727E+03 -0.88769489311E+03  0.10156749743E+04  0.12699999809E+01 0. -1.
</event>
<event>
 5   0  0.2422083E-06  0.3012217E+04  0.7818609E-02  0.8240251E-01
        1   -1    0    0  501    0  0.00000000000E+00  0.00000000000E+00  0.13812319290E+04  0.13812319290E+04  0.50400001928E-02 0.  1.
       -1   -1    0    0    0  501  0.00000000000E+00  0.00000000000E+00 -0.16422753409E+04  0.16422753410E+04  0.50400001928E-02 0. -1.
    10030    2    1    2    0    0  0.00000000000E+00  0.00000000000E+00 -0.26104341190E+03  0.30235072700E+04  0.30122172148E+04 0.  0.
        2    1    3    3  502    0  0.10592971027E+04  0.10564427783E+04  0.43857509896E+02  0.14966980914E+04  0.25500000920E-02 0.  1.
       -2    1    3    3    0  502 -0.10592971027E+04 -0.10564427783E+04 -0.30490092180E+03  0.15268091786E+04  0.25500000920E-02 0. -1.
</event>
<event>
 5   0  0.7193153E-06  0.2989895E+04  0.7818609E-02  0.8246622E-01
       -2   -1    0    0    0  501  0.00000000000E+00  0.00000000000E+00  0.18069097963E+04  0.18069097963E+04  0.25500000920E-02 0. -1.
        2   -1    0    0  501    0  0.00000000000E+00  0.00000000000E+00 -0.12368456451E+04  0.12368456451E+04  0.25500000920E-02 0.  1.
    10030    2    1    2    0    0  0.00000000000E+00  0.00000000000E+00  0.57006415118E+03  0.30437554414E+04  0.29898953244E+04 0.  0.
        4    1    3    3  502    0 -0.10373957160E+04  0.69208219871E+03  0.11243223082E+04  0.16790681663E+04  0.12699999809E+01 0. -1.
       -4    1    3    3    0  502  0.10373957160E+04 -0.69208219871E+03 -0.55425815704E+03  0.13646872751E+04  0.12699999809E+01 0.  1.
</event>
<event>
 5   0  0.7217255E-06  0.2633278E+04  0.7818609E-02  0.8356985E-01
       -2   -1    0    0    0  501  0.00000000000E+00  0.00000000000E+00  0.76337743716E+03  0.76337743717E+03  0.25500000920E-02 0.  1.
        2   -1    0    0  501    0  0.00000000000E+00  0.00000000000E+00 -0.22708793047E+04  0.22708793047E+04  0.25500000920E-02 0. -1.
    10030    2    1    2    0    0  0.00000000000E+00  0.00000000000E+00 -0.15075018676E+04  0.30342567419E+04  0.26332778234E+04 0.  0.
        1    1    3    3  502    0  0.74198221298E+03  0.32297701015E+03  0.44299846897E+03  0.92255048480E+03  0.50400001928E-02 0.  1.
       -1    1    3    3    0  502 -0.74198221298E+03 -0.32297701015E+03 -0.19505003365E+04  0.21117062571E+04  0.50400001928E-02 0. -1.
</event>
<event>
 5   0  0.7193153E-06  0.3034927E+04  0.7818609E-02  0.8233827E-01
       -2   -1    0    0    0  501  0.00000000000E+00  0.00000000000E+00  0.92297826282E+03  0.92297826282E+03  0.25500000920E-02 0.  1.
        2   -1    0    0  501    0  0.00000000000E+00  0.00000000000E+00 -0.24948541908E+04  0.24948541908E+04  0.25500000920E-02 0. -1.
    10030    2    1    2    0    0  0.00000000000E+00  0.00000000000E+00 -0.15718759280E+04  0.34178324537E+04  0.30349274700E+04 0.  0.
        4    1    3    3  502    0 -0.67586417215E+02 -0.12337298434E+04 -0.17780112545E+04  0.21651750240E+04  0.12699999809E+01 0. -1.
       -4    1    3    3    0  502  0.67586417215E+02  0.12337298434E+04  0.20613532652E+03  0.12526574297E+04  0.12699999809E+01 0.  1.
</event>
<event>
 5   0  0.2672155E-06  0.2869967E+04  0.7818609E-02  0.8281870E-01
        1   -1    0    0  501    0  0.00000000000E+00  0.00000000000E+00  0.22643588831E+04  0.22643588831E+04  0.50400001928E-02 0. -1.
       -1   -1    0    0    0  501  0.00000000000E+00  0.00000000000E+00 -0.90938651990E+03  0.90938651991E+03  0.50400001928E-02 0.  1.
    10030    2    1    2    0    0  0.00000000000E+00  0.00000000000E+00  0.13549723632E+04  0.31737454030E+04  0.28699668601E+04 0.  0.
        5    1    3    3  502    0  0.60176650279E+03 -0.36357674644E+03  0.20608320591E+04  0.21774668402E+04  0.46999998093E+01 0. -1.
       -5    1    3    3    0  502 -0.60176650279E+03  0.36357674644E+03 -0.70585969589E+03  0.99627856281E+03  0.46999998093E+01 0.  1.
</event>
<event>
 5   0  0.6780150E-06  0.3025135E+04  0.7818609E-02  0.8236590E-01
       -2   -1    0    0    0  501  0.00000000000E+00  0.00000000000E+00  0.12679055529E+04  0.12679055529E+04  0.25500000920E-02 0. -1.
        2   -1    0    0  501    0  0.00000000000E+00  0.00000000000E+00 -0.18044410941E+04  0.18044410941E+04  0.25500000920E-02 0.  1.
    10030    2    1    2    0    0  0.00000000000E+00  0.00000000000E+00 -0.53653554125E+03  0.30723466470E+04  0.30251352916E+04 0.  0.
        5    1    3    3  502    0  0.14441126989E+04 -0.27968119364E+03  0.89588644307E+02  0.14736795013E+04  0.46999998093E+01 0.  1.
       -5    1    3    3    0  502 -0.14441126989E+04  0.27968119364E+03 -0.62612418556E+03  0.15986671458E+04  0.46999998093E+01 0. -1.
</event>
<event>
 5   0  0.2672155E-06  0.3191047E+04  0.7818609E-02  0.8191186E-01
        1   -1    0    0  501    0  0.00000000000E+00  0.00000000000E+00  0.28078442112E+04  0.28078442112E+04  0.50400001928E-02 0. -1.
       -1   -1    0    0    0  501  0.00000000000E+00  0.00000000000E+00 -0.90663686506E+03  0.90663686508E+03  0.50400001928E-02 0.  1.
    10030    2    1    2    0    0  0.00000000000E+00  0.00000000000E+00  0.19012073462E+04  0.37144810763E+04  0.31910468961E+04 0.  0.
        5    1    3    3  502    0 -0.27686570994E+03 -0.10449034637E+03  0.27756115711E+04  0.27913463665E+04  0.46999998093E+01 0. -1.
       -5    1    3    3    0  502  0.27686570994E+03  0.10449034637E+03 -0.87440422498E+03  0.92313470982E+03  0.46999998093E+01 0.  1.
</event>
<event>
 5   0  0.2552990E-06  0.2863620E+04  0.7818609E-02  0.8283785E-01
       -1   -1    0    0    0  501  0.00000000000E+00  0.00000000000E+00  0.11983249610E+04  0.11983249610E+04  0.50400001928E-02 0.  1.
        1   -1    0    0  501    0  0.00000000000E+00  0.00000000000E+00 -0.17107873673E+04  0.17107873673E+04  0.50400001928E-02 0. -1.
    10030    2    1    2    0    0  0.00000000000E+00  0.00000000000E+00 -0.51246240630E+03  0.29091123284E+04  0.28636195315E+04 0.  0.
        3    1    3    3  502    0  0.33438783364E+03 -0.13338180083E+04 -0.66156034622E+03  0.15259579956E+04  0.10100000352E+00 0. -1.
       -3    1    3    3    0  502 -0.33438783364E+03  0.13338180083E+04  0.14909793992E+03  0.13831543328E+04  0.10100000352E+00 0.  1.
</event>
<event>
 5   0  0.6780150E-06  0.2961786E+04  0.7818609E-02  0.8254728E-01
        2   -1    0    0  501    0  0.00000000000E+00  0.00000000000E+00  0.22350095789E+04  0.22350095789E+04  0.25500000920E-02 0.  1.
       -2   -1    0    0    0  501  0.00000000000E+00  0.00000000000E+00 -0.98122336087E+03  0.98122336087E+03  0.25500000920E-02 0. -1.
    10030    2    1    2    0    0  0.00000000000E+00  0.00000000000E+00  0.12537862180E+04  0.32162329398E+04  0.29617856847E+04 0.  0.
        5    1    3    3  502    0 -0.82914838328E+03  0.12183072201E+04  0.78523502237E+03  0.16698430029E+04  0.46999998093E+01 0.  1.
       -5    1    3    3    0  502  0.82914838328E+03 -0.12183072201E+04  0.46855119565E+03  0.15463899369E+04  0.46999998093E+01 0. -1.
</event>
<event>
 5   0  0.2628425E-06  0.2985440E+04  0.7818609E-02  0.8247901E-01
        1   -1    0    0  501    0  0.00000000000E+00  0.00000000000E+00  0.16397226751E+04  0.16397226751E+04  0.50400001928E-02 0.  1.
       -1   -1    0    0    0  501  0.00000000000E+00  0.00000000000E+00 -0.13588958859E+04  0.13588958859E+04  0.50400001928E-02 0. -1.
    10030    2    1    2    0    0  0.00000000000E+00  0.00000000000E+00  0.28082678920E+03  0.29986185610E+04  0.29854395973E+04 0.  0.
        1    1    3    3  502    0 -0.56063518150E+03 -0.12402056180E+03 -0.12435368162E+04  0.13696994998E+04  0.50400001928E-02 0. -1.
       -1    1    3    3    0  502  0.56063518150E+03  0.12402056180E+03  0.15243636054E+04  0.16289190612E+04  0.50400001928E-02 0.  1.
</event>
<event>
 5   0  0.2504260E-06  0.3010278E+04  0.7818609E-02  0.8240802E-01
        1   -1    0    0  501    0  0.00000000000E+00  0.00000000000E+00  0.19102570478E+04  0.19102570478E+04  0.50400001928E-02 0. -1.
       -1   -1    0    0    0  501  0.00000000000E+00  0.00000000000E+00 -0.11859363038E+04  0.11859363038E+04  0.50400001928E-02 0.  1.
    10030    2    1    2    0    0  0.00000000000E+00  0.00000000000E+00  0.72432074401E+03  0.30961933515E+04  0.30102778493E+04 0.  0.
        4    1    3    3  502    0 -0.40862852180E+03  0.43016406458E+03 -0.10605844250E+04  0.12152610118E+04  0.12699999809E+01 0.  1.
       -4    1    3    3    0  502  0.40862852180E+03 -0.43016406458E+03  0.17849051690E+04  0.18809323397E+04  0.12699999809E+01 0. -1.
</event>
<event>
 5   0  0.2672155E-06  0.3034617E+04  0.7818609E-02  0.8233914E-01
       -1   -1    0    0    0  501  0.00000000000E+00  0.00000000000E+00  0.13111115820E+04  0.13111115820E+04  0.50400001928E-02 0. -1.
        1   -1    0    0  501    0  0.00000000000E+00  0.00000000000E+00 -0.17559338950E+04  0.17559338950E+04  0.50400001928E-02 0.  1.
    10030    2    1    2    0    0  0.00000000000E+00  0.00000000000E+00 -0.44482231304E+03  0.30670454770E+04  0.30346171205E+04 0.  0.
        5    1    3    3  502    0 -0.11711095878E+04  0.64147390698E+01 -0.11974296512E+04  0.16749324389E+04  0.46999998093E+01 0.  1.
       -5    1    3    3    0  502  0.11711095878E+04 -0.64147390698E+01  0.75260733816E+03  0.13921130381E+04  0.46999998093E+01 0. -1.
</event>
<event>
 5   0  0.2504260E-06  0.3022764E+04  0.7818609E-02  0.8237260E-01
       -1   -1    0    0    0  501  0.00000000000E+00  0.00000000000E+00  0.12743370931E+04  0.12743370931E+04  0.50400001928E-02 0. -1.
        1   -1    0    0  501    0  0.00000000000E+00  0.00000000000E+00 -0.17925211684E+04  0.17925211684E+04  0.50400001928E-02 0.  1.
    10030    2    1    2    0    0  0.00000000000E+00  0.00000000000E+00 -0.51818407528E+03  0.30668582615E+04  0.30227644401E+04 0.  0.
        4    1    3    3  502    0  0.48944685880E+03  0.29625459762E+03  0.11602243577E+04  0.12936178675E+04  0.12699999809E+01 0. -1.
       -4    1    3    3    0  502 -0.48944685880E+03 -0.29625459762E+03 -0.16784084329E+04  0.17732403940E+04  0.12699999809E+01 0.  1.
</event>
<event>
 5   0  0.2628425E-06  0.2952667E+04  0.7818609E-02  0.8257378E-01
        1   -1    0    0  501    0  0.00000000000E+00  0.00000000000E+00  0.27662197901E+04  0.27662197902E+04  0.50400001928E-02 0.  1.
       -1   -1    0    0    0  501  0.00000000000E+00  0.00000000000E+00 -0.78792047436E+03  0.78792047438E+03  0.50400001928E-02 0. -1.
    10030    2    1    2    0    0  0.00000000000E+00  0.00000000000E+00  0.19782993158E+04  0.35541402645E+04  0.29526674105E+04 0.  0.
        1    1    3    3  502    0 -0.11276163311E+04 -0.94457978493E+03  0.83779053020E+03  0.16928208803E+04  0.50400001928E-02 0. -1.
       -1    1    3    3    0  502  0.11276163311E+04  0.94457978493E+03  0.11405087856E+04  0.18613193843E+04  0.50400001928E-02 0.  1.
</event>
<event>
 5   0  0.7193153E-06  0.3028445E+04  0.7818609E-02  0.8235655E-01
       -2   -1    0    0    0  501  0.00000000000E+00  0.00000000000E+00  0.15561809145E+04  0.15561809145E+04  0.25500000920E-02 0.  1.
        2   -1    0    0  501    0  0.00000000000E+00  0.00000000000E+00 -0.14733955267E+04  0.14733955267E+04  0.25500000920E-02 0. -1.
    10030    2    1    2    0    0  0.00000000000E+00  0.00000000000E+00  0.82785387752E+02  0.30295764412E+04  0.30284451444E+04 0.  0.
        4    1    3    3  502    0 -0.64085485100E+03  0.77442767166E+02  0.14116401322E+04  0.15522312321E+04  0.12699999809E+01 0.  1.
       -4    1    3    3    0  502  0.64085485100E+03 -0.77442767166E+02 -0.13288547444E+04  0.14773452091E+04  0.12699999809E+01 0. -1.
</event>
<event>
 5   0  0.2504260E-06  0.2952255E+04  0.7818609E-02  0.8257498E-01
       -1   -1    0    0    0  501  0.00000000000E+00  0.00000000000E+00  0.11033908479E+04  0.11033908479E+04  0.50400001928E-02 0.  1.
        1   -1    0    0  501    0  0.00000000000E+00  0.00000000000E+00 -0.19747777493E+04  0.19747777493E+04  0.50400001928E-02 0. -1.
    10030    2    1    2    0    0  0.00000000000E+00  0.00000000000E+00 -0.87138690139E+03  0.30781685971E+04  0.29522545250E+04 0.  0.
        4    1    3    3  502    0  0.11351322176E+04 -0.54784888203E+03 -0.12367626691E+04  0.17658559006E+04  0.12699999809E+01 0. -1.
       -4    1    3    3    0  502 -0.11351322176E+04  0.54784888203E+03  0.36537576768E+03  0.13123126966E+04  0.12699999809E+01 0.  1.
</event>
<event>
 5   0  0.2628425E-06  0.2464838E+04  0.7818609E-02  0.8415620E-01
       -1   -1    0    0    0  501  0.00000000000E+00  0.00000000000E+00  0.91703062336E+03  0.91703062338E+03  0.50400001928E-02 0.  1.
        1   -1    0    0  501    0  0.00000000000E+00  0.00000000000E+00 -0.16562774202E+04  0.16562774203E+04  0.50400001928E-02 0. -1.
    10030    2    1    2    0    0  0.00000000000E+00  0.00000000000E+00 -0.73924679688E+03  0.25733080436E+04  0.24648384249E+04 0.  0.
        1    1    3    3  502    0  0.13335499479E+02 -0.66662346028E+03 -0.14517163844E+04  0.15975121702E+04  0.50400001928E-02 0. -1.
       -1    1    3    3    0  502 -0.13335499479E+02  0.66662346028E+03  0.71246958752E+03  0.97579587338E+03  0.50400001928E-02 0.  1.
</event>
<event>
 5   0  0.2552990E-06  0.3027830E+04  0.7818609E-02  0.8235828E-01
        1   -1    0    0  501    0  0.00000000000E+00  0.00000000000E+00  0.19322484021E+04  0.19322484021E+04  0.50400001928E-02 0. -1.
       -1   -1    0    0    0  501  0.00000000000E+00  0.00000000000E+00 -0.11861512925E+04  0.11861512925E+04  0.50400001928E-02 0.  1.
    10030    2    1    2    0    0  0.00000000000E+00  0.00000000000E+00  0.74609710965E+03  0.31183996946E+04  0.30278302064E+04 0.  0.
        3    1    3    3  502    0  0.14347203720E+04 -0.24820300525E+03 -0.53976068601E+02  0.14570314698E+04  0.10100000352E+00 0.  1.
       -3    1    3    3    0  502 -0.14347203720E+04  0.24820300525E+03  0.80007317825E+03  0.16613682248E+04  0.10100000352E+00 0. -1.
</event>
<event>
 5   0  0.2552990E-06  0.2960939E+04  0.7818609E-02  0.8254974E-01
       -1   -1    0    0    0  501  0.00000000000E+00  0.00000000000E+00  0.12151578650E+04  0.12151578650E+04  0.50400001928E-02 0. -1.
        1   -1    0    0  501    0  0.00000000000E+00  0.00000000000E+00 -0.18037078954E+04  0.18037078955E+04  0.50400001928E-02 0.  1.
    10030    2    1    2    0    0  0.00000000000E+00  0.00000000000E+00 -0.58855003041E+03  0.30188657605E+04  0.29609389291E+04 0.  0.
        3    1    3    3  502    0 -0.81834263195E+03 -0.12320873590E+04 -0.35928690521E+03  0.15221074252E+04  0.10100000352E+00 0. -1.
       -3    1    3    3    0  502  0.81834263195E+03  0.12320873590E+04 -0.22926312521E+03  0.14967583353E+04  0.10100000352E+00 0.  1.
</event>
<event>
 5   0  0.7193153E-06  0.2988877E+04  0.7818609E-02  0.8246914E-01
       -2   -1    0    0    0  501  0.00000000000E+00  0.00000000000E+00  0.14279408000E+04  0.14279408000E+04  0.25500000920E-02 0. -1.
        2   -1    0    0  501    0  0.00000000000E+00  0.00000000000E+00 -0.15640330227E+04  0.15640330227E+04  0.25500000920E-02 0.  1.
    10030    2    1    2    0    0  0.00000000000E+00  0.00000000000E+00 -0.13609222262E+03  0.29919738227E+04  0.29888770906E+04 0.  0.
        4    1    3    3  502    0 -0.16690128125E+03 -0.11991414049E+04 -0.94505245240E+03  0.15358782170E+04  0.12699999809E+01 0.  1.
       -4    1    3    3    0  502  0.16690128125E+03  0.11991414049E+04  0.80896022978E+03  0.14560956057E+04  0.12699999809E+01 0. -1.
</event>
<event>
 5   0  0.2422083E-06  0.2538730E+04  0.7818609E-02  0.8389316E-01
        1   -1    0    0  501    0  0.00000000000E+00  0.00000000000E+00  0.12601791352E+04  0.12601791352E+04  0.50400001928E-02 0. -1.
       -1   -1    0    0    0  501  0.00000000000E+00  0.00000000000E+00 -0.12786179713E+04  0.12786179713E+04  0.50400001928E-02 0.  1.
    10030    2    1    2    0    0  0.00000000000E+00  0.00000000000E+00 -0.18438836156E+02  0.25387971065E+04  0.25387301466E+04 0.  0.
        2    1    3    3  502    0 -0.78376635828E+03 -0.61465110106E+03  0.77769523595E+03  0.12636833308E+04  0.25500000920E-02 0. -1.
       -2    1    3    3    0  502  0.78376635828E+03  0.61465110106E+03 -0.79613407210E+03  0.12751137758E+04  0.25500000920E-02 0.  1.
</event>
<event>
 5   0  0.2504260E-06  0.2971519E+04  0.7818609E-02  0.8251911E-01
       -1   -1    0    0    0  501  0.00000000000E+00  0.00000000000E+00  0.10902106977E+04  0.10902106977E+04  0.50400001928E-02 0. -1.
        1   -1    0    0  501    0  0.00000000000E+00  0.00000000000E+00 -0.20248201526E+04  0.20248201526E+04  0.50400001928E-02 0.  1.
    10030    2    1    2    0    0  0.00000000000E+00  0.00000000000E+00 -0.93460945483E+03  0.31150308503E+04  0.29715185285E+04 0.  0.
        4    1    3    3  502    0  0.89497442917E+02  0.14553736094E+04 -0.16829800398E+03  0.14678037901E+04  0.12699999809E+01 0. -1.
       -4    1    3    3    0  502 -0.89497442917E+02 -0.14553736094E+04 -0.76631145085E+03  0.16472270602E+04  0.12699999809E+01 0.  1.
</event>
<event>
 5   0  0.7193153E-06  0.2997938E+04  0.7818609E-02  0.8244320E-01
        2   -1    0    0  501    0  0.00000000000E+00  0.00000000000E+00  0.14163916515E+04  0.14163916515E+04  0.25500000920E-02 0. -1.
       -2   -1    0    0    0  501  0.00000000000E+00  0.00000000000E+00 -0.15863605044E+04  0.15863605044E+04  0.25500000920E-02 0.  1.
    10030    2    1    2    0    0  0.00000000000E+00  0.00000000000E+00 -0.16996885291E+03  0.30027521559E+04  0.29979378077E+04 0.  0.
        4    1    3    3  502    0 -0.14290576831E+04  0.39457182207E+03  0.13676075121E+03  0.14888243349E+04  0.12699999809E+01 0. -1.
       -4    1    3    3    0  502  0.14290576831E+04 -0.39457182207E+03 -0.30672960413E+03  0.15139278210E+04  0.12699999809E+01 0.  1.
</event>
<event>
 5   0  0.6780150E-06  0.3080602E+04  0.7818609E-02  0.8221082E-01
       -2   -1    0    0    0  501  0.00000000000E+00  0.00000000000E+00  0.92812035502E+03  0.92812035503E+03  0.25500000920E-02 0. -1.
        2   -1    0    0  501    0  0.00000000000E+00  0.00000000000E+00 -0.25562714602E+04  0.25562714602E+04  0.25500000920E-02 0.  1.
    10030    2    1    2    0    0  0.00000000000E+00  0.00000000000E+00 -0.16281511051E+04  0.34843918152E+04  0.30806022626E+04 0.  0.
        5    1    3    3  502    0  0.68480439640E+03 -0.44225492031E+03 -0.22922649285E+04  0.24329091780E+04  0.46999998093E+01 0.  1.
       -5    1    3    3    0  502 -0.68480439640E+03  0.44225492031E+03  0.66411382340E+03  0.10514826372E+04  0.46999998093E+01 0. -1.
</event>
<event>
 5   0  0.2504260E-06  0.2966715E+04  0.7818609E-02  0.8253300E-01
       -1   -1    0    0    0  501  0.00000000000E+00  0.00000000000E+00  0.13287151219E+04  0.13287151219E+04  0.50400001928E-02 0.  1.
        1   -1    0    0  501    0  0.00000000000E+00  0.00000000000E+00 -0.16559975779E+04  0.16559975779E+04  0.50400001928E-02 0. -1.
    10030    2    1    2    0    0  0.00000000000E+00  0.00000000000E+00 -0.32728245603E+03  0.29847126998E+04  0.29667146971E+04 0.  0.
        4    1    3    3  502    0 -0.27296149936E+03  0.13155220802E+04 -0.79613724206E+03  0.15617113833E+04  0.12699999809E+01 0. -1.
       -4    1    3    3    0  502  0.27296149936E+03 -0.13155220802E+04  0.46885478603E+03  0.14230013165E+04  0.12699999809E+01 0.  1.
</event>
<event>
 5   0  0.7193153E-06  0.2990001E+04  0.7818609E-02  0.8246592E-01
       -2   -1    0    0    0  501  0.00000000000E+00  0.00000000000E+00  0.92459830750E+03  0.92459830751E+03  0.25500000920E-02 0. -1.
        2   -1    0    0  501    0  0.00000000000E+00  0.00000000000E+00 -0.24172942479E+04  0.24172942479E+04  0.25500000920E-02 0.  1.
    10030    2    1    2    0    0  0.00000000000E+00  0.00000000000E+00 -0.14926959404E+04  0.33418925554E+04  0.29900007828E+04 0.  0.
        4    1    3    3  502    0  0.13192543771E+04  0.41255890679E+03 -0.13829284239E+04  0.19552824863E+04  0.12699999809E+01 0.  1.
       -4    1    3    3    0  502 -0.13192543771E+04 -0.41255890679E+03 -0.10976751649E+03  0.13866100690E+04  0.12699999809E+01 0. -1.
</event>
<event>
 5   0  0.7201538E-06  0.3111337E+04  0.7818609E-02  0.8212634E-01
       -2   -1    0    0    0  501  0.00000000000E+00  0.00000000000E+00  0.84082238774E+03  0.84082238774E+03  0.25500000920E-02 0. -1.
        2   -1    0    0  501    0  0.00000000000E+00  0.00000000000E+00 -0.28782579787E+04  0.28782579787E+04  0.25500000920E-02 0.  1.
    10030    2    1    2    0    0  0.00000000000E+00  0.00000000000E+00 -0.20374355910E+04  0.37190803665E+04  0.31113365271E+04 0.  0.
        3    1    3    3  502    0  0.27716365916E+03 -0.43295649291E+03 -0.27737945125E+04  0.28210294268E+04  0.10100000352E+00 0.  1.
       -3    1    3    3    0  502 -0.27716365916E+03  0.43295649291E+03  0.73635892156E+03  0.89805093969E+03  0.10100000352E+00 0. -1.
</event>
<event>
 5   0  0.2672155E-06  0.2979449E+04  0.7818609E-02  0.8249624E-01
       -1   -1    0    0    0  501  0.00000000000E+00  0.00000000000E+00  0.14871698251E+04  0.14871698251E+04  0.50400001928E-02 0. -1.
        1   -1    0    0  501    0  0.00000000000E+00  0.00000000000E+00 -0.14922836476E+04  0.14922836476E+04  0.50400001928E-02 0.  1.
    10030    2    1    2    0    0  0.00000000000E+00  0.00000000000E+00 -0.51138225034E+01  0.29794534727E+04  0.29794490841E+04 0.  0.
        5    1    3    3  502    0 -0.31855015999E+03 -0.66061288601E+03  0.12941228814E+04  0.14875011636E+04  0.46999998093E+01 0. -1.
       -5    1    3    3    0  502  0.31855015999E+03  0.66061288601E+03 -0.12992367039E+04  0.14919523090E+04  0.46999998093E+01 0.  1.
</event>
<event>
 5   0  0.6792811E-06  0.3014616E+04  0.7818609E-02  0.8239570E-01
       -2   -1    0    0    0  501  0.00000000000E+00  0.00000000000E+00  0.17649693865E+04  0.17649693865E+04  0.25500000920E-02 0. -1.
        2   -1    0    0  501    0  0.00000000000E+00  0.00000000000E+00 -0.12872613873E+04  0.12872613873E+04  0.25500000920E-02 0.  1.
    10030    2    1    2    0    0  0.00000000000E+00  0.00000000000E+00  0.47770799922E+03  0.30522307738E+04  0.30146156909E+04 0.  0.
        2    1    3    3  502    0 -0.10210703419E+04  0.20795575694E+03  0.13415469907E+04  0.16986990811E+04  0.25500000920E-02 0. -1.
       -2    1    3    3    0  502  0.10210703419E+04 -0.20795575694E+03 -0.86383899145E+03  0.13535316927E+04  0.25500000920E-02 0.  1.
</event>
<event>
 5   0  0.2298500E-06  0.3043131E+04  0.7818609E-02  0.8231521E-01
       -3   -1    0    0    0  501  0.00000000000E+00  0.00000000000E+00  0.24327986051E+04  0.24327986072E+04  0.10100000352E+00 0.  1.
        3   -1    0    0  501    0  0.00000000000E+00  0.00000000000E+00 -0.95164568876E+03  0.95164569412E+03  0.10100000352E+00 0. -1.
    10030    2    1    2    0    0  0.00000000000E+00  0.00000000000E+00  0.14811529164E+04  0.33844443014E+04  0.30431314903E+04 0.  0.
        4    1    3    3  502    0 -0.80154389088E+03 -0.37331717315E+03  0.21177332579E+04  0.22949148319E+04  0.12699999809E+01 0.  1.
       -4    1    3    3    0  502  0.80154389088E+03  0.37331717315E+03 -0.63658034156E+03  0.10895294695E+04  0.12699999809E+01 0. -1.
</event>
<event>
 5   0  0.6792811E-06  0.3540679E+04  0.7818609E-02  0.8104217E-01
        2   -1    0    0  501    0  0.00000000000E+00  0.00000000000E+00  0.23996843908E+04  0.23996843908E+04  0.25500000920E-02 0. -1.
       -2   -1    0    0    0  501  0.00000000000E+00  0.00000000000E+00 -0.13060477266E+04  0.13060477266E+04  0.25500000920E-02 0.  1.
    10030    2    1    2    0    0  0.00000000000E+00  0.00000000000E+00  0.10936366642E+04  0.37057321174E+04  0.35406792248E+04 0.  0.
        2    1    3    3  502    0 -0.93510749870E+03  0.11827934459E+04 -0.42415494721E+03  0.15663121621E+04  0.25500000920E-02 0.  1.
       -2    1    3    3    0  502  0.93510749870E+03 -0.11827934459E+04  0.15177916114E+04  0.21394199554E+04  0.25500000920E-02 0. -1.
</event>
<event>
 5   0  0.2552990E-06  0.3472377E+04  0.7818609E-02  0.8120368E-01
       -1   -1    0    0    0  501  0.00000000000E+00  0.00000000000E+00  0.15072925383E+04  0.15072925383E+04  0.50400001928E-02 0.  1.
        1   -1    0    0  501    0  0.00000000000E+00  0.00000000000E+00 -0.19998446176E+04  0.19998446176E+04  0.50400001928E-02 0. -1.
    10030    2    1    2    0    0  0.00000000000E+00  0.00000000000E+00 -0.49255207925E+03  0.35071371559E+04  0.34723772087E+04 0.  0.
        3    1    3    3  502    0  0.67338985401E+03  0.15364981920E+04 -0.69804577392E+03  0.18170163737E+04  0.10100000352E+00 0. -1.
       -3    1    3    3    0  502 -0.67338985401E+03 -0.15364981920E+04  0.20549369467E+03  0.16901207822E+04  0.10100000352E+00 0.  1.
</event>
<event>
 5   0  0.7201538E-06  0.3000576E+04  0.7818609E-02  0.8243566E-01
       -2   -1    0    0    0  501  0.00000000000E+00  0.00000000000E+00  0.12136791678E+04  0.12136791678E+04  0.25500000920E-02 0.  1.
        2   -1    0    0  501    0  0.00000000000E+00  0.00000000000E+00 -0.18545796557E+04  0.18545796557E+04  0.25500000920E-02 0. -1.
    10030    2    1    2    0    0  0.00000000000E+00  0.00000000000E+00 -0.64090048791E+03  0.30682588235E+04  0.30005764067E+04 0.  0.
        3    1    3    3  502    0  0.14170263216E+04  0.46257106596E+03 -0.14652815988E+03  0.14978004203E+04  0.10100000352E+00 0.  1.
       -3    1    3    3    0  502 -0.14170263216E+04 -0.46257106596E+03 -0.49437232803E+03  0.15704584032E+04  0.10100000352E+00 0. -1.
</event>
<event>
 5   0  0.2504260E-06  0.2964558E+04  0.7818609E-02  0.8253925E-01
        1   -1    0    0  501    0  0.00000000000E+00  0.00000000000E+00  0.13758791858E+04  0.13758791858E+04  0.50400001928E-02 0. -1.
       -1   -1    0    0    0  501  0.00000000000E+00  0.00000000000E+00 -0.15969070223E+04  0.15969070224E+04  0.50400001928E-02 0.  1.
    10030    2    1    2    0    0  0.00000000000E+00  0.00000000000E+00 -0.22102783659E+03  0.29727862081E+04  0.29645580673E+04 0.  0.
        4    1    3    3  502    0 -0.24972250529E+03 -0.14513116882E+04  0.58722310369E+02  0.14738103232E+04  0.12699999809E+01 0. -1.
       -4    1    3    3    0  502  0.24972250529E+03  0.14513116882E+04 -0.27975014696E+03  0.14989758850E+04  0.12699999809E+01 0.  1.
</event>
<event>
 5   0  0.2628425E-06  0.2151537E+04  0.7818609E-02  0.8538875E-01
        1   -1    0    0  501    0  0.00000000000E+00  0.00000000000E+00  0.14761914916E+04  0.14761914916E+04  0.50400001928E-02 0.  1.
       -1   -1    0    0    0  501  0.00000000000E+00  0.00000000000E+00 -0.78396179866E+03  0.78396179868E+03  0.50400001928E-02 0. -1.
    10030    2    1    2    0    0  0.00000000000E+00  0.00000000000E+00  0.69222969291E+03  0.22601532903E+04  0.21515368804E+04 0.  0.
        1    1    3    3  502    0  0.77973305079E+03  0.69485653710E+03  0.61694501310E+03  0.12130253035E+04  0.50400001928E-02 0.  1.
       -1    1    3    3    0  502 -0.77973305079E+03 -0.69485653710E+03  0.75284679805E+02  0.10471279868E+04  0.50400001928E-02 0. -1.
</event>
<event>
 5   0  0.6792811E-06  0.2992554E+04  0.7818609E-02  0.8245860E-01
        2   -1    0    0  501    0  0.00000000000E+00  0.00000000000E+00  0.13949404143E+04  0.13949404143E+04  0.25500000920E-02 0.  1.
       -2   -1    0    0    0  501  0.00000000000E+00  0.00000000000E+00 -0.16049756219E+04  0.16049756219E+04  0.25500000920E-02 0. -1.
    10030    2    1    2    0    0  0.00000000000E+00  0.00000000000E+00 -0.21003520755E+03  0.29999160362E+04  0.29925543330E+04 0.  0.
        2    1    3    3  502    0  0.57105987882E+01  0.76587994769E+03 -0.13935748195E+04  0.15901746705E+04  0.25500000920E-02 0. -1.
       -2    1    3    3    0  502 -0.57105987882E+01 -0.76587994769E+03  0.11835396119E+04  0.14097413657E+04  0.25500000920E-02 0.  1.
</event>
<event>
 5   0  0.2552990E-06  0.3006490E+04  0.7818609E-02  0.8241880E-01
       -1   -1    0    0    0  501  0.00000000000E+00  0.00000000000E+00  0.33635415185E+04  0.33635415185E+04  0.50400001928E-02 0. -1.
        1   -1    0    0  501    0  0.00000000000E+00  0.00000000000E+00 -0.67183504103E+03  0.67183504105E+03  0.50400001928E-02 0.  1.
    10030    2    1    2    0    0  0.00000000000E+00  0.00000000000E+00  0.26917064775E+04  0.40353765595E+04  0.30064896834E+04 0.  0.
        3    1    3    3  502    0  0.13142698627E+04  0.72839190361E+03  0.12875784376E+04  0.19788173944E+04  0.10100000352E+00 0.  1.
       -3    1    3    3    0  502 -0.13142698627E+04 -0.72839190361E+03  0.14041280399E+04  0.20565591652E+04  0.10100000352E+00 0. -1.
</event>
<event>
 5   0  0.7193153E-06  0.2867223E+04  0.7818609E-02  0.8282697E-01
        2   -1    0    0  501    0  0.00000000000E+00  0.00000000000E+00  0.25769015446E+04  0.25769015446E+04  0.25500000920E-02 0. -1.
       -2   -1    0    0    0  501  0.00000000000E+00  0.00000000000E+00 -0.79756311244E+03  0.79756311245E+03  0.25500000920E-02 0.  1.
    10030    2    1    2    0    0  0.00000000000E+00  0.00000000000E+00  0.17793384322E+04  0.33744646570E+04  0.28672227792E+04 0.  0.
        4    1    3    3  502    0 -0.66263702767E+03  0.43114599741E+02  0.23849910277E+04  0.24757080834E+04  0.12699999809E+01 0. -1.
       -4    1    3    3    0  502  0.66263702767E+03 -0.43114599741E+02 -0.60565259558E+03  0.89875657360E+03  0.12699999809E+01 0.  1.
</event>
<event>
 5   0  0.7201538E-06  0.2810570E+04  0.7818609E-02  0.8299994E-01
        2   -1    0    0  501    0  0.00000000000E+00  0.00000000000E+00  0.11735077444E+04  0.11735077444E+04  0.25500000920E-02 0. -1.
       -2   -1    0    0    0  501  0.00000000000E+00  0.00000000000E+00 -0.16828400852E+04  0.16828400852E+04  0.25500000920E-02 0.  1.
    10030    2    1    2    0    0  0.00000000000E+00  0.00000000000E+00 -0.50933234079E+03  0.28563478295E+04  0.28105699582E+04 0.  0.
        3    1    3    3  502    0 -0.64305501600E+03 -0.56410282909E+03 -0.13877673618E+04  0.16302239159E+04  0.10100000352E+00 0.  1.
       -3    1    3    3    0  502  0.64305501600E+03  0.56410282909E+03  0.87843502097E+03  0.12261239137E+04  0.10100000352E+00 0. -1.
</event>
<event>
 5   0  0.6780150E-06  0.2951401E+04  0.7818609E-02  0.8257746E-01
       -2   -1    0    0    0  501  0.00000000000E+00  0.00000000000E+00  0.14603019962E+04  0.14603019962E+04  0.25500000920E-02 0. -1.
        2   -1    0    0  501    0  0.00000000000E+00  0.00000000000E+00 -0.14912615603E+04  0.14912615603E+04  0.25500000920E-02 0.  1.
    10030    2    1    2    0    0  0.00000000000E+00  0.00000000000E+00 -0.30959564126E+02  0.29515635564E+04  0.29514011813E+04 0.  0.
        5    1    3    3  502    0 -0.39378064965E+03 -0.12066846336E+04  0.73723628354E+03  0.14678863828E+04  0.46999998093E+01 0. -1.
       -5    1    3    3    0  502  0.39378064965E+03  0.12066846336E+04 -0.76819584767E+03  0.14836771736E+04  0.46999998093E+01 0.  1.
</event>
<event>
 5   0  0.2504260E-06  0.3015186E+04  0.7818609E-02  0.8239408E-01
        1   -1    0    0  501    0  0.00000000000E+00  0.00000000000E+00  0.18050892290E+04  0.18050892290E+04  0.50400001928E-02 0.  1.
       -1   -1    0    0    0  501  0.00000000000E+00  0.00000000000E+00 -0.12591268088E+04  0.12591268088E+04  0.50400001928E-02 0. -1.
    10030    2    1    2    0    0  0.00000000000E+00  0.00000000000E+00  0.54596242019E+03  0.30642160378E+04  0.30151857259E+04 0.  0.
        4    1    3    3  502    0 -0.11395273634E+04 -0.13529893758E+03  0.12666363199E+04  0.17091511327E+04  0.12699999809E+01 0.  1.
       -4    1    3    3    0  502  0.11395273634E+04  0.13529893758E+03 -0.72067389975E+03  0.13550649051E+04  0.12699999809E+01 0. -1.
</event>
<event>
 5   0  0.2552990E-06  0.3035109E+04  0.7818609E-02  0.8233776E-01
       -1   -1    0    0    0  501  0.00000000000E+00  0.00000000000E+00  0.12407608796E+04  0.12407608796E+04  0.50400001928E-02 0.  1.
        1   -1    0    0  501    0  0.00000000000E+00  0.00000000000E+00 -0.18560964274E+04  0.18560964274E+04  0.50400001928E-02 0. -1.
    10030    2    1    2    0    0  0.00000000000E+00  0.00000000000E+00 -0.61533554785E+03  0.30968573070E+04  0.30351091156E+04 0.  0.
        3    1    3    3  502    0  0.73118702848E+02 -0.41323962605E+03 -0.17957131810E+04  0.18440984713E+04  0.10100000352E+00 0. -1.
       -3    1    3    3    0  502 -0.73118702848E+02  0.41323962605E+03  0.11803776332E+04  0.12527588357E+04  0.10100000352E+00 0.  1.
</event>
<event>
 5   0  0.2672155E-06  0.2977846E+04  0.7818609E-02  0.8250085E-01
        1   -1    0    0  501    0  0.00000000000E+00  0.00000000000E+00  0.10943788837E+04  0.10943788837E+04  0.50400001928E-02 0.  1.
       -1   -1    0    0    0  501  0.00000000000E+00  0.00000000000E+00 -0.20257078647E+04  0.20257078647E+04  0.50400001928E-02 0. -1.
    10030    2    1    2    0    0  0.00000000000E+00  0.00000000000E+00 -0.93132898098E+03  0.31200867484E+04  0.29778461422E+04 0.  0.
        5    1    3    3  502    0  0.23302688613E+03  0.39361521762E+03 -0.19502555169E+04  0.20031857479E+04  0.46999998093E+01 0. -1.
       -5    1    3    3    0  502 -0.23302688613E+03 -0.39361521762E+03  0.10189265360E+04  0.11169010005E+04  0.46999998093E+01 0.  1.
</event>
<event>
 5   0  0.7193153E-06  0.2793230E+04  0.7818609E-02  0.8305373E-01
       -2   -1    0    0    0  501  0.00000000000E+00  0.00000000000E+00  0.11180457668E+04  0.11180457668E+04  0.25500000920E-02 0. -1.
        2   -1    0    0  501    0  0.00000000000E+00  0.00000000000E+00 -0.17445913596E+04  0.17445913596E+04  0.25500000920E-02 0.  1.
    10030    2    1    2    0    0  0.00000000000E+00  0.00000000000E+00 -0.62654559288E+03  0.28626371264E+04  0.27932296607E+04 0.  0.
        4    1    3    3  502    0  0.48500434715E+01  0.55889697693E+03  0.99842995455E+03  0.11442260881E+04  0.12699999809E+01 0. -1.
       -4    1    3    3    0  502 -0.48500434715E+01 -0.55889697693E+03 -0.16249755474E+04  0.17184110383E+04  0.12699999809E+01 0.  1.
</event>
<event>
 5   0  0.7217255E-06  0.2332788E+04  0.7818609E-02  0.8465104E-01
        2   -1    0    0  501    0  0.00000000000E+00  0.00000000000E+00  0.17799334949E+04  0.17799334949E+04  0.25500000920E-02 0.  1.
       -2   -1    0    0    0  501  0.00000000000E+00  0.00000000000E+00 -0.76434039757E+03  0.76434039757E+03  0.25500000920E-02 0. -1.
    10030    2    1    2    0    0  0.00000000000E+00  0.00000000000E+00  0.10155930973E+04  0.25442738925E+04  0.23327880959E+04 0.  0.
        1    1    3    3  502    0 -0.30038258060E+02 -0.64610175212E+03 -0.55083030246E+03  0.84956682679E+03  0.50400001928E-02 0. -1.
       -1    1    3    3    0  502  0.30038258060E+02  0.64610175212E+03  0.15664233998E+04  0.16947070657E+04  0.50400001928E-02 0.  1.
</event>
<event>
 5   0  0.6780150E-06  0.2990063E+04  0.7818609E-02  0.8246574E-01
       -2   -1    0    0    0  501  0.00000000000E+00  0.00000000000E+00  0.83966107065E+03  0.83966107065E+03  0.25500000920E-02 0. -1.
        2   -1    0    0  501    0  0.00000000000E+00  0.00000000000E+00 -0.26619300757E+04  0.26619300757E+04  0.25500000920E-02 0.  1.
    10030    2    1    2    0    0  0.00000000000E+00  0.00000000000E+00 -0.18222690050E+04  0.35015911463E+04  0.29900629139E+04 0.  0.
        5    1    3    3  502    0  0.12702297879E+04  0.30477699348E+03 -0.59604961763E+02  0.13076496363E+04  0.46999998093E+01 0. -1.
       -5    1    3    3    0  502 -0.12702297879E+04 -0.30477699348E+03 -0.17626640433E+04  0.21939415100E+04  0.46999998093E+01 0.  1.
</event>
<event>
 5   0  0.7193153E-06  0.2999019E+04  0.7818609E-02  0.8244011E-01
        2   -1    0    0  501    0  0.00000000000E+00  0.00000000000E+00  0.13017794427E+04  0.13017794427E+04  0.25500000920E-02 0. -1.
       -2   -1    0    0    0  501  0.00000000000E+00  0.00000000000E+00 -0.17272734930E+04  0.17272734930E+04  0.25500000920E-02 0.  1.
    10030    2    1    2    0    0  0.00000000000E+00  0.00000000000E+00 -0.42549405031E+03  0.30290529357E+04  0.29990192564E+04 0.  0.
        4    1    3    3  502    0 -0.18972177114E+03 -0.96346530270E+03 -0.13573513986E+04  0.16753101719E+04  0.12699999809E+01 0.  1.
       -4    1    3    3    0  502  0.18972177114E+03  0.96346530270E+03  0.93185734830E+03  0.13537427638E+04  0.12699999809E+01 0. -1.
</event>
<event>
 5   0  0.6792811E-06  0.2973890E+04  0.7818609E-02  0.8251226E-01
       -2   -1    0    0    0  501  0.00000000000E+00  0.00000000000E+00  0.86044160142E+03  0.86044160143E+03  0.25500000920E-02 0.  1.
        2   -1    0    0  501    0  0.00000000000E+00  0.00000000000E+00 -0.25696163667E+04  0.25696163667E+04  0.25500000920E-02 0. -1.
    10030    2    1    2    0    0  0.00000000000E+00  0.00000000000E+00 -0.17091747653E+04  0.34300579681E+04  0.29738895888E+04 0.  0.
        2    1    3    3  502    0  0.91401728634E+03 -0.46926780006E+03 -0.20943433691E+04  0.23327910356E+04  0.25500000920E-02 0. -1.
       -2    1    3    3    0  502 -0.91401728634E+03  0.46926780006E+03  0.38516860383E+03  0.10972669326E+04  0.25500000920E-02 0.  1.
</event>
<event>
 5   0  0.6780150E-06  0.2993745E+04  0.7818609E-02  0.8245519E-01
        2   -1    0    0  501    0  0.00000000000E+00  0.00000000000E+00  0.21460528936E+04  0.21460528936E+04  0.25500000920E-02 0. -1.
       -2   -1    0    0    0  501  0.00000000000E+00  0.00000000000E+00 -0.10440691512E+04  0.10440691512E+04  0.25500000920E-02 0.  1.
    10030    2    1    2    0    0  0.00000000000E+00  0.00000000000E+00  0.11019837424E+04  0.31901220448E+04  0.29937452284E+04 0.  0.
        5    1    3    3  502    0  0.50078796969E+03  0.12859474834E+04 -0.66829463578E+02  0.13816431478E+04  0.46999998093E+01 0.  1.
       -5    1    3    3    0  502 -0.50078796969E+03 -0.12859474834E+04  0.11688132059E+04  0.18084788970E+04  0.46999998093E+01 0. -1.
</event>
<event>
 5   0  0.6780150E-06  0.2852508E+04  0.7818609E-02  0.8287150E-01
        2   -1    0    0  501    0  0.00000000000E+00  0.00000000000E+00  0.21700515366E+04  0.21700515366E+04  0.25500000920E-02 0.  1.
       -2   -1    0    0    0  501  0.00000000000E+00  0.00000000000E+00 -0.93739740876E+03  0.93739740877E+03  0.25500000920E-02 0. -1.
    10030    2    1    2    0    0  0.00000000000E+00  0.00000000000E+00  0.12326541278E+04  0.31074489454E+04  0.28525081506E+04 0.  0.
        5    1    3    3  502    0 -0.13902344045E+03  0.26943682905E+03  0.21345313674E+04  0.21559614956E+04  0.46999998093E+01 0.  1.
       -5    1    3    3    0  502  0.13902344045E+03 -0.26943682905E+03 -0.90187723959E+03  0.95148744980E+03  0.46999998093E+01 0. -1.
</event>
<event>
 5   0  0.2422083E-06  0.3087186E+04  0.7818609E-02  0.8219263E-01
       -1   -1    0    0    0  501  0.00000000000E+00  0.00000000000E+00  0.14830038714E+04  0.14830038714E+04  0.50400001928E-02 0.  1.
        1   -1    0    0  501    0  0.00000000000E+00  0.00000000000E+00 -0.16066572543E+04  0.16066572543E+04  0.50400001928E-02 0. -1.
    10030    2    1    2    0    0  0.00000000000E+00  0.00000000000E+00 -0.12365338291E+03  0.30896611258E+04  0.30871857270E+04 0.  0.
        2    1    3    3  502    0  0.24114975661E+03  0.11423448069E+04  0.94872255103E+03  0.15043866995E+04  0.25500000920E-02 0.  1.
       -2    1    3    3    0  502 -0.24114975661E+03 -0.11423448069E+04 -0.10723759339E+04  0.15852744263E+04  0.25500000920E-02 0. -1.
</event>
<event>
 5   0  0.2422083E-06  0.2983833E+04  0.7818609E-02  0.8248363E-01
        1   -1    0    0  501    0  0.00000000000E+00  0.00000000000E+00  0.17218684538E+04  0.17218684538E+04  0.50400001928E-02 0. -1.
       -1   -1    0    0    0  501  0.00000000000E+00  0.00000000000E+00 -0.12926739991E+04  0.12926739991E+04  0.50400001928E-02 0.  1.
    10030    2    1    2    0    0  0.00000000000E+00  0.00000000000E+00  0.42919445464E+03  0.30145424529E+04  0.29838328238E+04 0.  0.
        2    1    3    3  502    0 -0.10583971218E+04  0.65271012270E+02 -0.84565588827E+03  0.13563180504E+04  0.25500000920E-02 0.  1.
       -2    1    3    3    0  502  0.10583971218E+04 -0.65271012270E+02  0.12748503429E+04  0.16582244026E+04  0.25500000920E-02 0. -1.
</event>
<event>
 5   0  0.2422083E-06  0.3017778E+04  0.7818609E-02  0.8238672E-01
        1   -1    0    0  501    0  0.00000000000E+00  0.00000000000E+00  0.89617874154E+03  0.89617874155E+03  0.50400001928E-02 0.  1.
       -1   -1    0    0    0  501  0.00000000000E+00  0.00000000000E+00 -0.25405050076E+04  0.25405050076E+04  0.50400001928E-02 0. -1.
    10030    2    1    2    0    0  0.00000000000E+00  0.00000000000E+00 -0.16443262660E+04  0.34366837491E+04  0.30177783753E+04 0.  0.
        2    1    3    3  502    0  0.13375368934E+04 -0.67829731674E+03 -0.63278306655E+03  0.16277305061E+04  0.25500000920E-02 0.  1.
       -2    1    3    3    0  502 -0.13375368934E+04  0.67829731674E+03 -0.10115431995E+04  0.18089532431E+04  0.25500000920E-02 0. -1.
</event>
<event>
 5   0  0.2672155E-06  0.3018483E+04  0.7818609E-02  0.8238472E-01
       -1   -1    0    0    0  501  0.00000000000E+00  0.00000000000E+00  0.11249536760E+04  0.11249536760E+04  0.50400001928E-02 0.  1.
        1   -1    0    0  501    0  0.00000000000E+00  0.00000000000E+00 -0.20248039257E+04  0.20248039257E+04  0.50400001928E-02 0. -1.
    10030    2    1    2    0    0  0.00000000000E+00  0.00000000000E+00 -0.89985024966E+03  0.31497576017E+04  0.30184834732E+04 0.  0.
        5    1    3    3  502    0 -0.10593287194E+04  0.99783519463E+03 -0.86723782869E+03  0.16941003373E+04  0.46999998093E+01 0. -1.
       -5    1    3    3    0  502  0.10593287194E+04 -0.99783519463E+03 -0.32612420968E+02  0.14556572644E+04  0.46999998093E+01 0.  1.
</event>
<event>
 5   0  0.7201538E-06  0.2896857E+04  0.7818609E-02  0.8273813E-01
        2   -1    0    0  501    0  0.00000000000E+00  0.00000000000E+00  0.18200225598E+04  0.18200225598E+04  0.25500000920E-02 0. -1.
       -2   -1    0    0    0  501  0.00000000000E+00  0.00000000000E+00 -0.11527030340E+04  0.11527030340E+04  0.25500000920E-02 0.  1.
    10030    2    1    2    0    0  0.00000000000E+00  0.00000000000E+00  0.66731952578E+03  0.29727255939E+04  0.28968572811E+04 0.  0.
        3    1    3    3  502    0  0.56552366882E+03 -0.13300325282E+04  0.23554200258E+03  0.14643372533E+04  0.10100000352E+00 0. -1.
       -3    1    3    3    0  502 -0.56552366882E+03  0.13300325282E+04  0.43177752320E+03  0.15083883406E+04  0.10100000352E+00 0.  1.
</event>
<event>
 5   0  0.2628425E-06  0.3294425E+04  0.7818609E-02  0.8164315E-01
        1   -1    0    0  501    0  0.00000000000E+00  0.00000000000E+00  0.11932710538E+04  0.11932710538E+04  0.50400001928E-02 0. -1.
       -1   -1    0    0    0  501  0.00000000000E+00  0.00000000000E+00 -0.22738415920E+04  0.22738415920E+04  0.50400001928E-02 0.  1.
    10030    2    1    2    0    0  0.00000000000E+00  0.00000000000E+00 -0.10805705382E+04  0.34671126458E+04  0.32944252019E+04 0.  0.
        1    1    3    3  502    0  0.92606199117E+03 -0.21694251243E+03 -0.19556426224E+04  0.21746707640E+04  0.50400001928E-02 0.  1.
       -1    1    3    3    0  502 -0.92606199117E+03  0.21694251243E+03  0.87507208423E+03  0.12924418818E+04  0.50400001928E-02 0. -1.
</event>
<event>
 5   0  0.2422083E-06  0.3195908E+04  0.7818609E-02  0.8189899E-01
       -1   -1    0    0    0  501  0.00000000000E+00  0.00000000000E+00  0.12622442992E+04  0.12622442992E+04  0.50400001928E-02 0. -1.
        1   -1    0    0  501    0  0.00000000000E+00  0.00000000000E+00 -0.20229496194E+04  0.20229496194E+04  0.50400001928E-02 0.  1.
    10030    2    1    2    0    0  0.00000000000E+00  0.00000000000E+00 -0.76070532026E+03  0.32851939186E+04  0.31959077738E+04 0.  0.
        2    1    3    3  502    0  0.10846676196E+04  0.27443273002E+03 -0.15531207064E+04  0.19141580648E+04  0.25500000920E-02 0.  1.
       -2    1    3    3    0  502 -0.10846676196E+04 -0.27443273002E+03  0.79241538616E+03  0.13710358538E+04  0.25500000920E-02 0. -1.
</event>
<event>
 5   0  0.2672155E-06  0.2754620E+04  0.7818609E-02  0.8317497E-01
       -1   -1    0    0    0  501  0.00000000000E+00  0.00000000000E+00  0.88562483304E+03  0.88562483306E+03  0.50400001928E-02 0.  1.
        1   -1    0    0  501    0  0.00000000000E+00  0.00000000000E+00 -0.21419717622E+04  0.21419717622E+04  0.50400001928E-02 0. -1.
    10030    2    1    2    0    0  0.00000000000E+00  0.00000000000E+00 -0.12563469291E+04  0.30275965952E+04  0.27546203980E+04 0.  0.
        5    1    3    3  502    0 -0.54720977484E+03 -0.65631878082E+03  0.55903936457E+03  0.10211464052E+04  0.46999998093E+01 0.  1.
       -5    1    3    3    0  502  0.54720977484E+03  0.65631878082E+03 -0.18153862937E+04  0.20064501900E+04  0.46999998093E+01 0. -1.
</event>
<event>
 5   0  0.6792811E-06  0.3029136E+04  0.7818609E-02  0.8235460E-01
        2   -1    0    0  501    0  0.00000000000E+00  0.00000000000E+00  0.14775916938E+04  0.14775916938E+04  0.25500000920E-02 0. -1.
       -2   -1    0    0    0  501  0.00000000000E+00  0.00000000000E+00 -0.15524695531E+04  0.15524695531E+04  0.25500000920E-02 0.  1.
    10030    2    1    2    0    0  0.00000000000E+00  0.00000000000E+00 -0.74877859360E+02  0.30300612469E+04  0.30291359273E+04 0.  0.
        2    1    3    3  502    0  0.31589866992E+03 -0.38374932962E+03 -0.14685613254E+04  0.15503960411E+04  0.25500000920E-02 0.  1.
       -2    1    3    3    0  502 -0.31589866992E+03  0.38374932962E+03  0.13936834661E+04  0.14796652058E+04  0.25500000920E-02 0. -1.
</event>
<event>
 5   0  0.7193153E-06  0.3004427E+04  0.7818609E-02  0.8242468E-01
       -2   -1    0    0    0  501  0.00000000000E+00  0.00000000000E+00  0.16264441675E+04  0.16264441675E+04  0.25500000920E-02 0. -1.
        2   -1    0    0  501    0  0.00000000000E+00  0.00000000000E+00 -0.13874720287E+04  0.13874720287E+04  0.25500000920E-02 0.  1.
    10030    2    1    2    0    0  0.00000000000E+00  0.00000000000E+00  0.23897213885E+03  0.30139161962E+04  0.30044272590E+04 0.  0.
        4    1    3    3  502    0 -0.39427587124E+03 -0.11727672804E+04 -0.73514807559E+03  0.14391945187E+04  0.12699999809E+01 0.  1.
       -4    1    3    3    0  502  0.39427587124E+03  0.11727672804E+04  0.97412021444E+03  0.15747216775E+04  0.12699999809E+01 0. -1.
</event>
<event>
 5   0  0.2552990E-06  0.2846739E+04  0.7818609E-02  0.8288903E-01
        1   -1    0    0  501    0  0.00000000000E+00  0.00000000000E+00  0.21486164614E+04  0.21486164614E+04  0.50400001928E-02 0. -1.
       -1   -1    0    0    0  501  0.00000000000E+00  0.00000000000E+00 -0.94292336686E+03  0.94292336688E+03  0.50400001928E-02 0.  1.
    10030    2    1    2    0    0  0.00000000000E+00  0.00000000000E+00  0.12056930945E+04  0.30915398283E+04  0.28467389539E+04 0.  0.
        3    1    3    3  502    0  0.13738486505E+04 -0.15533503878E+03  0.97014932274E+03  0.16890171128E+04  0.10100000352E+00 0. -1.
       -3    1    3    3    0  502 -0.13738486505E+04  0.15533503878E+03  0.23554377176E+03  0.14025227154E+04  0.10100000352E+00 0.  1.
</event>
<event>
 5   0  0.6792811E-06  0.2962631E+04  0.7818609E-02  0.8254483E-01
       -2   -1    0    0    0  501  0.00000000000E+00  0.00000000000E+00  0.20136709907E+04  0.20136709908E+04  0.25500000920E-02 0. -1.
        2   -1    0    0  501    0  0.00000000000E+00  0.00000000000E+00 -0.10896992164E+04  0.10896992164E+04  0.25500000920E-02 0.  1.
    10030    2    1    2    0    0  0.00000000000E+00  0.00000000000E+00  0.92397177435E+03  0.31033702071E+04  0.29626310609E+04 0.  0.
        2    1    3    3  502    0  0.12404240465E+03 -0.13539489137E+04 -0.15393581040E+03  0.13683056722E+04  0.25500000920E-02 0. -1.
       -2    1    3    3    0  502 -0.12404240465E+03  0.13539489137E+04  0.10779075848E+04  0.17350645349E+04  0.25500000920E-02 0.  1.
</event>
<event>
 5   0  0.2672155E-06  0.3453884E+04  0.7818609E-02  0.8124807E-01
        1   -1    0    0  501    0  0.00000000000E+00  0.00000000000E+00  0.90018645785E+03  0.90018645787E+03  0.50400001928E-02 0.  1.
       -1   -1    0    0    0  501  0.00000000000E+00  0.00000000000E+00 -0.33130119885E+04  0.33130119885E+04  0.50400001928E-02 0. -1.
    10030    2    1    2    0    0  0.00000000000E+00  0.00000000000E+00 -0.24128255306E+04  0.42131984464E+04  0.34538839163E+04 0.  0.
        5    1    3    3  502    0 -0.16095412466E+02 -0.12186503041E+04  0.28605927044E+03  0.12518864254E+04  0.46999998093E+01 0.  1.
       -5    1    3    3    0  502  0.16095412466E+02  0.12186503041E+04 -0.26988848011E+04  0.29613120210E+04  0.46999998093E+01 0. -1.
</event>
<event>
 5   0  0.2504260E-06  0.2498161E+04  0.7818609E-02  0.8403641E-01
        1   -1    0    0  501    0  0.00000000000E+00  0.00000000000E+00  0.11015910433E+04  0.11015910433E+04  0.50400001928E-02 0.  1.
       -1   -1    0    0    0  501  0.00000000000E+00  0.00000000000E+00 -0.14163170978E+04  0.14163170979E+04  0.50400001928E-02 0. -1.
    10030    2    1    2    0    0  0.00000000000E+00  0.00000000000E+00 -0.31472605455E+03  0.25179081412E+04  0.24981611073E+04 0.  0.
        4    1    3    3  502    0 -0.84678612022E+03  0.40451910364E+03  0.67348191196E+03  0.11551025657E+04  0.12699999809E+01 0.  1.
       -4    1    3    3    0  502  0.84678612022E+03 -0.40451910364E+03 -0.98820796650E+03  0.13628055755E+04  0.12699999809E+01 0. -1.
</event>
<event>
 5   0  0.2422083E-06  0.2988138E+04  0.7818609E-02  0.8247126E-01
        1   -1    0    0  501    0  0.00000000000E+00  0.00000000000E+00  0.13543464798E+04  0.13543464798E+04  0.50400001928E-02 0. -1.
       -1   -1    0    0    0  501  0.00000000000E+00  0.00000000000E+00 -0.16482064529E+04  0.16482064529E+04  0.50400001928E-02 0.  1.
    10030    2    1    2    0    0  0.00000000000E+00  0.00000000000E+00 -0.29385997310E+03  0.30025529326E+04  0.29881382882E+04 0.  0.
        2    1    3    3  502    0 -0.14413553952E+04 -0.29379663074E+03  0.11590547799E+03  0.14755527491E+04  0.25500000920E-02 0.  1.
       -2    1    3    3    0  502  0.14413553952E+04  0.29379663074E+03 -0.40976545110E+03  0.15270001835E+04  0.25500000920E-02 0. -1.
</event>
<event>
 5   0  0.2672155E-06  0.2982887E+04  0.7818609E-02  0.8248635E-01
        1   -1    0    0  501    0  0.00000000000E+00  0.00000000000E+00  0.16166547247E+04  0.16166547247E+04  0.50400001928E-02 0.  1.
       -1   -1    0    0    0  501  0.00000000000E+00  0.00000000000E+00 -0.13759297909E+04  0.13759297909E+04  0.50400001928E-02 0. -1.
    10030    2    1    2    0    0  0.00000000000E+00  0.00000000000E+00  0.24072493380E+03  0.29925845156E+04  0.29828867878E+04 0.  0.
        5    1    3    3  502    0 -0.13171998685E+04  0.67050060800E+03 -0.79772297756E+02  0.14801933213E+04  0.46999998093E+01 0.  1.
       -5    1    3    3    0  502  0.13171998685E+04 -0.67050060800E+03  0.32049723156E+03  0.15123911942E+04  0.46999998093E+01 0. -1.
</event>
<event>
 5   0  0.2628425E-06  0.3001350E+04  0.7818609E-02  0.8243345E-01
        1   -1    0    0  501    0  0.00000000000E+00  0.00000000000E+00  0.23847130668E+04  0.23847130668E+04  0.50400001928E-02 0. -1.
       -1   -1    0    0    0  501  0.00000000000E+00  0.00000000000E+00 -0.94435922455E+03  0.94435922456E+03  0.50400001928E-02 0.  1.
    10030    2    1    2    0    0  0.00000000000E+00  0.00000000000E+00  0.14403538423E+04  0.33290722914E+04  0.30013502179E+04 0.  0.
        1    1    3    3  502    0 -0.41808272275E+03  0.45738539651E+03 -0.79582103639E+03  0.10086256421E+04  0.50400001928E-02 0.  1.
       -1    1    3    3    0  502  0.41808272275E+03 -0.45738539651E+03  0.22361748787E+04  0.23204466492E+04  0.50400001928E-02 0. -1.
</event>
<event>
 5   0  0.7201538E-06  0.2956342E+04  0.7818609E-02  0.8256309E-01
        2   -1    0    0  501    0  0.00000000000E+00  0.00000000000E+00  0.20615686586E+04  0.20615686586E+04  0.25500000920E-02 0.  1.
       -2   -1    0    0    0  501  0.00000000000E+00  0.00000000000E+00 -0.10598673564E+04  0.10598673564E+04  0.25500000920E-02 0. -1.
    10030    2    1    2    0    0  0.00000000000E+00  0.00000000000E+00  0.10017013021E+04  0.31214360150E+04  0.29563418776E+04 0.  0.
        3    1    3    3  502    0  0.14179063761E+04  0.18902175855E+03  0.89421682709E+03  0.16869533072E+04  0.10100000352E+00 0. -1.
       -3    1    3    3    0  502 -0.14179063761E+04 -0.18902175855E+03  0.10748447504E+03  0.14344827078E+04  0.10100000352E+00 0.  1.
</event>
<event>
 5   0  0.7201538E-06  0.2950349E+04  0.7818609E-02  0.8258053E-01
        2   -1    0    0  501    0  0.00000000000E+00  0.00000000000E+00  0.29534037885E+04  0.29534037885E+04  0.25500000920E-02 0. -1.
       -2   -1    0    0    0  501  0.00000000000E+00  0.00000000000E+00 -0.73682415267E+03  0.73682415268E+03  0.25500000920E-02 0.  1.
    10030    2    1    2    0    0  0.00000000000E+00  0.00000000000E+00  0.22165796358E+04  0.36902279412E+04  0.29503486194E+04 0.  0.
        3    1    3    3  502    0  0.43262284059E+03 -0.63512437555E+03  0.26832726271E+04  0.27911462692E+04  0.10100000352E+00 0. -1.
       -3    1    3    3    0  502 -0.43262284059E+03  0.63512437555E+03 -0.46669299125E+03  0.89908167199E+03  0.10100000352E+00 0.  1.
</event>
<event>
 5   0  0.2672155E-06  0.2908078E+04  0.7818609E-02  0.8270478E-01
        1   -1    0    0  501    0  0.00000000000E+00  0.00000000000E+00  0.11959167804E+04  0.11959167804E+04  0.50400001928E-02 0. -1.
       -1   -1    0    0    0  501  0.00000000000E+00  0.00000000000E+00 -0.17678730312E+04  0.17678730312E+04  0.50400001928E-02 0.  1.
    10030    2    1    2    0    0  0.00000000000E+00  0.00000000000E+00 -0.57195625079E+03  0.29637898116E+04  0.29080777318E+04 0.  0.
        5    1    3    3  502    0  0.72633119237E+03  0.76275309942E+03  0.73565192702E+03  0.12847393274E+04  0.46999998093E+01 0. -1.
       -5    1    3    3    0  502 -0.72633119237E+03 -0.76275309942E+03 -0.13076081778E+04  0.16790504842E+04  0.46999998093E+01 0.  1.
</event>
<event>
 5   0  0.2552990E-06  0.3037894E+04  0.7818609E-02  0.8232992E-01
       -1   -1    0    0    0  501  0.00000000000E+00  0.00000000000E+00  0.11397812663E+04  0.11397812663E+04  0.50400001928E-02 0. -1.
        1   -1    0    0  501    0  0.00000000000E+00  0.00000000000E+00 -0.20242473691E+04  0.20242473691E+04  0.50400001928E-02 0.  1.
    10030    2    1    2    0    0  0.00000000000E+00  0.00000000000E+00 -0.88446610278E+03  0.31640286354E+04  0.30378935002E+04 0.  0.
        3    1    3    3  502    0 -0.53878243638E+03  0.25723751844E+03  0.10124478249E+04  0.11753757965E+04  0.10100000352E+00 0. -1.
       -3    1    3    3    0  502  0.53878243638E+03 -0.25723751844E+03 -0.18969139277E+04  0.19886528389E+04  0.10100000352E+00 0.  1.
</event>
<event>
 5   0  0.2552990E-06  0.2997490E+04  0.7818609E-02  0.8244448E-01
       -1   -1    0    0    0  501  0.00000000000E+00  0.00000000000E+00  0.12346931773E+04  0.12346931773E+04  0.50400001928E-02 0.  1.
        1   -1    0    0  501    0  0.00000000000E+00  0.00000000000E+00 -0.18192671719E+04  0.18192671719E+04  0.50400001928E-02 0. -1.
    10030    2    1    2    0    0  0.00000000000E+00  0.00000000000E+00 -0.58457399457E+03  0.30539603492E+04  0.29974901267E+04 0.  0.
        3    1    3    3  502    0  0.10897892949E+04 -0.23158451410E+03  0.72907813544E+03  0.13314755094E+04  0.10100000352E+00 0.  1.
       -3    1    3    3    0  502 -0.10897892949E+04  0.23158451410E+03 -0.13136521300E+04  0.17224848398E+04  0.10100000352E+00 0. -1.
</event>
<event>
 5   0  0.6792811E-06  0.3076775E+04  0.7818609E-02  0.8222141E-01
       -2   -1    0    0    0  501  0.00000000000E+00  0.00000000000E+00  0.95736234052E+03  0.95736234052E+03  0.25500000920E-02 0. -1.
        2   -1    0    0  501    0  0.00000000000E+00  0.00000000000E+00 -0.24720376620E+04  0.24720376620E+04  0.25500000920E-02 0.  1.
    10030    2    1    2    0    0  0.00000000000E+00  0.00000000000E+00 -0.15146753215E+04  0.34294000025E+04  0.30767747801E+04 0.  0.
        2    1    3    3  502    0  0.28821074927E+03 -0.14545711997E+04 -0.30076564103E+03  0.15130442101E+04  0.25500000920E-02 0. -1.
       -2    1    3    3    0  502 -0.28821074927E+03  0.14545711997E+04 -0.12139096804E+04  0.19163557924E+04  0.25500000920E-02 0.  1.
</event>
<event>
 5   0  0.6792811E-06  0.2937324E+04  0.7818609E-02  0.8261858E-01
        2   -1    0    0  501    0  0.00000000000E+00  0.00000000000E+00  0.13856255611E+04  0.13856255611E+04  0.25500000920E-02 0. -1.
       -2   -1    0    0    0  501  0.00000000000E+00  0.00000000000E+00 -0.15566740761E+04  0.15566740761E+04  0.25500000920E-02 0.  1.
    10030    2    1    2    0    0  0.00000000000E+00  0.00000000000E+00 -0.17104851504E+03  0.29422996372E+04  0.29373235370E+04 0.  0.
        2    1    3    3  502    0  0.23266119468E+03  0.32775817036E+02  0.13666772086E+04  0.13867271102E+04  0.25500000920E-02 0. -1.
       -2    1    3    3    0  502 -0.23266119468E+03 -0.32775817036E+02 -0.15377257236E+04  0.15555725270E+04  0.25500000920E-02 0.  1.
</event>
<event>
 5   0  0.2504260E-06  0.2949890E+04  0.7818609E-02  0.8258187E-01
       -1   -1    0    0    0  501  0.00000000000E+00  0.00000000000E+00  0.91551614842E+03  0.91551614843E+03  0.50400001928E-02 0. -1.
        1   -1    0    0  501    0  0.00000000000E+00  0.00000000000E+00 -0.23762146372E+04  0.23762146372E+04  0.50400001928E-02 0.  1.
    10030    2    1    2    0    0  0.00000000000E+00  0.00000000000E+00 -0.14606984888E+04  0.32917307856E+04  0.29498900810E+04 0.  0.
        4    1    3    3  502    0  0.89854150768E+03  0.17477104158E+03  0.56019168908E+03  0.10731906165E+04  0.12699999809E+01 0. -1.
       -4    1    3    3    0  502 -0.89854150768E+03 -0.17477104158E+03 -0.20208901779E+04  0.22185401691E+04  0.12699999809E+01 0.  1.
</event>
<event>
 5   0  0.7217255E-06  0.2859639E+04  0.7818609E-02  0.8284988E-01
       -2   -1    0    0    0  501  0.00000000000E+00  0.00000000000E+00  0.20072689330E+04  0.20072689330E+04  0.25500000920E-02 0. -1.
        2   -1    0    0  501    0  0.00000000000E+00  0.00000000000E+00 -0.10184899098E+04  0.10184899098E+04  0.25500000920E-02 0.  1.
    10030    2    1    2    0    0  0.00000000000E+00  0.00000000000E+00  0.98877902322E+03  0.30257588427E+04  0.28596385467E+04 0.  0.
        1    1    3    3  502    0 -0.11706733650E+04 -0.50363347234E+03  0.11803235883E+04  0.17370338440E+04  0.50400001928E-02 0. -1.
       -1    1    3    3    0  502  0.11706733650E+04  0.50363347234E+03 -0.19154456508E+03  0.12887249988E+04  0.50400001928E-02 0.  1.
</event>
<event>
 5   0  0.6780150E-06  0.2977446E+04  0.7818609E-02  0.8250201E-01
       -2   -1    0    0    0  501  0.00000000000E+00  0.00000000000E+00  0.89917745060E+03  0.89917745061E+03  0.25500000920E-02 0. -1.
        2   -1    0    0  501    0  0.00000000000E+00  0.00000000000E+00 -0.24648038274E+04  0.24648038274E+04  0.25500000920E-02 0.  1.
    10030    2    1    2    0    0  0.00000000000E+00  0.00000000000E+00 -0.15656263768E+04  0.33639812780E+04  0.29774458999E+04 0.  0.
        5    1    3    3  502    0  0.10396052272E+04 -0.11159540878E+03 -0.19801258302E+04  0.22392304386E+04  0.46999998093E+01 0.  1.
       -5    1    3    3    0  502 -0.10396052272E+04  0.11159540878E+03  0.41449945347E+03  0.11247508394E+04  0.46999998093E+01 0. -1.
</event>
<event>
 5   0  0.6780150E-06  0.3004353E+04  0.7818609E-02  0.8242489E-01
       -2   -1    0    0    0  501  0.00000000000E+00  0.00000000000E+00  0.15556858857E+04  0.15556858857E+04  0.25500000920E-02 0. -1.
        2   -1    0    0  501    0  0.00000000000E+00  0.00000000000E+00 -0.14505073757E+04  0.14505073757E+04  0.25500000920E-02 0.  1.
    10030    2    1    2    0    0  0.00000000000E+00  0.00000000000E+00  0.10517851001E+03  0.30061932613E+04  0.30043527432E+04 0.  0.
        5    1    3    3  502    0 -0.99097643227E+03 -0.48271541184E+03  0.10737355377E+04  0.15388237564E+04  0.46999998093E+01 0. -1.
       -5    1    3    3    0  502  0.99097643227E+03  0.48271541184E+03 -0.96855702774E+03  0.14673695050E+04  0.46999998093E+01 0.  1.
</event>
<event>
 5   0  0.6792811E-06  0.3002427E+04  0.7818609E-02  0.8243038E-01
       -2   -1    0    0    0  501  0.00000000000E+00  0.00000000000E+00  0.11856123744E+04  0.11856123744E+04  0.25500000920E-02 0.  1.
        2   -1    0    0  501    0  0.00000000000E+00  0.00000000000E+00 -0.19008257939E+04  0.19008257939E+04  0.25500000920E-02 0. -1.
    10030    2    1    2    0    0  0.00000000000E+00  0.00000000000E+00 -0.71521341952E+03  0.30864381684E+04  0.30024274066E+04 0.  0.
        2    1    3    3  502    0 -0.43170721232E+03  0.80330414328E+02  0.11181165974E+04  0.12012530200E+04  0.25500000920E-02 0.  1.
       -2    1    3    3    0  502  0.43170721232E+03 -0.80330414328E+02 -0.18333300169E+04  0.18851851484E+04  0.25500000920E-02 0. -1.
</event>
<event>
 5   0  0.2672155E-06  0.3001936E+04  0.7818609E-02  0.8243178E-01
       -1   -1    0    0    0  501  0.00000000000E+00  0.00000000000E+00  0.14181448081E+04  0.14181448081E+04  0.50400001928E-02 0.  1.
        1   -1    0    0  501    0  0.00000000000E+00  0.00000000000E+00 -0.15886287313E+04  0.15886287313E+04  0.50400001928E-02 0. -1.
    10030    2    1    2    0    0  0.00000000000E+00  0.00000000000E+00 -0.17048392320E+03  0.30067735393E+04  0.30019364332E+04 0.  0.
        5    1    3    3  502    0 -0.11370013602E+04  0.74013132368E+03 -0.72839579608E+03  0.15398535629E+04  0.46999998093E+01 0. -1.
       -5    1    3    3    0  502  0.11370013602E+04 -0.74013132368E+03  0.55791187288E+03  0.14669199764E+04  0.46999998093E+01 0.  1.
</event>
<event>
 5   0  0.7201538E-06  0.2994757E+04  0.7818609E-02  0.8245230E-01
       -2   -1    0    0    0  501  0.00000000000E+00  0.00000000000E+00  0.19038248620E+04  0.19038248620E+04  0.25500000920E-02 0. -1.
        2   -1    0    0  501    0  0.00000000000E+00  0.00000000000E+00 -0.11777039413E+04  0.11777039413E+04  0.25500000920E-02 0.  1.
    10030    2    1    2    0    0  0.00000000000E+00  0.00000000000E+00  0.72612092068E+03  0.30815288033E+04  0.29947567804E+04 0.  0.
        3    1    3    3  502    0  0.77729617316E+03  0.12045998265E+04 -0.81775586756E+02  0.14359447551E+04  0.10100000352E+00 0.  1.
       -3    1    3    3    0  502 -0.77729617316E+03 -0.12045998265E+04  0.80789650744E+03  0.16455840482E+04  0.10100000352E+00 0. -1.
</event>
<event>
 5   0  0.2552990E-06  0.3015728E+04  0.7818609E-02  0.8239254E-01
       -1   -1    0    0    0  501  0.00000000000E+00  0.00000000000E+00  0.12225857995E+04  0.12225857995E+04  0.50400001928E-02 0. -1.
        1   -1    0    0  501    0  0.00000000000E+00  0.00000000000E+00 -0.18597092963E+04  0.18597092963E+04  0.50400001928E-02 0.  1.
    10030    2    1    2    0    0  0.00000000000E+00  0.00000000000E+00 -0.63712349682E+03  0.30822950957E+04  0.30157282217E+04 0.  0.
        3    1    3    3  502    0  0.48299451079E+03  0.12535118269E+04  0.38144916490E+03  0.13964523169E+04  0.10100000352E+00 0. -1.
       -3    1    3    3    0  502 -0.48299451079E+03 -0.12535118269E+04 -0.10185726617E+04  0.16858427789E+04  0.10100000352E+00 0.  1.
</event>
<event>
 5   0  0.7193153E-06  0.3057310E+04  0.7818609E-02  0.8227552E-01
        2   -1    0    0  501    0  0.00000000000E+00  0.00000000000E+00  0.25534550602E+04  0.25534550602E+04  0.25500000920E-02 0.  1.
       -2   -1    0    0    0  501  0.00000000000E+00  0.00000000000E+00 -0.91514701533E+03  0.91514701533E+03  0.25500000920E-02 0. -1.
    10030    2    1    2    0    0  0.00000000000E+00  0.00000000000E+00  0.16383080449E+04  0.34686020755E+04  0.30573104371E+04 0.  0.
        4    1    3    3  502    0 -0.74674004585E+03  0.10346724726E+04  0.17741924119E+04  0.21853897019E+04  0.12699999809E+01 0.  1.
       -4    1    3    3    0  502  0.74674004585E+03 -0.10346724726E+04 -0.13588436707E+03  0.12832123736E+04  0.12699999809E+01 0. -1.
</event>
<event>
 5   0  0.2422083E-06  0.3063538E+04  0.7818609E-02  0.8225816E-01
       -1   -1    0    0    0  501  0.00000000000E+00  0.00000000000E+00  0.88975687855E+03  0.88975687856E+03  0.50400001928E-02 0. -1.
        1   -1    0    0  501    0  0.00000000000E+00  0.00000000000E+00 -0.26370307074E+04  0.26370307074E+04  0.50400001928E-02 0.  1.
    10030    2    1    2    0    0  0.00000000000E+00  0.00000000000E+00 -0.17472738288E+04  0.35267875860E+04  0.30635379618E+04 0.  0.
        2    1    3    3  502    0  0.11747884412E+03 -0.51625073609E+02  0.88355824266E+03  0.89282786427E+03  0.25500000920E-02 0. -1.
       -2    1    3    3    0  502 -0.11747884412E+03  0.51625073609E+02 -0.26308320715E+04  0.26339597217E+04  0.25500000920E-02 0.  1.
</event>
<event>
 5   0  0.2628425E-06  0.2992832E+04  0.7818609E-02  0.8245781E-01
        1   -1    0    0  501    0  0.00000000000E+00  0.00000000000E+00  0.25160912459E+04  0.25160912459E+04  0.50400001928E-02 0. -1.
       -1   -1    0    0    0  501  0.00000000000E+00  0.00000000000E+00 -0.88997602080E+03  0.88997602081E+03  0.50400001928E-02 0.  1.
    10030    2    1    2    0    0  0.00000000000E+00  0.00000000000E+00  0.16261152251E+04  0.34060672668E+04  0.29928320201E+04 0.  0.
        1    1    3    3  502    0  0.10852920338E+04 -0.67391887108E+03 -0.73790877731E+02  0.12796368771E+04  0.50400001928E-02 0. -1.
       -1    1    3    3    0  502 -0.10852920338E+04  0.67391887108E+03  0.16999061029E+04  0.21264303897E+04  0.50400001928E-02 0.  1.
</event>
<event>
 5   0  0.6780150E-06  0.2993509E+04  0.7818609E-02  0.8245587E-01
       -2   -1    0    0    0  501  0.00000000000E+00  0.00000000000E+00  0.10123390270E+04  0.10123390270E+04  0.25500000920E-02 0. -1.
        2   -1    0    0  501    0  0.00000000000E+00  0.00000000000E+00 -0.22129685033E+04  0.22129685033E+04  0.25500000920E-02 0.  1.
    10030    2    1    2    0    0  0.00000000000E+00  0.00000000000E+00 -0.12006294763E+04  0.32253075303E+04  0.29935092325E+04 0.  0.
        5    1    3    3  502    0 -0.25206082289E+03  0.14251351300E+04 -0.18904053140E+03  0.14595558261E+04  0.46999998093E+01 0. -1.
       -5    1    3    3    0  502  0.25206082289E+03 -0.14251351300E+04 -0.10115889449E+04  0.17657517041E+04  0.46999998093E+01 0.  1.
</event>
<event>
 5   0  0.2672155E-06  0.3041296E+04  0.7818609E-02  0.8232036E-01
        1   -1    0    0  501    0  0.00000000000E+00  0.00000000000E+00  0.99649317794E+03  0.99649317795E+03  0.50400001928E-02 0.  1.
       -1   -1    0    0    0  501  0.00000000000E+00  0.00000000000E+00 -0.23205076492E+04  0.23205076492E+04  0.50400001928E-02 0. -1.
    10030    2    1    2    0    0  0.00000000000E+00  0.00000000000E+00 -0.13240144712E+04  0.33170008271E+04  0.30412958040E+04 0.  0.
        5    1    3    3  502    0  0.11879421145E+04  0.91224996951E+03 -0.37563743943E+03  0.15441930094E+04  0.46999998093E+01 0.  1.
       -5    1    3    3    0  502 -0.11879421145E+04 -0.91224996951E+03 -0.94837703181E+03  0.17728078178E+04  0.46999998093E+01 0. -1.
</event>
<event>
 5   0  0.7201538E-06  0.2915770E+04  0.7818609E-02  0.8268201E-01
        2   -1    0    0  501    0  0.00000000000E+00  0.00000000000E+00  0.18917142140E+04  0.18917142140E+04  0.25500000920E-02 0.  1.
       -2   -1    0    0    0  501  0.00000000000E+00  0.00000000000E+00 -0.11235464400E+04  0.11235464400E+04  0.25500000920E-02 0. -1.
    10030    2    1    2    0    0  0.00000000000E+00  0.00000000000E+00  0.76816777398E+03  0.30152606540E+04  0.29157700669E+04 0.  0.
        3    1    3    3  502    0  0.14262907762E+04 -0.15142149591E+03  0.65413599819E+03  0.15764288002E+04  0.10100000352E+00 0.  1.
       -3    1    3    3    0  502 -0.14262907762E+04  0.15142149591E+03  0.11403177579E+03  0.14388318539E+04  0.10100000352E+00 0. -1.
</event>
<event>
 5   0  0.7217255E-06  0.3110436E+04  0.7818609E-02  0.8212880E-01
        2   -1    0    0  501    0  0.00000000000E+00  0.00000000000E+00  0.21252442526E+04  0.21252442526E+04  0.25500000920E-02 0. -1.
       -2   -1    0    0    0  501  0.00000000000E+00  0.00000000000E+00 -0.11380825894E+04  0.11380825894E+04  0.25500000920E-02 0.  1.
    10030    2    1    2    0    0  0.00000000000E+00  0.00000000000E+00  0.98716166324E+03  0.32633268421E+04  0.31104362923E+04 0.  0.
        1    1    3    3  502    0 -0.32271818194E+03  0.13031558698E+04 -0.33008277106E+03  0.13825038451E+04  0.50400001928E-02 0.  1.
       -1    1    3    3    0  502  0.32271818194E+03 -0.13031558698E+04  0.13172444343E+04  0.18808229969E+04  0.50400001928E-02 0. -1.
</event>
<event>
 5   0  0.2422083E-06  0.3012162E+04  0.7818609E-02  0.8240266E-01
        1   -1    0    0  501    0  0.00000000000E+00  0.00000000000E+00  0.13679148598E+04  0.13679148598E+04  0.50400001928E-02 0. -1.
       -1   -1    0    0    0  501  0.00000000000E+00  0.00000000000E+00 -0.16582029625E+04  0.16582029625E+04  0.50400001928E-02 0.  1.
    10030    2    1    2    0    0  0.00000000000E+00  0.00000000000E+00 -0.29028810268E+03  0.30261178222E+04  0.30121623282E+04 0.  0.
        2    1    3    3  502    0 -0.27269275836E+03 -0.14277637276E+04  0.25090297775E+03  0.14750670855E+04  0.25500000920E-02 0. -1.
       -2    1    3    3    0  502  0.27269275836E+03  0.14277637276E+04 -0.54119108044E+03  0.15510507368E+04  0.25500000920E-02 0.  1.
</event>
<event>
 5   0  0.2422083E-06  0.3054413E+04  0.7818609E-02  0.8228361E-01
       -1   -1    0    0    0  501  0.00000000000E+00  0.00000000000E+00  0.10295153151E+04  0.10295153151E+04  0.50400001928E-02 0. -1.
        1   -1    0    0  501    0  0.00000000000E+00  0.00000000000E+00 -0.22654925707E+04  0.22654925707E+04  0.50400001928E-02 0.  1.
    10030    2    1    2    0    0  0.00000000000E+00  0.00000000000E+00 -0.12359772556E+04  0.32950078859E+04  0.30544127409E+04 0.  0.
        2    1    3    3  502    0  0.14271380011E+04  0.27157391921E+02 -0.32167120662E+02  0.14277587758E+04  0.25500000920E-02 0. -1.
       -2    1    3    3    0  502 -0.14271380011E+04 -0.27157391921E+02 -0.12038101349E+04  0.18672491101E+04  0.25500000920E-02 0.  1.
</event>
<event>
 5   0  0.7201538E-06  0.3040429E+04  0.7818609E-02  0.8232279E-01
        2   -1    0    0  501    0  0.00000000000E+00  0.00000000000E+00  0.22275191194E+04  0.22275191194E+04  0.25500000920E-02 0.  1.
       -2   -1    0    0    0  501  0.00000000000E+00  0.00000000000E+00 -0.10375006410E+04  0.10375006410E+04  0.25500000920E-02 0. -1.
    10030    2    1    2    0    0  0.00000000000E+00  0.00000000000E+00  0.11900184784E+04  0.32650197604E+04  0.30404292554E+04 0.  0.
        3    1    3    3  502    0 -0.46169182910E+03 -0.14923531525E+03 -0.95211447071E+03  0.10686217759E+04  0.10100000352E+00 0. -1.
       -3    1    3    3    0  502  0.46169182910E+03  0.14923531525E+03  0.21421329491E+04  0.21963979845E+04  0.10100000352E+00 0.  1.
</event>
<event>
 5   0  0.6780150E-06  0.3049447E+04  0.7818609E-02  0.8229750E-01
        2   -1    0    0  501    0  0.00000000000E+00  0.00000000000E+00  0.17528056189E+04  0.17528056189E+04  0.25500000920E-02 0. -1.
       -2   -1    0    0    0  501  0.00000000000E+00  0.00000000000E+00 -0.13263201564E+04  0.13263201565E+04  0.25500000920E-02 0.  1.
    10030    2    1    2    0    0  0.00000000000E+00  0.00000000000E+00  0.42648546249E+03  0.30791257754E+04  0.30494467844E+04 0.  0.
        5    1    3    3  502    0  0.32542837101E+03 -0.13898251779E+04  0.75440823077E+03  0.16145189743E+04  0.46999998093E+01 0. -1.
       -5    1    3    3    0  502 -0.32542837101E+03  0.13898251779E+04 -0.32792276828E+03  0.14646068011E+04  0.46999998093E+01 0.  1.
</event>
<event>
 5   0  0.2504260E-06  0.2985579E+04  0.7818609E-02  0.8247861E-01
        1   -1    0    0  501    0  0.00000000000E+00  0.00000000000E+00  0.15225936022E+04  0.15225936022E+04  0.50400001928E-02 0. -1.
       -1   -1    0    0    0  501  0.00000000000E+00  0.00000000000E+00 -0.14635683368E+04  0.14635683368E+04  0.50400001928E-02 0.  1.
    10030    2    1    2    0    0  0.00000000000E+00  0.00000000000E+00  0.59025265386E+02  0.29861619390E+04  0.29855785275E+04 0.  0.
        4    1    3    3  502    0  0.92432386728E+03 -0.67632637754E+02  0.11999846126E+04  0.15162168277E+04  0.12699999809E+01 0. -1.
       -4    1    3    3    0  502 -0.92432386728E+03  0.67632637754E+02 -0.11409593472E+04  0.14699451113E+04  0.12699999809E+01 0.  1.
</event>
<event>
 5   0  0.2504260E-06  0.3003802E+04  0.7818609E-02  0.8242646E-01
        1   -1    0    0  501    0  0.00000000000E+00  0.00000000000E+00  0.11094536211E+04  0.11094536211E+04  0.50400001928E-02 0. -1.
       -1   -1    0    0    0  501  0.00000000000E+00  0.00000000000E+00 -0.20331683568E+04  0.20331683568E+04  0.50400001928E-02 0.  1.
    10030    2    1    2    0    0  0.00000000000E+00  0.00000000000E+00 -0.92371473573E+03  0.31426219779E+04  0.30038015885E+04 0.  0.
        4    1    3    3  502    0  0.85877661847E+02  0.13886698926E+04 -0.10536168430E+04  0.17452475779E+04  0.12699999809E+01 0.  1.
       -4    1    3    3    0  502 -0.85877661847E+02 -0.13886698926E+04  0.12990210731E+03  0.13973744000E+04  0.12699999809E+01 0. -1.
</event>
<event>
 5   0  0.2628425E-06  0.3018385E+04  0.7818609E-02  0.8238500E-01
       -1   -1    0    0    0  501  0.00000000000E+00  0.00000000000E+00  0.12932584050E+04  0.12932584050E+04  0.50400001928E-02 0. -1.
        1   -1    0    0  501    0  0.00000000000E+00  0.00000000000E+00 -0.17611812269E+04  0.17611812269E+04  0.50400001928E-02 0.  1.
    10030    2    1    2    0    0  0.00000000000E+00  0.00000000000E+00 -0.46792282183E+03  0.30544396319E+04  0.30183852799E+04 0.  0.
        1    1    3    3  502    0 -0.20004027726E+03  0.10894690523E+04 -0.12712436949E+04  0.16861255767E+04  0.50400001928E-02 0.  1.
       -1    1    3    3    0  502  0.20004027726E+03 -0.10894690523E+04  0.80332087311E+03  0.13683140552E+04  0.50400001928E-02 0. -1.
</event>
<event>
 5   0  0.2628425E-06  0.3003466E+04  0.7818609E-02  0.8242742E-01
       -1   -1    0    0    0  501  0.00000000000E+00  0.00000000000E+00  0.19831864071E+04  0.19831864071E+04  0.50400001928E-02 0. -1.
        1   -1    0    0  501    0  0.00000000000E+00  0.00000000000E+00 -0.11371606655E+04  0.11371606655E+04  0.50400001928E-02 0.  1.
    10030    2    1    2    0    0  0.00000000000E+00  0.00000000000E+00  0.84602574159E+03  0.31203470726E+04  0.30034657145E+04 0.  0.
        1    1    3    3  502    0 -0.84143812103E+03 -0.45452169548E+03 -0.77988505866E+03  0.12340294923E+04  0.50400001928E-02 0.  1.
       -1    1    3    3    0  502  0.84143812103E+03  0.45452169548E+03  0.16259108003E+04  0.18863175803E+04  0.50400001928E-02 0. -1.
</event>
<event>
 5   0  0.2422083E-06  0.2941584E+04  0.7818609E-02  0.8260612E-01
        1   -1    0    0  501    0  0.00000000000E+00  0.00000000000E+00  0.18911379777E+04  0.18911379777E+04  0.50400001928E-02 0. -1.
       -1   -1    0    0    0  501  0.00000000000E+00  0.00000000000E+00 -0.11438766516E+04  0.11438766516E+04  0.50400001928E-02 0.  1.
    10030    2    1    2    0    0  0.00000000000E+00  0.00000000000E+00  0.74726132615E+03  0.30350146293E+04  0.29415836399E+04 0.  0.
        2    1    3    3  502    0  0.92727144370E+03  0.10872033377E+04  0.14160898783E+02  0.14290010353E+04  0.25500000920E-02 0.  1.
       -2    1    3    3    0  502 -0.92727144370E+03 -0.10872033377E+04  0.73310042736E+03  0.16060135941E+04  0.25500000920E-02 0. -1.
</event>
<event>
 5   0  0.2672155E-06  0.3013092E+04  0.7818609E-02  0.8240002E-01
       -1   -1    0    0    0  501  0.00000000000E+00  0.00000000000E+00  0.77008998260E+03  0.77008998261E+03  0.50400001928E-02 0.  1.
        1   -1    0    0  501    0  0.00000000000E+00  0.00000000000E+00 -0.29472934430E+04  0.29472934430E+04  0.50400001928E-02 0. -1.
    10030    2    1    2    0    0  0.00000000000E+00  0.00000000000E+00 -0.21772034604E+04  0.37173834256E+04  0.30130922032E+04 0.  0.
        5    1    3    3  502    0  0.14230148657E+04 -0.48577817531E+03 -0.97347736379E+03  0.17912654777E+04  0.46999998093E+01 0.  1.
       -5    1    3    3    0  502 -0.14230148657E+04  0.48577817531E+03 -0.12037260966E+04  0.19261179479E+04  0.46999998093E+01 0. -1.
</event>
<event>
 5   0  0.2422083E-06  0.2957775E+04  0.7818609E-02  0.8255892E-01
       -1   -1    0    0    0  501  0.00000000000E+00  0.00000000000E+00  0.14075171169E+04  0.14075171169E+04  0.50400001928E-02 0. -1.
        1   -1    0    0  501    0  0.00000000000E+00  0.00000000000E+00 -0.15538767135E+04  0.15538767135E+04  0.50400001928E-02 0.  1.
    10030    2    1    2    0    0  0.00000000000E+00  0.00000000000E+00 -0.14635959664E+03  0.29613938304E+04  0.29577748879E+04 0.  0.
        2    1    3    3  502    0 -0.31902666021E+03 -0.13398191554E+04  0.46619512055E+03  0.14540396382E+04  0.25500000920E-02 0. -1.
       -2    1    3    3    0  502  0.31902666021E+03  0.13398191554E+04 -0.61255471719E+03  0.15073541922E+04  0.25500000920E-02 0.  1.
</event>
<event>
 5   0  0.7217255E-06  0.3012096E+04  0.7818609E-02  0.8240285E-01
       -2   -1    0    0    0  501  0.00000000000E+00  0.00000000000E+00  0.14722540452E+04  0.14722540452E+04  0.25500000920E-02 0.  1.
        2   -1    0    0  501    0  0.00000000000E+00  0.00000000000E+00 -0.15406179905E+04  0.15406179905E+04  0.25500000920E-02 0. -1.
    10030    2    1    2    0    0  0.00000000000E+00  0.00000000000E+00 -0.68363945344E+02  0.30128720357E+04  0.30120963255E+04 0.  0.
        1    1    3    3  502    0  0.12604117611E+04  0.36711188894E+03 -0.77245885185E+03  0.15231879806E+04  0.50400001928E-02 0. -1.
       -1    1    3    3    0  502 -0.12604117611E+04 -0.36711188894E+03  0.70409490651E+03  0.14896840550E+04  0.50400001928E-02 0.  1.
</event>
<event>
 5   0  0.7217255E-06  0.2957365E+04  0.7818609E-02  0.8256012E-01
       -2   -1    0    0    0  501  0.00000000000E+00  0.00000000000E+00  0.84686195324E+03  0.84686195324E+03  0.25500000920E-02 0. -1.
        2   -1    0    0  501    0  0.00000000000E+00  0.00000000000E+00 -0.25818863986E+04  0.25818863986E+04  0.25500000920E-02 0.  1.
    10030    2    1    2    0    0  0.00000000000E+00  0.00000000000E+00 -0.17350244454E+04  0.34287483519E+04  0.29573646096E+04 0.  0.
        1    1    3    3  502    0 -0.10056156031E+04 -0.45088727739E+03 -0.20105229532E+04  0.22927635342E+04  0.50400001928E-02 0.  1.
       -1    1    3    3    0  502  0.10056156031E+04  0.45088727739E+03  0.27549850784E+03  0.11359848177E+04  0.50400001928E-02 0. -1.
</event>
<event>
 5   0  0.6792811E-06  0.3205916E+04  0.7818609E-02  0.8187257E-01
        2   -1    0    0  501    0  0.00000000000E+00  0.00000000000E+00  0.10702029401E+04  0.10702029401E+04  0.25500000920E-02 0. -1.
       -2   -1    0    0    0  501  0.00000000000E+00  0.00000000000E+00 -0.24009222155E+04  0.24009222155E+04  0.25500000920E-02 0.  1.
    10030    2    1    2    0    0  0.00000000000E+00  0.00000000000E+00 -0.13307192755E+04  0.34711251556E+04  0.32059157905E+04 0.  0.
        2    1    3    3  502    0  0.13103535522E+04  0.89102330637E+03 -0.40342733683E+03  0.16351460425E+04  0.25500000920E-02 0. -1.
       -2    1    3    3    0  502 -0.13103535522E+04 -0.89102330637E+03 -0.92729193862E+03  0.18359791131E+04  0.25500000920E-02 0.  1.
</event>
<event>
 5   0  0.2504260E-06  0.2949171E+04  0.7818609E-02  0.8258396E-01
       -1   -1    0    0    0  501  0.00000000000E+00  0.00000000000E+00  0.21610647599E+04  0.21610647599E+04  0.50400001928E-02 0.  1.
        1   -1    0    0  501    0  0.00000000000E+00  0.00000000000E+00 -0.10061717377E+04  0.10061717377E+04  0.50400001928E-02 0. -1.
    10030    2    1    2    0    0  0.00000000000E+00  0.00000000000E+00  0.11548930222E+04  0.31672364975E+04  0.29491709239E+04 0.  0.
        4    1    3    3  502    0 -0.29477122651E+03  0.87178184623E+03  0.18148147411E+04  0.20348090379E+04  0.12699999809E+01 0.  1.
       -4    1    3    3    0  502  0.29477122651E+03 -0.87178184623E+03 -0.65992171888E+03  0.11324274596E+04  0.12699999809E+01 0. -1.
</event>
<event>
 5   0  0.2504260E-06  0.3022944E+04  0.7818609E-02  0.8237209E-01
       -1   -1    0    0    0  501  0.00000000000E+00  0.00000000000E+00  0.18698546269E+04  0.18698546269E+04  0.50400001928E-02 0.  1.
        1   -1    0    0  501    0  0.00000000000E+00  0.00000000000E+00 -0.12217782559E+04  0.12217782559E+04  0.50400001928E-02 0. -1.
    10030    2    1    2    0    0  0.00000000000E+00  0.00000000000E+00  0.64807637102E+03  0.30916328828E+04  0.30229440781E+04 0.  0.
        4    1    3    3  502    0 -0.68987833659E+03  0.13438036382E+04  0.26986502375E+03  0.15344605180E+04  0.12699999809E+01 0.  1.
       -4    1    3    3    0  502  0.68987833659E+03 -0.13438036382E+04  0.37821134728E+03  0.15571723647E+04  0.12699999809E+01 0. -1.
</event>
<event>
 5   0  0.2628425E-06  0.3016229E+04  0.7818609E-02  0.8239112E-01
       -1   -1    0    0    0  501  0.00000000000E+00  0.00000000000E+00  0.13658104076E+04  0.13658104076E+04  0.50400001928E-02 0. -1.
        1   -1    0    0  501    0  0.00000000000E+00  0.00000000000E+00 -0.16652454382E+04  0.16652454382E+04  0.50400001928E-02 0.  1.
    10030    2    1    2    0    0  0.00000000000E+00  0.00000000000E+00 -0.29943503057E+03  0.30310558458E+04  0.30162291364E+04 0.  0.
        1    1    3    3  502    0  0.14697831434E+04 -0.52058807443E+02 -0.48518018686E+03  0.15486679508E+04  0.50400001928E-02 0.  1.
       -1    1    3    3    0  502 -0.14697831434E+04  0.52058807443E+02  0.18574515628E+03  0.14823878950E+04  0.50400001928E-02 0. -1.
</event>
<event>
 5   0  0.2422083E-06  0.2967506E+04  0.7818609E-02  0.8253071E-01
       -1   -1    0    0    0  501  0.00000000000E+00  0.00000000000E+00  0.11068346890E+04  0.11068346890E+04  0.50400001928E-02 0.  1.
        1   -1    0    0  501    0  0.00000000000E+00  0.00000000000E+00 -0.19890254773E+04  0.19890254773E+04  0.50400001928E-02 0. -1.
    10030    2    1    2    0    0  0.00000000000E+00  0.00000000000E+00 -0.88219078824E+03  0.30958601663E+04  0.29675056162E+04 0.  0.
        2    1    3    3  502    0 -0.43777875953E+03 -0.13759199658E+04 -0.84680593552E+02  0.14463667576E+04  0.25500000920E-02 0.  1.
       -2    1    3    3    0  502  0.43777875953E+03  0.13759199658E+04 -0.79751019469E+03  0.16494934087E+04  0.25500000920E-02 0. -1.
</event>
<event>
 5   0  0.2422083E-06  0.3036610E+04  0.7818609E-02  0.8233353E-01
       -1   -1    0    0    0  501  0.00000000000E+00  0.00000000000E+00  0.67304206237E+03  0.67304206239E+03  0.50400001928E-02 0.  1.
        1   -1    0    0  501    0  0.00000000000E+00  0.00000000000E+00 -0.34251202169E+04  0.34251202169E+04  0.50400001928E-02 0. -1.
    10030    2    1    2    0    0  0.00000000000E+00  0.00000000000E+00 -0.27520781545E+04  0.40981622792E+04  0.30366099352E+04 0.  0.
        2    1    3    3  502    0 -0.29702912445E+03  0.61760315849E+03 -0.32045096954E+04  0.32769715211E+04  0.25500000920E-02 0. -1.
       -2    1    3    3    0  502  0.29702912445E+03 -0.61760315849E+03  0.45243154087E+03  0.82119075819E+03  0.25500000920E-02 0.  1.
</event>
<event>
 5   0  0.7201538E-06  0.2933300E+04  0.7818609E-02  0.8263038E-01
       -2   -1    0    0    0  501  0.00000000000E+00  0.00000000000E+00  0.96855908511E+03  0.96855908512E+03  0.25500000920E-02 0. -1.
        2   -1    0    0  501    0  0.00000000000E+00  0.00000000000E+00 -0.22208884418E+04  0.22208884418E+04  0.25500000920E-02 0.  1.
    10030    2    1    2    0    0  0.00000000000E+00  0.00000000000E+00 -0.12523293567E+04  0.31894475270E+04  0.29332996283E+04 0.  0.
        3    1    3    3  502    0  0.35213664998E+02 -0.74292113266E+03  0.74829642523E+03  0.10550447203E+04  0.10100000352E+00 0. -1.
       -3    1    3    3    0  502 -0.35213664998E+02  0.74292113266E+03 -0.20006257820E+04  0.21344028067E+04  0.10100000352E+00 0.  1.
</event>
<event>
 5   0  0.7217255E-06  0.2975606E+04  0.7818609E-02  0.8250731E-01
       -2   -1    0    0    0  501  0.00000000000E+00  0.00000000000E+00  0.17310908280E+04  0.17310908280E+04  0.25500000920E-02 0. -1.
        2   -1    0    0  501    0  0.00000000000E+00  0.00000000000E+00 -0.12787069141E+04  0.12787069141E+04  0.25500000920E-02 0.  1.
    10030    2    1    2    0    0  0.00000000000E+00  0.00000000000E+00  0.45238391390E+03  0.30097977421E+04  0.29756060295E+04 0.  0.
        1    1    3    3  502    0 -0.72840526366E+03  0.64429891555E+03 -0.91274047154E+03  0.13337130460E+04  0.50400001928E-02 0.  1.
       -1    1    3    3    0  502  0.72840526366E+03 -0.64429891555E+03  0.13651243854E+04  0.16760846961E+04  0.50400001928E-02 0. -1.
</event>
<event>
 5   0  0.7201538E-06  0.3000129E+04  0.7818609E-02  0.8243694E-01
        2   -1    0    0  501    0  0.00000000000E+00  0.00000000000E+00  0.27041407379E+04  0.27041407379E+04  0.25500000920E-02 0.  1.
       -2   -1    0    0    0  501  0.00000000000E+00  0.00000000000E+00 -0.83212862956E+03  0.83212862957E+03  0.25500000920E-02 0. -1.
    10030    2    1    2    0    0  0.00000000000E+00  0.00000000000E+00  0.18720121084E+04  0.35362693675E+04  0.30001286149E+04 0.  0.
        3    1    3    3  502    0 -0.27126667877E+03 -0.30621581847E+03  0.26371197253E+04  0.26686614986E+04  0.10100000352E+00 0.  1.
       -3    1    3    3    0  502  0.27126667877E+03  0.30621581847E+03 -0.76510761692E+03  0.86760786889E+03  0.10100000352E+00 0. -1.
</event>
<event>
 5   0  0.2628425E-06  0.2938807E+04  0.7818609E-02  0.8261424E-01
       -1   -1    0    0    0  501  0.00000000000E+00  0.00000000000E+00  0.12868796302E+04  0.12868796302E+04  0.50400001928E-02 0. -1.
        1   -1    0    0  501    0  0.00000000000E+00  0.00000000000E+00 -0.16778154739E+04  0.16778154739E+04  0.50400001928E-02 0.  1.
    10030    2    1    2    0    0  0.00000000000E+00  0.00000000000E+00 -0.39093584370E+03  0.29646951041E+04  0.29388069392E+04 0.  0.
        1    1    3    3  502    0  0.12001899315E+04 -0.26331119593E+02 -0.10502795125E+04  0.15950662225E+04  0.50400001928E-02 0.  1.
       -1    1    3    3    0  502 -0.12001899315E+04  0.26331119593E+02  0.65934366883E+03  0.13696288816E+04  0.50400001928E-02 0. -1.
</event>
<event>
 5   0  0.6792811E-06  0.2961946E+04  0.7818609E-02  0.8254682E-01
        2   -1    0    0  501    0  0.00000000000E+00  0.00000000000E+00  0.13718082740E+04  0.13718082740E+04  0.25500000920E-02 0. -1.
       -2   -1    0    0    0  501  0.00000000000E+00  0.00000000000E+00 -0.15988252590E+04  0.15988252590E+04  0.25500000920E-02 0.  1.
    10030    2    1    2    0    0  0.00000000000E+00  0.00000000000E+00 -0.22701698502E+03  0.29706335330E+04  0.29619464674E+04 0.  0.
        2    1    3    3  502    0 -0.11922769030E+04  0.83589490120E+03  0.15753812404E+03  0.14646032773E+04  0.25500000920E-02 0. -1.
       -2    1    3    3    0  502  0.11922769030E+04 -0.83589490120E+03 -0.38455510906E+03  0.15060302557E+04  0.25500000920E-02 0.  1.
</event>
<event>
 5   0  0.6792811E-06  0.3054547E+04  0.7818609E-02  0.8228324E-01
       -2   -1    0    0    0  501  0.00000000000E+00  0.00000000000E+00  0.10407986706E+04  0.10407986706E+04  0.25500000920E-02 0. -1.
        2   -1    0    0  501    0  0.00000000000E+00  0.00000000000E+00 -0.22411293964E+04  0.22411293964E+04  0.25500000920E-02 0.  1.
    10030    2    1    2    0    0  0.00000000000E+00  0.00000000000E+00 -0.12003307258E+04  0.32819280670E+04  0.30545470999E+04 0.  0.
        2    1    3    3  502    0  0.13427041466E+04 -0.13740675679E+03  0.16776209619E+03  0.13601026296E+04  0.25500000920E-02 0. -1.
       -2    1    3    3    0  502 -0.13427041466E+04  0.13740675679E+03 -0.13680928220E+04  0.19218254374E+04  0.25500000920E-02 0.  1.
</event>
<event>
 5   0  0.2628425E-06  0.3017528E+04  0.7818609E-02  0.8238743E-01
       -1   -1    0    0    0  501  0.00000000000E+00  0.00000000000E+00  0.89304957975E+03  0.89304957976E+03  0.50400001928E-02 0.  1.
        1   -1    0    0  501    0  0.00000000000E+00  0.00000000000E+00 -0.25489835879E+04  0.25489835879E+04  0.50400001928E-02 0. -1.
    10030    2    1    2    0    0  0.00000000000E+00  0.00000000000E+00 -0.16559340082E+04  0.34420331677E+04  0.30175279432E+04 0.  0.
        1    1    3    3  502    0 -0.11344214056E+04  0.79699763665E+03 -0.14904538480E+03  0.13943929450E+04  0.50400001928E-02 0.  1.
       -1    1    3    3    0  502  0.11344214056E+04 -0.79699763665E+03 -0.15068886234E+04  0.20476402227E+04  0.50400001928E-02 0. -1.
</event>
<event>
 5   0  0.2504260E-06  0.2992556E+04  0.7818609E-02  0.8245860E-01
       -1   -1    0    0    0  501  0.00000000000E+00  0.00000000000E+00  0.90029052639E+03  0.90029052641E+03  0.50400001928E-02 0.  1.
        1   -1    0    0  501    0  0.00000000000E+00  0.00000000000E+00 -0.24868063315E+04  0.24868063315E+04  0.50400001928E-02 0. -1.
    10030    2    1    2    0    0  0.00000000000E+00  0.00000000000E+00 -0.15865158051E+04  0.33870968579E+04  0.29925562192E+04 0.  0.
        4    1    3    3  502    0  0.31095481479E+03  0.25744366484E+03 -0.24240028703E+04  0.24573891970E+04  0.12699999809E+01 0. -1.
       -4    1    3    3    0  502 -0.31095481479E+03 -0.25744366484E+03  0.83748706522E+03  0.92970766089E+03  0.12699999809E+01 0.  1.
</event>
<event>
 5   0  0.2672155E-06  0.2977037E+04  0.7818609E-02  0.8250319E-01
       -1   -1    0    0    0  501  0.00000000000E+00  0.00000000000E+00  0.15724774261E+04  0.15724774261E+04  0.50400001928E-02 0. -1.
        1   -1    0    0  501    0  0.00000000000E+00  0.00000000000E+00 -0.14090423281E+04  0.14090423281E+04  0.50400001928E-02 0.  1.
    10030    2    1    2    0    0  0.00000000000E+00  0.00000000000E+00  0.16343509797E+03  0.29815197541E+04  0.29770369519E+04 0.  0.
        5    1    3    3  502    0 -0.90547334935E+03  0.45049126368E+03  0.11755346481E+04  0.15507185959E+04  0.46999998093E+01 0. -1.
       -5    1    3    3    0  502  0.90547334935E+03 -0.45049126368E+03 -0.10120995501E+04  0.14308011582E+04  0.46999998093E+01 0.  1.
</event>
<event>
 5   0  0.7193153E-06  0.2787341E+04  0.7818609E-02  0.8307209E-01
       -2   -1    0    0    0  501  0.00000000000E+00  0.00000000000E+00  0.24417933617E+04  0.24417933617E+04  0.25500000920E-02 0. -1.
        2   -1    0    0  501    0  0.00000000000E+00  0.00000000000E+00 -0.79544716801E+03  0.79544716801E+03  0.25500000920E-02 0.  1.
    10030    2    1    2    0    0  0.00000000000E+00  0.00000000000E+00  0.16463461937E+04  0.32372405298E+04  0.27873411090E+04 0.  0.
        4    1    3    3  502    0  0.15027303234E+03 -0.75812987543E+03  0.21700926256E+04  0.23036159638E+04  0.12699999809E+01 0. -1.
       -4    1    3    3    0  502 -0.15027303234E+03  0.75812987543E+03 -0.52374643188E+03  0.93362456591E+03  0.12699999809E+01 0.  1.
</event>
<event>
 5   0  0.2672155E-06  0.2927390E+04  0.7818609E-02  0.8264774E-01
        1   -1    0    0  501    0  0.00000000000E+00  0.00000000000E+00  0.23774031743E+04  0.23774031744E+04  0.50400001928E-02 0.  1.
       -1   -1    0    0    0  501  0.00000000000E+00  0.00000000000E+00 -0.90115280011E+03  0.90115280012E+03  0.50400001928E-02 0. -1.
    10030    2    1    2    0    0  0.00000000000E+00  0.00000000000E+00  0.14762503742E+04  0.32785559745E+04  0.29273903242E+04 0.  0.
        5    1    3    3  502    0 -0.81311261607E+03  0.30613473462E+03 -0.58110372697E+03  0.10452627582E+04  0.46999998093E+01 0. -1.
       -5    1    3    3    0  502  0.81311261607E+03 -0.30613473462E+03  0.20573541012E+04  0.22332932163E+04  0.46999998093E+01 0.  1.
</event>
<event>
 5   0  0.7201538E-06  0.2993610E+04  0.7818609E-02  0.8245558E-01
       -2   -1    0    0    0  501  0.00000000000E+00  0.00000000000E+00  0.93204671536E+03  0.93204671537E+03  0.25500000920E-02 0.  1.
        2   -1    0    0  501    0  0.00000000000E+00  0.00000000000E+00 -0.24037685216E+04  0.24037685216E+04  0.25500000920E-02 0. -1.
    10030    2    1    2    0    0  0.00000000000E+00  0.00000000000E+00 -0.14717218063E+04  0.33358152370E+04  0.29936095638E+04 0.  0.
        3    1    3    3  502    0 -0.63922650722E+02  0.86042104541E+03 -0.20987944105E+04  0.22692175895E+04  0.10100000352E+00 0. -1.
       -3    1    3    3    0  502  0.63922650722E+02 -0.86042104541E+03  0.62707260419E+03  0.10665976476E+04  0.10100000352E+00 0.  1.
</event>
<event>
 5   0  0.2672155E-06  0.2825755E+04  0.7818609E-02  0.8295317E-01
        1   -1    0    0  501    0  0.00000000000E+00  0.00000000000E+00  0.18354664590E+04  0.18354664590E+04  0.50400001928E-02 0.  1.
       -1   -1    0    0    0  501  0.00000000000E+00  0.00000000000E+00 -0.10875832446E+04  0.10875832446E+04  0.50400001928E-02 0. -1.
    10030    2    1    2    0    0  0.00000000000E+00  0.00000000000E+00  0.74788321437E+03  0.29230497036E+04  0.28257548137E+04 0.  0.
        5    1    3    3  502    0  0.97344066069E+02 -0.13970868004E+04  0.18076840090E+03  0.14121001026E+04  0.46999998093E+01 0. -1.
       -5    1    3    3    0  502 -0.97344066069E+02  0.13970868004E+04  0.56711481347E+03  0.15109496010E+04  0.46999998093E+01 0.  1.
</event>
<event>
 5   0  0.2552990E-06  0.3011780E+04  0.7818609E-02  0.8240375E-01
       -1   -1    0    0    0  501  0.00000000000E+00  0.00000000000E+00  0.19028059674E+04  0.19028059674E+04  0.50400001928E-02 0. -1.
        1   -1    0    0  501    0  0.00000000000E+00  0.00000000000E+00 -0.11917684281E+04  0.11917684281E+04  0.50400001928E-02 0.  1.
    10030    2    1    2    0    0  0.00000000000E+00  0.00000000000E+00  0.71103753933E+03  0.30945743955E+04  0.30117795914E+04 0.  0.
        3    1    3    3  502    0 -0.38817030991E+03  0.92275120369E+03  0.15114148327E+04  0.18128763830E+04  0.10100000352E+00 0. -1.
       -3    1    3    3    0  502  0.38817030991E+03 -0.92275120369E+03 -0.80037729333E+03  0.12816980125E+04  0.10100000352E+00 0.  1.
</event>
<event>
 5   0  0.2552990E-06  0.3024369E+04  0.7818609E-02  0.8236806E-01
       -1   -1    0    0    0  501  0.00000000000E+00  0.00000000000E+00  0.15421508746E+04  0.15421508746E+04  0.50400001928E-02 0.  1.
        1   -1    0    0  501    0  0.00000000000E+00  0.00000000000E+00 -0.14828004890E+04  0.14828004890E+04  0.50400001928E-02 0. -1.
    10030    2    1    2    0    0  0.00000000000E+00  0.00000000000E+00  0.59350385618E+02  0.30249513636E+04  0.30243690720E+04 0.  0.
        3    1    3    3  502    0 -0.59604999102E+03 -0.13787309143E+04  0.20443013910E+03  0.15159044224E+04  0.10100000352E+00 0.  1.
       -3    1    3    3    0  502  0.59604999102E+03  0.13787309143E+04 -0.14507975348E+03  0.15090469412E+04  0.10100000352E+00 0. -1.
</event>
<event>
 5   0  0.2672155E-06  0.2969060E+04  0.7818609E-02  0.8252621E-01
        1   -1    0    0  501    0  0.00000000000E+00  0.00000000000E+00  0.12014515994E+04  0.12014515994E+04  0.50400001928E-02 0. -1.
       -1   -1    0    0    0  501  0.00000000000E+00  0.00000000000E+00 -0.18343060396E+04  0.18343060396E+04  0.50400001928E-02 0.  1.
    10030    2    1    2    0    0  0.00000000000E+00  0.00000000000E+00 -0.63285444023E+03  0.30357576390E+04  0.29690604070E+04 0.  0.
        5    1    3    3  502    0  0.91146139033E+03  0.19465430811E+02  0.88150065237E+03  0.12681507242E+04  0.46999998093E+01 0. -1.
       -5    1    3    3    0  502 -0.91146139033E+03 -0.19465430811E+02 -0.15143550926E+04  0.17676069149E+04  0.46999998093E+01 0.  1.
</event>
<event>
 5   0  0.7193153E-06  0.2212998E+04  0.7818609E-02  0.8513037E-01
        2   -1    0    0  501    0  0.00000000000E+00  0.00000000000E+00  0.19436508235E+04  0.19436508235E+04  0.25500000920E-02 0.  1.
       -2   -1    0    0    0  501  0.00000000000E+00  0.00000000000E+00 -0.62991783016E+03  0.62991783017E+03  0.25500000920E-02 0. -1.
    10030    2    1    2    0    0  0.00000000000E+00  0.00000000000E+00  0.13137329934E+04  0.25735686537E+04  0.22129982462E+04 0.  0.
        4    1    3    3  502    0  0.99443358596E+03  0.27387830448E+03  0.19106688380E+03  0.10490069826E+04  0.12699999809E+01 0.  1.
       -4    1    3    3    0  502 -0.99443358596E+03 -0.27387830448E+03  0.11226661096E+04  0.15245616711E+04  0.12699999809E+01 0. -1.
</event>
<event>
 5   0  0.7201538E-06  0.2397165E+04  0.7818609E-02  0.8440566E-01
       -2   -1    0    0    0  501  0.00000000000E+00  0.00000000000E+00  0.67354455872E+03  0.67354455872E+03  0.25500000920E-02 0.  1.
        2   -1    0    0  501    0  0.00000000000E+00  0.00000000000E+00 -0.21328954641E+04  0.21328954641E+04  0.25500000920E-02 0. -1.
    10030    2    1    2    0    0  0.00000000000E+00  0.00000000000E+00 -0.14593509054E+04  0.28064400229E+04  0.23971651042E+04 0.  0.
        3    1    3    3  502    0  0.94945768163E+03  0.66311275013E+03 -0.10913006389E+04  0.15912653780E+04  0.10100000352E+00 0. -1.
       -3    1    3    3    0  502 -0.94945768163E+03 -0.66311275013E+03 -0.36805026652E+03  0.12151746449E+04  0.10100000352E+00 0.  1.
</event>
<event>
 5   0  0.6792811E-06  0.3132678E+04  0.7818609E-02  0.8206827E-01
       -2   -1    0    0    0  501  0.00000000000E+00  0.00000000000E+00  0.19170278334E+04  0.19170278334E+04  0.25500000920E-02 0. -1.
        2   -1    0    0  501    0  0.00000000000E+00  0.00000000000E+00 -0.12798027866E+04  0.12798027866E+04  0.25500000920E-02 0.  1.
    10030    2    1    2    0    0  0.00000000000E+00  0.00000000000E+00  0.63722504680E+03  0.31968306200E+04  0.31326778087E+04 0.  0.
        2    1    3    3  502    0  0.79756555342E+03  0.10816332294E+04  0.11396865169E+04  0.17620801944E+04  0.25500000920E-02 0. -1.
       -2    1    3    3    0  502 -0.79756555342E+03 -0.10816332294E+04 -0.50246147008E+03  0.14347504256E+04  0.25500000920E-02 0.  1.
</event>
<event>
 5   0  0.7217255E-06  0.2882561E+04  0.7818609E-02  0.8278085E-01
       -2   -1    0    0    0  501  0.00000000000E+00  0.00000000000E+00  0.60289637570E+03  0.60289637570E+03  0.25500000920E-02 0.  1.
        2   -1    0    0  501    0  0.00000000000E+00  0.00000000000E+00 -0.34455166550E+04  0.34455166550E+04  0.25500000920E-02 0. -1.
    10030    2    1    2    0    0  0.00000000000E+00  0.00000000000E+00 -0.28426202793E+04  0.40484130307E+04  0.28825610167E+04 0.  0.
        1    1    3    3  502    0 -0.10246495223E+04  0.22815636959E+03 -0.34293897308E+02  0.10503037865E+04  0.50400001928E-02 0.  1.
       -1    1    3    3    0  502  0.10246495223E+04 -0.22815636959E+03 -0.28083263820E+04  0.29981092442E+04  0.50400001928E-02 0. -1.
</event>
<event>
 5   0  0.6780150E-06  0.2947055E+04  0.7818609E-02  0.8259013E-01
        2   -1    0    0  501    0  0.00000000000E+00  0.00000000000E+00  0.29075944636E+04  0.29075944636E+04  0.25500000920E-02 0.  1.
       -2   -1    0    0    0  501  0.00000000000E+00  0.00000000000E+00 -0.74676276650E+03  0.74676276651E+03  0.25500000920E-02 0. -1.
    10030    2    1    2    0    0  0.00000000000E+00  0.00000000000E+00  0.21608316971E+04  0.36543572301E+04  0.29470549947E+04 0.  0.
        5    1    3    3  502    0 -0.99037937447E+03  0.83466403754E+02  0.24293677899E+04  0.26248176878E+04  0.46999998093E+01 0.  1.
       -5    1    3    3    0  502  0.99037937447E+03 -0.83466403754E+02 -0.26853609279E+03  0.10295395423E+04  0.46999998093E+01 0. -1.
</event>
<event>
 5   0  0.7201538E-06  0.3145472E+04  0.7818609E-02  0.8203368E-01
       -2   -1    0    0    0  501  0.00000000000E+00  0.00000000000E+00  0.22715120650E+04  0.22715120650E+04  0.25500000920E-02 0. -1.
        2   -1    0    0  501    0  0.00000000000E+00  0.00000000000E+00 -0.10889212955E+04  0.10889212955E+04  0.25500000920E-02 0.  1.
    10030    2    1    2    0    0  0.00000000000E+00  0.00000000000E+00  0.11825907694E+04  0.33604333605E+04  0.31454715771E+04 0.  0.
        3    1    3    3  502    0 -0.11213725189E+04 -0.46109661854E+03  0.16614561996E+04  0.20568235538E+04  0.10100000352E+00 0. -1.
       -3    1    3    3    0  502  0.11213725189E+04  0.46109661854E+03 -0.47886543019E+03  0.13036098067E+04  0.10100000352E+00 0.  1.
</event>
<event>
 5   0  0.2628425E-06  0.3281823E+04  0.7818609E-02  0.8167536E-01
       -1   -1    0    0    0  501  0.00000000000E+00  0.00000000000E+00  0.19345333903E+04  0.19345333903E+04  0.50400001928E-02 0. -1.
        1   -1    0    0  501    0  0.00000000000E+00  0.00000000000E+00 -0.13918555616E+04  0.13918555616E+04  0.50400001928E-02 0.  1.
    10030    2    1    2    0    0  0.00000000000E+00  0.00000000000E+00  0.54267782874E+03  0.33263889519E+04  0.32818233093E+04 0.  0.
        1    1    3    3  502    0  0.16055405490E+03 -0.69779416978E+03 -0.12251578985E+04  0.14190511563E+04  0.50400001928E-02 0.  1.
       -1    1    3    3    0  502 -0.16055405490E+03  0.69779416978E+03  0.17678357273E+04  0.19073377956E+04  0.50400001928E-02 0. -1.
</event>
<event>
 5   0  0.2552990E-06  0.2974733E+04  0.7818609E-02  0.8250983E-01
       -1   -1    0    0    0  501  0.00000000000E+00  0.00000000000E+00  0.16341563704E+04  0.16341563704E+04  0.50400001928E-02 0. -1.
        1   -1    0    0  501    0  0.00000000000E+00  0.00000000000E+00 -0.13537626061E+04  0.13537626061E+04  0.50400001928E-02 0.  1.
    10030    2    1    2    0    0  0.00000000000E+00  0.00000000000E+00  0.28039376428E+03  0.29879189765E+04  0.29747334581E+04 0.  0.
        3    1    3    3  502    0  0.74427713006E+02  0.57527124070E+03  0.15158599876E+04  0.16230551429E+04  0.10100000352E+00 0. -1.
       -3    1    3    3    0  502 -0.74427713006E+02 -0.57527124070E+03 -0.12354662233E+04  0.13648638335E+04  0.10100000352E+00 0.  1.
</event>
<event>
 5   0  0.2672155E-06  0.2991398E+04  0.7818609E-02  0.8246192E-01
        1   -1    0    0  501    0  0.00000000000E+00  0.00000000000E+00  0.19062919592E+04  0.19062919592E+04  0.50400001928E-02 0.  1.
       -1   -1    0    0    0  501  0.00000000000E+00  0.00000000000E+00 -0.11735425646E+04  0.11735425646E+04  0.50400001928E-02 0. -1.
    10030    2    1    2    0    0  0.00000000000E+00  0.00000000000E+00  0.73274939458E+03  0.30798345238E+04  0.29913975027E+04 0.  0.
        5    1    3    3  502    0  0.98689633350E+03 -0.11012436142E+04  0.59749008201E+03  0.15949038714E+04  0.46999998093E+01 0.  1.
       -5    1    3    3    0  502 -0.98689633350E+03  0.11012436142E+04  0.13525931257E+03  0.14849306524E+04  0.46999998093E+01 0. -1.
</event>
<event>
 5   0  0.2552990E-06  0.2941963E+04  0.7818609E-02  0.8260501E-01
        1   -1    0    0  501    0  0.00000000000E+00  0.00000000000E+00  0.17701646988E+04  0.17701646988E+04  0.50400001928E-02 0. -1.
       -1   -1    0    0    0  501  0.00000000000E+00  0.00000000000E+00 -0.12223643335E+04  0.12223643335E+04  0.50400001928E-02 0.  1.
    10030    2    1    2    0    0  0.00000000000E+00  0.00000000000E+00  0.54780036534E+03  0.29925290323E+04  0.29419627410E+04 0.  0.
        3    1    3    3  502    0 -0.12297303078E+03 -0.10297370942E+04  0.13350497048E+04  0.16905142927E+04  0.10100000352E+00 0. -1.
       -3    1    3    3    0  502  0.12297303078E+03  0.10297370942E+04 -0.78724933942E+03  0.13020147396E+04  0.10100000352E+00 0.  1.
</event>
<event>
 5   0  0.6792811E-06  0.3003263E+04  0.7818609E-02  0.8242800E-01
       -2   -1    0    0    0  501  0.00000000000E+00  0.00000000000E+00  0.14171487069E+04  0.14171487069E+04  0.25500000920E-02 0.  1.
        2   -1    0    0  501    0  0.00000000000E+00  0.00000000000E+00 -0.15911501851E+04  0.15911501851E+04  0.25500000920E-02 0. -1.
    10030    2    1    2    0    0  0.00000000000E+00  0.00000000000E+00 -0.17400147815E+03  0.30082988920E+04  0.30032625109E+04 0.  0.
        2    1    3    3  502    0  0.11191786375E+04  0.43891872994E+03  0.81433375391E+03  0.14520158184E+04  0.25500000920E-02 0. -1.
       -2    1    3    3    0  502 -0.11191786375E+04 -0.43891872994E+03 -0.98833523205E+03  0.15562830736E+04  0.25500000920E-02 0.  1.
</event>
<event>
 5   0  0.7201538E-06  0.2828413E+04  0.7818609E-02  0.8294501E-01
       -2   -1    0    0    0  501  0.00000000000E+00  0.00000000000E+00  0.14019957814E+04  0.14019957814E+04  0.25500000920E-02 0.  1.
        2   -1    0    0  501    0  0.00000000000E+00  0.00000000000E+00 -0.14265232091E+04  0.14265232091E+04  0.25500000920E-02 0. -1.
    10030    2    1    2    0    0  0.00000000000E+00  0.00000000000E+00 -0.24527427718E+02  0.28285189905E+04  0.28284126441E+04 0.  0.
        3    1    3    3  502    0  0.52156218932E+03 -0.97499105063E+03  0.86944105611E+03  0.14066138156E+04  0.10100000352E+00 0.  1.
       -3    1    3    3    0  502 -0.52156218932E+03  0.97499105063E+03 -0.89396848382E+03  0.14219051749E+04  0.10100000352E+00 0. -1.
</event>
<event>
 5   0  0.2552990E-06  0.3015161E+04  0.7818609E-02  0.8239415E-01
       -1   -1    0    0    0  501  0.00000000000E+00  0.00000000000E+00  0.19191539302E+04  0.19191539302E+04  0.50400001928E-02 0. -1.
        1   -1    0    0  501    0  0.00000000000E+00  0.00000000000E+00 -0.11842714880E+04  0.11842714880E+04  0.50400001928E-02 0.  1.
    10030    2    1    2    0    0  0.00000000000E+00  0.00000000000E+00  0.73488244217E+03  0.31034254182E+04  0.30151612101E+04 0.  0.
        3    1    3    3  502    0 -0.15047747788E+04  0.57752759846E+02  0.29381575420E+03  0.15342784049E+04  0.10100000352E+00 0. -1.
       -3    1    3    3    0  502  0.15047747788E+04 -0.57752759846E+02  0.44106668797E+03  0.15691470133E+04  0.10100000352E+00 0.  1.
</event>
<event>
 5   0  0.2422083E-06  0.2994439E+04  0.7818609E-02  0.8245321E-01
        1   -1    0    0  501    0  0.00000000000E+00  0.00000000000E+00  0.12291677847E+04  0.12291677848E+04  0.50400001928E-02 0.  1.
       -1   -1    0    0    0  501  0.00000000000E+00  0.00000000000E+00 -0.18237263116E+04  0.18237263116E+04  0.50400001928E-02 0. -1.
    10030    2    1    2    0    0  0.00000000000E+00  0.00000000000E+00 -0.59455852684E+03  0.30528940963E+04  0.29944385987E+04 0.  0.
        2    1    3    3  502    0  0.30618646338E+03 -0.13613513259E+04  0.25612275740E+03  0.14186706629E+04  0.25500000920E-02 0.  1.
       -2    1    3    3    0  502 -0.30618646338E+03  0.13613513259E+04 -0.85068128425E+03  0.16342234334E+04  0.25500000920E-02 0. -1.
</event>
<event>
 5   0  0.6792811E-06  0.2938081E+04  0.7818609E-02  0.8261636E-01
        2   -1    0    0  501    0  0.00000000000E+00  0.00000000000E+00  0.14618273537E+04  0.14618273537E+04  0.25500000920E-02 0.  1.
       -2   -1    0    0    0  501  0.00000000000E+00  0.00000000000E+00 -0.14762896593E+04  0.14762896594E+04  0.25500000920E-02 0. -1.
    10030    2    1    2    0    0  0.00000000000E+00  0.00000000000E+00 -0.14462305692E+02  0.29381170130E+04  0.29380814189E+04 0.  0.
        2    1    3    3  502    0  0.12151334240E+04 -0.46417933567E+03  0.67546951723E+03  0.14656980461E+04  0.25500000920E-02 0.  1.
       -2    1    3    3    0  502 -0.12151334240E+04  0.46417933567E+03 -0.68993182292E+03  0.14724189669E+04  0.25500000920E-02 0. -1.
</event>
<event>
 5   0  0.2504260E-06  0.2994840E+04  0.7818609E-02  0.8245206E-01
       -1   -1    0    0    0  501  0.00000000000E+00  0.00000000000E+00  0.13336413230E+04  0.13336413230E+04  0.50400001928E-02 0.  1.
        1   -1    0    0  501    0  0.00000000000E+00  0.00000000000E+00 -0.16813110985E+04  0.16813110985E+04  0.50400001928E-02 0. -1.
    10030    2    1    2    0    0  0.00000000000E+00  0.00000000000E+00 -0.34766977554E+03  0.30149524215E+04  0.29948395334E+04 0.  0.
        4    1    3    3  502    0  0.98239426979E+03 -0.59702475449E+03 -0.11398244027E+04  0.16188694637E+04  0.12699999809E+01 0. -1.
       -4    1    3    3    0  502 -0.98239426979E+03  0.59702475449E+03  0.79215462713E+03  0.13960829578E+04  0.12699999809E+01 0.  1.
</event>
<event>
 5   0  0.7217255E-06  0.2947670E+04  0.7818609E-02  0.8258834E-01
       -2   -1    0    0    0  501  0.00000000000E+00  0.00000000000E+00  0.10913740597E+04  0.10913740597E+04  0.25500000920E-02 0.  1.
        2   -1    0    0  501    0  0.00000000000E+00  0.00000000000E+00 -0.19903258719E+04  0.19903258719E+04  0.25500000920E-02 0. -1.
    10030    2    1    2    0    0  0.00000000000E+00  0.00000000000E+00 -0.89895181223E+03  0.30816999316E+04  0.29476702848E+04 0.  0.
        1    1    3    3  502    0 -0.13755890484E+04  0.50191635005E+03 -0.27445799056E+03  0.14897961073E+04  0.50400001928E-02 0.  1.
       -1    1    3    3    0  502  0.13755890484E+04 -0.50191635005E+03 -0.62449382166E+03  0.15919038243E+04  0.50400001928E-02 0. -1.
</event>
<event>
 5   0  0.2504260E-06  0.2747428E+04  0.7818609E-02  0.8319778E-01
       -1   -1    0    0    0  501  0.00000000000E+00  0.00000000000E+00  0.15256718803E+04  0.15256718803E+04  0.50400001928E-02 0.  1.
        1   -1    0    0  501    0  0.00000000000E+00  0.00000000000E+00 -0.12368916013E+04  0.12368916014E+04  0.50400001928E-02 0. -1.
    10030    2    1    2    0    0  0.00000000000E+00  0.00000000000E+00  0.28878027895E+03  0.27625634817E+04  0.27474284232E+04 0.  0.
        4    1    3    3  502    0  0.70877799897E+03 -0.91837353513E+03 -0.59540261976E+03  0.13039486548E+04  0.12699999809E+01 0. -1.
       -4    1    3    3    0  502 -0.70877799897E+03  0.91837353513E+03  0.88418289871E+03  0.14586148269E+04  0.12699999809E+01 0.  1.
</event>
<event>
 5   0  0.2552990E-06  0.2975621E+04  0.7818609E-02  0.8250727E-01
       -1   -1    0    0    0  501  0.00000000000E+00  0.00000000000E+00  0.10136591304E+04  0.10136591304E+04  0.50400001928E-02 0. -1.
        1   -1    0    0  501    0  0.00000000000E+00  0.00000000000E+00 -0.21837517580E+04  0.21837517580E+04  0.50400001928E-02 0.  1.
    10030    2    1    2    0    0  0.00000000000E+00  0.00000000000E+00 -0.11700926276E+04  0.31974108885E+04  0.29756208818E+04 0.  0.
        3    1    3    3  502    0  0.75881486006E+03  0.19893151253E+03  0.77338364783E+03  0.11015879518E+04  0.10100000352E+00 0. -1.
       -3    1    3    3    0  502 -0.75881486006E+03 -0.19893151253E+03 -0.19434762755E+04  0.20958229367E+04  0.10100000352E+00 0.  1.
</event>
<event>
 5   0  0.2422083E-06  0.2928480E+04  0.7818609E-02  0.8264454E-01
       -1   -1    0    0    0  501  0.00000000000E+00  0.00000000000E+00  0.83900882596E+03  0.83900882598E+03  0.50400001928E-02 0. -1.
        1   -1    0    0  501    0  0.00000000000E+00  0.00000000000E+00 -0.25553956311E+04  0.25553956311E+04  0.50400001928E-02 0.  1.
    10030    2    1    2    0    0  0.00000000000E+00  0.00000000000E+00 -0.17163868051E+04  0.33944044571E+04  0.29284804854E+04 0.  0.
        2    1    3    3  502    0 -0.68957715770E+03  0.10422958389E+04 -0.17425366846E+04  0.21443720221E+04  0.25500000920E-02 0.  1.
       -2    1    3    3    0  502  0.68957715770E+03 -0.10422958389E+04  0.26149879456E+02  0.12500324349E+04  0.25500000920E-02 0. -1.
</event>
<event>
 5   0  0.7217255E-06  0.3027766E+04  0.7818609E-02  0.8235846E-01
        2   -1    0    0  501    0  0.00000000000E+00  0.00000000000E+00  0.11031403521E+04  0.11031403521E+04  0.25500000920E-02 0.  1.
       -2   -1    0    0    0  501  0.00000000000E+00  0.00000000000E+00 -0.20775617250E+04  0.20775617250E+04  0.25500000920E-02 0. -1.
    10030    2    1    2    0    0  0.00000000000E+00  0.00000000000E+00 -0.97442137287E+03  0.31807020771E+04  0.30277662875E+04 0.  0.
        1    1    3    3  502    0 -0.10425782124E+04  0.54718553411E+03  0.51241056054E+03  0.12841128923E+04  0.50400001928E-02 0.  1.
       -1    1    3    3    0  502  0.10425782124E+04 -0.54718553411E+03 -0.14868319334E+04  0.18965891848E+04  0.50400001928E-02 0. -1.
</event>
<event>
 5   0  0.6780150E-06  0.2854303E+04  0.7818609E-02  0.8286605E-01
        2   -1    0    0  501    0  0.00000000000E+00  0.00000000000E+00  0.15781830414E+04  0.15781830414E+04  0.25500000920E-02 0.  1.
       -2   -1    0    0    0  501  0.00000000000E+00  0.00000000000E+00 -0.12905740717E+04  0.12905740717E+04  0.25500000920E-02 0. -1.
    10030    2    1    2    0    0  0.00000000000E+00  0.00000000000E+00  0.28760896966E+03  0.28687571131E+04  0.28543034972E+04 0.  0.
        5    1    3    3  502    0  0.88970173733E+03  0.86702208140E+03  0.84981695090E+03  0.15051602609E+04  0.46999998093E+01 0.  1.
       -5    1    3    3    0  502 -0.88970173733E+03 -0.86702208140E+03 -0.56220798124E+03  0.13635968522E+04  0.46999998093E+01 0. -1.
</event>
<event>
 5   0  0.2672155E-06  0.2836446E+04  0.7818609E-02  0.8292042E-01
        1   -1    0    0  501    0  0.00000000000E+00  0.00000000000E+00  0.12608840224E+04  0.12608840224E+04  0.50400001928E-02 0. -1.
       -1   -1    0    0    0  501  0.00000000000E+00  0.00000000000E+00 -0.15951956236E+04  0.15951956236E+04  0.50400001928E-02 0.  1.
    10030    2    1    2    0    0  0.00000000000E+00  0.00000000000E+00 -0.33431160119E+03  0.28560796460E+04  0.28364461386E+04 0.  0.
        5    1    3    3  502    0 -0.74904323359E+03  0.10966894307E+04 -0.66813470787E+03  0.14866807159E+04  0.46999998093E+01 0.  1.
       -5    1    3    3    0  502  0.74904323359E+03 -0.10966894307E+04  0.33382310668E+03  0.13693989301E+04  0.46999998093E+01 0. -1.
</event>
<event>
 5   0  0.7193153E-06  0.3067431E+04  0.7818609E-02  0.8224733E-01
        2   -1    0    0  501    0  0.00000000000E+00  0.00000000000E+00  0.17618736011E+04  0.17618736011E+04  0.25500000920E-02 0. -1.
       -2   -1    0    0    0  501  0.00000000000E+00  0.00000000000E+00 -0.13351036905E+04  0.13351036905E+04  0.25500000920E-02 0.  1.
    10030    2    1    2    0    0  0.00000000000E+00  0.00000000000E+00  0.42676991063E+03  0.30969772916E+04  0.30674314643E+04 0.  0.
        4    1    3    3  502    0 -0.89452619471E+03 -0.82385867827E+03  0.11569249713E+04  0.16785104220E+04  0.12699999809E+01 0. -1.
       -4    1    3    3    0  502  0.89452619471E+03  0.82385867827E+03 -0.73015506062E+03  0.14184668696E+04  0.12699999809E+01 0.  1.
</event>
<event>
 5   0  0.2628425E-06  0.3189454E+04  0.7818609E-02  0.8191608E-01
        1   -1    0    0  501    0  0.00000000000E+00  0.00000000000E+00  0.24979607026E+04  0.24979607026E+04  0.50400001928E-02 0.  1.
       -1   -1    0    0    0  501  0.00000000000E+00  0.00000000000E+00 -0.10180924349E+04  0.10180924349E+04  0.50400001928E-02 0. -1.
    10030    2    1    2    0    0  0.00000000000E+00  0.00000000000E+00  0.14798682677E+04  0.35160531376E+04  0.31894544324E+04 0.  0.
        1    1    3    3  502    0 -0.10771272646E+04 -0.52587740213E+03  0.18995016367E+04  0.22460758344E+04  0.50400001928E-02 0.  1.
       -1    1    3    3    0  502  0.10771272646E+04  0.52587740213E+03 -0.41963336897E+03  0.12699773031E+04  0.50400001928E-02 0. -1.
</event>
<event>
 5   0  0.2672155E-06  0.2656075E+04  0.7818609E-02  0.8349399E-01
       -1   -1    0    0    0  501  0.00000000000E+00  0.00000000000E+00  0.22782112821E+04  0.22782112821E+04  0.50400001928E-02 0.  1.
        1   -1    0    0  501    0  0.00000000000E+00  0.00000000000E+00 -0.77415292578E+03  0.77415292580E+03  0.50400001928E-02 0. -1.
    10030    2    1    2    0    0  0.00000000000E+00  0.00000000000E+00  0.15040583563E+04  0.30523642079E+04  0.26560752471E+04 0.  0.
        5    1    3    3  502    0 -0.13222693155E+04  0.99433544546E+02  0.83631088205E+03  0.15677120762E+04  0.46999998093E+01 0. -1.
       -5    1    3    3    0  502  0.13222693155E+04 -0.99433544546E+02  0.66774747424E+03  0.14846521316E+04  0.46999998093E+01 0.  1.
</event>
<event>
 5   0  0.2422083E-06  0.3042893E+04  0.7818609E-02  0.8231588E-01
       -1   -1    0    0    0  501  0.00000000000E+00  0.00000000000E+00  0.24464808395E+04  0.24464808395E+04  0.50400001928E-02 0. -1.
        1   -1    0    0  501    0  0.00000000000E+00  0.00000000000E+00 -0.94617515098E+03  0.94617515100E+03  0.50400001928E-02 0.  1.
    10030    2    1    2    0    0  0.00000000000E+00  0.00000000000E+00  0.15003056885E+04  0.33926559905E+04  0.30428929509E+04 0.  0.
        2    1    3    3  502    0 -0.15002584958E+04  0.12090467494E+03  0.50232934552E+03  0.15867350964E+04  0.25500000920E-02 0.  1.
       -2    1    3    3    0  502  0.15002584958E+04 -0.12090467494E+03  0.99797634299E+03  0.18059208941E+04  0.25500000920E-02 0. -1.
</event>
<event>
 5   0  0.2422083E-06  0.2997278E+04  0.7818609E-02  0.8244509E-01
        1   -1    0    0  501    0  0.00000000000E+00  0.00000000000E+00  0.13447960549E+04  0.13447960549E+04  0.50400001928E-02 0.  1.
       -1   -1    0    0    0  501  0.00000000000E+00  0.00000000000E+00 -0.16700808318E+04  0.16700808318E+04  0.50400001928E-02 0. -1.
    10030    2    1    2    0    0  0.00000000000E+00  0.00000000000E+00 -0.32528477691E+03  0.30148768867E+04  0.29972775073E+04 0.  0.
        2    1    3    3  502    0  0.45070407495E+03 -0.12405148344E+04  0.55138978123E+03  0.14303992130E+04  0.25500000920E-02 0. -1.
       -2    1    3    3    0  502 -0.45070407495E+03  0.12405148344E+04 -0.87667455814E+03  0.15844776737E+04  0.25500000920E-02 0.  1.
</event>
<event>
 5   0  0.2672155E-06  0.2842318E+04  0.7818609E-02  0.8290249E-01
        1   -1    0    0  501    0  0.00000000000E+00  0.00000000000E+00  0.91083811404E+03  0.91083811406E+03  0.50400001928E-02 0.  1.
       -1   -1    0    0    0  501  0.00000000000E+00  0.00000000000E+00 -0.22174004976E+04  0.22174004976E+04  0.50400001928E-02 0. -1.
    10030    2    1    2    0    0  0.00000000000E+00  0.00000000000E+00 -0.13065623836E+04  0.31282386117E+04  0.28423179888E+04 0.  0.
        5    1    3    3  502    0  0.12305089134E+04 -0.42184355093E+03 -0.12831890624E+04  0.18272111064E+04  0.46999998093E+01 0. -1.
       -5    1    3    3    0  502 -0.12305089134E+04  0.42184355093E+03 -0.23373321145E+02  0.13010275053E+04  0.46999998093E+01 0.  1.
</event>
<event>
 5   0  0.2672155E-06  0.3021524E+04  0.7818609E-02  0.8237611E-01
       -1   -1    0    0    0  501  0.00000000000E+00  0.00000000000E+00  0.17215816044E+04  0.17215816044E+04  0.50400001928E-02 0.  1.
        1   -1    0    0  501    0  0.00000000000E+00  0.00000000000E+00 -0.13257586493E+04  0.13257586493E+04  0.50400001928E-02 0. -1.
    10030    2    1    2    0    0  0.00000000000E+00  0.00000000000E+00  0.39582295514E+03  0.30473402537E+04  0.30215239218E+04 0.  0.
        5    1    3    3  502    0  0.15464862316E+02  0.14965939100E+04  0.40545388301E+03  0.15506280775E+04  0.46999998093E+01 0.  1.
       -5    1    3    3    0  502 -0.15464862316E+02 -0.14965939100E+04 -0.96309278737E+01  0.14967121762E+04  0.46999998093E+01 0. -1.
</event>
<event>
 5   0  0.2422083E-06  0.3011154E+04  0.7818609E-02  0.8240553E-01
        1   -1    0    0  501    0  0.00000000000E+00  0.00000000000E+00  0.15587605910E+04  0.15587605910E+04  0.50400001928E-02 0.  1.
       -1   -1    0    0    0  501  0.00000000000E+00  0.00000000000E+00 -0.14542081872E+04  0.14542081872E+04  0.50400001928E-02 0. -1.
    10030    2    1    2    0    0  0.00000000000E+00  0.00000000000E+00  0.10455240379E+03  0.30129687783E+04  0.30111542062E+04 0.  0.
        2    1    3    3  502    0  0.14574267430E+04  0.27524125622E+03  0.31110553153E+03  0.15154659719E+04  0.25500000920E-02 0.  1.
       -2    1    3    3    0  502 -0.14574267430E+04 -0.27524125622E+03 -0.20655312774E+03  0.14975028063E+04  0.25500000920E-02 0. -1.
</event>
<event>
 5   0  0.2422083E-06  0.3042239E+04  0.7818609E-02  0.8231771E-01
        1   -1    0    0  501    0  0.00000000000E+00  0.00000000000E+00  0.17697748260E+04  0.17697748260E+04  0.50400001928E-02 0. -1.
       -1   -1    0    0    0  501  0.00000000000E+00  0.00000000000E+00 -0.13074005285E+04  0.13074005285E+04  0.50400001928E-02 0.  1.
    10030    2    1    2    0    0  0.00000000000E+00  0.00000000000E+00  0.46237429743E+03  0.30771753545E+04  0.30422390063E+04 0.  0.
        2    1    3    3  502    0  0.99798394787E+03 -0.61562036299E+03 -0.74887962878E+03  0.13913235030E+04  0.25500000920E-02 0.  1.
       -2    1    3    3    0  502 -0.99798394787E+03  0.61562036299E+03  0.12112539262E+04  0.16858518515E+04  0.25500000920E-02 0. -1.
</event>
<event>
 5   0  0.2422083E-06  0.3049563E+04  0.7818609E-02  0.8229718E-01
        1   -1    0    0  501    0  0.00000000000E+00  0.00000000000E+00  0.11890385096E+04  0.11890385096E+04  0.50400001928E-02 0.  1.
       -1   -1    0    0    0  501  0.00000000000E+00  0.00000000000E+00 -0.19553271172E+04  0.19553271172E+04  0.50400001928E-02 0. -1.
    10030    2    1    2    0    0  0.00000000000E+00  0.00000000000E+00 -0.76628860761E+03  0.31443656269E+04  0.30495634057E+04 0.  0.
        2    1    3    3  502    0  0.70968452809E+03 -0.66004662277E+03 -0.15968725275E+04  0.18679709694E+04  0.25500000920E-02 0. -1.
       -2    1    3    3    0  502 -0.70968452809E+03  0.66004662277E+03  0.83058391985E+03  0.12763946574E+04  0.25500000920E-02 0.  1.
</event>
<event>
 5   0  0.7217255E-06  0.2982510E+04  0.7818609E-02  0.8248743E-01
       -2   -1    0    0    0  501  0.00000000000E+00  0.00000000000E+00  0.89990947825E+03  0.89990947825E+03  0.25500000920E-02 0. -1.
        2   -1    0    0  501    0  0.00000000000E+00  0.00000000000E+00 -0.24711842342E+04  0.24711842342E+04  0.25500000920E-02 0.  1.
    10030    2    1    2    0    0  0.00000000000E+00  0.00000000000E+00 -0.15712747559E+04  0.33710937124E+04  0.29825104291E+04 0.  0.
        1    1    3    3  502    0 -0.13988746976E+04  0.18347739530E+03 -0.13316114796E+04  0.19400266769E+04  0.50400001928E-02 0.  1.
       -1    1    3    3    0  502  0.13988746976E+04 -0.18347739530E+03 -0.23966327631E+03  0.14310670356E+04  0.50400001928E-02 0. -1.
</event>
<event>
 5   0  0.2672155E-06  0.2766173E+04  0.7818609E-02  0.8313848E-01
       -1   -1    0    0    0  501  0.00000000000E+00  0.00000000000E+00  0.11659041272E+04  0.11659041273E+04  0.50400001928E-02 0. -1.
        1   -1    0    0  501    0  0.00000000000E+00  0.00000000000E+00 -0.16407257244E+04  0.16407257244E+04  0.50400001928E-02 0.  1.
    10030    2    1    2    0    0  0.00000000000E+00  0.00000000000E+00 -0.47482159711E+03  0.28066298516E+04  0.27661734535E+04 0.  0.
        5    1    3    3  502    0 -0.81719040754E+03 -0.79617687494E+03  0.55582190345E+03  0.12691169594E+04  0.46999998093E+01 0. -1.
       -5    1    3    3    0  502  0.81719040754E+03  0.79617687494E+03 -0.10306435006E+04  0.15375128922E+04  0.46999998093E+01 0.  1.
</event>
<event>
 5   0  0.2422083E-06  0.2948000E+04  0.7818609E-02  0.8258737E-01
       -1   -1    0    0    0  501  0.00000000000E+00  0.00000000000E+00  0.11255603644E+04  0.11255603644E+04  0.50400001928E-02 0.  1.
        1   -1    0    0  501    0  0.00000000000E+00  0.00000000000E+00 -0.19303067111E+04  0.19303067111E+04  0.50400001928E-02 0. -1.
    10030    2    1    2    0    0  0.00000000000E+00  0.00000000000E+00 -0.80474634666E+03  0.30558670755E+04  0.29480004920E+04 0.  0.
        2    1    3    3  502    0  0.13485132447E+04 -0.62542404257E+02 -0.10158707385E+04  0.16894948596E+04  0.25500000920E-02 0. -1.
       -2    1    3    3    0  502 -0.13485132447E+04  0.62542404257E+02  0.21112439185E+03  0.13663722158E+04  0.25500000920E-02 0.  1.
</event>
<event>
 5   0  0.2628425E-06  0.3003168E+04  0.7818609E-02  0.8242827E-01
        1   -1    0    0  501    0  0.00000000000E+00  0.00000000000E+00  0.19446957226E+04  0.19446957226E+04  0.50400001928E-02 0. -1.
       -1   -1    0    0    0  501  0.00000000000E+00  0.00000000000E+00 -0.11594380594E+04  0.11594380594E+04  0.50400001928E-02 0.  1.
    10030    2    1    2    0    0  0.00000000000E+00  0.00000000000E+00  0.78525766324E+03  0.31041337820E+04  0.30031678173E+04 0.  0.
        1    1    3    3  502    0  0.65040747055E+03  0.27264766392E+03 -0.97760475576E+03  0.12054367196E+04  0.50400001928E-02 0.  1.
       -1    1    3    3    0  502 -0.65040747055E+03 -0.27264766392E+03  0.17628624190E+04  0.18986970624E+04  0.50400001928E-02 0. -1.
</event>
<event>
 5   0  0.6780150E-06  0.3005820E+04  0.7818609E-02  0.8242071E-01
       -2   -1    0    0    0  501  0.00000000000E+00  0.00000000000E+00  0.17796105456E+04  0.17796105456E+04  0.25500000920E-02 0. -1.
        2   -1    0    0  501    0  0.00000000000E+00  0.00000000000E+00 -0.12692317334E+04  0.12692317334E+04  0.25500000920E-02 0.  1.
    10030    2    1    2    0    0  0.00000000000E+00  0.00000000000E+00  0.51037881217E+03  0.30488422791E+04  0.30058198067E+04 0.  0.
        5    1    3    3  502    0  0.39914707199E+03 -0.12170521451E+04 -0.54230953723E+03  0.13909191325E+04  0.46999998093E+01 0.  1.
       -5    1    3    3    0  502 -0.39914707199E+03  0.12170521451E+04  0.10526883494E+04  0.16579231466E+04  0.46999998093E+01 0. -1.
</event>
<event>
 5   0  0.6780150E-06  0.2974759E+04  0.7818609E-02  0.8250976E-01
        2   -1    0    0  501    0  0.00000000000E+00  0.00000000000E+00  0.25690859255E+04  0.25690859255E+04  0.25500000920E-02 0.  1.
       -2   -1    0    0    0  501  0.00000000000E+00  0.00000000000E+00 -0.86112253984E+03  0.86112253985E+03  0.25500000920E-02 0. -1.
    10030    2    1    2    0    0  0.00000000000E+00  0.00000000000E+00  0.17079633857E+04  0.34302084654E+04  0.29747590136E+04 0.  0.
        5    1    3    3  502    0  0.39847541760E+03  0.26756991031E+03 -0.76935844708E+03  0.90681355605E+03  0.46999998093E+01 0. -1.
       -5    1    3    3    0  502 -0.39847541760E+03 -0.26756991031E+03  0.24773218328E+04  0.25233949093E+04  0.46999998093E+01 0.  1.
</event>
<event>
 5   0  0.7193153E-06  0.2996982E+04  0.7818609E-02  0.8244593E-01
       -2   -1    0    0    0  501  0.00000000000E+00  0.00000000000E+00  0.13926931953E+04  0.13926931953E+04  0.25500000920E-02 0. -1.
        2   -1    0    0  501    0  0.00000000000E+00  0.00000000000E+00 -0.16123260056E+04  0.16123260056E+04  0.25500000920E-02 0.  1.
    10030    2    1    2    0    0  0.00000000000E+00  0.00000000000E+00 -0.21963281024E+03  0.30050192009E+04  0.29969821198E+04 0.  0.
        4    1    3    3  502    0 -0.12315613747E+03  0.80360339300E+03 -0.13719724682E+04  0.15947588889E+04  0.12699999809E+01 0.  1.
       -4    1    3    3    0  502  0.12315613747E+03 -0.80360339300E+03  0.11523396579E+04  0.14102603120E+04  0.12699999809E+01 0. -1.
</event>
<event>
 5   0  0.2672155E-06  0.3003963E+04  0.7818609E-02  0.8242600E-01
       -1   -1    0    0    0  501  0.00000000000E+00  0.00000000000E+00  0.10865120240E+04  0.10865120240E+04  0.50400001928E-02 0. -1.
        1   -1    0    0  501    0  0.00000000000E+00  0.00000000000E+00 -0.20763215687E+04  0.20763215687E+04  0.50400001928E-02 0.  1.
    10030    2    1    2    0    0  0.00000000000E+00  0.00000000000E+00 -0.98980954471E+03  0.31628335928E+04  0.30039629493E+04 0.  0.
        5    1    3    3  502    0 -0.99661722920E+03  0.45139280016E+03 -0.15783684364E+04  0.19204870145E+04  0.46999998093E+01 0.  1.
       -5    1    3    3    0  502  0.99661722920E+03 -0.45139280016E+03  0.58855889173E+03  0.12423465783E+04  0.46999998093E+01 0. -1.
</event>
<event>
 5   0  0.6792811E-06  0.3016092E+04  0.7818609E-02  0.8239151E-01
        2   -1    0    0  501    0  0.00000000000E+00  0.00000000000E+00  0.17373748695E+04  0.17373748695E+04  0.25500000920E-02 0. -1.
       -2   -1    0    0    0  501  0.00000000000E+00  0.00000000000E+00 -0.13089877274E+04  0.13089877274E+04  0.25500000920E-02 0.  1.
    10030    2    1    2    0    0  0.00000000000E+00  0.00000000000E+00  0.42838714212E+03  0.30463625969E+04  0.30160917639E+04 0.  0.
        2    1    3    3  502    0  0.11119248795E+04 -0.42201514966E+03  0.11507150571E+04  0.16548772966E+04  0.25500000920E-02 0. -1.
       -2    1    3    3    0  502 -0.11119248795E+04  0.42201514966E+03 -0.72232791500E+03  0.13914853003E+04  0.25500000920E-02 0.  1.
</event>
<event>
 5   0  0.2422083E-06  0.2991521E+04  0.7818609E-02  0.8246156E-01
        1   -1    0    0  501    0  0.00000000000E+00  0.00000000000E+00  0.18551844576E+04  0.18551844576E+04  0.50400001928E-02 0.  1.
       -1   -1    0    0    0  501  0.00000000000E+00  0.00000000000E+00 -0.12059714639E+04  0.12059714639E+04  0.50400001928E-02 0. -1.
    10030    2    1    2    0    0  0.00000000000E+00  0.00000000000E+00  0.64921299372E+03  0.30611559216E+04  0.29915210287E+04 0.  0.
        2    1    3    3  502    0 -0.67330684863E+03 -0.11523512134E+04 -0.36642334814E+03  0.13840236637E+04  0.25500000920E-02 0. -1.
       -2    1    3    3    0  502  0.67330684863E+03  0.11523512134E+04  0.10156363419E+04  0.16771322579E+04  0.25500000920E-02 0.  1.
</event>
<event>
 5   0  0.6792811E-06  0.3011353E+04  0.7818609E-02  0.8240496E-01
        2   -1    0    0  501    0  0.00000000000E+00  0.00000000000E+00  0.13190747427E+04  0.13190747427E+04  0.25500000920E-02 0.  1.
       -2   -1    0    0    0  501  0.00000000000E+00  0.00000000000E+00 -0.17186761830E+04  0.17186761830E+04  0.25500000920E-02 0. -1.
    10030    2    1    2    0    0  0.00000000000E+00  0.00000000000E+00 -0.39960144024E+03  0.30377509257E+04  0.30113534126E+04 0.  0.
        2    1    3    3  502    0  0.10235082545E+03 -0.96481925745E+03 -0.13612888475E+04  0.16716636077E+04  0.25500000920E-02 0. -1.
       -2    1    3    3    0  502 -0.10235082545E+03  0.96481925745E+03  0.96168740727E+03  0.13660873180E+04  0.25500000920E-02 0.  1.
</event>
<event>
 5   0  0.2672155E-06  0.3113395E+04  0.7818609E-02  0.8212071E-01
       -1   -1    0    0    0  501  0.00000000000E+00  0.00000000000E+00  0.96751275744E+03  0.96751275745E+03  0.50400001928E-02 0.  1.
        1   -1    0    0  501    0  0.00000000000E+00  0.00000000000E+00 -0.25046778063E+04  0.25046778063E+04  0.50400001928E-02 0. -1.
    10030    2    1    2    0    0  0.00000000000E+00  0.00000000000E+00 -0.15371650489E+04  0.34721905638E+04  0.31133954011E+04 0.  0.
        5    1    3    3  502    0  0.90387665910E+02  0.15830220773E+03 -0.24927256797E+04  0.24993865094E+04  0.46999998093E+01 0. -1.
       -5    1    3    3    0  502 -0.90387665910E+02 -0.15830220773E+03  0.95556063080E+03  0.97280405440E+03  0.46999998093E+01 0.  1.
</event>
<event>
 5   0  0.7193153E-06  0.3009743E+04  0.7818609E-02  0.8240954E-01
       -2   -1    0    0    0  501  0.00000000000E+00  0.00000000000E+00  0.19362134269E+04  0.19362134269E+04  0.25500000920E-02 0. -1.
        2   -1    0    0  501    0  0.00000000000E+00  0.00000000000E+00 -0.11696218924E+04  0.11696218924E+04  0.25500000920E-02 0.  1.
    10030    2    1    2    0    0  0.00000000000E+00  0.00000000000E+00  0.76659153454E+03  0.31058353193E+04  0.30097425886E+04 0.  0.
        4    1    3    3  502    0 -0.69783917088E+02  0.23584088893E+03  0.19153325022E+04  0.19310595348E+04  0.12699999809E+01 0. -1.
       -4    1    3    3    0  502  0.69783917088E+02 -0.23584088893E+03 -0.11487409677E+04  0.11747757845E+04  0.12699999809E+01 0.  1.
</event>
<event>
 5   0  0.2628425E-06  0.2880231E+04  0.7818609E-02  0.8278784E-01
        1   -1    0    0  501    0  0.00000000000E+00  0.00000000000E+00  0.12118578407E+04  0.12118578407E+04  0.50400001928E-02 0.  1.
       -1   -1    0    0    0  501  0.00000000000E+00  0.00000000000E+00 -0.17113659091E+04  0.17113659091E+04  0.50400001928E-02 0. -1.
    10030    2    1    2    0    0  0.00000000000E+00  0.00000000000E+00 -0.49950806842E+03  0.29232237499E+04  0.28802306820E+04 0.  0.
        1    1    3    3  502    0  0.46716233486E+02  0.12845818516E+04  0.40924488697E+03  0.13490049360E+04  0.50400001928E-02 0.  1.
       -1    1    3    3    0  502 -0.46716233486E+02 -0.12845818516E+04 -0.90875295539E+03  0.15742188138E+04  0.50400001928E-02 0. -1.
</event>
<event>
 5   0  0.2672155E-06  0.2825847E+04  0.7818609E-02  0.8295289E-01
       -1   -1    0    0    0  501  0.00000000000E+00  0.00000000000E+00  0.15046018355E+04  0.15046018355E+04  0.50400001928E-02 0. -1.
        1   -1    0    0  501    0  0.00000000000E+00  0.00000000000E+00 -0.13268309490E+04  0.13268309490E+04  0.50400001928E-02 0.  1.
    10030    2    1    2    0    0  0.00000000000E+00  0.00000000000E+00  0.17777088651E+03  0.28314327846E+04  0.28258466210E+04 0.  0.
        5    1    3    3  502    0  0.72833088845E+03  0.91074074564E+03  0.88821906302E+03  0.14659023783E+04  0.46999998093E+01 0. -1.
       -5    1    3    3    0  502 -0.72833088845E+03 -0.91074074564E+03 -0.71044817651E+03  0.13655304062E+04  0.46999998093E+01 0.  1.
</event>
<event>
 5   0  0.2628425E-06  0.3151160E+04  0.7818609E-02  0.8201836E-01
       -1   -1    0    0    0  501  0.00000000000E+00  0.00000000000E+00  0.27365246136E+04  0.27365246136E+04  0.50400001928E-02 0. -1.
        1   -1    0    0  501    0  0.00000000000E+00  0.00000000000E+00 -0.90715516603E+03  0.90715516605E+03  0.50400001928E-02 0.  1.
    10030    2    1    2    0    0  0.00000000000E+00  0.00000000000E+00  0.18293694476E+04  0.36436797797E+04  0.31511600659E+04 0.  0.
        1    1    3    3  502    0  0.52697228493E+02 -0.44469283333E+03 -0.83202324033E+03  0.94487638683E+03  0.50400001928E-02 0.  1.
       -1    1    3    3    0  502 -0.52697228493E+02  0.44469283333E+03  0.26613926879E+04  0.26988033929E+04  0.50400001928E-02 0. -1.
</event>
<event>
 5   0  0.6792811E-06  0.2552866E+04  0.7818609E-02  0.8384390E-01
        2   -1    0    0  501    0  0.00000000000E+00  0.00000000000E+00  0.18392290826E+04  0.18392290826E+04  0.25500000920E-02 0.  1.
       -2   -1    0    0    0  501  0.00000000000E+00  0.00000000000E+00 -0.88585031487E+03  0.88585031487E+03  0.25500000920E-02 0. -1.
    10030    2    1    2    0    0  0.00000000000E+00  0.00000000000E+00  0.95337876775E+03  0.27250793975E+04  0.25528663592E+04 0.  0.
        2    1    3    3  502    0  0.30817324233E+03  0.11457743491E+04 -0.25710769873E+02  0.11867732092E+04  0.25500000920E-02 0.  1.
       -2    1    3    3    0  502 -0.30817324233E+03 -0.11457743491E+04  0.97908953762E+03  0.15383061883E+04  0.25500000920E-02 0. -1.
</event>
<event>
 5   0  0.7201538E-06  0.3006025E+04  0.7818609E-02  0.8242013E-01
       -2   -1    0    0    0  501  0.00000000000E+00  0.00000000000E+00  0.11029411189E+04  0.11029411189E+04  0.25500000920E-02 0.  1.
        2   -1    0    0  501    0  0.00000000000E+00  0.00000000000E+00 -0.20482019456E+04  0.20482019456E+04  0.25500000920E-02 0. -1.
    10030    2    1    2    0    0  0.00000000000E+00  0.00000000000E+00 -0.94526082663E+03  0.31511430645E+04  0.30060247143E+04 0.  0.
        3    1    3    3  502    0  0.37980391059E+03 -0.14242197197E+03 -0.19897398437E+04  0.20306648381E+04  0.10100000352E+00 0. -1.
       -3    1    3    3    0  502 -0.37980391059E+03  0.14242197197E+03  0.10444790171E+04  0.11204782265E+04  0.10100000352E+00 0.  1.
</event>
<event>
 5   0  0.2672155E-06  0.3008888E+04  0.7818609E-02  0.8241197E-01
        1   -1    0    0  501    0  0.00000000000E+00  0.00000000000E+00  0.18211765796E+04  0.18211765796E+04  0.50400001928E-02 0.  1.
       -1   -1    0    0    0  501  0.00000000000E+00  0.00000000000E+00 -0.12427965121E+04  0.12427965122E+04  0.50400001928E-02 0. -1.
    10030    2    1    2    0    0  0.00000000000E+00  0.00000000000E+00  0.57838006742E+03  0.30639730917E+04  0.30088881010E+04 0.  0.
        5    1    3    3  502    0 -0.14964582530E+04 -0.12491785771E+03  0.19620547787E+03  0.15144340374E+04  0.46999998093E+01 0.  1.
       -5    1    3    3    0  502  0.14964582530E+04  0.12491785771E+03  0.38217458955E+03  0.15495390543E+04  0.46999998093E+01 0. -1.
</event>
<event>
 5   0  0.6780150E-06  0.3055800E+04  0.7818609E-02  0.8227974E-01
       -2   -1    0    0    0  501  0.00000000000E+00  0.00000000000E+00  0.15673609439E+04  0.15673609439E+04  0.25500000920E-02 0.  1.
        2   -1    0    0  501    0  0.00000000000E+00  0.00000000000E+00 -0.14894324961E+04  0.14894324961E+04  0.25500000920E-02 0. -1.
    10030    2    1    2    0    0  0.00000000000E+00  0.00000000000E+00  0.77928447766E+02  0.30567934400E+04  0.30557999430E+04 0.  0.
        5    1    3    3  502    0 -0.71042410218E+03 -0.31509871843E+03  0.13548639244E+04  0.15619436453E+04  0.46999998093E+01 0.  1.
       -5    1    3    3    0  502  0.71042410218E+03  0.31509871843E+03 -0.12769354766E+04  0.14948497947E+04  0.46999998093E+01 0. -1.
</event>
<event>
 5   0  0.6780150E-06  0.2993921E+04  0.7818609E-02  0.8245469E-01
       -2   -1    0    0    0  501  0.00000000000E+00  0.00000000000E+00  0.34095210538E+04  0.34095210538E+04  0.25500000920E-02 0. -1.
        2   -1    0    0  501    0  0.00000000000E+00  0.00000000000E+00 -0.65724493818E+03  0.65724493818E+03  0.25500000920E-02 0.  1.
    10030    2    1    2    0    0  0.00000000000E+00  0.00000000000E+00  0.27522761156E+04  0.40667659920E+04  0.29939208101E+04 0.  0.
        5    1    3    3  502    0 -0.16538834241E+03 -0.14210837450E+04  0.77779523380E+03  0.16284409200E+04  0.46999998093E+01 0.  1.
       -5    1    3    3    0  502  0.16538834241E+03  0.14210837450E+04  0.19744808818E+04  0.24383250720E+04  0.46999998093E+01 0. -1.
</event>
<event>
 5   0  0.6780150E-06  0.3002034E+04  0.7818609E-02  0.8243150E-01
        2   -1    0    0  501    0  0.00000000000E+00  0.00000000000E+00  0.20116231265E+04  0.20116231265E+04  0.25500000920E-02 0.  1.
       -2   -1    0    0    0  501  0.00000000000E+00  0.00000000000E+00 -0.11200168199E+04  0.11200168199E+04  0.25500000920E-02 0. -1.
    10030    2    1    2    0    0  0.00000000000E+00  0.00000000000E+00  0.89160630659E+03  0.31316399464E+04  0.30020338020E+04 0.  0.
        5    1    3    3  502    0 -0.36577374747E+03 -0.71078325917E+03 -0.87948879473E+03  0.11884973310E+04  0.46999998093E+01 0. -1.
       -5    1    3    3    0  502  0.36577374747E+03  0.71078325917E+03  0.17710951013E+04  0.19431426154E+04  0.46999998093E+01 0.  1.
</event>
<event>
 5   0  0.2628425E-06  0.3025898E+04  0.7818609E-02  0.8236374E-01
       -1   -1    0    0    0  501  0.00000000000E+00  0.00000000000E+00  0.12048865051E+04  0.12048865051E+04  0.50400001928E-02 0.  1.
        1   -1    0    0  501    0  0.00000000000E+00  0.00000000000E+00 -0.18997763930E+04  0.18997763930E+04  0.50400001928E-02 0. -1.
    10030    2    1    2    0    0  0.00000000000E+00  0.00000000000E+00 -0.69488988790E+03  0.31046628981E+04  0.30258981732E+04 0.  0.
        1    1    3    3  502    0  0.21820279396E+03 -0.14487393102E+04  0.39950268391E+02  0.14656241238E+04  0.50400001928E-02 0. -1.
       -1    1    3    3    0  502 -0.21820279396E+03  0.14487393102E+04 -0.73484015629E+03  0.16390387743E+04  0.50400001928E-02 0.  1.
</event>
<event>
 5   0  0.7193153E-06  0.2909154E+04  0.7818609E-02  0.8270159E-01
       -2   -1    0    0    0  501  0.00000000000E+00  0.00000000000E+00  0.11868257721E+04  0.11868257721E+04  0.25500000920E-02 0.  1.
        2   -1    0    0  501    0  0.00000000000E+00  0.00000000000E+00 -0.17827342254E+04  0.17827342254E+04  0.25500000920E-02 0. -1.
    10030    2    1    2    0    0  0.00000000000E+00  0.00000000000E+00 -0.59590845329E+03  0.29695599976E+04  0.29091544638E+04 0.  0.
        4    1    3    3  502    0  0.98015300476E+03 -0.25235839123E+03  0.76844302474E+03  0.12707836030E+04  0.12699999809E+01 0.  1.
       -4    1    3    3    0  502 -0.98015300476E+03  0.25235839123E+03 -0.13643514780E+04  0.16987763946E+04  0.12699999809E+01 0. -1.
</event>
<event>
 5   0  0.2628425E-06  0.2996725E+04  0.7818609E-02  0.8244667E-01
       -1   -1    0    0    0  501  0.00000000000E+00  0.00000000000E+00  0.10562148052E+04  0.10562148053E+04  0.50400001928E-02 0.  1.
        1   -1    0    0  501    0  0.00000000000E+00  0.00000000000E+00 -0.21255996987E+04  0.21255996987E+04  0.50400001928E-02 0. -1.
    10030    2    1    2    0    0  0.00000000000E+00  0.00000000000E+00 -0.10693848934E+04  0.31818145039E+04  0.29967247934E+04 0.  0.
        1    1    3    3  502    0  0.11835921237E+04 -0.62826453366E+03  0.17715141398E+03  0.13516616674E+04  0.50400001928E-02 0.  1.
       -1    1    3    3    0  502 -0.11835921237E+04  0.62826453366E+03 -0.12465363074E+04  0.18301528366E+04  0.50400001928E-02 0. -1.
</event>
<event>
 5   0  0.2552990E-06  0.2945635E+04  0.7818609E-02  0.8259428E-01
       -1   -1    0    0    0  501  0.00000000000E+00  0.00000000000E+00  0.10410673774E+04  0.10410673774E+04  0.50400001928E-02 0.  1.
        1   -1    0    0  501    0  0.00000000000E+00  0.00000000000E+00 -0.20836230838E+04  0.20836230838E+04  0.50400001928E-02 0. -1.
    10030    2    1    2    0    0  0.00000000000E+00  0.00000000000E+00 -0.10425557064E+04  0.31246904612E+04  0.29456354285E+04 0.  0.
        3    1    3    3  502    0 -0.12981713747E+04 -0.96692518667E+02 -0.12520617479E+04  0.18061719165E+04  0.10100000352E+00 0. -1.
       -3    1    3    3    0  502  0.12981713747E+04  0.96692518667E+02  0.20950604153E+03  0.13185185447E+04  0.10100000352E+00 0.  1.
</event>
<event>
 5   0  0.2422083E-06  0.3031794E+04  0.7818609E-02  0.8234710E-01
        1   -1    0    0  501    0  0.00000000000E+00  0.00000000000E+00  0.20172570418E+04  0.20172570418E+04  0.50400001928E-02 0. -1.
       -1   -1    0    0    0  501  0.00000000000E+00  0.00000000000E+00 -0.11391429438E+04  0.11391429438E+04  0.50400001928E-02 0.  1.
    10030    2    1    2    0    0  0.00000000000E+00  0.00000000000E+00  0.87811409806E+03  0.31563999856E+04  0.30317942707E+04 0.  0.
        2    1    3    3  502    0 -0.80243581035E+03 -0.12524694972E+04  0.13488297912E+03  0.14935784175E+04  0.25500000920E-02 0. -1.
       -2    1    3    3    0  502  0.80243581035E+03  0.12524694972E+04  0.74323111895E+03  0.16628215681E+04  0.25500000920E-02 0.  1.
</event>
<event>
 5   0  0.7193153E-06  0.2850021E+04  0.7818609E-02  0.8287905E-01
        2   -1    0    0  501    0  0.00000000000E+00  0.00000000000E+00  0.15868146467E+04  0.15868146468E+04  0.25500000920E-02 0. -1.
       -2   -1    0    0    0  501  0.00000000000E+00  0.00000000000E+00 -0.12797053794E+04  0.12797053794E+04  0.25500000920E-02 0.  1.
    10030    2    1    2    0    0  0.00000000000E+00  0.00000000000E+00  0.30710926732E+03  0.28665200262E+04  0.28500212207E+04 0.  0.
        4    1    3    3  502    0  0.29113553760E+03 -0.79735849241E+03 -0.99767322631E+03  0.13099213511E+04  0.12699999809E+01 0.  1.
       -4    1    3    3    0  502 -0.29113553760E+03  0.79735849241E+03  0.13047824936E+04  0.15565986751E+04  0.12699999809E+01 0. -1.
</event>
<event>
 5   0  0.2504260E-06  0.3011033E+04  0.7818609E-02  0.8240587E-01
        1   -1    0    0  501    0  0.00000000000E+00  0.00000000000E+00  0.76967341891E+03  0.76967341893E+03  0.50400001928E-02 0. -1.
       -1   -1    0    0    0  501  0.00000000000E+00  0.00000000000E+00 -0.29448585512E+04  0.29448585512E+04  0.50400001928E-02 0.  1.
    10030    2    1    2    0    0  0.00000000000E+00  0.00000000000E+00 -0.21751851323E+04  0.37145319701E+04  0.30110326131E+04 0.  0.
        4    1    3    3  502    0  0.12402511186E+04  0.71389515755E+03 -0.16645205098E+04  0.21951080324E+04  0.12699999809E+01 0. -1.
       -4    1    3    3    0  502 -0.12402511186E+04 -0.71389515755E+03 -0.51066462244E+03  0.15194239378E+04  0.12699999809E+01 0.  1.
</event>
<event>
 5   0  0.2552990E-06  0.2848005E+04  0.7818609E-02  0.8288518E-01
        1   -1    0    0  501    0  0.00000000000E+00  0.00000000000E+00  0.24145475800E+04  0.24145475800E+04  0.50400001928E-02 0.  1.
       -1   -1    0    0    0  501  0.00000000000E+00  0.00000000000E+00 -0.83981922052E+03  0.83981922054E+03  0.50400001928E-02 0. -1.
    10030    2    1    2    0    0  0.00000000000E+00  0.00000000000E+00  0.15747283594E+04  0.32543668005E+04  0.28480052434E+04 0.  0.
        3    1    3    3  502    0 -0.17621048820E+03 -0.10262970189E+04 -0.32253784240E+03  0.10901221845E+04  0.10100000352E+00 0. -1.
       -3    1    3    3    0  502  0.17621048820E+03  0.10262970189E+04  0.18972662018E+04  0.21642446160E+04  0.10100000352E+00 0.  1.
</event>
<event>
 5   0  0.7217255E-06  0.3007191E+04  0.7818609E-02  0.8241680E-01
        2   -1    0    0  501    0  0.00000000000E+00  0.00000000000E+00  0.19809707948E+04  0.19809707948E+04  0.25500000920E-02 0. -1.
       -2   -1    0    0    0  501  0.00000000000E+00  0.00000000000E+00 -0.11412586777E+04  0.11412586777E+04  0.25500000920E-02 0.  1.
    10030    2    1    2    0    0  0.00000000000E+00  0.00000000000E+00  0.83971211716E+03  0.31222294725E+04  0.30071914538E+04 0.  0.
        1    1    3    3  502    0 -0.88273133541E+03 -0.24280940692E+03 -0.81851154804E+03  0.12280603295E+04  0.50400001928E-02 0.  1.
       -1    1    3    3    0  502  0.88273133541E+03  0.24280940692E+03  0.16582236652E+04  0.18941691430E+04  0.50400001928E-02 0. -1.
</event>
<event>
 5   0  0.6780150E-06  0.2604951E+04  0.7818609E-02  0.8366521E-01
       -2   -1    0    0    0  501  0.00000000000E+00  0.00000000000E+00  0.92406682056E+03  0.92406682056E+03  0.25500000920E-02 0. -1.
        2   -1    0    0  501    0  0.00000000000E+00  0.00000000000E+00 -0.18358436573E+04  0.18358436573E+04  0.25500000920E-02 0.  1.
    10030    2    1    2    0    0  0.00000000000E+00  0.00000000000E+00 -0.91177683671E+03  0.27599104778E+04  0.26049508336E+04 0.  0.
        5    1    3    3  502    0 -0.47066243533E+03 -0.98687803905E+03 -0.12057839632E+04  0.16276942121E+04  0.46999998093E+01 0.  1.
       -5    1    3    3    0  502  0.47066243533E+03  0.98687803905E+03  0.29400712654E+03  0.11322162658E+04  0.46999998093E+01 0. -1.
</event>
<event>
 5   0  0.2504260E-06  0.3010667E+04  0.7818609E-02  0.8240691E-01
       -1   -1    0    0    0  501  0.00000000000E+00  0.00000000000E+00  0.12743820849E+04  0.12743820849E+04  0.50400001928E-02 0.  1.
        1   -1    0    0  501    0  0.00000000000E+00  0.00000000000E+00 -0.17781394665E+04  0.17781394665E+04  0.50400001928E-02 0. -1.
    10030    2    1    2    0    0  0.00000000000E+00  0.00000000000E+00 -0.50375738158E+03  0.30525215514E+04  0.30106670893E+04 0.  0.
        4    1    3    3  502    0  0.13580691280E+04  0.58473116407E+03 -0.53823230588E+03  0.15735176894E+04  0.12699999809E+01 0. -1.
       -4    1    3    3    0  502 -0.13580691280E+04 -0.58473116407E+03  0.34474924295E+02  0.14790038621E+04  0.12699999809E+01 0.  1.
</event>
<event>
 5   0  0.7193153E-06  0.3055673E+04  0.7818609E-02  0.8228009E-01
        2   -1    0    0  501    0  0.00000000000E+00  0.00000000000E+00  0.10117841074E+04  0.10117841074E+04  0.25500000920E-02 0. -1.
       -2   -1    0    0    0  501  0.00000000000E+00  0.00000000000E+00 -0.23070977130E+04  0.23070977130E+04  0.25500000920E-02 0.  1.
    10030    2    1    2    0    0  0.00000000000E+00  0.00000000000E+00 -0.12953136056E+04  0.33188818204E+04  0.30556732811E+04 0.  0.
        4    1    3    3  502    0 -0.96406865569E+02  0.10620951173E+04 -0.18359444479E+04  0.21232131194E+04  0.12699999809E+01 0.  1.
       -4    1    3    3    0  502  0.96406865569E+02 -0.10620951173E+04  0.54063084225E+03  0.11956687010E+04  0.12699999809E+01 0. -1.
</event>
<event>
 5   0  0.6792811E-06  0.2903868E+04  0.7818609E-02  0.8271728E-01
       -2   -1    0    0    0  501  0.00000000000E+00  0.00000000000E+00  0.12972348535E+04  0.12972348535E+04  0.25500000920E-02 0. -1.
        2   -1    0    0  501    0  0.00000000000E+00  0.00000000000E+00 -0.16250816536E+04  0.16250816536E+04  0.25500000920E-02 0.  1.
    10030    2    1    2    0    0  0.00000000000E+00  0.00000000000E+00 -0.32784680015E+03  0.29223165071E+04  0.29038681518E+04 0.  0.
        2    1    3    3  502    0 -0.65325887111E+03  0.39783451940E+03 -0.14059004863E+04  0.16004923101E+04  0.25500000920E-02 0.  1.
       -2    1    3    3    0  502  0.65325887111E+03 -0.39783451940E+03  0.10780536861E+04  0.13218241969E+04  0.25500000920E-02 0. -1.
</event>
<event>
 5   0  0.2628425E-06  0.3012099E+04  0.7818609E-02  0.8240284E-01
       -1   -1    0    0    0  501  0.00000000000E+00  0.00000000000E+00  0.14109041822E+04  0.14109041822E+04  0.50400001928E-02 0.  1.
        1   -1    0    0  501    0  0.00000000000E+00  0.00000000000E+00 -0.16076107123E+04  0.16076107123E+04  0.50400001928E-02 0. -1.
    10030    2    1    2    0    0  0.00000000000E+00  0.00000000000E+00 -0.19670653015E+03  0.30185148945E+04  0.30120987217E+04 0.  0.
        1    1    3    3  502    0 -0.74838762510E+03 -0.35984387966E+03  0.11607517736E+04  0.14272057788E+04  0.50400001928E-02 0.  1.
       -1    1    3    3    0  502  0.74838762510E+03  0.35984387966E+03 -0.13574583038E+04  0.15913091157E+04  0.50400001928E-02 0. -1.
</event>
<event>
 5   0  0.6792811E-06  0.2998342E+04  0.7818609E-02  0.8244205E-01
       -2   -1    0    0    0  501  0.00000000000E+00  0.00000000000E+00  0.10512802525E+04  0.10512802525E+04  0.25500000920E-02 0. -1.
        2   -1    0    0  501    0  0.00000000000E+00  0.00000000000E+00 -0.21378820861E+04  0.21378820861E+04  0.25500000920E-02 0.  1.
    10030    2    1    2    0    0  0.00000000000E+00  0.00000000000E+00 -0.10866018335E+04  0.31891623386E+04  0.29983416879E+04 0.  0.
        2    1    3    3  502    0  0.46226071572E+03 -0.23084157612E+03 -0.20401822013E+04  0.21045940741E+04  0.25500000920E-02 0.  1.
       -2    1    3    3    0  502 -0.46226071572E+03  0.23084157612E+03  0.95358036774E+03  0.10845682645E+04  0.25500000920E-02 0. -1.
</event>
<event>
 5   0  0.2422083E-06  0.2992618E+04  0.7818609E-02  0.8245842E-01
        1   -1    0    0  501    0  0.00000000000E+00  0.00000000000E+00  0.17573707985E+04  0.17573707985E+04  0.50400001928E-02 0.  1.
       -1   -1    0    0    0  501  0.00000000000E+00  0.00000000000E+00 -0.12740285967E+04  0.12740285967E+04  0.50400001928E-02 0. -1.
    10030    2    1    2    0    0  0.00000000000E+00  0.00000000000E+00  0.48334220183E+03  0.30313993952E+04  0.29926180193E+04 0.  0.
        2    1    3    3  502    0  0.10123325029E+04  0.31778251338E+03 -0.82705482342E+03  0.13452964369E+04  0.25500000920E-02 0. -1.
       -2    1    3    3    0  502 -0.10123325029E+04 -0.31778251338E+03  0.13103970253E+04  0.16861029583E+04  0.25500000920E-02 0.  1.
</event>
<event>
 5   0  0.2504260E-06  0.2974256E+04  0.7818609E-02  0.8251121E-01
        1   -1    0    0  501    0  0.00000000000E+00  0.00000000000E+00  0.15964216653E+04  0.15964216654E+04  0.50400001928E-02 0. -1.
       -1   -1    0    0    0  501  0.00000000000E+00  0.00000000000E+00 -0.13853167529E+04  0.13853167529E+04  0.50400001928E-02 0.  1.
    10030    2    1    2    0    0  0.00000000000E+00  0.00000000000E+00  0.21110491249E+03  0.29817384182E+04  0.29742559928E+04 0.  0.
        4    1    3    3  502    0  0.14438817793E+04  0.26015680455E+03 -0.13810611849E+03  0.14736183591E+04  0.12699999809E+01 0.  1.
       -4    1    3    3    0  502 -0.14438817793E+04 -0.26015680455E+03  0.34921103097E+03  0.15081200591E+04  0.12699999809E+01 0. -1.
</event>
<event>
 5   0  0.7217255E-06  0.2918543E+04  0.7818609E-02  0.8267382E-01
        2   -1    0    0  501    0  0.00000000000E+00  0.00000000000E+00  0.14412573038E+04  0.14412573038E+04  0.25500000920E-02 0.  1.
       -2   -1    0    0    0  501  0.00000000000E+00  0.00000000000E+00 -0.14775104009E+04  0.14775104009E+04  0.25500000920E-02 0. -1.
    10030    2    1    2    0    0  0.00000000000E+00  0.00000000000E+00 -0.36253097094E+02  0.29187677047E+04  0.29185425519E+04 0.  0.
        1    1    3    3  502    0 -0.41855920637E+03  0.15193554683E+03  0.13716555982E+04  0.14421218047E+04  0.50400001928E-02 0.  1.
       -1    1    3    3    0  502  0.41855920637E+03 -0.15193554683E+03 -0.14079086953E+04  0.14766459000E+04  0.50400001928E-02 0. -1.
</event>
<event>
 5   0  0.6792811E-06  0.2970562E+04  0.7818609E-02  0.8252187E-01
        2   -1    0    0  501    0  0.00000000000E+00  0.00000000000E+00  0.10509125093E+04  0.10509125093E+04  0.25500000920E-02 0.  1.
       -2   -1    0    0    0  501  0.00000000000E+00  0.00000000000E+00 -0.20991850482E+04  0.20991850482E+04  0.25500000920E-02 0. -1.
    10030    2    1    2    0    0  0.00000000000E+00  0.00000000000E+00 -0.10482725389E+04  0.31500975575E+04  0.29705621195E+04 0.  0.
        2    1    3    3  502    0 -0.21796442459E+03  0.13939096293E+04 -0.31783043615E+02  0.14112061178E+04  0.25500000920E-02 0.  1.
       -2    1    3    3    0  502  0.21796442459E+03 -0.13939096293E+04 -0.10164894953E+04  0.17388914397E+04  0.25500000920E-02 0. -1.
</event>
<event>
 5   0  0.2628425E-06  0.3001752E+04  0.7818609E-02  0.8243231E-01
        1   -1    0    0  501    0  0.00000000000E+00  0.00000000000E+00  0.12241838958E+04  0.12241838958E+04  0.50400001928E-02 0.  1.
       -1   -1    0    0    0  501  0.00000000000E+00  0.00000000000E+00 -0.18401071239E+04  0.18401071239E+04  0.50400001928E-02 0. -1.
    10030    2    1    2    0    0  0.00000000000E+00  0.00000000000E+00 -0.61592322810E+03  0.30642910198E+04  0.30017524933E+04 0.  0.
        1    1    3    3  502    0 -0.10347458653E+04  0.32420398808E+03  0.75135831799E+03  0.13192219501E+04  0.50400001928E-02 0.  1.
       -1    1    3    3    0  502  0.10347458653E+04 -0.32420398808E+03 -0.13672815461E+04  0.17450690697E+04  0.50400001928E-02 0. -1.
</event>
<event>
 5   0  0.2422083E-06  0.3092879E+04  0.7818609E-02  0.8217695E-01
        1   -1    0    0  501    0  0.00000000000E+00  0.00000000000E+00  0.12717393749E+04  0.12717393749E+04  0.50400001928E-02 0.  1.
       -1   -1    0    0    0  501  0.00000000000E+00  0.00000000000E+00 -0.18804764106E+04  0.18804764106E+04  0.50400001928E-02 0. -1.
    10030    2    1    2    0    0  0.00000000000E+00  0.00000000000E+00 -0.60873703570E+03  0.31522157854E+04  0.30928794964E+04 0.  0.
        2    1    3    3  502    0 -0.14295103603E+04  0.36504195370E+03 -0.77663768226E+03  0.16673096856E+04  0.25500000920E-02 0.  1.
       -2    1    3    3    0  502  0.14295103603E+04 -0.36504195370E+03  0.16790064656E+03  0.14849060998E+04  0.25500000920E-02 0. -1.
</event>
<event>
 5   0  0.7217255E-06  0.2988069E+04  0.7818609E-02  0.8247146E-01
        2   -1    0    0  501    0  0.00000000000E+00  0.00000000000E+00  0.20160511765E+04  0.20160511765E+04  0.25500000920E-02 0. -1.
       -2   -1    0    0    0  501  0.00000000000E+00  0.00000000000E+00 -0.11071835270E+04  0.11071835270E+04  0.25500000920E-02 0.  1.
    10030    2    1    2    0    0  0.00000000000E+00  0.00000000000E+00  0.90886764952E+03  0.31232347036E+04  0.29880687089E+04 0.  0.
        1    1    3    3  502    0 -0.49271186798E+03  0.14191009082E+03  0.19212065864E+04  0.19884512080E+04  0.50400001928E-02 0. -1.
       -1    1    3    3    0  502  0.49271186798E+03 -0.14191009082E+03 -0.10123389369E+04  0.11347834956E+04  0.50400001928E-02 0.  1.
</event>
<event>
 5   0  0.2422083E-06  0.2826463E+04  0.7818609E-02  0.8295099E-01
       -1   -1    0    0    0  501  0.00000000000E+00  0.00000000000E+00  0.15513543723E+04  0.15513543723E+04  0.50400001928E-02 0.  1.
        1   -1    0    0  501    0  0.00000000000E+00  0.00000000000E+00 -0.12874061047E+04  0.12874061047E+04  0.50400001928E-02 0. -1.
    10030    2    1    2    0    0  0.00000000000E+00  0.00000000000E+00  0.26394826762E+03  0.28387604770E+04  0.28264628704E+04 0.  0.
        2    1    3    3  502    0  0.12871487475E+04 -0.56993430500E+03  0.63456183956E+01  0.14076992850E+04  0.25500000920E-02 0.  1.
       -2    1    3    3    0  502 -0.12871487475E+04  0.56993430500E+03  0.25760264923E+03  0.14310611919E+04  0.25500000920E-02 0. -1.
</event>
<event>
 5   0  0.2552990E-06  0.2988037E+04  0.7818609E-02  0.8247155E-01
        1   -1    0    0  501    0  0.00000000000E+00  0.00000000000E+00  0.24864264399E+04  0.24864264399E+04  0.50400001928E-02 0. -1.
       -1   -1    0    0    0  501  0.00000000000E+00  0.00000000000E+00 -0.89771029970E+03  0.89771029972E+03  0.50400001928E-02 0.  1.
    10030    2    1    2    0    0  0.00000000000E+00  0.00000000000E+00  0.15887161402E+04  0.33841367397E+04  0.29880365624E+04 0.  0.
        3    1    3    3  502    0  0.12237642182E+04  0.85543666869E+03  0.73529239824E+03  0.16643394116E+04  0.10100000352E+00 0.  1.
       -3    1    3    3    0  502 -0.12237642182E+04 -0.85543666869E+03  0.85342374199E+03  0.17197973280E+04  0.10100000352E+00 0. -1.
</event>
<event>
 5   0  0.7193153E-06  0.2965452E+04  0.7818609E-02  0.8253666E-01
        2   -1    0    0  501    0  0.00000000000E+00  0.00000000000E+00  0.16259911393E+04  0.16259911393E+04  0.25500000920E-02 0.  1.
       -2   -1    0    0    0  501  0.00000000000E+00  0.00000000000E+00 -0.13520838311E+04  0.13520838311E+04  0.25500000920E-02 0. -1.
    10030    2    1    2    0    0  0.00000000000E+00  0.00000000000E+00  0.27390730814E+03  0.29780749704E+04  0.29654519581E+04 0.  0.
        4    1    3    3  502    0 -0.80425518122E+03 -0.11081124851E+04  0.70835280156E+03  0.15415917036E+04  0.12699999809E+01 0.  1.
       -4    1    3    3    0  502  0.80425518122E+03  0.11081124851E+04 -0.43444549342E+03  0.14364832668E+04  0.12699999809E+01 0. -1.
</event>
<event>
 5   0  0.7193153E-06  0.2930538E+04  0.7818609E-02  0.8263849E-01
       -2   -1    0    0    0  501  0.00000000000E+00  0.00000000000E+00  0.12826696728E+04  0.12826696728E+04  0.25500000920E-02 0. -1.
        2   -1    0    0  501    0  0.00000000000E+00  0.00000000000E+00 -0.16738629242E+04  0.16738629242E+04  0.25500000920E-02 0.  1.
    10030    2    1    2    0    0  0.00000000000E+00  0.00000000000E+00 -0.39119325139E+03  0.29565325970E+04  0.29305379774E+04 0.  0.
        4    1    3    3  502    0  0.21779589497E+03  0.85704547735E+03  0.98312033554E+03  0.13223045070E+04  0.12699999809E+01 0. -1.
       -4    1    3    3    0  502 -0.21779589497E+03 -0.85704547735E+03 -0.13743135869E+04  0.16342280900E+04  0.12699999809E+01 0.  1.
</event>
<event>
 5   0  0.7193153E-06  0.2995212E+04  0.7818609E-02  0.8245099E-01
       -2   -1    0    0    0  501  0.00000000000E+00  0.00000000000E+00  0.19369060585E+04  0.19369060585E+04  0.25500000920E-02 0. -1.
        2   -1    0    0  501    0  0.00000000000E+00  0.00000000000E+00 -0.11579415491E+04  0.11579415491E+04  0.25500000920E-02 0.  1.
    10030    2    1    2    0    0  0.00000000000E+00  0.00000000000E+00  0.77896450944E+03  0.30948476076E+04  0.29952121807E+04 0.  0.
        4    1    3    3  502    0 -0.35935770643E+03  0.77212801035E+03 -0.88336538335E+03  0.12270516040E+04  0.12699999809E+01 0.  1.
       -4    1    3    3    0  502  0.35935770643E+03 -0.77212801035E+03  0.16623298928E+04  0.18677960036E+04  0.12699999809E+01 0. -1.
</event>
<event>
 5   0  0.7201538E-06  0.2673823E+04  0.7818609E-02  0.8343549E-01
        2   -1    0    0  501    0  0.00000000000E+00  0.00000000000E+00  0.13300522218E+04  0.13300522218E+04  0.25500000920E-02 0.  1.
       -2   -1    0    0    0  501  0.00000000000E+00  0.00000000000E+00 -0.13438065323E+04  0.13438065323E+04  0.25500000920E-02 0. -1.
    10030    2    1    2    0    0  0.00000000000E+00  0.00000000000E+00 -0.13754310503E+02  0.26738587542E+04  0.26738233779E+04 0.  0.
        3    1    3    3  502    0  0.28906019398E+03  0.12035368310E+04 -0.51213244677E+03  0.13395284067E+04  0.10100000352E+00 0. -1.
       -3    1    3    3    0  502 -0.28906019398E+03 -0.12035368310E+04  0.49837813627E+03  0.13343303475E+04  0.10100000352E+00 0.  1.
</event>
<event>
 5   0  0.2628425E-06  0.2227804E+04  0.7818609E-02  0.8506944E-01
       -1   -1    0    0    0  501  0.00000000000E+00  0.00000000000E+00  0.13163138806E+04  0.13163138806E+04  0.50400001928E-02 0. -1.
        1   -1    0    0  501    0  0.00000000000E+00  0.00000000000E+00 -0.94261567954E+03  0.94261567955E+03  0.50400001928E-02 0.  1.
    10030    2    1    2    0    0  0.00000000000E+00  0.00000000000E+00  0.37369820101E+03  0.22589295601E+04  0.22278043927E+04 0.  0.
        1    1    3    3  502    0  0.11752838834E+03 -0.10474042529E+04  0.55231436688E+03  0.11899242627E+04  0.50400001928E-02 0.  1.
       -1    1    3    3    0  502 -0.11752838834E+03  0.10474042529E+04 -0.17861616586E+03  0.10690052974E+04  0.50400001928E-02 0. -1.
</event>
<event>
 5   0  0.6792811E-06  0.3000798E+04  0.7818609E-02  0.8243503E-01
       -2   -1    0    0    0  501  0.00000000000E+00  0.00000000000E+00  0.18128958673E+04  0.18128958673E+04  0.25500000920E-02 0. -1.
        2   -1    0    0  501    0  0.00000000000E+00  0.00000000000E+00 -0.12417687531E+04  0.12417687531E+04  0.25500000920E-02 0.  1.
    10030    2    1    2    0    0  0.00000000000E+00  0.00000000000E+00  0.57112711420E+03  0.30546646205E+04  0.30007981877E+04 0.  0.
        2    1    3    3  502    0  0.34148480234E+03  0.88107603436E+03 -0.90081446413E+03  0.13055165826E+04  0.25500000920E-02 0.  1.
       -2    1    3    3    0  502 -0.34148480234E+03 -0.88107603436E+03  0.14719415783E+04  0.17491480379E+04  0.25500000920E-02 0. -1.
</event>
<event>
 5   0  0.7217255E-06  0.2923968E+04  0.7818609E-02  0.8265782E-01
       -2   -1    0    0    0  501  0.00000000000E+00  0.00000000000E+00  0.10795919530E+04  0.10795919530E+04  0.25500000920E-02 0. -1.
        2   -1    0    0  501    0  0.00000000000E+00  0.00000000000E+00 -0.19798190601E+04  0.19798190601E+04  0.25500000920E-02 0.  1.
    10030    2    1    2    0    0  0.00000000000E+00  0.00000000000E+00 -0.90022710707E+03  0.30594110131E+04  0.29239676644E+04 0.  0.
        1    1    3    3  502    0 -0.12884345339E+03  0.78658071982E+03  0.83225477625E+03  0.11523705467E+04  0.50400001928E-02 0. -1.
       -1    1    3    3    0  502  0.12884345339E+03 -0.78658071982E+03 -0.17324818833E+04  0.19070404664E+04  0.50400001928E-02 0.  1.
</event>
<event>
 5   0  0.2422083E-06  0.2995105E+04  0.7818609E-02  0.8245130E-01
        1   -1    0    0  501    0  0.00000000000E+00  0.00000000000E+00  0.19747645379E+04  0.19747645379E+04  0.50400001928E-02 0. -1.
       -1   -1    0    0    0  501  0.00000000000E+00  0.00000000000E+00 -0.11356613390E+04  0.11356613390E+04  0.50400001928E-02 0.  1.
    10030    2    1    2    0    0  0.00000000000E+00  0.00000000000E+00  0.83910319891E+03  0.31104258770E+04  0.29951051664E+04 0.  0.
        2    1    3    3  502    0  0.50896009278E+03  0.24609619366E+03 -0.10205867003E+04  0.11667051579E+04  0.25500000920E-02 0.  1.
       -2    1    3    3    0  502 -0.50896009278E+03 -0.24609619366E+03  0.18596898992E+04  0.19437207191E+04  0.25500000920E-02 0. -1.
</event>
<event>
 5   0  0.2422083E-06  0.2959599E+04  0.7818609E-02  0.8255363E-01
        1   -1    0    0  501    0  0.00000000000E+00  0.00000000000E+00  0.10513950743E+04  0.10513950743E+04  0.50400001928E-02 0.  1.
       -1   -1    0    0    0  501  0.00000000000E+00  0.00000000000E+00 -0.20827626359E+04  0.20827626359E+04  0.50400001928E-02 0. -1.
    10030    2    1    2    0    0  0.00000000000E+00  0.00000000000E+00 -0.10313675616E+04  0.31341577102E+04  0.29595988757E+04 0.  0.
        2    1    3    3  502    0  0.40714967511E+03  0.73530867605E+03 -0.18054493732E+04  0.19915062506E+04  0.25500000920E-02 0. -1.
       -2    1    3    3    0  502 -0.40714967511E+03 -0.73530867605E+03  0.77408181162E+03  0.11426514596E+04  0.25500000920E-02 0.  1.
</event>
<event>
 5   0  0.7217255E-06  0.2907775E+04  0.7818609E-02  0.8270568E-01
        2   -1    0    0  501    0  0.00000000000E+00  0.00000000000E+00  0.22708530098E+04  0.22708530098E+04  0.25500000920E-02 0. -1.
       -2   -1    0    0    0  501  0.00000000000E+00  0.00000000000E+00 -0.93083462683E+03  0.93083462683E+03  0.25500000920E-02 0.  1.
    10030    2    1    2    0    0  0.00000000000E+00  0.00000000000E+00  0.13400183829E+04  0.32016876366E+04  0.29077748289E+04 0.  0.
        1    1    3    3  502    0  0.66614755236E+03 -0.12559534636E+04  0.10051007001E+04  0.17410913479E+04  0.50400001928E-02 0.  1.
       -1    1    3    3    0  502 -0.66614755236E+03  0.12559534636E+04  0.33491768283E+03  0.14605962887E+04  0.50400001928E-02 0. -1.
</event>
<event>
 5   0  0.7193153E-06  0.3014118E+04  0.7818609E-02  0.8239711E-01
       -2   -1    0    0    0  501  0.00000000000E+00  0.00000000000E+00  0.87028740689E+03  0.87028740689E+03  0.25500000920E-02 0.  1.
        2   -1    0    0  501    0  0.00000000000E+00  0.00000000000E+00 -0.26097429156E+04  0.26097429156E+04  0.25500000920E-02 0. -1.
    10030    2    1    2    0    0  0.00000000000E+00  0.00000000000E+00 -0.17394555087E+04  0.34800303225E+04  0.30141177115E+04 0.  0.
        4    1    3    3  502    0  0.74791870606E+03  0.43405160202E+03 -0.22947962005E+04  0.24523202073E+04  0.12699999809E+01 0. -1.
       -4    1    3    3    0  502 -0.74791870606E+03 -0.43405160202E+03  0.55534069181E+03  0.10277101152E+04  0.12699999809E+01 0.  1.
</event>
<event>
 5   0  0.7193153E-06  0.2934921E+04  0.7818609E-02  0.8262563E-01
        2   -1    0    0  501    0  0.00000000000E+00  0.00000000000E+00  0.17952184554E+04  0.17952184554E+04  0.25500000920E-02 0.  1.
       -2   -1    0    0    0  501  0.00000000000E+00  0.00000000000E+00 -0.11995419189E+04  0.11995419189E+04  0.25500000920E-02 0. -1.
    10030    2    1    2    0    0  0.00000000000E+00  0.00000000000E+00  0.59567653649E+03  0.29947603743E+04  0.29349206400E+04 0.  0.
        4    1    3    3  502    0  0.88026485742E+03 -0.66704409837E+03  0.12837811352E+04  0.16934903792E+04  0.12699999809E+01 0.  1.
       -4    1    3    3    0  502 -0.88026485742E+03  0.66704409837E+03 -0.68810459875E+03  0.13012699951E+04  0.12699999809E+01 0. -1.
</event>
<event>
 5   0  0.2552990E-06  0.2951097E+04  0.7818609E-02  0.8257835E-01
       -1   -1    0    0    0  501  0.00000000000E+00  0.00000000000E+00  0.12550485267E+04  0.12550485267E+04  0.50400001928E-02 0. -1.
        1   -1    0    0  501    0  0.00000000000E+00  0.00000000000E+00 -0.17347876505E+04  0.17347876505E+04  0.50400001928E-02 0.  1.
    10030    2    1    2    0    0  0.00000000000E+00  0.00000000000E+00 -0.47973912379E+03  0.29898361772E+04  0.29510965318E+04 0.  0.
        3    1    3    3  502    0  0.70192755680E+02  0.14738503025E+04 -0.23075492250E+03  0.14934555840E+04  0.10100000352E+00 0.  1.
       -3    1    3    3    0  502 -0.70192755680E+02 -0.14738503025E+04 -0.24898420129E+03  0.14963805932E+04  0.10100000352E+00 0. -1.
</event>
<event>
 5   0  0.2672155E-06  0.3135123E+04  0.7818609E-02  0.8206164E-01
       -1   -1    0    0    0  501  0.00000000000E+00  0.00000000000E+00  0.15659081912E+04  0.15659081912E+04  0.50400001928E-02 0.  1.
        1   -1    0    0  501    0  0.00000000000E+00  0.00000000000E+00 -0.15692170011E+04  0.15692170011E+04  0.50400001928E-02 0. -1.
    10030    2    1    2    0    0  0.00000000000E+00  0.00000000000E+00 -0.33088098698E+01  0.31351251923E+04  0.31351234463E+04 0.  0.
        5    1    3    3  502    0  0.37224783974E+03 -0.10252336721E+04  0.11242037305E+04  0.15663743659E+04  0.46999998093E+01 0.  1.
       -5    1    3    3    0  502 -0.37224783974E+03  0.10252336721E+04 -0.11275125403E+04  0.15687508264E+04  0.46999998093E+01 0. -1.
</event>
<event>
 5   0  0.6792811E-06  0.2794933E+04  0.7818609E-02  0.8304843E-01
       -2   -1    0    0    0  501  0.00000000000E+00  0.00000000000E+00  0.85253374545E+03  0.85253374545E+03  0.25500000920E-02 0.  1.
        2   -1    0    0  501    0  0.00000000000E+00  0.00000000000E+00 -0.22907152763E+04  0.22907152763E+04  0.25500000920E-02 0. -1.
    10030    2    1    2    0    0  0.00000000000E+00  0.00000000000E+00 -0.14381815309E+04  0.31432490218E+04  0.27949326105E+04 0.  0.
        2    1    3    3  502    0  0.11403726950E+04  0.62992762171E+03 -0.15045624728E+03  0.13114479687E+04  0.25500000920E-02 0.  1.
       -2    1    3    3    0  502 -0.11403726950E+04 -0.62992762171E+03 -0.12877252836E+04  0.18318010531E+04  0.25500000920E-02 0. -1.
</event>
<event>
 5   0  0.2422083E-06  0.2859578E+04  0.7818609E-02  0.8285007E-01
       -1   -1    0    0    0  501  0.00000000000E+00  0.00000000000E+00  0.14823711412E+04  0.14823711412E+04  0.50400001928E-02 0.  1.
        1   -1    0    0  501    0  0.00000000000E+00  0.00000000000E+00 -0.13790724206E+04  0.13790724206E+04  0.50400001928E-02 0. -1.
    10030    2    1    2    0    0  0.00000000000E+00  0.00000000000E+00  0.10329872065E+03  0.28614435618E+04  0.28595784010E+04 0.  0.
        2    1    3    3  502    0 -0.41516290640E+03 -0.63658533956E+03  0.12635115448E+04  0.14744702633E+04  0.25500000920E-02 0.  1.
       -2    1    3    3    0  502  0.41516290640E+03  0.63658533956E+03 -0.11602128242E+04  0.13869732985E+04  0.25500000920E-02 0. -1.
</event>
<event>
 5   0  0.2422083E-06  0.3014279E+04  0.7818609E-02  0.8239665E-01
       -1   -1    0    0    0  501  0.00000000000E+00  0.00000000000E+00  0.20845698938E+04  0.20845698938E+04  0.50400001928E-02 0. -1.
        1   -1    0    0  501    0  0.00000000000E+00  0.00000000000E+00 -0.10896582974E+04  0.10896582974E+04  0.50400001928E-02 0.  1.
    10030    2    1    2    0    0  0.00000000000E+00  0.00000000000E+00  0.99491159637E+03  0.31742281912E+04  0.30142786078E+04 0.  0.
        2    1    3    3  502    0  0.37367734790E+03 -0.86938486180E+03 -0.73782193878E+03  0.11999358365E+04  0.25500000920E-02 0.  1.
       -2    1    3    3    0  502 -0.37367734790E+03  0.86938486180E+03  0.17327335351E+04  0.19742923548E+04  0.25500000920E-02 0. -1.
</event>
<event>
 5   0  0.2628425E-06  0.3016922E+04  0.7818609E-02  0.8238915E-01
       -1   -1    0    0    0  501  0.00000000000E+00  0.00000000000E+00  0.11644134343E+04  0.11644134343E+04  0.50400001928E-02 0.  1.
        1   -1    0    0  501    0  0.00000000000E+00  0.00000000000E+00 -0.19541637618E+04  0.19541637618E+04  0.50400001928E-02 0. -1.
    10030    2    1    2    0    0  0.00000000000E+00  0.00000000000E+00 -0.78975032754E+03  0.31185771961E+04  0.30169219659E+04 0.  0.
        1    1    3    3  502    0  0.14063747894E+04 -0.34793541691E+03  0.39406469642E+02  0.14493108612E+04  0.50400001928E-02 0.  1.
       -1    1    3    3    0  502 -0.14063747894E+04  0.34793541691E+03 -0.82915679718E+03  0.16692663349E+04  0.50400001928E-02 0. -1.
</event>
<event>
 5   0  0.6792811E-06  0.2884191E+04  0.7818609E-02  0.8277597E-01
       -2   -1    0    0    0  501  0.00000000000E+00  0.00000000000E+00  0.21867558124E+04  0.21867558124E+04  0.25500000920E-02 0.  1.
        2   -1    0    0  501    0  0.00000000000E+00  0.00000000000E+00 -0.95101596679E+03  0.95101596679E+03  0.25500000920E-02 0. -1.
    10030    2    1    2    0    0  0.00000000000E+00  0.00000000000E+00  0.12357398456E+04  0.31377717792E+04  0.28841911816E+04 0.  0.
        2    1    3    3  502    0  0.86770183492E+03 -0.10594221219E+04  0.12606472384E+03  0.13751996296E+04  0.25500000920E-02 0. -1.
       -2    1    3    3    0  502 -0.86770183492E+03  0.10594221219E+04  0.11096751218E+04  0.17625721496E+04  0.25500000920E-02 0.  1.
</event>
<event>
 5   0  0.7193153E-06  0.2989948E+04  0.7818609E-02  0.8246607E-01
       -2   -1    0    0    0  501  0.00000000000E+00  0.00000000000E+00  0.12461691361E+04  0.12461691361E+04  0.25500000920E-02 0. -1.
        2   -1    0    0  501    0  0.00000000000E+00  0.00000000000E+00 -0.17934542132E+04  0.17934542132E+04  0.25500000920E-02 0.  1.
    10030    2    1    2    0    0  0.00000000000E+00  0.00000000000E+00 -0.54728507709E+03  0.30396233494E+04  0.29899480180E+04 0.  0.
        4    1    3    3  502    0 -0.14717603176E+03  0.13774257376E+04  0.29782050473E+03  0.14169195859E+04  0.12699999809E+01 0. -1.
       -4    1    3    3    0  502  0.14717603176E+03 -0.13774257376E+04 -0.84510558183E+03  0.16227037635E+04  0.12699999809E+01 0.  1.
</event>
<event>
 5   0  0.2628425E-06  0.3035163E+04  0.7818609E-02  0.8233761E-01
        1   -1    0    0  501    0  0.00000000000E+00  0.00000000000E+00  0.24952252689E+04  0.24952252689E+04  0.50400001928E-02 0. -1.
       -1   -1    0    0    0  501  0.00000000000E+00  0.00000000000E+00 -0.92298405093E+03  0.92298405094E+03  0.50400001928E-02 0.  1.
    10030    2    1    2    0    0  0.00000000000E+00  0.00000000000E+00  0.15722412180E+04  0.34182093199E+04  0.30351626821E+04 0.  0.
        1    1    3    3  502    0 -0.75310377202E+03  0.73366151529E+03 -0.44635337998E+03  0.11422153257E+04  0.50400001928E-02 0.  1.
       -1    1    3    3    0  502  0.75310377202E+03 -0.73366151529E+03  0.20185945980E+04  0.22759939942E+04  0.50400001928E-02 0. -1.
</event>
<event>
 5   0  0.7217255E-06  0.2540008E+04  0.7818609E-02  0.8388870E-01
       -2   -1    0    0    0  501  0.00000000000E+00  0.00000000000E+00  0.18327036371E+04  0.18327036371E+04  0.25500000920E-02 0. -1.
        2   -1    0    0  501    0  0.00000000000E+00  0.00000000000E+00 -0.88007113732E+03  0.88007113732E+03  0.25500000920E-02 0.  1.
    10030    2    1    2    0    0  0.00000000000E+00  0.00000000000E+00  0.95263249978E+03  0.27127747744E+04  0.25400075388E+04 0.  0.
        1    1    3    3  502    0  0.35293077114E+03  0.57767660613E+03 -0.67131371315E+03  0.95337951099E+03  0.50400001928E-02 0.  1.
       -1    1    3    3    0  502 -0.35293077114E+03 -0.57767660613E+03  0.16239462129E+04  0.17593952634E+04  0.50400001928E-02 0. -1.
</event>
<event>
 5   0  0.2422083E-06  0.3018091E+04  0.7818609E-02  0.8238584E-01
        1   -1    0    0  501    0  0.00000000000E+00  0.00000000000E+00  0.18538306800E+04  0.18538306800E+04  0.50400001928E-02 0. -1.
       -1   -1    0    0    0  501  0.00000000000E+00  0.00000000000E+00 -0.12283856072E+04  0.12283856073E+04  0.50400001928E-02 0.  1.
    10030    2    1    2    0    0  0.00000000000E+00  0.00000000000E+00  0.62544507272E+03  0.30822162872E+04  0.30180914006E+04 0.  0.
        2    1    3    3  502    0  0.53517931612E+02  0.29180211800E+03  0.18237559423E+04  0.18477278972E+04  0.25500000920E-02 0. -1.
       -2    1    3    3    0  502 -0.53517931612E+02 -0.29180211800E+03 -0.11983108695E+04  0.12344883900E+04  0.25500000920E-02 0.  1.
</event>
<event>
 5   0  0.2628425E-06  0.3008655E+04  0.7818609E-02  0.8241264E-01
       -1   -1    0    0    0  501  0.00000000000E+00  0.00000000000E+00  0.10672195685E+04  0.10672195685E+04  0.50400001928E-02 0.  1.
        1   -1    0    0  501    0  0.00000000000E+00  0.00000000000E+00 -0.21204644039E+04  0.21204644039E+04  0.50400001928E-02 0. -1.
    10030    2    1    2    0    0  0.00000000000E+00  0.00000000000E+00 -0.10532448354E+04  0.31876839724E+04  0.30086549195E+04 0.  0.
        1    1    3    3  502    0  0.14870159764E+03 -0.54087958445E+03  0.95226479779E+03  0.11052018527E+04  0.50400001928E-02 0.  1.
       -1    1    3    3    0  502 -0.14870159764E+03  0.54087958445E+03 -0.20055096332E+04  0.20824821197E+04  0.50400001928E-02 0. -1.
</event>
<event>
 5   0  0.2552990E-06  0.3030578E+04  0.7818609E-02  0.8235053E-01
        1   -1    0    0  501    0  0.00000000000E+00  0.00000000000E+00  0.11972991433E+04  0.11972991433E+04  0.50400001928E-02 0. -1.
       -1   -1    0    0    0  501  0.00000000000E+00  0.00000000000E+00 -0.19177339700E+04  0.19177339700E+04  0.50400001928E-02 0.  1.
    10030    2    1    2    0    0  0.00000000000E+00  0.00000000000E+00 -0.72043482674E+03  0.31150331133E+04  0.30305783206E+04 0.  0.
        3    1    3    3  502    0 -0.46258386954E+02 -0.23109355360E+03 -0.18987800071E+04  0.19133503585E+04  0.10100000352E+00 0.  1.
       -3    1    3    3    0  502  0.46258386954E+02  0.23109355360E+03  0.11783451803E+04  0.12016827548E+04  0.10100000352E+00 0. -1.
</event>
<event>
 5   0  0.2628425E-06  0.3020944E+04  0.7818609E-02  0.8237775E-01
        1   -1    0    0  501    0  0.00000000000E+00  0.00000000000E+00  0.11920703547E+04  0.11920703547E+04  0.50400001928E-02 0.  1.
       -1   -1    0    0    0  501  0.00000000000E+00  0.00000000000E+00 -0.19139182356E+04  0.19139182356E+04  0.50400001928E-02 0. -1.
    10030    2    1    2    0    0  0.00000000000E+00  0.00000000000E+00 -0.72184788085E+03  0.31059885903E+04  0.30209436870E+04 0.  0.
        1    1    3    3  502    0 -0.81204415166E+03  0.38429389025E+03  0.88751977005E+03  0.12628494925E+04  0.50400001928E-02 0.  1.
       -1    1    3    3    0  502  0.81204415166E+03 -0.38429389025E+03 -0.16093676509E+04  0.18431390979E+04  0.50400001928E-02 0. -1.
</event>
<event>
 5   0  0.2628425E-06  0.3003438E+04  0.7818609E-02  0.8242750E-01
       -1   -1    0    0    0  501  0.00000000000E+00  0.00000000000E+00  0.12370594837E+04  0.12370594837E+04  0.50400001928E-02 0.  1.
        1   -1    0    0  501    0  0.00000000000E+00  0.00000000000E+00 -0.18230008031E+04  0.18230008031E+04  0.50400001928E-02 0. -1.
    10030    2    1    2    0    0  0.00000000000E+00  0.00000000000E+00 -0.58594131938E+03  0.30600602868E+04  0.30034383179E+04 0.  0.
        1    1    3    3  502    0  0.33357579582E+03 -0.14313453200E+04  0.21289061484E+02  0.14698555918E+04  0.50400001928E-02 0. -1.
       -1    1    3    3    0  502 -0.33357579582E+03  0.14313453200E+04 -0.60723038087E+03  0.15902046950E+04  0.50400001928E-02 0.  1.
</event>
<event>
 5   0  0.2422083E-06  0.2929490E+04  0.7818609E-02  0.8264157E-01
        1   -1    0    0  501    0  0.00000000000E+00  0.00000000000E+00  0.22546132833E+04  0.22546132833E+04  0.50400001928E-02 0. -1.
       -1   -1    0    0    0  501  0.00000000000E+00  0.00000000000E+00 -0.95159442563E+03  0.95159442564E+03  0.50400001928E-02 0.  1.
    10030    2    1    2    0    0  0.00000000000E+00  0.00000000000E+00  0.13030188577E+04  0.32062077090E+04  0.29294896705E+04 0.  0.
        2    1    3    3  502    0 -0.80452792406E+03  0.43609288942E+03  0.19032358112E+04  0.21118117203E+04  0.25500000920E-02 0. -1.
       -2    1    3    3    0  502  0.80452792406E+03 -0.43609288942E+03 -0.60021695351E+03  0.10943959887E+04  0.25500000920E-02 0.  1.
</event>
<event>
 5   0  0.2628425E-06  0.2973655E+04  0.7818609E-02  0.8251294E-01
       -1   -1    0    0    0  501  0.00000000000E+00  0.00000000000E+00  0.12407145571E+04  0.12407145571E+04  0.50400001928E-02 0. -1.
        1   -1    0    0  501    0  0.00000000000E+00  0.00000000000E+00 -0.17817597982E+04  0.17817597982E+04  0.50400001928E-02 0.  1.
    10030    2    1    2    0    0  0.00000000000E+00  0.00000000000E+00 -0.54104524111E+03  0.30224743553E+04  0.29736545319E+04 0.  0.
        1    1    3    3  502    0 -0.98559126028E+03 -0.68190196131E+02 -0.13998970142E+04  0.17134035385E+04  0.50400001928E-02 0.  1.
       -1    1    3    3    0  502  0.98559126028E+03  0.68190196131E+02  0.85885177311E+03  0.13090708168E+04  0.50400001928E-02 0. -1.
</event>
<event>
 5   0  0.6792811E-06  0.2562413E+04  0.7818609E-02  0.8381082E-01
       -2   -1    0    0    0  501  0.00000000000E+00  0.00000000000E+00  0.71634190361E+03  0.71634190361E+03  0.25500000920E-02 0.  1.
        2   -1    0    0  501    0  0.00000000000E+00  0.00000000000E+00 -0.22914891662E+04  0.22914891662E+04  0.25500000920E-02 0. -1.
    10030    2    1    2    0    0  0.00000000000E+00  0.00000000000E+00 -0.15751472626E+04  0.30078310698E+04  0.25624127001E+04 0.  0.
        2    1    3    3  502    0  0.32811112549E+02  0.12807640196E+04 -0.77873724956E+03  0.14992880800E+04  0.25500000920E-02 0. -1.
       -2    1    3    3    0  502 -0.32811112549E+02 -0.12807640196E+04 -0.79641001301E+03  0.15085429897E+04  0.25500000920E-02 0.  1.
</event>
<event>
 5   0  0.2422083E-06  0.2599584E+04  0.7818609E-02  0.8368343E-01
       -1   -1    0    0    0  501  0.00000000000E+00  0.00000000000E+00  0.12702679246E+04  0.12702679246E+04  0.50400001928E-02 0. -1.
        1   -1    0    0  501    0  0.00000000000E+00  0.00000000000E+00 -0.13300022464E+04  0.13300022464E+04  0.50400001928E-02 0.  1.
    10030    2    1    2    0    0  0.00000000000E+00  0.00000000000E+00 -0.59734321817E+02  0.26002701711E+04  0.25995839616E+04 0.  0.
        2    1    3    3  502    0 -0.21132996833E+03 -0.12763537785E+04 -0.15527916265E+03  0.13030160942E+04  0.25500000920E-02 0. -1.
       -2    1    3    3    0  502  0.21132996833E+03  0.12763537785E+04  0.95544840838E+02  0.12972540769E+04  0.25500000920E-02 0.  1.
</event>
<event>
 5   0  0.2672155E-06  0.3019642E+04  0.7818609E-02  0.8238144E-01
       -1   -1    0    0    0  501  0.00000000000E+00  0.00000000000E+00  0.19614426324E+04  0.19614426324E+04  0.50400001928E-02 0. -1.
        1   -1    0    0  501    0  0.00000000000E+00  0.00000000000E+00 -0.11621850398E+04  0.11621850398E+04  0.50400001928E-02 0.  1.
    10030    2    1    2    0    0  0.00000000000E+00  0.00000000000E+00  0.79925759257E+03  0.31236276722E+04  0.30196418886E+04 0.  0.
        5    1    3    3  502    0  0.13649688645E+04 -0.63785090402E+03  0.50068332306E+03  0.15876711425E+04  0.46999998093E+01 0.  1.
       -5    1    3    3    0  502 -0.13649688645E+04  0.63785090402E+03  0.29857426951E+03  0.15359565297E+04  0.46999998093E+01 0. -1.
</event>
<event>
 5   0  0.7217255E-06  0.2983693E+04  0.7818609E-02  0.8248403E-01
       -2   -1    0    0    0  501  0.00000000000E+00  0.00000000000E+00  0.17959819226E+04  0.17959819226E+04  0.25500000920E-02 0.  1.
        2   -1    0    0  501    0  0.00000000000E+00  0.00000000000E+00 -0.12392144290E+04  0.12392144290E+04  0.25500000920E-02 0. -1.
    10030    2    1    2    0    0  0.00000000000E+00  0.00000000000E+00  0.55676749361E+03  0.30351963516E+04  0.29836934914E+04 0.  0.
        1    1    3    3  502    0 -0.89910245453E+03  0.11728099961E+04  0.70557950621E+02  0.14794752229E+04  0.50400001928E-02 0. -1.
       -1    1    3    3    0  502  0.89910245453E+03 -0.11728099961E+04  0.48620954299E+03  0.15557211287E+04  0.50400001928E-02 0.  1.
</event>
<event>
 5   0  0.7217255E-06  0.3003328E+04  0.7818609E-02  0.8242781E-01
        2   -1    0    0  501    0  0.00000000000E+00  0.00000000000E+00  0.16792398729E+04  0.16792398729E+04  0.25500000920E-02 0. -1.
       -2   -1    0    0    0  501  0.00000000000E+00  0.00000000000E+00 -0.13428661340E+04  0.13428661340E+04  0.25500000920E-02 0.  1.
    10030    2    1    2    0    0  0.00000000000E+00  0.00000000000E+00  0.33637373886E+03  0.30221060069E+04  0.30033277252E+04 0.  0.
        1    1    3    3  502    0 -0.28674480053E+03  0.14738538885E+04  0.19127572288E+03  0.15136228948E+04  0.50400001928E-02 0. -1.
       -1    1    3    3    0  502  0.28674480053E+03 -0.14738538885E+04  0.14509801598E+03  0.15084831122E+04  0.50400001928E-02 0.  1.
</event>
<event>
 5   0  0.6792811E-06  0.2986591E+04  0.7818609E-02  0.8247570E-01
        2   -1    0    0  501    0  0.00000000000E+00  0.00000000000E+00  0.87228606764E+03  0.87228606764E+03  0.25500000920E-02 0. -1.
       -2   -1    0    0    0  501  0.00000000000E+00  0.00000000000E+00 -0.25564213735E+04  0.25564213735E+04  0.25500000920E-02 0.  1.
    10030    2    1    2    0    0  0.00000000000E+00  0.00000000000E+00 -0.16841353059E+04  0.34287074412E+04  0.29865905291E+04 0.  0.
        2    1    3    3  502    0 -0.72943438910E+03 -0.97177094615E+03  0.15448764598E+03  0.12248590664E+04  0.25500000920E-02 0. -1.
       -2    1    3    3    0  502  0.72943438910E+03  0.97177094615E+03 -0.18386229518E+04  0.22038483747E+04  0.25500000920E-02 0.  1.
</event>
<event>
 5   0  0.6780150E-06  0.2976583E+04  0.7818609E-02  0.8250449E-01
        2   -1    0    0  501    0  0.00000000000E+00  0.00000000000E+00  0.13613504158E+04  0.13613504158E+04  0.25500000920E-02 0.  1.
       -2   -1    0    0    0  501  0.00000000000E+00  0.00000000000E+00 -0.16270696509E+04  0.16270696509E+04  0.25500000920E-02 0. -1.
    10030    2    1    2    0    0  0.00000000000E+00  0.00000000000E+00 -0.26571923508E+03  0.29884200667E+04  0.29765832398E+04 0.  0.
        5    1    3    3  502    0 -0.20943006349E+02  0.11098610379E+04  0.86242498752E+03  0.14057130155E+04  0.46999998093E+01 0.  1.
       -5    1    3    3    0  502  0.20943006349E+02 -0.11098610379E+04 -0.11281442226E+04  0.15827070512E+04  0.46999998093E+01 0. -1.
</event>
<event>
 5   0  0.2504260E-06  0.2621947E+04  0.7818609E-02  0.8360784E-01
        1   -1    0    0  501    0  0.00000000000E+00  0.00000000000E+00  0.15662302654E+04  0.15662302654E+04  0.50400001928E-02 0.  1.
       -1   -1    0    0    0  501  0.00000000000E+00  0.00000000000E+00 -0.10973171311E+04  0.10973171311E+04  0.50400001928E-02 0. -1.
    10030    2    1    2    0    0  0.00000000000E+00  0.00000000000E+00  0.46891313432E+03  0.26635473965E+04  0.26219468351E+04 0.  0.
        4    1    3    3  502    0  0.77585350857E+03  0.83618209406E+03 -0.42193812747E+03  0.12162164929E+04  0.12699999809E+01 0. -1.
       -4    1    3    3    0  502 -0.77585350857E+03 -0.83618209406E+03  0.89085126180E+03  0.14473309037E+04  0.12699999809E+01 0.  1.
</event>
<event>
 5   0  0.7217255E-06  0.2980508E+04  0.7818609E-02  0.8249319E-01
        2   -1    0    0  501    0  0.00000000000E+00  0.00000000000E+00  0.13580768642E+04  0.13580768642E+04  0.25500000920E-02 0. -1.
       -2   -1    0    0    0  501  0.00000000000E+00  0.00000000000E+00 -0.16352956701E+04  0.16352956701E+04  0.25500000920E-02 0.  1.
    10030    2    1    2    0    0  0.00000000000E+00  0.00000000000E+00 -0.27721880587E+03  0.29933725343E+04  0.29805081552E+04 0.  0.
        1    1    3    3  502    0 -0.31834503174E+03  0.19915080406E+03 -0.15870034632E+04  0.16308232873E+04  0.50400001928E-02 0.  1.
       -1    1    3    3    0  502  0.31834503174E+03 -0.19915080406E+03  0.13097846574E+04  0.13625492471E+04  0.50400001928E-02 0. -1.
</event>
<event>
 5   0  0.2628425E-06  0.2991836E+04  0.7818609E-02  0.8246066E-01
        1   -1    0    0  501    0  0.00000000000E+00  0.00000000000E+00  0.22585417975E+04  0.22585417975E+04  0.50400001928E-02 0.  1.
       -1   -1    0    0    0  501  0.00000000000E+00  0.00000000000E+00 -0.99080334834E+03  0.99080334836E+03  0.50400001928E-02 0. -1.
    10030    2    1    2    0    0  0.00000000000E+00  0.00000000000E+00  0.12677384491E+04  0.32493451458E+04  0.29918360753E+04 0.  0.
        1    1    3    3  502    0  0.70649910408E+03  0.13472722168E+03  0.20584354978E+04  0.21804699280E+04  0.50400001928E-02 0.  1.
       -1    1    3    3    0  502 -0.70649910408E+03 -0.13472722168E+03 -0.79069704872E+03  0.10688752178E+04  0.50400001928E-02 0. -1.
</event>
<event>
 5   0  0.2422083E-06  0.2956870E+04  0.7818609E-02  0.8256155E-01
       -1   -1    0    0    0  501  0.00000000000E+00  0.00000000000E+00  0.14527235282E+04  0.14527235282E+04  0.50400001928E-02 0. -1.
        1   -1    0    0  501    0  0.00000000000E+00  0.00000000000E+00 -0.15046014317E+04  0.15046014317E+04  0.50400001928E-02 0.  1.
    10030    2    1    2    0    0  0.00000000000E+00  0.00000000000E+00 -0.51877903471E+02  0.29573249599E+04  0.29568698994E+04 0.  0.
        2    1    3    3  502    0 -0.48184540496E+03 -0.12680437178E+04 -0.61395803115E+03  0.14889776119E+04  0.25500000920E-02 0.  1.
       -2    1    3    3    0  502  0.48184540496E+03  0.12680437178E+04  0.56208012768E+03  0.14683473481E+04  0.25500000920E-02 0. -1.
</event>
<event>
 5   0  0.2628425E-06  0.3012628E+04  0.7818609E-02  0.8240134E-01
        1   -1    0    0  501    0  0.00000000000E+00  0.00000000000E+00  0.12469702996E+04  0.12469702996E+04  0.50400001928E-02 0.  1.
       -1   -1    0    0    0  501  0.00000000000E+00  0.00000000000E+00 -0.18195961174E+04  0.18195961174E+04  0.50400001928E-02 0. -1.
    10030    2    1    2    0    0  0.00000000000E+00  0.00000000000E+00 -0.57262581773E+03  0.30665664170E+04  0.30126282981E+04 0.  0.
        1    1    3    3  502    0  0.35662931598E+02 -0.86033682167E+03 -0.15443743273E+04  0.17682034256E+04  0.50400001928E-02 0. -1.
       -1    1    3    3    0  502 -0.35662931598E+02  0.86033682167E+03  0.97174850961E+03  0.12983629914E+04  0.50400001928E-02 0.  1.
</event>
<event>
 5   0  0.2672155E-06  0.2980180E+04  0.7818609E-02  0.8249413E-01
       -1   -1    0    0    0  501  0.00000000000E+00  0.00000000000E+00  0.14151248117E+04  0.14151248117E+04  0.50400001928E-02 0. -1.
        1   -1    0    0  501    0  0.00000000000E+00  0.00000000000E+00 -0.15690262636E+04  0.15690262636E+04  0.50400001928E-02 0.  1.
    10030    2    1    2    0    0  0.00000000000E+00  0.00000000000E+00 -0.15390145192E+03  0.29841510754E+04  0.29801798576E+04 0.  0.
        5    1    3    3  502    0  0.45061502525E+03  0.12652824278E+04 -0.72306428953E+03  0.15253975154E+04  0.46999998093E+01 0.  1.
       -5    1    3    3    0  502 -0.45061502525E+03 -0.12652824278E+04  0.56916283761E+03  0.14587535600E+04  0.46999998093E+01 0. -1.
</event>
<event>
 5   0  0.2422083E-06  0.3016532E+04  0.7818609E-02  0.8239026E-01
        1   -1    0    0  501    0  0.00000000000E+00  0.00000000000E+00  0.17552683634E+04  0.17552683634E+04  0.50400001928E-02 0. -1.
       -1   -1    0    0    0  501  0.00000000000E+00  0.00000000000E+00 -0.12960219464E+04  0.12960219464E+04  0.50400001928E-02 0.  1.
    10030    2    1    2    0    0  0.00000000000E+00  0.00000000000E+00  0.45924641696E+03  0.30512903098E+04  0.30165319960E+04 0.  0.
        2    1    3    3  502    0 -0.80178168388E+02  0.82209051181E+03 -0.10469026812E+04  0.13335166186E+04  0.25500000920E-02 0.  1.
       -2    1    3    3    0  502  0.80178168388E+02 -0.82209051181E+03  0.15061490981E+04  0.17177736912E+04  0.25500000920E-02 0. -1.
</event>
<event>
 5   0  0.7217255E-06  0.2987897E+04  0.7818609E-02  0.8247195E-01
       -2   -1    0    0    0  501  0.00000000000E+00  0.00000000000E+00  0.92422322400E+03  0.92422322401E+03  0.25500000920E-02 0.  1.
        2   -1    0    0  501    0  0.00000000000E+00  0.00000000000E+00 -0.24148733008E+04  0.24148733008E+04  0.25500000920E-02 0. -1.
    10030    2    1    2    0    0  0.00000000000E+00  0.00000000000E+00 -0.14906500768E+04  0.33390965248E+04  0.29878969109E+04 0.  0.
        1    1    3    3  502    0 -0.48195163385E+03  0.98688607441E+03 -0.18771132773E+04  0.21748047630E+04  0.50400001928E-02 0. -1.
       -1    1    3    3    0  502  0.48195163385E+03 -0.98688607441E+03  0.38646320053E+03  0.11642917618E+04  0.50400001928E-02 0.  1.
</event>
<event>
 5   0  0.7201538E-06  0.3030192E+04  0.7818609E-02  0.8235162E-01
        2   -1    0    0  501    0  0.00000000000E+00  0.00000000000E+00  0.17454490047E+04  0.17454490047E+04  0.25500000920E-02 0. -1.
       -2   -1    0    0    0  501  0.00000000000E+00  0.00000000000E+00 -0.13151434838E+04  0.13151434838E+04  0.25500000920E-02 0.  1.
    10030    2    1    2    0    0  0.00000000000E+00  0.00000000000E+00  0.43030552090E+03  0.30605924885E+04  0.30301919971E+04 0.  0.
        3    1    3    3  502    0 -0.27021354884E+03 -0.13673976497E+04 -0.38471148602E+03  0.14459580326E+04  0.10100000352E+00 0.  1.
       -3    1    3    3    0  502  0.27021354884E+03  0.13673976497E+04  0.81501700692E+03  0.16146344559E+04  0.10100000352E+00 0. -1.
</event>
<event>
 5   0  0.2628425E-06  0.3040822E+04  0.7818609E-02  0.8232169E-01
        1   -1    0    0  501    0  0.00000000000E+00  0.00000000000E+00  0.22609024484E+04  0.22609024484E+04  0.50400001928E-02 0. -1.
       -1   -1    0    0    0  501  0.00000000000E+00  0.00000000000E+00 -0.10224453176E+04  0.10224453176E+04  0.50400001928E-02 0.  1.
    10030    2    1    2    0    0  0.00000000000E+00  0.00000000000E+00  0.12384571308E+04  0.32833477660E+04  0.30408216797E+04 0.  0.
        1    1    3    3  502    0 -0.53077159049E+03  0.97993327210E+03 -0.49750378820E+03  0.12204498016E+04  0.50400001928E-02 0.  1.
       -1    1    3    3    0  502  0.53077159049E+03 -0.97993327210E+03  0.17359609190E+04  0.20628979644E+04  0.50400001928E-02 0. -1.
</event>
<event>
 5   0  0.2422083E-06  0.2898251E+04  0.7818609E-02  0.8273398E-01
        1   -1    0    0  501    0  0.00000000000E+00  0.00000000000E+00  0.14381795514E+04  0.14381795514E+04  0.50400001928E-02 0. -1.
       -1   -1    0    0    0  501  0.00000000000E+00  0.00000000000E+00 -0.14601551758E+04  0.14601551758E+04  0.50400001928E-02 0.  1.
    10030    2    1    2    0    0  0.00000000000E+00  0.00000000000E+00 -0.21975624366E+02  0.28983347272E+04  0.28982514147E+04 0.  0.
        2    1    3    3  502    0  0.90340562780E+03 -0.10298695477E+04 -0.48343371813E+03  0.14527495219E+04  0.25500000920E-02 0.  1.
       -2    1    3    3    0  502 -0.90340562780E+03  0.10298695477E+04  0.46145809377E+03  0.14455852053E+04  0.25500000920E-02 0. -1.
</event>
<event>
 5   0  0.2628425E-06  0.2984131E+04  0.7818609E-02  0.8248277E-01
       -1   -1    0    0    0  501  0.00000000000E+00  0.00000000000E+00  0.34609912239E+04  0.34609912239E+04  0.50400001928E-02 0.  1.
        1   -1    0    0  501    0  0.00000000000E+00  0.00000000000E+00 -0.64324328634E+03  0.64324328636E+03  0.50400001928E-02 0. -1.
    10030    2    1    2    0    0  0.00000000000E+00  0.00000000000E+00  0.28177479375E+04  0.41042345102E+04  0.29841309414E+04 0.  0.
        1    1    3    3  502    0  0.13138365392E+03 -0.50178987130E+03 -0.51524716275E+03  0.73111858013E+03  0.50400001928E-02 0. -1.
       -1    1    3    3    0  502 -0.13138365392E+03  0.50178987130E+03  0.33329951003E+04  0.33731159301E+04  0.50400001928E-02 0.  1.
</event>
<event>
 5   0  0.2422083E-06  0.2966389E+04  0.7818609E-02  0.8253394E-01
        1   -1    0    0  501    0  0.00000000000E+00  0.00000000000E+00  0.15173530939E+04  0.15173530939E+04  0.50400001928E-02 0.  1.
       -1   -1    0    0    0  501  0.00000000000E+00  0.00000000000E+00 -0.14498051070E+04  0.14498051070E+04  0.50400001928E-02 0. -1.
    10030    2    1    2    0    0  0.00000000000E+00  0.00000000000E+00  0.67547986973E+02  0.29671582009E+04  0.29663892291E+04 0.  0.
        2    1    3    3  502    0 -0.13597003630E+02  0.78520564458E+03  0.12923264850E+04  0.15122303154E+04  0.25500000920E-02 0.  1.
       -2    1    3    3    0  502  0.13597003630E+02 -0.78520564458E+03 -0.12247784981E+04  0.14549278855E+04  0.25500000920E-02 0. -1.
</event>
<event>
 5   0  0.2552990E-06  0.2749900E+04  0.7818609E-02  0.8318993E-01
        1   -1    0    0  501    0  0.00000000000E+00  0.00000000000E+00  0.10474153866E+04  0.10474153867E+04  0.50400001928E-02 0.  1.
       -1   -1    0    0    0  501  0.00000000000E+00  0.00000000000E+00 -0.18049074718E+04  0.18049074718E+04  0.50400001928E-02 0. -1.
    10030    2    1    2    0    0  0.00000000000E+00  0.00000000000E+00 -0.75749208519E+03  0.28523228585E+04  0.27499002582E+04 0.  0.
        3    1    3    3  502    0  0.12111246323E+04  0.37112057302E+03 -0.93339093062E+03  0.15734586090E+04  0.10100000352E+00 0. -1.
       -3    1    3    3    0  502 -0.12111246323E+04 -0.37112057302E+03  0.17589884543E+03  0.12788642495E+04  0.10100000352E+00 0.  1.
</event>
<event>
 5   0  0.7217255E-06  0.2970424E+04  0.7818609E-02  0.8252227E-01
        2   -1    0    0  501    0  0.00000000000E+00  0.00000000000E+00  0.16290948322E+04  0.16290948322E+04  0.25500000920E-02 0.  1.
       -2   -1    0    0    0  501  0.00000000000E+00  0.00000000000E+00 -0.13540365589E+04  0.13540365589E+04  0.25500000920E-02 0. -1.
    10030    2    1    2    0    0  0.00000000000E+00  0.00000000000E+00  0.27505827331E+03  0.29831313911E+04  0.29704235123E+04 0.  0.
        1    1    3    3  502    0 -0.79663505571E+02  0.93544199795E+03  0.12933027321E+04  0.15981332743E+04  0.50400001928E-02 0.  1.
       -1    1    3    3    0  502  0.79663505571E+02 -0.93544199795E+03 -0.10182444587E+04  0.13849981168E+04  0.50400001928E-02 0. -1.
</event>
<event>
 5   0  0.2672155E-06  0.2923731E+04  0.7818609E-02  0.8265852E-01
       -1   -1    0    0    0  501  0.00000000000E+00  0.00000000000E+00  0.14121702998E+04  0.14121702998E+04  0.50400001928E-02 0.  1.
        1   -1    0    0  501    0  0.00000000000E+00  0.00000000000E+00 -0.15133099506E+04  0.15133099506E+04  0.50400001928E-02 0. -1.
    10030    2    1    2    0    0  0.00000000000E+00  0.00000000000E+00 -0.10113965082E+03  0.29254802504E+04  0.29237314286E+04 0.  0.
        5    1    3    3  502    0  0.49537633175E+03 -0.98648103250E+03  0.90838056344E+03  0.14295873095E+04  0.46999998093E+01 0.  1.
       -5    1    3    3    0  502 -0.49537633175E+03  0.98648103250E+03 -0.10095202143E+04  0.14958929409E+04  0.46999998093E+01 0. -1.
</event>
<event>
 5   0  0.6792811E-06  0.2930263E+04  0.7818609E-02  0.8263930E-01
       -2   -1    0    0    0  501  0.00000000000E+00  0.00000000000E+00  0.93414567134E+03  0.93414567135E+03  0.25500000920E-02 0. -1.
        2   -1    0    0  501    0  0.00000000000E+00  0.00000000000E+00 -0.22979402986E+04  0.22979402986E+04  0.25500000920E-02 0.  1.
    10030    2    1    2    0    0  0.00000000000E+00  0.00000000000E+00 -0.13637946273E+04  0.32320859699E+04  0.29302634577E+04 0.  0.
        2    1    3    3  502    0 -0.11930063386E+04  0.79941628658E+03 -0.36168378031E+03  0.14809273041E+04  0.25500000920E-02 0. -1.
       -2    1    3    3    0  502  0.11930063386E+04 -0.79941628658E+03 -0.10021108469E+04  0.17511586658E+04  0.25500000920E-02 0.  1.
</event>
<event>
 5   0  0.2504260E-06  0.2973697E+04  0.7818609E-02  0.8251282E-01
       -1   -1    0    0    0  501  0.00000000000E+00  0.00000000000E+00  0.87214553532E+03  0.87214553534E+03  0.50400001928E-02 0. -1.
        1   -1    0    0  501    0  0.00000000000E+00  0.00000000000E+00 -0.25348041008E+04  0.25348041008E+04  0.50400001928E-02 0.  1.
    10030    2    1    2    0    0  0.00000000000E+00  0.00000000000E+00 -0.16626585655E+04  0.34069496362E+04  0.29736967428E+04 0.  0.
        4    1    3    3  502    0 -0.10764160172E+04  0.33431952433E+03 -0.19422846000E+04  0.22456429073E+04  0.12699999809E+01 0.  1.
       -4    1    3    3    0  502  0.10764160172E+04 -0.33431952433E+03  0.27962603454E+03  0.11613067289E+04  0.12699999809E+01 0. -1.
</event>
<event>
 5   0  0.7201538E-06  0.2969033E+04  0.7818609E-02  0.8252629E-01
        2   -1    0    0  501    0  0.00000000000E+00  0.00000000000E+00  0.13982623414E+04  0.13982623414E+04  0.25500000920E-02 0. -1.
       -2   -1    0    0    0  501  0.00000000000E+00  0.00000000000E+00 -0.15760909532E+04  0.15760909532E+04  0.25500000920E-02 0.  1.
    10030    2    1    2    0    0  0.00000000000E+00  0.00000000000E+00 -0.17782861175E+03  0.29743532946E+04  0.29690325875E+04 0.  0.
        3    1    3    3  502    0 -0.78213437749E+03 -0.36166660136E+03 -0.12999030414E+04  0.15595784181E+04  0.10100000352E+00 0.  1.
       -3    1    3    3    0  502  0.78213437749E+03  0.36166660136E+03  0.11220744297E+04  0.14147748764E+04  0.10100000352E+00 0. -1.
</event>
<event>
 5   0  0.2628425E-06  0.3013401E+04  0.7818609E-02  0.8239914E-01
       -1   -1    0    0    0  501  0.00000000000E+00  0.00000000000E+00  0.16554030110E+04  0.16554030110E+04  0.50400001928E-02 0.  1.
        1   -1    0    0  501    0  0.00000000000E+00  0.00000000000E+00 -0.13713559819E+04  0.13713559820E+04  0.50400001928E-02 0. -1.
    10030    2    1    2    0    0  0.00000000000E+00  0.00000000000E+00  0.28404702904E+03  0.30267589929E+04  0.30134012821E+04 0.  0.
        1    1    3    3  502    0 -0.15057342230E+04  0.42399812118E+02  0.17554099219E+03  0.15165249534E+04  0.50400001928E-02 0. -1.
       -1    1    3    3    0  502  0.15057342230E+04 -0.42399812118E+02  0.10850603685E+03  0.15102340396E+04  0.50400001928E-02 0.  1.
</event>
<event>
 5   0  0.7201538E-06  0.2986613E+04  0.7818609E-02  0.8247564E-01
       -2   -1    0    0    0  501  0.00000000000E+00  0.00000000000E+00  0.12013530535E+04  0.12013530535E+04  0.25500000920E-02 0. -1.
        2   -1    0    0  501    0  0.00000000000E+00  0.00000000000E+00 -0.18562108585E+04  0.18562108585E+04  0.25500000920E-02 0.  1.
    10030    2    1    2    0    0  0.00000000000E+00  0.00000000000E+00 -0.65485780503E+03  0.30575639120E+04  0.29866131874E+04 0.  0.
        3    1    3    3  502    0 -0.57482408851E+03  0.11251909479E+04  0.48739822152E+03  0.13542652763E+04  0.10100000352E+00 0. -1.
       -3    1    3    3    0  502  0.57482408851E+03 -0.11251909479E+04 -0.11422560266E+04  0.17032986357E+04  0.10100000352E+00 0.  1.
</event>
<event>
 5   0  0.2552990E-06  0.2977303E+04  0.7818609E-02  0.8250242E-01
       -1   -1    0    0    0  501  0.00000000000E+00  0.00000000000E+00  0.11277348844E+04  0.11277348844E+04  0.50400001928E-02 0.  1.
        1   -1    0    0  501    0  0.00000000000E+00  0.00000000000E+00 -0.19650751185E+04  0.19650751185E+04  0.50400001928E-02 0. -1.
    10030    2    1    2    0    0  0.00000000000E+00  0.00000000000E+00 -0.83734023414E+03  0.30928100029E+04  0.29773033178E+04 0.  0.
        3    1    3    3  502    0 -0.59209499325E+03  0.10654984886E+04  0.46901122861E+03  0.13060762049E+04  0.10100000352E+00 0.  1.
       -3    1    3    3    0  502  0.59209499325E+03 -0.10654984886E+04 -0.13063514627E+04  0.17867337979E+04  0.10100000352E+00 0. -1.
</event>
<event>
 5   0  0.2672155E-06  0.3046782E+04  0.7818609E-02  0.8230497E-01
       -1   -1    0    0    0  501  0.00000000000E+00  0.00000000000E+00  0.12294528119E+04  0.12294528119E+04  0.50400001928E-02 0.  1.
        1   -1    0    0  501    0  0.00000000000E+00  0.00000000000E+00 -0.18876041208E+04  0.18876041208E+04  0.50400001928E-02 0. -1.
    10030    2    1    2    0    0  0.00000000000E+00  0.00000000000E+00 -0.65815130887E+03  0.31170569327E+04  0.30467820363E+04 0.  0.
        5    1    3    3  502    0  0.10038529998E+02 -0.86558026364E+03 -0.16115312003E+04  0.18293126754E+04  0.46999998093E+01 0. -1.
       -5    1    3    3    0  502 -0.10038529998E+02  0.86558026364E+03  0.95337989142E+03  0.12877442573E+04  0.46999998093E+01 0.  1.
</event>
<event>
 5   0  0.2552990E-06  0.2601010E+04  0.7818609E-02  0.8367858E-01
       -1   -1    0    0    0  501  0.00000000000E+00  0.00000000000E+00  0.86626971287E+03  0.86626971289E+03  0.50400001928E-02 0. -1.
        1   -1    0    0  501    0  0.00000000000E+00  0.00000000000E+00 -0.19524099171E+04  0.19524099171E+04  0.50400001928E-02 0.  1.
    10030    2    1    2    0    0  0.00000000000E+00  0.00000000000E+00 -0.10861402042E+04  0.28186796300E+04  0.26010102486E+04 0.  0.
        3    1    3    3  502    0 -0.11892387791E+04  0.85101328834E+02  0.19803015252E+02  0.11924442458E+04  0.10100000352E+00 0. -1.
       -3    1    3    3    0  502  0.11892387791E+04 -0.85101328834E+02 -0.11059432195E+04  0.16262353842E+04  0.10100000352E+00 0.  1.
</event>
<event>
 5   0  0.6780150E-06  0.2996173E+04  0.7818609E-02  0.8244825E-01
       -2   -1    0    0    0  501  0.00000000000E+00  0.00000000000E+00  0.83930776769E+03  0.83930776769E+03  0.25500000920E-02 0.  1.
        2   -1    0    0  501    0  0.00000000000E+00  0.00000000000E+00 -0.26739445779E+04  0.26739445779E+04  0.25500000920E-02 0. -1.
    10030    2    1    2    0    0  0.00000000000E+00  0.00000000000E+00 -0.18346368102E+04  0.35132523455E+04  0.29961725281E+04 0.  0.
        5    1    3    3  502    0  0.10522279257E+04 -0.54897292489E+03  0.15460550087E+03  0.11968624945E+04  0.46999998093E+01 0.  1.
       -5    1    3    3    0  502 -0.10522279257E+04  0.54897292489E+03 -0.19892423110E+04  0.23163898510E+04  0.46999998093E+01 0. -1.
</event>
<event>
 5   0  0.7217255E-06  0.2894290E+04  0.7818609E-02  0.8274578E-01
       -2   -1    0    0    0  501  0.00000000000E+00  0.00000000000E+00  0.14255868305E+04  0.14255868305E+04  0.25500000920E-02 0.  1.
        2   -1    0    0  501    0  0.00000000000E+00  0.00000000000E+00 -0.14690294501E+04  0.14690294501E+04  0.25500000920E-02 0. -1.
    10030    2    1    2    0    0  0.00000000000E+00  0.00000000000E+00 -0.43442619679E+02  0.28946162806E+04  0.28942902672E+04 0.  0.
        1    1    3    3  502    0  0.76741508068E+03 -0.18239937592E+03  0.11916892712E+04  0.14290971827E+04  0.50400001928E-02 0.  1.
       -1    1    3    3    0  502 -0.76741508068E+03  0.18239937592E+03 -0.12351318909E+04  0.14655190979E+04  0.50400001928E-02 0. -1.
</event>
<event>
 5   0  0.7217255E-06  0.2438819E+04  0.7818609E-02  0.8425112E-01
        2   -1    0    0  501    0  0.00000000000E+00  0.00000000000E+00  0.18928288174E+04  0.18928288174E+04  0.25500000920E-02 0.  1.
       -2   -1    0    0    0  501  0.00000000000E+00  0.00000000000E+00 -0.78557524118E+03  0.78557524119E+03  0.25500000920E-02 0. -1.
    10030    2    1    2    0    0  0.00000000000E+00  0.00000000000E+00  0.11072535762E+04  0.26784040586E+04  0.24388189393E+04 0.  0.
        1    1    3    3  502    0 -0.71252738864E+03  0.26530278678E+03 -0.49337994819E+03  0.90636892132E+03  0.50400001928E-02 0. -1.
       -1    1    3    3    0  502  0.71252738864E+03 -0.26530278678E+03  0.16006335244E+04  0.17720351372E+04  0.50400001928E-02 0.  1.
</event>
<event>
 5   0  0.2422083E-06  0.3051266E+04  0.7818609E-02  0.8229241E-01
       -1   -1    0    0    0  501  0.00000000000E+00  0.00000000000E+00  0.18258240546E+04  0.18258240546E+04  0.50400001928E-02 0. -1.
        1   -1    0    0  501    0  0.00000000000E+00  0.00000000000E+00 -0.12747976853E+04  0.12747976853E+04  0.50400001928E-02 0.  1.
    10030    2    1    2    0    0  0.00000000000E+00  0.00000000000E+00  0.55102636935E+03  0.31006217399E+04  0.30512661494E+04 0.  0.
        2    1    3    3  502    0 -0.62344046757E+03  0.83222310169E+03  0.14099414196E+04  0.17519155557E+04  0.25500000920E-02 0. -1.
       -2    1    3    3    0  502  0.62344046757E+03 -0.83222310169E+03 -0.85891505030E+03  0.13487061842E+04  0.25500000920E-02 0.  1.
</event>
<event>
 5   0  0.2422083E-06  0.2502843E+04  0.7818609E-02  0.8401974E-01
        1   -1    0    0  501    0  0.00000000000E+00  0.00000000000E+00  0.17449444000E+04  0.17449444000E+04  0.50400001928E-02 0.  1.
       -1   -1    0    0    0  501  0.00000000000E+00  0.00000000000E+00 -0.89748154955E+03  0.89748154957E+03  0.50400001928E-02 0. -1.
    10030    2    1    2    0    0  0.00000000000E+00  0.00000000000E+00  0.84746285042E+03  0.26424259495E+04  0.25028427070E+04 0.  0.
        2    1    3    3  502    0  0.89918068266E+03 -0.75353607070E+03 -0.36120165739E+02  0.11737321570E+04  0.25500000920E-02 0.  1.
       -2    1    3    3    0  502 -0.89918068266E+03  0.75353607070E+03  0.88358301616E+03  0.14686937926E+04  0.25500000920E-02 0. -1.
</event>
<event>
 5   0  0.6792811E-06  0.2940568E+04  0.7818609E-02  0.8260909E-01
        2   -1    0    0  501    0  0.00000000000E+00  0.00000000000E+00  0.19646550583E+04  0.19646550583E+04  0.25500000920E-02 0. -1.
       -2   -1    0    0    0  501  0.00000000000E+00  0.00000000000E+00 -0.11003125737E+04  0.11003125737E+04  0.25500000920E-02 0.  1.
    10030    2    1    2    0    0  0.00000000000E+00  0.00000000000E+00  0.86434248460E+03  0.30649676320E+04  0.29405677436E+04 0.  0.
        2    1    3    3  502    0  0.12067057172E+04  0.66859242982E+03  0.96219127606E+03  0.16819532029E+04  0.25500000920E-02 0.  1.
       -2    1    3    3    0  502 -0.12067057172E+04 -0.66859242982E+03 -0.97848791457E+02  0.13830144291E+04  0.25500000920E-02 0. -1.
</event>
<event>
 5   0  0.2672155E-06  0.3032388E+04  0.7818609E-02  0.8234542E-01
        1   -1    0    0  501    0  0.00000000000E+00  0.00000000000E+00  0.18096959691E+04  0.18096959691E+04  0.50400001928E-02 0.  1.
       -1   -1    0    0    0  501  0.00000000000E+00  0.00000000000E+00 -0.12702931392E+04  0.12702931392E+04  0.50400001928E-02 0. -1.
    10030    2    1    2    0    0  0.00000000000E+00  0.00000000000E+00  0.53940282987E+03  0.30799891083E+04  0.30323880844E+04 0.  0.
        5    1    3    3  502    0 -0.97940366568E+03 -0.56912714006E+03 -0.75393075840E+03  0.13607244101E+04  0.46999998093E+01 0. -1.
       -5    1    3    3    0  502  0.97940366568E+03  0.56912714006E+03  0.12933335883E+04  0.17192646982E+04  0.46999998093E+01 0.  1.
</event>
<event>
 5   0  0.2504260E-06  0.2487085E+04  0.7818609E-02  0.8407601E-01
       -1   -1    0    0    0  501  0.00000000000E+00  0.00000000000E+00  0.11115846122E+04  0.11115846123E+04  0.50400001928E-02 0. -1.
        1   -1    0    0  501    0  0.00000000000E+00  0.00000000000E+00 -0.13911651627E+04  0.13911651627E+04  0.50400001928E-02 0.  1.
    10030    2    1    2    0    0  0.00000000000E+00  0.00000000000E+00 -0.27958055047E+03  0.25027497750E+04  0.24870848703E+04 0.  0.
        4    1    3    3  502    0  0.14761326826E+02  0.83112395130E+03  0.79091956517E+03  0.11474058962E+04  0.12699999809E+01 0. -1.
       -4    1    3    3    0  502 -0.14761326826E+02 -0.83112395130E+03 -0.10705001156E+04  0.13553438788E+04  0.12699999809E+01 0.  1.
</event>
<event>
 5   0  0.2552990E-06  0.3657692E+04  0.7818609E-02  0.8077403E-01
       -1   -1    0    0    0  501  0.00000000000E+00  0.00000000000E+00  0.21736894108E+04  0.21736894108E+04  0.50400001928E-02 0. -1.
        1   -1    0    0  501    0  0.00000000000E+00  0.00000000000E+00 -0.15387098120E+04  0.15387098120E+04  0.50400001928E-02 0.  1.
    10030    2    1    2    0    0  0.00000000000E+00  0.00000000000E+00  0.63497959879E+03  0.37123992228E+04  0.36576917446E+04 0.  0.
        3    1    3    3  502    0 -0.94184975873E+03  0.28887305906E+03 -0.12463833397E+04  0.15887101850E+04  0.10100000352E+00 0.  1.
       -3    1    3    3    0  502  0.94184975873E+03 -0.28887305906E+03  0.18813629385E+04  0.21236890377E+04  0.10100000352E+00 0. -1.
</event>
<event>
 5   0  0.2672155E-06  0.2988422E+04  0.7818609E-02  0.8247045E-01
        1   -1    0    0  501    0  0.00000000000E+00  0.00000000000E+00  0.22808407956E+04  0.22808407956E+04  0.50400001928E-02 0.  1.
       -1   -1    0    0    0  501  0.00000000000E+00  0.00000000000E+00 -0.97887882713E+03  0.97887882715E+03  0.50400001928E-02 0. -1.
    10030    2    1    2    0    0  0.00000000000E+00  0.00000000000E+00  0.13019619684E+04  0.32597196227E+04  0.29884221676E+04 0.  0.
        5    1    3    3  502    0 -0.31127393054E+03  0.23551318290E+03  0.22242388053E+04  0.22582334406E+04  0.46999998093E+01 0.  1.
       -5    1    3    3    0  502  0.31127393054E+03 -0.23551318290E+03 -0.92227683688E+03  0.10014861821E+04  0.46999998093E+01 0. -1.
</event>
<event>
 5   0  0.6792811E-06  0.3008368E+04  0.7818609E-02  0.8241345E-01
        2   -1    0    0  501    0  0.00000000000E+00  0.00000000000E+00  0.13327335078E+04  0.13327335078E+04  0.25500000920E-02 0. -1.
       -2   -1    0    0    0  501  0.00000000000E+00  0.00000000000E+00 -0.16976906231E+04  0.16976906231E+04  0.25500000920E-02 0.  1.
    10030    2    1    2    0    0  0.00000000000E+00  0.00000000000E+00 -0.36495711526E+03  0.30304241309E+04  0.30083677829E+04 0.  0.
        2    1    3    3  502    0  0.12262944371E+04 -0.82280945374E+03 -0.47050449735E+03  0.15498993276E+04  0.25500000920E-02 0.  1.
       -2    1    3    3    0  502 -0.12262944371E+04  0.82280945374E+03  0.10554738210E+03  0.14805248034E+04  0.25500000920E-02 0. -1.
</event>
<event>
 5   0  0.6792811E-06  0.2973999E+04  0.7818609E-02  0.8251195E-01
        2   -1    0    0  501    0  0.00000000000E+00  0.00000000000E+00  0.17798396163E+04  0.17798396163E+04  0.25500000920E-02 0.  1.
       -2   -1    0    0    0  501  0.00000000000E+00  0.00000000000E+00 -0.12423409402E+04  0.12423409402E+04  0.25500000920E-02 0. -1.
    10030    2    1    2    0    0  0.00000000000E+00  0.00000000000E+00  0.53749867605E+03  0.30221805565E+04  0.29739990735E+04 0.  0.
        2    1    3    3  502    0  0.16485148445E+02  0.72414000636E+03  0.15884485412E+04  0.17458004689E+04  0.25500000920E-02 0.  1.
       -2    1    3    3    0  502 -0.16485148445E+02 -0.72414000636E+03 -0.10509498652E+04  0.12763800876E+04  0.25500000920E-02 0. -1.
</event>
<event>
 5   0  0.2504260E-06  0.2696734E+04  0.7818609E-02  0.8336066E-01
        1   -1    0    0  501    0  0.00000000000E+00  0.00000000000E+00  0.10712999040E+04  0.10712999040E+04  0.50400001928E-02 0. -1.
       -1   -1    0    0    0  501  0.00000000000E+00  0.00000000000E+00 -0.16970907276E+04  0.16970907276E+04  0.50400001928E-02 0.  1.
    10030    2    1    2    0    0  0.00000000000E+00  0.00000000000E+00 -0.62579082366E+03  0.27683906316E+04  0.26967336788E+04 0.  0.
        4    1    3    3  502    0 -0.49456634307E+03 -0.10883892818E+04 -0.95308816513E+03  0.15289099908E+04  0.12699999809E+01 0.  1.
       -4    1    3    3    0  502  0.49456634307E+03  0.10883892818E+04  0.32729734147E+03  0.12394806409E+04  0.12699999809E+01 0. -1.
</event>
<event>
 5   0  0.2628425E-06  0.2844484E+04  0.7818609E-02  0.8289589E-01
       -1   -1    0    0    0  501  0.00000000000E+00  0.00000000000E+00  0.11359920974E+04  0.11359920974E+04  0.50400001928E-02 0. -1.
        1   -1    0    0  501    0  0.00000000000E+00  0.00000000000E+00 -0.17806220728E+04  0.17806220729E+04  0.50400001928E-02 0.  1.
    10030    2    1    2    0    0  0.00000000000E+00  0.00000000000E+00 -0.64462997546E+03  0.29166141703E+04  0.28444842086E+04 0.  0.
        1    1    3    3  502    0  0.13694758752E+04  0.22849805401E+03 -0.61170582503E+01  0.13884210283E+04  0.50400001928E-02 0. -1.
       -1    1    3    3    0  502 -0.13694758752E+04 -0.22849805401E+03 -0.63851291721E+03  0.15281931419E+04  0.50400001928E-02 0.  1.
</event>
<event>
 5   0  0.2628425E-06  0.2977587E+04  0.7818609E-02  0.8250160E-01
       -1   -1    0    0    0  501  0.00000000000E+00  0.00000000000E+00  0.10338394416E+04  0.10338394416E+04  0.50400001928E-02 0.  1.
        1   -1    0    0  501    0  0.00000000000E+00  0.00000000000E+00 -0.21439562309E+04  0.21439562309E+04  0.50400001928E-02 0. -1.
    10030    2    1    2    0    0  0.00000000000E+00  0.00000000000E+00 -0.11101167893E+04  0.31777956725E+04  0.29775872867E+04 0.  0.
        1    1    3    3  502    0 -0.57872252280E+03  0.52265963542E+03 -0.19085648897E+04  0.20617256828E+04  0.50400001928E-02 0. -1.
       -1    1    3    3    0  502  0.57872252280E+03 -0.52265963542E+03  0.79844810037E+03  0.11160699897E+04  0.50400001928E-02 0.  1.
</event>
<event>
 5   0  0.2672155E-06  0.2989885E+04  0.7818609E-02  0.8246625E-01
        1   -1    0    0  501    0  0.00000000000E+00  0.00000000000E+00  0.88617234340E+03  0.88617234342E+03  0.50400001928E-02 0.  1.
       -1   -1    0    0    0  501  0.00000000000E+00  0.00000000000E+00 -0.25219164113E+04  0.25219164113E+04  0.50400001928E-02 0. -1.
    10030    2    1    2    0    0  0.00000000000E+00  0.00000000000E+00 -0.16357440679E+04  0.34080887547E+04  0.29898846640E+04 0.  0.
        5    1    3    3  502    0  0.15051438303E+03  0.80471893484E+03  0.60792789121E+03  0.10197183702E+04  0.46999998093E+01 0.  1.
       -5    1    3    3    0  502 -0.15051438303E+03 -0.80471893484E+03 -0.22436719591E+04  0.23883703845E+04  0.46999998093E+01 0. -1.
</event>
<event>
 5   0  0.7217255E-06  0.3025937E+04  0.7818609E-02  0.8236363E-01
        2   -1    0    0  501    0  0.00000000000E+00  0.00000000000E+00  0.16804655897E+04  0.16804655897E+04  0.25500000920E-02 0. -1.
       -2   -1    0    0    0  501  0.00000000000E+00  0.00000000000E+00 -0.13621662244E+04  0.13621662244E+04  0.25500000920E-02 0.  1.
    10030    2    1    2    0    0  0.00000000000E+00  0.00000000000E+00  0.31829936529E+03  0.30426318140E+04  0.30259368582E+04 0.  0.
        1    1    3    3  502    0  0.12541607862E+04 -0.67693285313E+03 -0.35150670513E+03  0.14678945225E+04  0.50400001928E-02 0.  1.
       -1    1    3    3    0  502 -0.12541607862E+04  0.67693285313E+03  0.66980607042E+03  0.15747372915E+04  0.50400001928E-02 0. -1.
</event>
<event>
 5   0  0.7201538E-06  0.2926945E+04  0.7818609E-02  0.8264905E-01
       -2   -1    0    0    0  501  0.00000000000E+00  0.00000000000E+00  0.12259448369E+04  0.12259448369E+04  0.25500000920E-02 0.  1.
        2   -1    0    0  501    0  0.00000000000E+00  0.00000000000E+00 -0.17470217238E+04  0.17470217238E+04  0.25500000920E-02 0. -1.
    10030    2    1    2    0    0  0.00000000000E+00  0.00000000000E+00 -0.52107688688E+03  0.29729665607E+04  0.29269453444E+04 0.  0.
        3    1    3    3  502    0  0.43125797218E+03 -0.23473174166E+02  0.11597383316E+04  0.12375489633E+04  0.10100000352E+00 0.  1.
       -3    1    3    3    0  502 -0.43125797218E+03  0.23473174166E+02 -0.16808152185E+04  0.17354175974E+04  0.10100000352E+00 0. -1.
</event>
<event>
 5   0  0.7217255E-06  0.2585965E+04  0.7818609E-02  0.8372984E-01
        2   -1    0    0  501    0  0.00000000000E+00  0.00000000000E+00  0.17757657576E+04  0.17757657576E+04  0.25500000920E-02 0. -1.
       -2   -1    0    0    0  501  0.00000000000E+00  0.00000000000E+00 -0.94145533353E+03  0.94145533353E+03  0.25500000920E-02 0.  1.
    10030    2    1    2    0    0  0.00000000000E+00  0.00000000000E+00  0.83431042403E+03  0.27172210911E+04  0.25859653080E+04 0.  0.
        1    1    3    3  502    0 -0.10258934948E+04  0.65379573327E+03  0.87745132052E+03  0.14999423800E+04  0.50400001928E-02 0. -1.
       -1    1    3    3    0  502  0.10258934948E+04 -0.65379573327E+03 -0.43140896495E+02  0.12172787111E+04  0.50400001928E-02 0.  1.
</event>
<event>
 5   0  0.7201538E-06  0.3011068E+04  0.7818609E-02  0.8240578E-01
        2   -1    0    0  501    0  0.00000000000E+00  0.00000000000E+00  0.13500574311E+04  0.13500574311E+04  0.25500000920E-02 0.  1.
       -2   -1    0    0    0  501  0.00000000000E+00  0.00000000000E+00 -0.16789152352E+04  0.16789152352E+04  0.25500000920E-02 0. -1.
    10030    2    1    2    0    0  0.00000000000E+00  0.00000000000E+00 -0.32885780403E+03  0.30289726663E+04  0.30110675778E+04 0.  0.
        3    1    3    3  502    0 -0.29744854670E+03 -0.25327167974E+03 -0.16270382660E+04  0.16732829142E+04  0.10100000352E+00 0. -1.
       -3    1    3    3    0  502  0.29744854670E+03  0.25327167974E+03  0.12981804620E+04  0.13556897521E+04  0.10100000352E+00 0.  1.
</event>
<event>
 5   0  0.6780150E-06  0.2920074E+04  0.7818609E-02  0.8266930E-01
       -2   -1    0    0    0  501  0.00000000000E+00  0.00000000000E+00  0.10639511168E+04  0.10639511168E+04  0.25500000920E-02 0. -1.
        2   -1    0    0  501    0  0.00000000000E+00  0.00000000000E+00 -0.20035765884E+04  0.20035765884E+04  0.25500000920E-02 0.  1.
    10030    2    1    2    0    0  0.00000000000E+00  0.00000000000E+00 -0.93962547155E+03  0.30675277052E+04  0.29200736627E+04 0.  0.
        5    1    3    3  502    0 -0.41398365208E+03  0.63164277431E+03 -0.17824420369E+04  0.19358400666E+04  0.46999998093E+01 0.  1.
       -5    1    3    3    0  502  0.41398365208E+03 -0.63164277431E+03  0.84281656535E+03  0.11316876386E+04  0.46999998093E+01 0. -1.
</event>
<event>
 5   0  0.2422083E-06  0.3004349E+04  0.7818609E-02  0.8242490E-01
       -1   -1    0    0    0  501  0.00000000000E+00  0.00000000000E+00  0.10119170996E+04  0.10119170996E+04  0.50400001928E-02 0.  1.
        1   -1    0    0  501    0  0.00000000000E+00  0.00000000000E+00 -0.22299535425E+04  0.22299535425E+04  0.50400001928E-02 0. -1.
    10030    2    1    2    0    0  0.00000000000E+00  0.00000000000E+00 -0.12180364430E+04  0.32418706421E+04  0.30043489284E+04 0.  0.
        2    1    3    3  502    0 -0.11830875068E+04  0.67308026332E+03  0.76668589723E+02  0.13633089020E+04  0.25500000920E-02 0.  1.
       -2    1    3    3    0  502  0.11830875068E+04 -0.67308026332E+03 -0.12947050327E+04  0.18785617401E+04  0.25500000920E-02 0. -1.
</event>
<event>
 5   0  0.2552990E-06  0.2966642E+04  0.7818609E-02  0.8253321E-01
       -1   -1    0    0    0  501  0.00000000000E+00  0.00000000000E+00  0.14932361692E+04  0.14932361692E+04  0.50400001928E-02 0.  1.
        1   -1    0    0  501    0  0.00000000000E+00  0.00000000000E+00 -0.14734716556E+04  0.14734716556E+04  0.50400001928E-02 0. -1.
    10030    2    1    2    0    0  0.00000000000E+00  0.00000000000E+00  0.19764513619E+02  0.29667078248E+04  0.29666419874E+04 0.  0.
        3    1    3    3  502    0  0.10303203776E+04  0.91938758027E+03 -0.53180084241E+03  0.14797451637E+04  0.10100000352E+00 0. -1.
       -3    1    3    3    0  502 -0.10303203776E+04 -0.91938758027E+03  0.55156535603E+03  0.14869626611E+04  0.10100000352E+00 0.  1.
</event>
<event>
 5   0  0.7217255E-06  0.2923691E+04  0.7818609E-02  0.8265864E-01
        2   -1    0    0  501    0  0.00000000000E+00  0.00000000000E+00  0.18695139625E+04  0.18695139625E+04  0.25500000920E-02 0. -1.
       -2   -1    0    0    0  501  0.00000000000E+00  0.00000000000E+00 -0.11430734713E+04  0.11430734713E+04  0.25500000920E-02 0.  1.
    10030    2    1    2    0    0  0.00000000000E+00  0.00000000000E+00  0.72644049113E+03  0.30125874338E+04  0.29236906914E+04 0.  0.
        1    1    3    3  502    0  0.65333519522E+03  0.75657933897E+03 -0.73585732283E+03  0.12412675671E+04  0.50400001928E-02 0.  1.
       -1    1    3    3    0  502 -0.65333519522E+03 -0.75657933897E+03  0.14622978140E+04  0.17713198667E+04  0.50400001928E-02 0. -1.
</event>
<event>
 5   0  0.2552990E-06  0.3004709E+04  0.7818609E-02  0.8242387E-01
       -1   -1    0    0    0  501  0.00000000000E+00  0.00000000000E+00  0.26626722129E+04  0.26626722129E+04  0.50400001928E-02 0.  1.
        1   -1    0    0  501    0  0.00000000000E+00  0.00000000000E+00 -0.84767073656E+03  0.84767073658E+03  0.50400001928E-02 0. -1.
    10030    2    1    2    0    0  0.00000000000E+00  0.00000000000E+00  0.18150014763E+04  0.35103429495E+04  0.30047091812E+04 0.  0.
        3    1    3    3  502    0  0.10670784592E+04  0.10147412112E+04  0.12554701622E+04  0.19350869495E+04  0.10100000352E+00 0.  1.
       -3    1    3    3    0  502 -0.10670784592E+04 -0.10147412112E+04  0.55953131411E+03  0.15752560000E+04  0.10100000352E+00 0. -1.
</event>
<event>
 5   0  0.2422083E-06  0.3090621E+04  0.7818609E-02  0.8218317E-01
        1   -1    0    0  501    0  0.00000000000E+00  0.00000000000E+00  0.14598235050E+04  0.14598235050E+04  0.50400001928E-02 0.  1.
       -1   -1    0    0    0  501  0.00000000000E+00  0.00000000000E+00 -0.16358034747E+04  0.16358034747E+04  0.50400001928E-02 0. -1.
    10030    2    1    2    0    0  0.00000000000E+00  0.00000000000E+00 -0.17597996972E+03  0.30956269797E+04  0.30906208838E+04 0.  0.
        2    1    3    3  502    0 -0.11289744637E+04  0.10282934067E+03  0.96386679988E+03  0.14880176144E+04  0.25500000920E-02 0.  1.
       -2    1    3    3    0  502  0.11289744637E+04 -0.10282934067E+03 -0.11398467696E+04  0.16076093652E+04  0.25500000920E-02 0. -1.
</event>
<event>
 5   0  0.2504260E-06  0.2905299E+04  0.7818609E-02  0.8271303E-01
        1   -1    0    0  501    0  0.00000000000E+00  0.00000000000E+00  0.12734519977E+04  0.12734519977E+04  0.50400001928E-02 0. -1.
       -1   -1    0    0    0  501  0.00000000000E+00  0.00000000000E+00 -0.16570627947E+04  0.16570627947E+04  0.50400001928E-02 0.  1.
    10030    2    1    2    0    0  0.00000000000E+00  0.00000000000E+00 -0.38361079695E+03  0.29305147924E+04  0.29052985569E+04 0.  0.
        4    1    3    3  502    0  0.61634319381E+02 -0.12706414052E+04 -0.89921976792E+03  0.15578594846E+04  0.12699999809E+01 0. -1.
       -4    1    3    3    0  502 -0.61634319381E+02  0.12706414052E+04  0.51560897098E+03  0.13726553077E+04  0.12699999809E+01 0.  1.
</event>
<event>
 5   0  0.7193153E-06  0.3019678E+04  0.7818609E-02  0.8238134E-01
       -2   -1    0    0    0  501  0.00000000000E+00  0.00000000000E+00  0.12113178937E+04  0.12113178937E+04  0.25500000920E-02 0.  1.
        2   -1    0    0  501    0  0.00000000000E+00  0.00000000000E+00 -0.18819289697E+04  0.18819289697E+04  0.25500000920E-02 0. -1.
    10030    2    1    2    0    0  0.00000000000E+00  0.00000000000E+00 -0.67061107605E+03  0.30932468634E+04  0.30196782846E+04 0.  0.
        4    1    3    3  502    0  0.78839893671E+03  0.93365361870E+03 -0.12436624183E+04  0.17435537809E+04  0.12699999809E+01 0. -1.
       -4    1    3    3    0  502 -0.78839893671E+03 -0.93365361870E+03  0.57305134229E+03  0.13496930825E+04  0.12699999809E+01 0.  1.
</event>
<event>
 5   0  0.2672155E-06  0.2985970E+04  0.7818609E-02  0.8247749E-01
        1   -1    0    0  501    0  0.00000000000E+00  0.00000000000E+00  0.26214109094E+04  0.26214109094E+04  0.50400001928E-02 0.  1.
       -1   -1    0    0    0  501  0.00000000000E+00  0.00000000000E+00 -0.85030678825E+03  0.85030678826E+03  0.50400001928E-02 0. -1.
    10030    2    1    2    0    0  0.00000000000E+00  0.00000000000E+00  0.17711041212E+04  0.34717176977E+04  0.29859695183E+04 0.  0.
        5    1    3    3  502    0 -0.16242622658E+03  0.91987424705E+03  0.22396740957E+04  0.24266670671E+04  0.46999998093E+01 0.  1.
       -5    1    3    3    0  502  0.16242622658E+03 -0.91987424705E+03 -0.46856997454E+03  0.10450506306E+04  0.46999998093E+01 0. -1.
</event>
<event>
 5   0  0.2672155E-06  0.2982530E+04  0.7818609E-02  0.8248737E-01
       -1   -1    0    0    0  501  0.00000000000E+00  0.00000000000E+00  0.68275803298E+03  0.68275803299E+03  0.50400001928E-02 0. -1.
        1   -1    0    0  501    0  0.00000000000E+00  0.00000000000E+00 -0.32571870979E+04  0.32571870979E+04  0.50400001928E-02 0.  1.
    10030    2    1    2    0    0  0.00000000000E+00  0.00000000000E+00 -0.25744290649E+04  0.39399451309E+04  0.29825295680E+04 0.  0.
        5    1    3    3  502    0  0.80153616434E+03 -0.11015725415E+04 -0.48593173322E+03  0.14464003686E+04  0.46999998093E+01 0. -1.
       -5    1    3    3    0  502 -0.80153616434E+03  0.11015725415E+04 -0.20884973317E+04  0.24935447623E+04  0.46999998093E+01 0.  1.
</event>
<event>
 5   0  0.2672155E-06  0.3051764E+04  0.7818609E-02  0.8229102E-01
       -1   -1    0    0    0  501  0.00000000000E+00  0.00000000000E+00  0.14475361235E+04  0.14475361235E+04  0.50400001928E-02 0.  1.
        1   -1    0    0  501    0  0.00000000000E+00  0.00000000000E+00 -0.16084680094E+04  0.16084680095E+04  0.50400001928E-02 0. -1.
    10030    2    1    2    0    0  0.00000000000E+00  0.00000000000E+00 -0.16093188592E+03  0.30560041330E+04  0.30517637833E+04 0.  0.
        5    1    3    3  502    0  0.14664369066E+04  0.38766281865E+03  0.85818375497E+02  0.15192453869E+04  0.46999998093E+01 0.  1.
       -5    1    3    3    0  502 -0.14664369066E+04 -0.38766281865E+03 -0.24675026141E+03  0.15367587461E+04  0.46999998093E+01 0. -1.
</event>
<event>
 5   0  0.6780150E-06  0.3061770E+04  0.7818609E-02  0.8226309E-01
        2   -1    0    0  501    0  0.00000000000E+00  0.00000000000E+00  0.18844970233E+04  0.18844970233E+04  0.25500000920E-02 0. -1.
       -2   -1    0    0    0  501  0.00000000000E+00  0.00000000000E+00 -0.12436256722E+04  0.12436256722E+04  0.25500000920E-02 0.  1.
    10030    2    1    2    0    0  0.00000000000E+00  0.00000000000E+00  0.64087135107E+03  0.31281226955E+04  0.30617699961E+04 0.  0.
        5    1    3    3  502    0 -0.92388825084E+03 -0.15009415891E+03 -0.91721661000E+03  0.13104984381E+04  0.46999998093E+01 0.  1.
       -5    1    3    3    0  502  0.92388825084E+03  0.15009415891E+03  0.15580879611E+04  0.18176242574E+04  0.46999998093E+01 0. -1.
</event>
<event>
 5   0  0.7217255E-06  0.3016604E+04  0.7818609E-02  0.8239005E-01
        2   -1    0    0  501    0  0.00000000000E+00  0.00000000000E+00  0.25152229015E+04  0.25152229015E+04  0.25500000920E-02 0.  1.
       -2   -1    0    0    0  501  0.00000000000E+00  0.00000000000E+00 -0.90448253598E+03  0.90448253598E+03  0.25500000920E-02 0. -1.
    10030    2    1    2    0    0  0.00000000000E+00  0.00000000000E+00  0.16107403655E+04  0.34197054375E+04  0.30166041759E+04 0.  0.
        1    1    3    3  502    0  0.14686280647E+04 -0.30575274560E+03  0.62748797304E+03  0.16260671235E+04  0.50400001928E-02 0. -1.
       -1    1    3    3    0  502 -0.14686280647E+04  0.30575274560E+03  0.98325239244E+03  0.17936383139E+04  0.50400001928E-02 0.  1.
</event>
<event>
 5   0  0.2422083E-06  0.3023922E+04  0.7818609E-02  0.8236933E-01
       -1   -1    0    0    0  501  0.00000000000E+00  0.00000000000E+00  0.10827556562E+04  0.10827556562E+04  0.50400001928E-02 0.  1.
        1   -1    0    0  501    0  0.00000000000E+00  0.00000000000E+00 -0.21113042800E+04  0.21113042800E+04  0.50400001928E-02 0. -1.
    10030    2    1    2    0    0  0.00000000000E+00  0.00000000000E+00 -0.10285486239E+04  0.31940599362E+04  0.30239223873E+04 0.  0.
        2    1    3    3  502    0 -0.12989521792E+04 -0.12486572512E+03  0.29233959058E+03  0.13372848049E+04  0.25500000920E-02 0.  1.
       -2    1    3    3    0  502  0.12989521792E+04  0.12486572512E+03 -0.13208882144E+04  0.18567751313E+04  0.25500000920E-02 0. -1.
</event>
<event>
 5   0  0.2298500E-06  0.3016516E+04  0.7818609E-02  0.8239030E-01
        4   -1    0    0  501    0  0.00000000000E+00  0.00000000000E+00  0.22115227399E+04  0.22115231045E+04  0.12699999809E+01 0.  1.
       -4   -1    0    0    0  501  0.00000000000E+00  0.00000000000E+00 -0.10286307529E+04  0.10286315369E+04  0.12699999809E+01 0. -1.
    10030    2    1    2    0    0  0.00000000000E+00  0.00000000000E+00  0.11828919870E+04  0.32401546414E+04  0.30165159783E+04 0.  0.
        5    1    3    3  502    0  0.14698484069E+03  0.95942017082E+03 -0.64858044467E+03  0.11673775271E+04  0.46999998093E+01 0. -1.
       -5    1    3    3    0  502 -0.14698484069E+03 -0.95942017082E+03  0.18314724317E+04  0.20727771143E+04  0.46999998093E+01 0.  1.
</event>
<event>
 5   0  0.7217255E-06  0.2935872E+04  0.7818609E-02  0.8262284E-01
       -2   -1    0    0    0  501  0.00000000000E+00  0.00000000000E+00  0.13728069486E+04  0.13728069486E+04  0.25500000920E-02 0. -1.
        2   -1    0    0  501    0  0.00000000000E+00  0.00000000000E+00 -0.15696565230E+04  0.15696565230E+04  0.25500000920E-02 0.  1.
    10030    2    1    2    0    0  0.00000000000E+00  0.00000000000E+00 -0.19684957441E+03  0.29424634715E+04  0.29358715105E+04 0.  0.
        1    1    3    3  502    0 -0.97458477432E+03  0.55250973217E+02 -0.11972290840E+04  0.15447412832E+04  0.50400001928E-02 0.  1.
       -1    1    3    3    0  502  0.97458477432E+03 -0.55250973217E+02  0.10003795096E+04  0.13977221883E+04  0.50400001928E-02 0. -1.
</event>
<event>
 5   0  0.7217255E-06  0.3006074E+04  0.7818609E-02  0.8241998E-01
        2   -1    0    0  501    0  0.00000000000E+00  0.00000000000E+00  0.22531492439E+04  0.22531492439E+04  0.25500000920E-02 0. -1.
       -2   -1    0    0    0  501  0.00000000000E+00  0.00000000000E+00 -0.10026502750E+04  0.10026502750E+04  0.25500000920E-02 0.  1.
    10030    2    1    2    0    0  0.00000000000E+00  0.00000000000E+00  0.12504989689E+04  0.32557995189E+04  0.30060743231E+04 0.  0.
        1    1    3    3  502    0 -0.99711200466E+03  0.33981244607E+03  0.17864214271E+04  0.20738867769E+04  0.50400001928E-02 0. -1.
       -1    1    3    3    0  502  0.99711200466E+03 -0.33981244607E+03 -0.53592245825E+03  0.11819127420E+04  0.50400001928E-02 0.  1.
</event>
<event>
 5   0  0.7201538E-06  0.3170781E+04  0.7818609E-02  0.8196577E-01
        2   -1    0    0  501    0  0.00000000000E+00  0.00000000000E+00  0.11439030583E+04  0.11439030583E+04  0.25500000920E-02 0. -1.
       -2   -1    0    0    0  501  0.00000000000E+00  0.00000000000E+00 -0.21972687516E+04  0.21972687516E+04  0.25500000920E-02 0.  1.
    10030    2    1    2    0    0  0.00000000000E+00  0.00000000000E+00 -0.10533656932E+04  0.33411718099E+04  0.31707806262E+04 0.  0.
        3    1    3    3  502    0 -0.99944067418E+03 -0.96801636842E+03 -0.13274717354E+04  0.19230492894E+04  0.10100000352E+00 0.  1.
       -3    1    3    3    0  502  0.99944067418E+03  0.96801636842E+03  0.27410604220E+03  0.14181225206E+04  0.10100000352E+00 0. -1.
</event>
<event>
 5   0  0.2504260E-06  0.2974077E+04  0.7818609E-02  0.8251172E-01
       -1   -1    0    0    0  501  0.00000000000E+00  0.00000000000E+00  0.72235562556E+03  0.72235562558E+03  0.50400001928E-02 0.  1.
        1   -1    0    0  501    0  0.00000000000E+00  0.00000000000E+00 -0.30612114490E+04  0.30612114490E+04  0.50400001928E-02 0. -1.
    10030    2    1    2    0    0  0.00000000000E+00  0.00000000000E+00 -0.23388558235E+04  0.37835670746E+04  0.29740768728E+04 0.  0.
        4    1    3    3  502    0  0.24221077327E+03 -0.13769336361E+04 -0.52490806276E+03  0.14933661253E+04  0.12699999809E+01 0.  1.
       -4    1    3    3    0  502 -0.24221077327E+03  0.13769336361E+04 -0.18139477607E+04  0.22902009493E+04  0.12699999809E+01 0. -1.
</event>
<event>
 5   0  0.2504260E-06  0.3013513E+04  0.7818609E-02  0.8239883E-01
        1   -1    0    0  501    0  0.00000000000E+00  0.00000000000E+00  0.16733907663E+04  0.16733907663E+04  0.50400001928E-02 0.  1.
       -1   -1    0    0    0  501  0.00000000000E+00  0.00000000000E+00 -0.13567151238E+04  0.13567151238E+04  0.50400001928E-02 0. -1.
    10030    2    1    2    0    0  0.00000000000E+00  0.00000000000E+00  0.31667564251E+03  0.30301058902E+04  0.30135126088E+04 0.  0.
        4    1    3    3  502    0 -0.12065847242E+04 -0.45991205053E+03 -0.62243451720E+03  0.14334546146E+04  0.12699999809E+01 0. -1.
       -4    1    3    3    0  502  0.12065847242E+04  0.45991205053E+03  0.93911015971E+03  0.15966512756E+04  0.12699999809E+01 0.  1.
</event>
<event>
 5   0  0.2628425E-06  0.3339508E+04  0.7818609E-02  0.8152915E-01
       -1   -1    0    0    0  501  0.00000000000E+00  0.00000000000E+00  0.17283874481E+04  0.17283874482E+04  0.50400001928E-02 0.  1.
        1   -1    0    0  501    0  0.00000000000E+00  0.00000000000E+00 -0.16131092339E+04  0.16131092339E+04  0.50400001928E-02 0. -1.
    10030    2    1    2    0    0  0.00000000000E+00  0.00000000000E+00  0.11527821427E+03  0.33414966820E+04  0.33395075998E+04 0.  0.
        1    1    3    3  502    0 -0.55196003760E+03 -0.67772655340E+02 -0.15177270401E+04  0.16163998219E+04  0.50400001928E-02 0. -1.
       -1    1    3    3    0  502  0.55196003760E+03  0.67772655340E+02  0.16330052544E+04  0.17250968601E+04  0.50400001928E-02 0.  1.
</event>
<event>
 5   0  0.6780150E-06  0.3017812E+04  0.7818609E-02  0.8238663E-01
        2   -1    0    0  501    0  0.00000000000E+00  0.00000000000E+00  0.15381989480E+04  0.15381989480E+04  0.25500000920E-02 0. -1.
       -2   -1    0    0    0  501  0.00000000000E+00  0.00000000000E+00 -0.14801712055E+04  0.14801712055E+04  0.25500000920E-02 0.  1.
    10030    2    1    2    0    0  0.00000000000E+00  0.00000000000E+00  0.58027742498E+02  0.30183701534E+04  0.30178123143E+04 0.  0.
        5    1    3    3  502    0 -0.10575138387E+04  0.35710583909E+03 -0.98651395408E+03  0.14896616968E+04  0.46999998093E+01 0.  1.
       -5    1    3    3    0  502  0.10575138387E+04 -0.35710583909E+03  0.10445416966E+04  0.15287084566E+04  0.46999998093E+01 0. -1.
</event>
<event>
 5   0  0.2628425E-06  0.2964560E+04  0.7818609E-02  0.8253924E-01
       -1   -1    0    0    0  501  0.00000000000E+00  0.00000000000E+00  0.18955049660E+04  0.18955049660E+04  0.50400001928E-02 0.  1.
        1   -1    0    0  501    0  0.00000000000E+00  0.00000000000E+00 -0.11591393048E+04  0.11591393048E+04  0.50400001928E-02 0. -1.
    10030    2    1    2    0    0  0.00000000000E+00  0.00000000000E+00  0.73636566118E+03  0.30546442707E+04  0.29645602092E+04 0.  0.
        1    1    3    3  502    0  0.24684936327E+03 -0.14429119006E+04  0.12824433218E+03  0.14694815309E+04  0.50400001928E-02 0.  1.
       -1    1    3    3    0  502 -0.24684936327E+03  0.14429119006E+04  0.60812132900E+03  0.15851627398E+04  0.50400001928E-02 0. -1.
</event>
<event>
 5   0  0.6780150E-06  0.3024969E+04  0.7818609E-02  0.8236637E-01
       -2   -1    0    0    0  501  0.00000000000E+00  0.00000000000E+00  0.12670051818E+04  0.12670051818E+04  0.25500000920E-02 0. -1.
        2   -1    0    0  501    0  0.00000000000E+00  0.00000000000E+00 -0.18055246272E+04  0.18055246272E+04  0.25500000920E-02 0.  1.
    10030    2    1    2    0    0  0.00000000000E+00  0.00000000000E+00 -0.53851944540E+03  0.30725298091E+04  0.30249687990E+04 0.  0.
        5    1    3    3  502    0  0.76267671707E+03  0.28486018185E+02  0.10570657170E+04  0.13038010768E+04  0.46999998093E+01 0.  1.
       -5    1    3    3    0  502 -0.76267671707E+03 -0.28486018185E+02 -0.15955851624E+04  0.17687287323E+04  0.46999998093E+01 0. -1.
</event>
<event>
 5   0  0.7217255E-06  0.2935384E+04  0.7818609E-02  0.8262427E-01
       -2   -1    0    0    0  501  0.00000000000E+00  0.00000000000E+00  0.87177892270E+03  0.87177892270E+03  0.25500000920E-02 0.  1.
        2   -1    0    0  501    0  0.00000000000E+00  0.00000000000E+00 -0.24709475324E+04  0.24709475324E+04  0.25500000920E-02 0. -1.
    10030    2    1    2    0    0  0.00000000000E+00  0.00000000000E+00 -0.15991686097E+04  0.33427264551E+04  0.29353841165E+04 0.  0.
        1    1    3    3  502    0 -0.19617209997E+03  0.10799801007E+04 -0.19090987023E+04  0.22021576615E+04  0.50400001928E-02 0. -1.
       -1    1    3    3    0  502  0.19617209997E+03 -0.10799801007E+04  0.30993009265E+03  0.11405687936E+04  0.50400001928E-02 0.  1.
</event>
<event>
 5   0  0.7193153E-06  0.2997978E+04  0.7818609E-02  0.8244308E-01
        2   -1    0    0  501    0  0.00000000000E+00  0.00000000000E+00  0.16439472603E+04  0.16439472603E+04  0.25500000920E-02 0. -1.
       -2   -1    0    0    0  501  0.00000000000E+00  0.00000000000E+00 -0.13668130055E+04  0.13668130055E+04  0.25500000920E-02 0.  1.
    10030    2    1    2    0    0  0.00000000000E+00  0.00000000000E+00  0.27713425488E+03  0.30107602658E+04  0.29979783159E+04 0.  0.
        4    1    3    3  502    0 -0.41797946016E+03  0.12837825849E+04 -0.51548706797E+03  0.14451757971E+04  0.12699999809E+01 0.  1.
       -4    1    3    3    0  502  0.41797946016E+03 -0.12837825849E+04  0.79262132285E+03  0.15655844687E+04  0.12699999809E+01 0. -1.
</event>
<event>
 5   0  0.6780150E-06  0.2973785E+04  0.7818609E-02  0.8251256E-01
       -2   -1    0    0    0  501  0.00000000000E+00  0.00000000000E+00  0.32334186892E+04  0.32334186892E+04  0.25500000920E-02 0.  1.
        2   -1    0    0  501    0  0.00000000000E+00  0.00000000000E+00 -0.68374991346E+03  0.68374991346E+03  0.25500000920E-02 0. -1.
    10030    2    1    2    0    0  0.00000000000E+00  0.00000000000E+00  0.25496687757E+04  0.39171686027E+04  0.29737852975E+04 0.  0.
        5    1    3    3  502    0 -0.96514050174E+03  0.84896812762E+03  0.22593149138E+04  0.25993785872E+04  0.46999998093E+01 0.  1.
       -5    1    3    3    0  502  0.96514050174E+03 -0.84896812762E+03  0.29035386197E+03  0.13177900155E+04  0.46999998093E+01 0. -1.
</event>
<event>
 5   0  0.2504260E-06  0.3111009E+04  0.7818609E-02  0.8212723E-01
       -1   -1    0    0    0  501  0.00000000000E+00  0.00000000000E+00  0.13614096449E+04  0.13614096449E+04  0.50400001928E-02 0. -1.
        1   -1    0    0  501    0  0.00000000000E+00  0.00000000000E+00 -0.17772713271E+04  0.17772713271E+04  0.50400001928E-02 0.  1.
    10030    2    1    2    0    0  0.00000000000E+00  0.00000000000E+00 -0.41586168227E+03  0.31386809720E+04  0.31110090494E+04 0.  0.
        4    1    3    3  502    0  0.15181198512E+04 -0.28457480722E+01 -0.54991007810E+03  0.16146512589E+04  0.12699999809E+01 0. -1.
       -4    1    3    3    0  502 -0.15181198512E+04  0.28457480722E+01  0.13404839583E+03  0.15240297131E+04  0.12699999809E+01 0.  1.
</event>
<event>
 5   0  0.7217255E-06  0.2989263E+04  0.7818609E-02  0.8246803E-01
       -2   -1    0    0    0  501  0.00000000000E+00  0.00000000000E+00  0.13946888051E+04  0.13946888051E+04  0.25500000920E-02 0. -1.
        2   -1    0    0  501    0  0.00000000000E+00  0.00000000000E+00 -0.16017363312E+04  0.16017363312E+04  0.25500000920E-02 0.  1.
    10030    2    1    2    0    0  0.00000000000E+00  0.00000000000E+00 -0.20704752608E+03  0.29964251363E+04  0.29892632737E+04 0.  0.
        1    1    3    3  502    0 -0.36046610228E+03 -0.12477236582E+04 -0.84500784079E+03  0.15494477691E+04  0.50400001928E-02 0.  1.
       -1    1    3    3    0  502  0.36046610228E+03  0.12477236582E+04  0.63796031471E+03  0.14469773672E+04  0.50400001928E-02 0. -1.
</event>
<event>
 5   0  0.2504260E-06  0.2429123E+04  0.7818609E-02  0.8428680E-01
        1   -1    0    0  501    0  0.00000000000E+00  0.00000000000E+00  0.80346161404E+03  0.80346161405E+03  0.50400001928E-02 0. -1.
       -1   -1    0    0    0  501  0.00000000000E+00  0.00000000000E+00 -0.18360048744E+04  0.18360048744E+04  0.50400001928E-02 0.  1.
    10030    2    1    2    0    0  0.00000000000E+00  0.00000000000E+00 -0.10325432603E+04  0.26394664884E+04  0.24291228374E+04 0.  0.
        4    1    3    3  502    0  0.57723155505E+03 -0.99546829254E+03 -0.93851372739E+03  0.14849117883E+04  0.12699999809E+01 0. -1.
       -4    1    3    3    0  502 -0.57723155505E+03  0.99546829254E+03 -0.94029532927E+02  0.11545547001E+04  0.12699999809E+01 0.  1.
</event>
<event>
 5   0  0.2422083E-06  0.2421397E+04  0.7818609E-02  0.8431536E-01
        1   -1    0    0  501    0  0.00000000000E+00  0.00000000000E+00  0.11240301433E+04  0.11240301433E+04  0.50400001928E-02 0.  1.
       -1   -1    0    0    0  501  0.00000000000E+00  0.00000000000E+00 -0.13040489469E+04  0.13040489469E+04  0.50400001928E-02 0. -1.
    10030    2    1    2    0    0  0.00000000000E+00  0.00000000000E+00 -0.18001880361E+03  0.24280790903E+04  0.24213965596E+04 0.  0.
        2    1    3    3  502    0 -0.37635549855E+03 -0.94031565952E+03  0.57511090817E+03  0.11647272460E+04  0.25500000920E-02 0.  1.
       -2    1    3    3    0  502  0.37635549855E+03  0.94031565952E+03 -0.75512971178E+03  0.12633518443E+04  0.25500000920E-02 0. -1.
</event>
<event>
 5   0  0.2422083E-06  0.3069809E+04  0.7818609E-02  0.8224073E-01
       -1   -1    0    0    0  501  0.00000000000E+00  0.00000000000E+00  0.13040442954E+04  0.13040442954E+04  0.50400001928E-02 0.  1.
        1   -1    0    0  501    0  0.00000000000E+00  0.00000000000E+00 -0.18066349620E+04  0.18066349620E+04  0.50400001928E-02 0. -1.
    10030    2    1    2    0    0  0.00000000000E+00  0.00000000000E+00 -0.50259066657E+03  0.31106792574E+04  0.30698091251E+04 0.  0.
        2    1    3    3  502    0  0.11579329891E+04 -0.83344674653E+03  0.32235984579E+03  0.14626544899E+04  0.25500000920E-02 0.  1.
       -2    1    3    3    0  502 -0.11579329891E+04  0.83344674653E+03 -0.82495051236E+03  0.16480247675E+04  0.25500000920E-02 0. -1.
</event>
<event>
 5   0  0.2628425E-06  0.2992866E+04  0.7818609E-02  0.8245771E-01
       -1   -1    0    0    0  501  0.00000000000E+00  0.00000000000E+00  0.11989619164E+04  0.11989619164E+04  0.50400001928E-02 0. -1.
        1   -1    0    0  501    0  0.00000000000E+00  0.00000000000E+00 -0.18677083550E+04  0.18677083550E+04  0.50400001928E-02 0.  1.
    10030    2    1    2    0    0  0.00000000000E+00  0.00000000000E+00 -0.66874643859E+03  0.30666702713E+04  0.29928656425E+04 0.  0.
        1    1    3    3  502    0 -0.11863372379E+03 -0.98830425010E+03 -0.14792868700E+04  0.17830055791E+04  0.50400001928E-02 0.  1.
       -1    1    3    3    0  502  0.11863372379E+03  0.98830425010E+03  0.81054043142E+03  0.12836646923E+04  0.50400001928E-02 0. -1.
</event>
<event>
 5   0  0.2504260E-06  0.2999599E+04  0.7818609E-02  0.8243845E-01
       -1   -1    0    0    0  501  0.00000000000E+00  0.00000000000E+00  0.15430115615E+04  0.15430115615E+04  0.50400001928E-02 0.  1.
        1   -1    0    0  501    0  0.00000000000E+00  0.00000000000E+00 -0.14577976455E+04  0.14577976455E+04  0.50400001928E-02 0. -1.
    10030    2    1    2    0    0  0.00000000000E+00  0.00000000000E+00  0.85213915975E+02  0.30008092070E+04  0.29995990541E+04 0.  0.
        4    1    3    3  502    0  0.74114949662E+03 -0.25822856295E+03 -0.12359589063E+04  0.14640971955E+04  0.12699999809E+01 0. -1.
       -4    1    3    3    0  502 -0.74114949662E+03  0.25822856295E+03  0.13211728222E+04  0.15367120115E+04  0.12699999809E+01 0.  1.
</event>
<event>
 5   0  0.7193153E-06  0.2999174E+04  0.7818609E-02  0.8243967E-01
       -2   -1    0    0    0  501  0.00000000000E+00  0.00000000000E+00  0.11092393358E+04  0.11092393358E+04  0.25500000920E-02 0. -1.
        2   -1    0    0  501    0  0.00000000000E+00  0.00000000000E+00 -0.20273002625E+04  0.20273002625E+04  0.25500000920E-02 0.  1.
    10030    2    1    2    0    0  0.00000000000E+00  0.00000000000E+00 -0.91806092668E+03  0.31365395982E+04  0.29991740173E+04 0.  0.
        4    1    3    3  502    0  0.43217875325E+03 -0.65339374258E+03  0.87822892273E+03  0.11768557733E+04  0.12699999809E+01 0. -1.
       -4    1    3    3    0  502 -0.43217875325E+03  0.65339374258E+03 -0.17962898494E+04  0.19596838249E+04  0.12699999809E+01 0.  1.
</event>
<event>
 5   0  0.6792811E-06  0.2941094E+04  0.7818609E-02  0.8260755E-01
       -2   -1    0    0    0  501  0.00000000000E+00  0.00000000000E+00  0.11561923043E+04  0.11561923043E+04  0.25500000920E-02 0. -1.
        2   -1    0    0  501    0  0.00000000000E+00  0.00000000000E+00 -0.18703714530E+04  0.18703714530E+04  0.25500000920E-02 0.  1.
    10030    2    1    2    0    0  0.00000000000E+00  0.00000000000E+00 -0.71417914869E+03  0.30265637572E+04  0.29410944086E+04 0.  0.
        2    1    3    3  502    0 -0.15817644606E+03 -0.52308760256E+03  0.10478204577E+04  0.11817648411E+04  0.25500000920E-02 0. -1.
       -2    1    3    3    0  502  0.15817644606E+03  0.52308760256E+03 -0.17619996064E+04  0.18447989161E+04  0.25500000920E-02 0.  1.
</event>
<event>
 5   0  0.2672155E-06  0.3023461E+04  0.7818609E-02  0.8237063E-01
        1   -1    0    0  501    0  0.00000000000E+00  0.00000000000E+00  0.10479146090E+04  0.10479146090E+04  0.50400001928E-02 0.  1.
       -1   -1    0    0    0  501  0.00000000000E+00  0.00000000000E+00 -0.21808349679E+04  0.21808349679E+04  0.50400001928E-02 0. -1.
    10030    2    1    2    0    0  0.00000000000E+00  0.00000000000E+00 -0.11329203589E+04  0.32287495769E+04  0.30234608135E+04 0.  0.
        5    1    3    3  502    0  0.50858582133E+03  0.14156348746E+04 -0.72708965538E+03  0.16707372901E+04  0.46999998093E+01 0. -1.
       -5    1    3    3    0  502 -0.50858582133E+03 -0.14156348746E+04 -0.40583070349E+03  0.15580122867E+04  0.46999998093E+01 0.  1.
</event>
<event>
 5   0  0.6792811E-06  0.2942929E+04  0.7818609E-02  0.8260218E-01
       -2   -1    0    0    0  501  0.00000000000E+00  0.00000000000E+00  0.10241123131E+04  0.10241123131E+04  0.25500000920E-02 0.  1.
        2   -1    0    0  501    0  0.00000000000E+00  0.00000000000E+00 -0.21142288539E+04  0.21142288539E+04  0.25500000920E-02 0. -1.
    10030    2    1    2    0    0  0.00000000000E+00  0.00000000000E+00 -0.10901165408E+04  0.31383411670E+04  0.29429290185E+04 0.  0.
        2    1    3    3  502    0  0.41324689143E+03  0.12020759634E+04 -0.13355252608E+04  0.18437427525E+04  0.25500000920E-02 0. -1.
       -2    1    3    3    0  502 -0.41324689143E+03 -0.12020759634E+04  0.24540871996E+03  0.12945984146E+04  0.25500000920E-02 0.  1.
</event>
<event>
 5   0  0.2672155E-06  0.3086966E+04  0.7818609E-02  0.8219324E-01
       -1   -1    0    0    0  501  0.00000000000E+00  0.00000000000E+00  0.14185659587E+04  0.14185659588E+04  0.50400001928E-02 0.  1.
        1   -1    0    0  501    0  0.00000000000E+00  0.00000000000E+00 -0.16794006112E+04  0.16794006112E+04  0.50400001928E-02 0. -1.
    10030    2    1    2    0    0  0.00000000000E+00  0.00000000000E+00 -0.26083465241E+03  0.30979665699E+04  0.30869664968E+04 0.  0.
        5    1    3    3  502    0  0.11881514642E+04  0.30308490820E+03  0.81034190668E+03  0.14697756493E+04  0.46999998093E+01 0. -1.
       -5    1    3    3    0  502 -0.11881514642E+04 -0.30308490820E+03 -0.10711765591E+04  0.16281909207E+04  0.46999998093E+01 0.  1.
</event>
<event>
 5   0  0.7217255E-06  0.3050629E+04  0.7818609E-02  0.8229419E-01
        2   -1    0    0  501    0  0.00000000000E+00  0.00000000000E+00  0.18072850207E+04  0.18072850208E+04  0.25500000920E-02 0.  1.
       -2   -1    0    0    0  501  0.00000000000E+00  0.00000000000E+00 -0.12873366689E+04  0.12873366689E+04  0.25500000920E-02 0. -1.
    10030    2    1    2    0    0  0.00000000000E+00  0.00000000000E+00  0.51994835181E+03  0.30946216897E+04  0.30506289702E+04 0.  0.
        1    1    3    3  502    0  0.13509383494E+04 -0.69757195322E+03  0.38397950174E+03  0.15681458196E+04  0.50400001928E-02 0.  1.
       -1    1    3    3    0  502 -0.13509383494E+04  0.69757195322E+03  0.13596885006E+03  0.15264758701E+04  0.50400001928E-02 0. -1.
</event>
<event>
 5   0  0.7193153E-06  0.2966685E+04  0.7818609E-02  0.8253309E-01
       -2   -1    0    0    0  501  0.00000000000E+00  0.00000000000E+00  0.15367369398E+04  0.15367369398E+04  0.25500000920E-02 0. -1.
        2   -1    0    0  501    0  0.00000000000E+00  0.00000000000E+00 -0.14318031022E+04  0.14318031022E+04  0.25500000920E-02 0.  1.
    10030    2    1    2    0    0  0.00000000000E+00  0.00000000000E+00  0.10493383756E+03  0.29685400420E+04  0.29666848284E+04 0.  0.
        4    1    3    3  502    0 -0.67882548531E+02  0.14357870206E+04  0.41904379394E+03  0.14972280131E+04  0.12699999809E+01 0. -1.
       -4    1    3    3    0  502  0.67882548531E+02 -0.14357870206E+04 -0.31410995638E+03  0.14713120290E+04  0.12699999809E+01 0.  1.
</event>
<event>
 5   0  0.2672155E-06  0.2972366E+04  0.7818609E-02  0.8251666E-01
       -1   -1    0    0    0  501  0.00000000000E+00  0.00000000000E+00  0.12767402838E+04  0.12767402839E+04  0.50400001928E-02 0.  1.
        1   -1    0    0  501    0  0.00000000000E+00  0.00000000000E+00 -0.17299840030E+04  0.17299840030E+04  0.50400001928E-02 0. -1.
    10030    2    1    2    0    0  0.00000000000E+00  0.00000000000E+00 -0.45324371914E+03  0.30067242869E+04  0.29723662406E+04 0.  0.
        5    1    3    3  502    0 -0.10656427463E+04  0.10066117571E+04  0.20862005400E+02  0.14660555943E+04  0.46999998093E+01 0.  1.
       -5    1    3    3    0  502  0.10656427463E+04 -0.10066117571E+04 -0.47410572454E+03  0.15406686926E+04  0.46999998093E+01 0. -1.
</event>
<event>
 5   0  0.7193153E-06  0.2978638E+04  0.7818609E-02  0.8249857E-01
        2   -1    0    0  501    0  0.00000000000E+00  0.00000000000E+00  0.23066988516E+04  0.23066988516E+04  0.25500000920E-02 0. -1.
       -2   -1    0    0    0  501  0.00000000000E+00  0.00000000000E+00 -0.96157794166E+03  0.96157794166E+03  0.25500000920E-02 0.  1.
    10030    2    1    2    0    0  0.00000000000E+00  0.00000000000E+00  0.13451209099E+04  0.32682767933E+04  0.29786377650E+04 0.  0.
        4    1    3    3  502    0 -0.65575742261E+03 -0.51457915021E+03  0.20267769636E+04  0.21914917230E+04  0.12699999809E+01 0. -1.
       -4    1    3    3    0  502  0.65575742261E+03  0.51457915021E+03 -0.68165605363E+03  0.10767850702E+04  0.12699999809E+01 0.  1.
</event>
<event>
 5   0  0.6780150E-06  0.2836063E+04  0.7818609E-02  0.8292159E-01
        2   -1    0    0  501    0  0.00000000000E+00  0.00000000000E+00  0.25850472681E+04  0.25850472681E+04  0.25500000920E-02 0.  1.
       -2   -1    0    0    0  501  0.00000000000E+00  0.00000000000E+00 -0.77786311889E+03  0.77786311890E+03  0.25500000920E-02 0. -1.
    10030    2    1    2    0    0  0.00000000000E+00  0.00000000000E+00  0.18071841492E+04  0.33629103870E+04  0.28360627147E+04 0.  0.
        5    1    3    3  502    0  0.58516645735E+03  0.83936721573E+02 -0.62477211726E+03  0.86013222503E+03  0.46999998093E+01 0. -1.
       -5    1    3    3    0  502 -0.58516645735E+03 -0.83936721573E+02  0.24319562664E+04  0.25027781619E+04  0.46999998093E+01 0.  1.
</event>
<event>
 5   0  0.7217255E-06  0.2981361E+04  0.7818609E-02  0.8249073E-01
        2   -1    0    0  501    0  0.00000000000E+00  0.00000000000E+00  0.19051391248E+04  0.19051391248E+04  0.25500000920E-02 0.  1.
       -2   -1    0    0    0  501  0.00000000000E+00  0.00000000000E+00 -0.11663867173E+04  0.11663867174E+04  0.25500000920E-02 0. -1.
    10030    2    1    2    0    0  0.00000000000E+00  0.00000000000E+00  0.73875240741E+03  0.30715258421E+04  0.29813614137E+04 0.  0.
        1    1    3    3  502    0  0.64887794509E+03 -0.28924464479E+03  0.17195146386E+04  0.18604933874E+04  0.50400001928E-02 0.  1.
       -1    1    3    3    0  502 -0.64887794509E+03  0.28924464479E+03 -0.98076223121E+03  0.12110324547E+04  0.50400001928E-02 0. -1.
</event>
<event>
 5   0  0.2504260E-06  0.3016061E+04  0.7818609E-02  0.8239159E-01
       -1   -1    0    0    0  501  0.00000000000E+00  0.00000000000E+00  0.10357952947E+04  0.10357952948E+04  0.50400001928E-02 0.  1.
        1   -1    0    0  501    0  0.00000000000E+00  0.00000000000E+00 -0.21955645786E+04  0.21955645786E+04  0.50400001928E-02 0. -1.
    10030    2    1    2    0    0  0.00000000000E+00  0.00000000000E+00 -0.11597692839E+04  0.32313598734E+04  0.30160606492E+04 0.  0.
        4    1    3    3  502    0 -0.79776849901E+03  0.57687251008E+03 -0.18037681776E+04  0.20549447005E+04  0.12699999809E+01 0. -1.
       -4    1    3    3    0  502  0.79776849901E+03 -0.57687251008E+03  0.64399889372E+03  0.11764151728E+04  0.12699999809E+01 0.  1.
</event>
<event>
 5   0  0.7217255E-06  0.3097463E+04  0.7818609E-02  0.8216435E-01
       -2   -1    0    0    0  501  0.00000000000E+00  0.00000000000E+00  0.13133845384E+04  0.13133845384E+04  0.25500000920E-02 0.  1.
        2   -1    0    0  501    0  0.00000000000E+00  0.00000000000E+00 -0.18262505371E+04  0.18262505371E+04  0.25500000920E-02 0. -1.
    10030    2    1    2    0    0  0.00000000000E+00  0.00000000000E+00 -0.51286599875E+03  0.31396350755E+04  0.30974629739E+04 0.  0.
        1    1    3    3  502    0  0.99258911737E+03 -0.25754652779E+03 -0.14328405123E+04  0.17619861814E+04  0.50400001928E-02 0. -1.
       -1    1    3    3    0  502 -0.99258911737E+03  0.25754652779E+03  0.91997451351E+03  0.13776488941E+04  0.50400001928E-02 0.  1.
</event>
<event>
 5   0  0.2422083E-06  0.2861597E+04  0.7818609E-02  0.8284396E-01
        1   -1    0    0  501    0  0.00000000000E+00  0.00000000000E+00  0.16574188488E+04  0.16574188488E+04  0.50400001928E-02 0.  1.
       -1   -1    0    0    0  501  0.00000000000E+00  0.00000000000E+00 -0.12351637281E+04  0.12351637282E+04  0.50400001928E-02 0. -1.
    10030    2    1    2    0    0  0.00000000000E+00  0.00000000000E+00  0.42225512066E+03  0.28925825770E+04  0.28615965085E+04 0.  0.
        2    1    3    3  502    0 -0.22959484894E+03  0.27213097279E+03 -0.11896683539E+04  0.12418050786E+04  0.25500000920E-02 0. -1.
       -2    1    3    3    0  502  0.22959484894E+03 -0.27213097279E+03  0.16119234746E+04  0.16507774983E+04  0.25500000920E-02 0.  1.
</event>
<event>
 5   0  0.7201538E-06  0.2992706E+04  0.7818609E-02  0.8245817E-01
       -2   -1    0    0    0  501  0.00000000000E+00  0.00000000000E+00  0.13546900685E+04  0.13546900685E+04  0.25500000920E-02 0.  1.
        2   -1    0    0  501    0  0.00000000000E+00  0.00000000000E+00 -0.16528302655E+04  0.16528302655E+04  0.25500000920E-02 0. -1.
    10030    2    1    2    0    0  0.00000000000E+00  0.00000000000E+00 -0.29814019704E+03  0.30075203340E+04  0.29927062974E+04 0.  0.
        3    1    3    3  502    0 -0.69983279693E+03 -0.52726311061E+02  0.11790339266E+04  0.13721031367E+04  0.10100000352E+00 0.  1.
       -3    1    3    3    0  502  0.69983279693E+03  0.52726311061E+02 -0.14771741236E+04  0.16354171973E+04  0.10100000352E+00 0. -1.
</event>
<event>
 5   0  0.2504260E-06  0.3088143E+04  0.7818609E-02  0.8218999E-01
        1   -1    0    0  501    0  0.00000000000E+00  0.00000000000E+00  0.10898378809E+04  0.10898378809E+04  0.50400001928E-02 0.  1.
       -1   -1    0    0    0  501  0.00000000000E+00  0.00000000000E+00 -0.21876258422E+04  0.21876258422E+04  0.50400001928E-02 0. -1.
    10030    2    1    2    0    0  0.00000000000E+00  0.00000000000E+00 -0.10977879613E+04  0.32774637231E+04  0.30881434631E+04 0.  0.
        4    1    3    3  502    0 -0.15262146123E+04 -0.87291943906E+02 -0.31830725509E+03  0.15614967332E+04  0.12699999809E+01 0.  1.
       -4    1    3    3    0  502  0.15262146123E+04  0.87291943906E+02 -0.77948070619E+03  0.17159669899E+04  0.12699999809E+01 0. -1.
</event>
<event>
 5   0  0.2504260E-06  0.2936348E+04  0.7818609E-02  0.8262144E-01
       -1   -1    0    0    0  501  0.00000000000E+00  0.00000000000E+00  0.10949536655E+04  0.10949536655E+04  0.50400001928E-02 0.  1.
        1   -1    0    0  501    0  0.00000000000E+00  0.00000000000E+00 -0.19686085398E+04  0.19686085398E+04  0.50400001928E-02 0. -1.
    10030    2    1    2    0    0  0.00000000000E+00  0.00000000000E+00 -0.87365487429E+03  0.30635622054E+04  0.29363481651E+04 0.  0.
        4    1    3    3  502    0  0.28301241969E+03 -0.71466029035E+03  0.86824446806E+03  0.11596057216E+04  0.12699999809E+01 0.  1.
       -4    1    3    3    0  502 -0.28301241969E+03  0.71466029035E+03 -0.17418993424E+04  0.19039564838E+04  0.12699999809E+01 0. -1.
</event>
<event>
 5   0  0.7217255E-06  0.3054207E+04  0.7818609E-02  0.8228419E-01
       -2   -1    0    0    0  501  0.00000000000E+00  0.00000000000E+00  0.12724699915E+04  0.12724699915E+04  0.25500000920E-02 0. -1.
        2   -1    0    0  501    0  0.00000000000E+00  0.00000000000E+00 -0.18326912072E+04  0.18326912072E+04  0.25500000920E-02 0.  1.
    10030    2    1    2    0    0  0.00000000000E+00  0.00000000000E+00 -0.56022121573E+03  0.31051611986E+04  0.30542066497E+04 0.  0.
        1    1    3    3  502    0 -0.12215192594E+04 -0.88923796936E+03 -0.54619724458E+02  0.15118984032E+04  0.50400001928E-02 0. -1.
       -1    1    3    3    0  502  0.12215192594E+04  0.88923796936E+03 -0.50560149127E+03  0.15932627954E+04  0.50400001928E-02 0.  1.
</event>
<event>
 5   0  0.7193153E-06  0.2890174E+04  0.7818609E-02  0.8275807E-01
        2   -1    0    0  501    0  0.00000000000E+00  0.00000000000E+00  0.18231980216E+04  0.18231980216E+04  0.25500000920E-02 0.  1.
       -2   -1    0    0    0  501  0.00000000000E+00  0.00000000000E+00 -0.11453918984E+04  0.11453918984E+04  0.25500000920E-02 0. -1.
    10030    2    1    2    0    0  0.00000000000E+00  0.00000000000E+00  0.67780612327E+03  0.29685899200E+04  0.28901738654E+04 0.  0.
        4    1    3    3  502    0  0.14251205450E+04  0.10091355143E+03  0.11593611772E+03  0.14333858200E+04  0.12699999809E+01 0. -1.
       -4    1    3    3    0  502 -0.14251205450E+04 -0.10091355143E+03  0.56187000555E+03  0.15352041000E+04  0.12699999809E+01 0.  1.
</event>
<event>
 5   0  0.2672155E-06  0.2771952E+04  0.7818609E-02  0.8312029E-01
       -1   -1    0    0    0  501  0.00000000000E+00  0.00000000000E+00  0.78747699049E+03  0.78747699050E+03  0.50400001928E-02 0. -1.
        1   -1    0    0  501    0  0.00000000000E+00  0.00000000000E+00 -0.24393466365E+04  0.24393466365E+04  0.50400001928E-02 0.  1.
    10030    2    1    2    0    0  0.00000000000E+00  0.00000000000E+00 -0.16518696460E+04  0.32268236270E+04  0.27719519102E+04 0.  0.
        5    1    3    3  502    0 -0.13706779106E+03 -0.39410681443E+03  0.71261323299E+03  0.82580110823E+03  0.46999998093E+01 0. -1.
       -5    1    3    3    0  502  0.13706779106E+03  0.39410681443E+03 -0.23644828790E+04  0.24010225188E+04  0.46999998093E+01 0.  1.
</event>
<event>
 5   0  0.7217255E-06  0.2959750E+04  0.7818609E-02  0.8255319E-01
        2   -1    0    0  501    0  0.00000000000E+00  0.00000000000E+00  0.26075174825E+04  0.26075174825E+04  0.25500000920E-02 0.  1.
       -2   -1    0    0    0  501  0.00000000000E+00  0.00000000000E+00 -0.83989079875E+03  0.83989079876E+03  0.25500000920E-02 0. -1.
    10030    2    1    2    0    0  0.00000000000E+00  0.00000000000E+00  0.17676266838E+04  0.34474082813E+04  0.29597499497E+04 0.  0.
        1    1    3    3  502    0 -0.36907689135E+03 -0.83335373528E+03  0.22418163978E+04  0.24200076366E+04  0.50400001928E-02 0.  1.
       -1    1    3    3    0  502  0.36907689135E+03  0.83335373528E+03 -0.47418971400E+03  0.10274006447E+04  0.50400001928E-02 0. -1.
</event>
<event>
 5   0  0.7201538E-06  0.3085461E+04  0.7818609E-02  0.8219739E-01
        2   -1    0    0  501    0  0.00000000000E+00  0.00000000000E+00  0.16311305905E+04  0.16311305905E+04  0.25500000920E-02 0. -1.
       -2   -1    0    0    0  501  0.00000000000E+00  0.00000000000E+00 -0.14591211918E+04  0.14591211918E+04  0.25500000920E-02 0.  1.
    10030    2    1    2    0    0  0.00000000000E+00  0.00000000000E+00  0.17200939874E+03  0.30902517823E+04  0.30854608804E+04 0.  0.
        3    1    3    3  502    0 -0.58027193539E+03  0.11430314316E+04  0.94569688543E+03  0.15929780231E+04  0.10100000352E+00 0. -1.
       -3    1    3    3    0  502  0.58027193539E+03 -0.11430314316E+04 -0.77368748669E+03  0.14972737592E+04  0.10100000352E+00 0.  1.
</event>
<event>
 5   0  0.2628425E-06  0.2997598E+04  0.7818609E-02  0.8244417E-01
       -1   -1    0    0    0  501  0.00000000000E+00  0.00000000000E+00  0.15794427433E+04  0.15794427433E+04  0.50400001928E-02 0. -1.
        1   -1    0    0  501    0  0.00000000000E+00  0.00000000000E+00 -0.14222727795E+04  0.14222727795E+04  0.50400001928E-02 0.  1.
    10030    2    1    2    0    0  0.00000000000E+00  0.00000000000E+00  0.15716996380E+03  0.30017155229E+04  0.29975979855E+04 0.  0.
        1    1    3    3  502    0 -0.74595289380E+03 -0.12833192161E+04  0.28634162925E+03  0.15117359091E+04  0.50400001928E-02 0. -1.
       -1    1    3    3    0  502  0.74595289380E+03  0.12833192161E+04 -0.12917166545E+03  0.14899796138E+04  0.50400001928E-02 0.  1.
</event>
<event>
 5   0  0.2628425E-06  0.2989476E+04  0.7818609E-02  0.8246743E-01
        1   -1    0    0  501    0  0.00000000000E+00  0.00000000000E+00  0.16703013721E+04  0.16703013721E+04  0.50400001928E-02 0.  1.
       -1   -1    0    0    0  501  0.00000000000E+00  0.00000000000E+00 -0.13376276968E+04  0.13376276968E+04  0.50400001928E-02 0. -1.
    10030    2    1    2    0    0  0.00000000000E+00  0.00000000000E+00  0.33267367528E+03  0.30079290689E+04  0.29894757917E+04 0.  0.
        1    1    3    3  502    0 -0.84262457469E+03 -0.24639044134E+03 -0.10508897465E+04  0.13693406015E+04  0.50400001928E-02 0. -1.
       -1    1    3    3    0  502  0.84262457469E+03  0.24639044134E+03  0.13835634218E+04  0.16385884674E+04  0.50400001928E-02 0.  1.
</event>
<event>
 5   0  0.2552990E-06  0.3013845E+04  0.7818609E-02  0.8239788E-01
       -1   -1    0    0    0  501  0.00000000000E+00  0.00000000000E+00  0.11502535150E+04  0.11502535150E+04  0.50400001928E-02 0.  1.
        1   -1    0    0  501    0  0.00000000000E+00  0.00000000000E+00 -0.19741868985E+04  0.19741868985E+04  0.50400001928E-02 0. -1.
    10030    2    1    2    0    0  0.00000000000E+00  0.00000000000E+00 -0.82393338343E+03  0.31244404135E+04  0.30138449989E+04 0.  0.
        3    1    3    3  502    0 -0.84553530350E+03 -0.55914573034E+02 -0.17037907373E+04  0.19028818344E+04  0.10100000352E+00 0. -1.
       -3    1    3    3    0  502  0.84553530350E+03  0.55914573034E+02  0.87985735384E+03  0.12215585791E+04  0.10100000352E+00 0.  1.
</event>
<event>
 5   0  0.2672155E-06  0.2650284E+04  0.7818609E-02  0.8351319E-01
       -1   -1    0    0    0  501  0.00000000000E+00  0.00000000000E+00  0.75742330995E+03  0.75742330997E+03  0.50400001928E-02 0. -1.
        1   -1    0    0  501    0  0.00000000000E+00  0.00000000000E+00 -0.23183880106E+04  0.23183880107E+04  0.50400001928E-02 0.  1.
    10030    2    1    2    0    0  0.00000000000E+00  0.00000000000E+00 -0.15609647007E+04  0.30758113206E+04  0.26502838496E+04 0.  0.
        5    1    3    3  502    0  0.11682266593E+04 -0.59142215665E+03 -0.10167504741E+04  0.16578110000E+04  0.46999998093E+01 0. -1.
       -5    1    3    3    0  502 -0.11682266593E+04  0.59142215665E+03 -0.54421422659E+03  0.14180003207E+04  0.46999998093E+01 0.  1.
</event>
<event>
 5   0  0.2672155E-06  0.2891127E+04  0.7818609E-02  0.8275522E-01
        1   -1    0    0  501    0  0.00000000000E+00  0.00000000000E+00  0.16671937590E+04  0.16671937590E+04  0.50400001928E-02 0. -1.
       -1   -1    0    0    0  501  0.00000000000E+00  0.00000000000E+00 -0.12533956638E+04  0.12533956638E+04  0.50400001928E-02 0.  1.
    10030    2    1    2    0    0  0.00000000000E+00  0.00000000000E+00  0.41379809522E+03  0.29205894228E+04  0.28911267203E+04 0.  0.
        5    1    3    3  502    0 -0.15554813197E+02 -0.90001387480E+03  0.13495156056E+04  0.16221841408E+04  0.46999998093E+01 0. -1.
       -5    1    3    3    0  502  0.15554813197E+02  0.90001387480E+03 -0.93571751035E+03  0.12984052820E+04  0.46999998093E+01 0.  1.
</event>
<event>
 5   0  0.7193153E-06  0.3002744E+04  0.7818609E-02  0.8242948E-01
        2   -1    0    0  501    0  0.00000000000E+00  0.00000000000E+00  0.17933704842E+04  0.17933704842E+04  0.25500000920E-02 0.  1.
       -2   -1    0    0    0  501  0.00000000000E+00  0.00000000000E+00 -0.12569172311E+04  0.12569172311E+04  0.25500000920E-02 0. -1.
    10030    2    1    2    0    0  0.00000000000E+00  0.00000000000E+00  0.53645325309E+03  0.30502877153E+04  0.30027442537E+04 0.  0.
        4    1    3    3  502    0  0.63969696628E+03 -0.75205867632E+03  0.14172020256E+04  0.17272138419E+04  0.12699999809E+01 0.  1.
       -4    1    3    3    0  502 -0.63969696628E+03  0.75205867632E+03 -0.88074877250E+03  0.13230738734E+04  0.12699999809E+01 0. -1.
</event>
<event>
 5   0  0.7217255E-06  0.3063039E+04  0.7818609E-02  0.8225955E-01
        2   -1    0    0  501    0  0.00000000000E+00  0.00000000000E+00  0.15040749090E+04  0.15040749090E+04  0.25500000920E-02 0.  1.
       -2   -1    0    0    0  501  0.00000000000E+00  0.00000000000E+00 -0.15594644711E+04  0.15594644711E+04  0.25500000920E-02 0. -1.
    10030    2    1    2    0    0  0.00000000000E+00  0.00000000000E+00 -0.55389562107E+02  0.30635393801E+04  0.30630386106E+04 0.  0.
        1    1    3    3  502    0 -0.93706098011E+03  0.18971877972E+03  0.11689434192E+04  0.15101341706E+04  0.50400001928E-02 0.  1.
       -1    1    3    3    0  502  0.93706098011E+03 -0.18971877972E+03 -0.12243329813E+04  0.15534052095E+04  0.50400001928E-02 0. -1.
</event>
<event>
 5   0  0.2422083E-06  0.2722694E+04  0.7818609E-02  0.8327679E-01
       -1   -1    0    0    0  501  0.00000000000E+00  0.00000000000E+00  0.14671045109E+04  0.14671045109E+04  0.50400001928E-02 0. -1.
        1   -1    0    0  501    0  0.00000000000E+00  0.00000000000E+00 -0.12632128662E+04  0.12632128663E+04  0.50400001928E-02 0.  1.
    10030    2    1    2    0    0  0.00000000000E+00  0.00000000000E+00  0.20389164467E+03  0.27303173772E+04  0.27226937355E+04 0.  0.
        2    1    3    3  502    0 -0.11019328280E+04 -0.69333521224E+03 -0.29703203213E+03  0.13353642582E+04  0.25500000920E-02 0.  1.
       -2    1    3    3    0  502  0.11019328280E+04  0.69333521224E+03  0.50092367679E+03  0.13949531189E+04  0.25500000920E-02 0. -1.
</event>
<event>
 5   0  0.6780150E-06  0.2973268E+04  0.7818609E-02  0.8251406E-01
       -2   -1    0    0    0  501  0.00000000000E+00  0.00000000000E+00  0.10024810465E+04  0.10024810465E+04  0.25500000920E-02 0. -1.
        2   -1    0    0  501    0  0.00000000000E+00  0.00000000000E+00 -0.22046115948E+04  0.22046115948E+04  0.25500000920E-02 0.  1.
    10030    2    1    2    0    0  0.00000000000E+00  0.00000000000E+00 -0.12021305483E+04  0.32070926413E+04  0.29732684633E+04 0.  0.
        5    1    3    3  502    0 -0.23925359875E+03 -0.98304306978E+03 -0.17759651897E+04  0.20439399225E+04  0.46999998093E+01 0.  1.
       -5    1    3    3    0  502  0.23925359875E+03  0.98304306978E+03  0.57383464144E+03  0.11631527188E+04  0.46999998093E+01 0. -1.
</event>
<event>
 5   0  0.2422083E-06  0.3022394E+04  0.7818609E-02  0.8237365E-01
        1   -1    0    0  501    0  0.00000000000E+00  0.00000000000E+00  0.13229114457E+04  0.13229114457E+04  0.50400001928E-02 0. -1.
       -1   -1    0    0    0  501  0.00000000000E+00  0.00000000000E+00 -0.17262808303E+04  0.17262808303E+04  0.50400001928E-02 0.  1.
    10030    2    1    2    0    0  0.00000000000E+00  0.00000000000E+00 -0.40336938456E+03  0.30491922760E+04  0.30223941959E+04 0.  0.
        2    1    3    3  502    0  0.20199000120E+03  0.14880536657E+04 -0.37233826070E+03  0.15471714362E+04  0.25500000920E-02 0. -1.
       -2    1    3    3    0  502 -0.20199000120E+03 -0.14880536657E+04 -0.31031123854E+02  0.15020208398E+04  0.25500000920E-02 0.  1.
</event>
<event>
 5   0  0.6792811E-06  0.2998694E+04  0.7818609E-02  0.8244104E-01
        2   -1    0    0  501    0  0.00000000000E+00  0.00000000000E+00  0.19822904149E+04  0.19822904149E+04  0.25500000920E-02 0. -1.
       -2   -1    0    0    0  501  0.00000000000E+00  0.00000000000E+00 -0.11340627930E+04  0.11340627930E+04  0.25500000920E-02 0.  1.
    10030    2    1    2    0    0  0.00000000000E+00  0.00000000000E+00  0.84822762198E+03  0.31163532079E+04  0.29986942521E+04 0.  0.
        2    1    3    3  502    0 -0.14563323714E+03  0.81123602398E+03  0.17257464592E+04  0.19124627494E+04  0.25500000920E-02 0. -1.
       -2    1    3    3    0  502  0.14563323714E+03 -0.81123602398E+03 -0.87751883724E+03  0.12038904585E+04  0.25500000920E-02 0.  1.
</event>
<event>
 5   0  0.7201538E-06  0.2977486E+04  0.7818609E-02  0.8250189E-01
       -2   -1    0    0    0  501  0.00000000000E+00  0.00000000000E+00  0.89290593505E+03  0.89290593505E+03  0.25500000920E-02 0. -1.
        2   -1    0    0  501    0  0.00000000000E+00  0.00000000000E+00 -0.24821821530E+04  0.24821821530E+04  0.25500000920E-02 0.  1.
    10030    2    1    2    0    0  0.00000000000E+00  0.00000000000E+00 -0.15892762180E+04  0.33750880881E+04  0.29774856348E+04 0.  0.
        3    1    3    3  502    0  0.13914370871E+04 -0.41576972158E+03 -0.42316745433E+03  0.15126243200E+04  0.10100000352E+00 0. -1.
       -3    1    3    3    0  502 -0.13914370871E+04  0.41576972158E+03 -0.11661087636E+04  0.18624637681E+04  0.10100000352E+00 0.  1.
</event>
<event>
 5   0  0.7217255E-06  0.2994241E+04  0.7818609E-02  0.8245377E-01
        2   -1    0    0  501    0  0.00000000000E+00  0.00000000000E+00  0.18001498358E+04  0.18001498358E+04  0.25500000920E-02 0.  1.
       -2   -1    0    0    0  501  0.00000000000E+00  0.00000000000E+00 -0.12451020792E+04  0.12451020792E+04  0.25500000920E-02 0. -1.
    10030    2    1    2    0    0  0.00000000000E+00  0.00000000000E+00  0.55504775667E+03  0.30452519150E+04  0.29942413419E+04 0.  0.
        1    1    3    3  502    0  0.11147305061E+04  0.44586270263E+03 -0.63211405731E+03  0.13568293306E+04  0.50400001928E-02 0. -1.
       -1    1    3    3    0  502 -0.11147305061E+04 -0.44586270263E+03  0.11871618140E+04  0.16884225844E+04  0.50400001928E-02 0.  1.
</event>
<event>
 5   0  0.7193153E-06  0.3005028E+04  0.7818609E-02  0.8242297E-01
       -2   -1    0    0    0  501  0.00000000000E+00  0.00000000000E+00  0.12197567061E+04  0.12197567061E+04  0.25500000920E-02 0.  1.
        2   -1    0    0  501    0  0.00000000000E+00  0.00000000000E+00 -0.18508185941E+04  0.18508185941E+04  0.25500000920E-02 0. -1.
    10030    2    1    2    0    0  0.00000000000E+00  0.00000000000E+00 -0.63106188803E+03  0.30705753002E+04  0.30050280477E+04 0.  0.
        4    1    3    3  502    0  0.19584663010E+03 -0.13328107260E+04 -0.99548283981E+03  0.16750307553E+04  0.12699999809E+01 0. -1.
       -4    1    3    3    0  502 -0.19584663010E+03  0.13328107260E+04  0.36442095179E+03  0.13955445449E+04  0.12699999809E+01 0.  1.
</event>
<event>
 5   0  0.2672155E-06  0.2988672E+04  0.7818609E-02  0.8246973E-01
       -1   -1    0    0    0  501  0.00000000000E+00  0.00000000000E+00  0.84332882627E+03  0.84332882629E+03  0.50400001928E-02 0. -1.
        1   -1    0    0  501    0  0.00000000000E+00  0.00000000000E+00 -0.26478874623E+04  0.26478874624E+04  0.50400001928E-02 0.  1.
    10030    2    1    2    0    0  0.00000000000E+00  0.00000000000E+00 -0.18045586361E+04  0.34912162886E+04  0.29886718293E+04 0.  0.
        5    1    3    3  502    0  0.95138486237E+03 -0.57102640494E+03  0.26692914065E+03  0.11412613932E+04  0.46999998093E+01 0. -1.
       -5    1    3    3    0  502 -0.95138486237E+03  0.57102640494E+03 -0.20714877767E+04  0.23499548954E+04  0.46999998093E+01 0.  1.
</event>
<event>
 5   0  0.2504260E-06  0.3025051E+04  0.7818609E-02  0.8236613E-01
        1   -1    0    0  501    0  0.00000000000E+00  0.00000000000E+00  0.15073662786E+04  0.15073662786E+04  0.50400001928E-02 0.  1.
       -1   -1    0    0    0  501  0.00000000000E+00  0.00000000000E+00 -0.15177024026E+04  0.15177024026E+04  0.50400001928E-02 0. -1.
    10030    2    1    2    0    0  0.00000000000E+00  0.00000000000E+00 -0.10336123969E+02  0.30250686812E+04  0.30250510228E+04 0.  0.
        4    1    3    3  502    0  0.12295444895E+04  0.84544064164E+03  0.24218390138E+03  0.15116891828E+04  0.12699999809E+01 0.  1.
       -4    1    3    3    0  502 -0.12295444895E+04 -0.84544064164E+03 -0.25252002535E+03  0.15133794985E+04  0.12699999809E+01 0. -1.
</event>
<event>
 5   0  0.2298500E-06  0.3038539E+04  0.7818609E-02  0.8232811E-01
        3   -1    0    0  501    0  0.00000000000E+00  0.00000000000E+00  0.13739846233E+04  0.13739846271E+04  0.10100000352E+00 0.  1.
       -3   -1    0    0    0  501  0.00000000000E+00  0.00000000000E+00 -0.16799168885E+04  0.16799168915E+04  0.10100000352E+00 0. -1.
    10030    2    1    2    0    0  0.00000000000E+00  0.00000000000E+00 -0.30593226517E+03  0.30539015186E+04  0.30385391119E+04 0.  0.
        2    1    3    3  502    0 -0.87201344526E+03  0.86836359056E+03 -0.10483785142E+04  0.16166509466E+04  0.25500000920E-02 0. -1.
       -2    1    3    3    0  502  0.87201344526E+03 -0.86836359056E+03  0.74244624900E+03  0.14372505720E+04  0.25500000920E-02 0.  1.
</event>
<event>
 5   0  0.7201538E-06  0.2711866E+04  0.7818609E-02  0.8331165E-01
       -2   -1    0    0    0  501  0.00000000000E+00  0.00000000000E+00  0.75471343632E+03  0.75471343633E+03  0.25500000920E-02 0. -1.
        2   -1    0    0  501    0  0.00000000000E+00  0.00000000000E+00 -0.24360951761E+04  0.24360951761E+04  0.25500000920E-02 0.  1.
    10030    2    1    2    0    0  0.00000000000E+00  0.00000000000E+00 -0.16813817398E+04  0.31908086124E+04  0.27118656026E+04 0.  0.
        3    1    3    3  502    0 -0.10779636625E+04  0.71239334120E+03 -0.13244534184E+04  0.18503207285E+04  0.10100000352E+00 0.  1.
       -3    1    3    3    0  502  0.10779636625E+04 -0.71239334120E+03 -0.35692832135E+03  0.13404878840E+04  0.10100000352E+00 0. -1.
</event>
<event>
 5   0  0.6792811E-06  0.3201977E+04  0.7818609E-02  0.8188295E-01
        2   -1    0    0  501    0  0.00000000000E+00  0.00000000000E+00  0.16358076097E+04  0.16358076097E+04  0.25500000920E-02 0.  1.
       -2   -1    0    0    0  501  0.00000000000E+00  0.00000000000E+00 -0.15669109690E+04  0.15669109690E+04  0.25500000920E-02 0. -1.
    10030    2    1    2    0    0  0.00000000000E+00  0.00000000000E+00  0.68896640762E+02  0.32027185787E+04  0.32019774432E+04 0.  0.
        2    1    3    3  502    0  0.98242095968E+03  0.80699911453E+03 -0.93879610168E+03  0.15804229287E+04  0.25500000920E-02 0. -1.
       -2    1    3    3    0  502 -0.98242095968E+03 -0.80699911453E+03  0.10076927424E+04  0.16222956500E+04  0.25500000920E-02 0.  1.
</event>
<event>
 5   0  0.6780150E-06  0.3042819E+04  0.7818609E-02  0.8231608E-01
        2   -1    0    0  501    0  0.00000000000E+00  0.00000000000E+00  0.17463049125E+04  0.17463049125E+04  0.25500000920E-02 0. -1.
       -2   -1    0    0    0  501  0.00000000000E+00  0.00000000000E+00 -0.13254770736E+04  0.13254770736E+04  0.25500000920E-02 0.  1.
    10030    2    1    2    0    0  0.00000000000E+00  0.00000000000E+00  0.42082783888E+03  0.30717819860E+04  0.30428191697E+04 0.  0.
        5    1    3    3  502    0  0.11840532529E+04 -0.69756662392E+03  0.86937797122E+03  0.16261677181E+04  0.46999998093E+01 0. -1.
       -5    1    3    3    0  502 -0.11840532529E+04  0.69756662392E+03 -0.44855013234E+03  0.14456142679E+04  0.46999998093E+01 0.  1.
</event>
<event>
 5   0  0.2504260E-06  0.2959977E+04  0.7818609E-02  0.8255253E-01
        1   -1    0    0  501    0  0.00000000000E+00  0.00000000000E+00  0.16691685174E+04  0.16691685174E+04  0.50400001928E-02 0.  1.
       -1   -1    0    0    0  501  0.00000000000E+00  0.00000000000E+00 -0.13122499489E+04  0.13122499489E+04  0.50400001928E-02 0. -1.
    10030    2    1    2    0    0  0.00000000000E+00  0.00000000000E+00  0.35691856857E+03  0.29814184663E+04  0.29599772308E+04 0.  0.
        4    1    3    3  502    0  0.76599782364E+02 -0.14508094985E+04 -0.10580652352E+03  0.14566785372E+04  0.12699999809E+01 0.  1.
       -4    1    3    3    0  502 -0.76599782364E+02  0.14508094985E+04  0.46272509208E+03  0.15247399291E+04  0.12699999809E+01 0. -1.
</event>
<event>
 5   0  0.2628425E-06  0.3003138E+04  0.7818609E-02  0.8242836E-01
        1   -1    0    0  501    0  0.00000000000E+00  0.00000000000E+00  0.13981528694E+04  0.13981528694E+04  0.50400001928E-02 0. -1.
       -1   -1    0    0    0  501  0.00000000000E+00  0.00000000000E+00 -0.16126339340E+04  0.16126339340E+04  0.50400001928E-02 0.  1.
    10030    2    1    2    0    0  0.00000000000E+00  0.00000000000E+00 -0.21448106457E+03  0.30107868034E+04  0.30031375341E+04 0.  0.
        1    1    3    3  502    0  0.55028722513E+03  0.41168021035E+03  0.12312301015E+04  0.14100440379E+04  0.50400001928E-02 0. -1.
       -1    1    3    3    0  502 -0.55028722513E+03 -0.41168021035E+03 -0.14457111661E+04  0.16007427656E+04  0.50400001928E-02 0.  1.
</event>
<event>
 5   0  0.6792811E-06  0.3019887E+04  0.7818609E-02  0.8238075E-01
        2   -1    0    0  501    0  0.00000000000E+00  0.00000000000E+00  0.14493167004E+04  0.14493167004E+04  0.25500000920E-02 0.  1.
       -2   -1    0    0    0  501  0.00000000000E+00  0.00000000000E+00 -0.15731060521E+04  0.15731060521E+04  0.25500000920E-02 0. -1.
    10030    2    1    2    0    0  0.00000000000E+00  0.00000000000E+00 -0.12378935174E+03  0.30224227525E+04  0.30198866686E+04 0.  0.
        2    1    3    3  502    0  0.12367267435E+04  0.33186907649E+03  0.73896401394E+03  0.14784106114E+04  0.25500000920E-02 0.  1.
       -2    1    3    3    0  502 -0.12367267435E+04 -0.33186907649E+03 -0.86275336568E+03  0.15440121411E+04  0.25500000920E-02 0. -1.
</event>
<event>
 5   0  0.2504260E-06  0.3103454E+04  0.7818609E-02  0.8214791E-01
        1   -1    0    0  501    0  0.00000000000E+00  0.00000000000E+00  0.28648938690E+04  0.28648938690E+04  0.50400001928E-02 0.  1.
       -1   -1    0    0    0  501  0.00000000000E+00  0.00000000000E+00 -0.84046956115E+03  0.84046956116E+03  0.50400001928E-02 0. -1.
    10030    2    1    2    0    0  0.00000000000E+00  0.00000000000E+00  0.20244243078E+04  0.37053634302E+04  0.31034536200E+04 0.  0.
        4    1    3    3  502    0 -0.11008592815E+04  0.18867273860E+03  0.22983367212E+04  0.25553555245E+04  0.12699999809E+01 0.  1.
       -4    1    3    3    0  502  0.11008592815E+04 -0.18867273860E+03 -0.27391241331E+03  0.11500079056E+04  0.12699999809E+01 0. -1.
</event>
<event>
 5   0  0.7193153E-06  0.2984570E+04  0.7818609E-02  0.8248151E-01
       -2   -1    0    0    0  501  0.00000000000E+00  0.00000000000E+00  0.93558352170E+03  0.93558352170E+03  0.25500000920E-02 0. -1.
        2   -1    0    0  501    0  0.00000000000E+00  0.00000000000E+00 -0.23802411030E+04  0.23802411030E+04  0.25500000920E-02 0.  1.
    10030    2    1    2    0    0  0.00000000000E+00  0.00000000000E+00 -0.14446575813E+04  0.33158246247E+04  0.29845698877E+04 0.  0.
        4    1    3    3  502    0 -0.80231874539E+03 -0.30460727528E+03  0.63399361688E+03  0.10669819495E+04  0.12699999809E+01 0. -1.
       -4    1    3    3    0  502  0.80231874539E+03  0.30460727528E+03 -0.20786511982E+04  0.22488426752E+04  0.12699999809E+01 0.  1.
</event>
<event>
 5   0  0.2672155E-06  0.3000604E+04  0.7818609E-02  0.8243558E-01
        1   -1    0    0  501    0  0.00000000000E+00  0.00000000000E+00  0.16301971432E+04  0.16301971432E+04  0.50400001928E-02 0.  1.
       -1   -1    0    0    0  501  0.00000000000E+00  0.00000000000E+00 -0.13807572868E+04  0.13807572868E+04  0.50400001928E-02 0. -1.
    10030    2    1    2    0    0  0.00000000000E+00  0.00000000000E+00  0.24943985645E+03  0.30109544300E+04  0.30006043288E+04 0.  0.
        5    1    3    3  502    0 -0.12166991885E+04 -0.66536446779E+03 -0.44980867276E+03  0.14578809013E+04  0.46999998093E+01 0.  1.
       -5    1    3    3    0  502  0.12166991885E+04  0.66536446779E+03  0.69924852921E+03  0.15530735288E+04  0.46999998093E+01 0. -1.
</event>
<event>
 5   0  0.6780150E-06  0.3009262E+04  0.7818609E-02  0.8241091E-01
        2   -1    0    0  501    0  0.00000000000E+00  0.00000000000E+00  0.21427901416E+04  0.21427901416E+04  0.25500000920E-02 0. -1.
       -2   -1    0    0    0  501  0.00000000000E+00  0.00000000000E+00 -0.10565267647E+04  0.10565267647E+04  0.25500000920E-02 0.  1.
    10030    2    1    2    0    0  0.00000000000E+00  0.00000000000E+00  0.10862633769E+04  0.31993169063E+04  0.30092624583E+04 0.  0.
        5    1    3    3  502    0 -0.44680043679E+03  0.85030135064E+03 -0.68813481853E+03  0.11816068025E+04  0.46999998093E+01 0.  1.
       -5    1    3    3    0  502  0.44680043679E+03 -0.85030135064E+03  0.17743981954E+04  0.20177101038E+04  0.46999998093E+01 0. -1.
</event>
<event>
 5   0  0.7217255E-06  0.2997074E+04  0.7818609E-02  0.8244567E-01
       -2   -1    0    0    0  501  0.00000000000E+00  0.00000000000E+00  0.94292631324E+03  0.94292631324E+03  0.25500000920E-02 0.  1.
        2   -1    0    0  501    0  0.00000000000E+00  0.00000000000E+00 -0.23815367604E+04  0.23815367604E+04  0.25500000920E-02 0. -1.
    10030    2    1    2    0    0  0.00000000000E+00  0.00000000000E+00 -0.14386104472E+04  0.33244630737E+04  0.29970743583E+04 0.  0.
        1    1    3    3  502    0 -0.12416690001E+04 -0.81989274529E+03 -0.91663598101E+03  0.17476233980E+04  0.50400001928E-02 0. -1.
       -1    1    3    3    0  502  0.12416690001E+04  0.81989274529E+03 -0.52197446619E+03  0.15768396757E+04  0.50400001928E-02 0.  1.
</event>
<event>
 5   0  0.2552990E-06  0.3000683E+04  0.7818609E-02  0.8243536E-01
        1   -1    0    0  501    0  0.00000000000E+00  0.00000000000E+00  0.72059826858E+03  0.72059826859E+03  0.50400001928E-02 0. -1.
       -1   -1    0    0    0  501  0.00000000000E+00  0.00000000000E+00 -0.31238270571E+04  0.31238270571E+04  0.50400001928E-02 0.  1.
    10030    2    1    2    0    0  0.00000000000E+00  0.00000000000E+00 -0.24032287886E+04  0.38444253257E+04  0.30006828348E+04 0.  0.
        3    1    3    3  502    0  0.65334750119E+02  0.76213994400E+03  0.45200514653E+03  0.88850131486E+03  0.10100000352E+00 0. -1.
       -3    1    3    3    0  502 -0.65334750119E+02 -0.76213994400E+03 -0.28552339351E+04  0.29559240109E+04  0.10100000352E+00 0.  1.
</event>
<event>
 5   0  0.2504260E-06  0.2979266E+04  0.7818609E-02  0.8249676E-01
        1   -1    0    0  501    0  0.00000000000E+00  0.00000000000E+00  0.12025845916E+04  0.12025845916E+04  0.50400001928E-02 0. -1.
       -1   -1    0    0    0  501  0.00000000000E+00  0.00000000000E+00 -0.18451982842E+04  0.18451982842E+04  0.50400001928E-02 0.  1.
    10030    2    1    2    0    0  0.00000000000E+00  0.00000000000E+00 -0.64261369265E+03  0.30477828758E+04  0.29792663695E+04 0.  0.
        4    1    3    3  502    0 -0.68414235939E+03 -0.12429292091E+04  0.14309541501E+03  0.14259739470E+04  0.12699999809E+01 0. -1.
       -4    1    3    3    0  502  0.68414235939E+03  0.12429292091E+04 -0.78570910766E+03  0.16218089288E+04  0.12699999809E+01 0.  1.
</event>
<event>
 5   0  0.2504260E-06  0.2957984E+04  0.7818609E-02  0.8255832E-01
        1   -1    0    0  501    0  0.00000000000E+00  0.00000000000E+00  0.19858603318E+04  0.19858603318E+04  0.50400001928E-02 0.  1.
       -1   -1    0    0    0  501  0.00000000000E+00  0.00000000000E+00 -0.11014962629E+04  0.11014962629E+04  0.50400001928E-02 0. -1.
    10030    2    1    2    0    0  0.00000000000E+00  0.00000000000E+00  0.88436406882E+03  0.30873565947E+04  0.29579842692E+04 0.  0.
        4    1    3    3  502    0  0.19496499694E+03 -0.69880861614E+03  0.17873764940E+04  0.19290052297E+04  0.12699999809E+01 0.  1.
       -4    1    3    3    0  502 -0.19496499694E+03  0.69880861614E+03 -0.90301242513E+03  0.11583513650E+04  0.12699999809E+01 0. -1.
</event>
<event>
 5   0  0.2504260E-06  0.2999559E+04  0.7818609E-02  0.8243857E-01
       -1   -1    0    0    0  501  0.00000000000E+00  0.00000000000E+00  0.15560726552E+04  0.15560726552E+04  0.50400001928E-02 0. -1.
        1   -1    0    0  501    0  0.00000000000E+00  0.00000000000E+00 -0.14455228520E+04  0.14455228520E+04  0.50400001928E-02 0.  1.
    10030    2    1    2    0    0  0.00000000000E+00  0.00000000000E+00  0.11054980327E+03  0.30015955072E+04  0.29995590226E+04 0.  0.
        4    1    3    3  502    0  0.14059157328E+04  0.52204775385E+03  0.69569712759E+02  0.15013242365E+04  0.12699999809E+01 0. -1.
       -4    1    3    3    0  502 -0.14059157328E+04 -0.52204775385E+03  0.40980090514E+02  0.15002712708E+04  0.12699999809E+01 0.  1.
</event>
<event>
 5   0  0.2552990E-06  0.3007494E+04  0.7818609E-02  0.8241594E-01
        1   -1    0    0  501    0  0.00000000000E+00  0.00000000000E+00  0.14765785562E+04  0.14765785562E+04  0.50400001928E-02 0.  1.
       -1   -1    0    0    0  501  0.00000000000E+00  0.00000000000E+00 -0.15314150435E+04  0.15314150435E+04  0.50400001928E-02 0. -1.
    10030    2    1    2    0    0  0.00000000000E+00  0.00000000000E+00 -0.54836487324E+02  0.30079935997E+04  0.30074937166E+04 0.  0.
        3    1    3    3  502    0 -0.58046857725E+03 -0.65690658059E+03  0.11945804712E+04  0.14817194529E+04  0.10100000352E+00 0.  1.
       -3    1    3    3    0  502  0.58046857725E+03  0.65690658059E+03 -0.12494169585E+04  0.15262741468E+04  0.10100000352E+00 0. -1.
</event>
<event>
 5   0  0.6780150E-06  0.2982644E+04  0.7818609E-02  0.8248704E-01
        2   -1    0    0  501    0  0.00000000000E+00  0.00000000000E+00  0.18331928302E+04  0.18331928302E+04  0.25500000920E-02 0. -1.
       -2   -1    0    0    0  501  0.00000000000E+00  0.00000000000E+00 -0.12132067426E+04  0.12132067426E+04  0.25500000920E-02 0.  1.
    10030    2    1    2    0    0  0.00000000000E+00  0.00000000000E+00  0.61998608762E+03  0.30463995728E+04  0.29826443986E+04 0.  0.
        5    1    3    3  502    0  0.27924148600E+03 -0.13359558613E+04  0.92389483065E+03  0.16481376213E+04  0.46999998093E+01 0. -1.
       -5    1    3    3    0  502 -0.27924148600E+03  0.13359558613E+04 -0.30390874303E+03  0.13982619515E+04  0.46999998093E+01 0.  1.
</event>
<event>
 5   0  0.6792811E-06  0.2981767E+04  0.7818609E-02  0.8248957E-01
       -2   -1    0    0    0  501  0.00000000000E+00  0.00000000000E+00  0.15035194247E+04  0.15035194247E+04  0.25500000920E-02 0. -1.
        2   -1    0    0  501    0  0.00000000000E+00  0.00000000000E+00 -0.14783537583E+04  0.14783537583E+04  0.25500000920E-02 0.  1.
    10030    2    1    2    0    0  0.00000000000E+00  0.00000000000E+00  0.25165666414E+02  0.29818731830E+04  0.29817669877E+04 0.  0.
        2    1    3    3  502    0 -0.63886908537E+03  0.11330920331E+04 -0.71592257488E+03  0.14847883340E+04  0.25500000920E-02 0. -1.
       -2    1    3    3    0  502  0.63886908537E+03 -0.11330920331E+04  0.74108824129E+03  0.14970848490E+04  0.25500000920E-02 0.  1.
</event>
<event>
 5   0  0.2422083E-06  0.3039989E+04  0.7818609E-02  0.8232403E-01
        1   -1    0    0  501    0  0.00000000000E+00  0.00000000000E+00  0.24241700551E+04  0.24241700551E+04  0.50400001928E-02 0. -1.
       -1   -1    0    0    0  501  0.00000000000E+00  0.00000000000E+00 -0.95306145660E+03  0.95306145662E+03  0.50400001928E-02 0.  1.
    10030    2    1    2    0    0  0.00000000000E+00  0.00000000000E+00  0.14711085985E+04  0.33772315117E+04  0.30399888446E+04 0.  0.
        2    1    3    3  502    0  0.41130672451E+03 -0.10585039933E+04 -0.38686398191E+03  0.11996948220E+04  0.25500000920E-02 0.  1.
       -2    1    3    3    0  502 -0.41130672451E+03  0.10585039933E+04  0.18579725804E+04  0.21775366897E+04  0.25500000920E-02 0. -1.
</event>
<event>
 5   0  0.2628425E-06  0.2978071E+04  0.7818609E-02  0.8250021E-01
       -1   -1    0    0    0  501  0.00000000000E+00  0.00000000000E+00  0.19171383533E+04  0.19171383533E+04  0.50400001928E-02 0. -1.
        1   -1    0    0  501    0  0.00000000000E+00  0.00000000000E+00 -0.11565290355E+04  0.11565290355E+04  0.50400001928E-02 0.  1.
    10030    2    1    2    0    0  0.00000000000E+00  0.00000000000E+00  0.76060931777E+03  0.30736673888E+04  0.29780706309E+04 0.  0.
        1    1    3    3  502    0  0.37414101091E+03  0.14269312268E+04  0.58957414472E+03  0.15886194932E+04  0.50400001928E-02 0. -1.
       -1    1    3    3    0  502 -0.37414101091E+03 -0.14269312268E+04  0.17103517305E+03  0.14850478957E+04  0.50400001928E-02 0.  1.
</event>
<event>
 5   0  0.2552990E-06  0.2326884E+04  0.7818609E-02  0.8467396E-01
       -1   -1    0    0    0  501  0.00000000000E+00  0.00000000000E+00  0.10473306606E+04  0.10473306606E+04  0.50400001928E-02 0.  1.
        1   -1    0    0  501    0  0.00000000000E+00  0.00000000000E+00 -0.12924263281E+04  0.12924263281E+04  0.50400001928E-02 0. -1.
    10030    2    1    2    0    0  0.00000000000E+00  0.00000000000E+00 -0.24509566751E+03  0.23397569887E+04  0.23268843718E+04 0.  0.
        3    1    3    3  502    0  0.11381347181E+04  0.23906759779E+03 -0.89292878748E+02  0.11663949508E+04  0.10100000352E+00 0.  1.
       -3    1    3    3    0  502 -0.11381347181E+04 -0.23906759779E+03 -0.15580278876E+03  0.11733620379E+04  0.10100000352E+00 0. -1.
</event>
<event>
 5   0  0.2628425E-06  0.2984191E+04  0.7818609E-02  0.8248260E-01
       -1   -1    0    0    0  501  0.00000000000E+00  0.00000000000E+00  0.82584201778E+03  0.82584201779E+03  0.50400001928E-02 0. -1.
        1   -1    0    0  501    0  0.00000000000E+00  0.00000000000E+00 -0.26958533426E+04  0.26958533426E+04  0.50400001928E-02 0.  1.
    10030    2    1    2    0    0  0.00000000000E+00  0.00000000000E+00 -0.18700113248E+04  0.35216953604E+04  0.29841909886E+04 0.  0.
        1    1    3    3  502    0 -0.22563453069E+03  0.27402331225E+03 -0.26453002774E+04  0.26690097929E+04  0.50400001928E-02 0.  1.
       -1    1    3    3    0  502  0.22563453069E+03 -0.27402331225E+03  0.77528895254E+03  0.85268556751E+03  0.50400001928E-02 0. -1.
</event>
<event>
 5   0  0.2504260E-06  0.2914559E+04  0.7818609E-02  0.8268559E-01
        1   -1    0    0  501    0  0.00000000000E+00  0.00000000000E+00  0.25852865076E+04  0.25852865077E+04  0.50400001928E-02 0.  1.
       -1   -1    0    0    0  501  0.00000000000E+00  0.00000000000E+00 -0.82144208445E+03  0.82144208446E+03  0.50400001928E-02 0. -1.
    10030    2    1    2    0    0  0.00000000000E+00  0.00000000000E+00  0.17638444232E+04  0.34067285921E+04  0.29145587232E+04 0.  0.
        4    1    3    3  502    0  0.15274329421E+03 -0.14752362112E+03 -0.80325982956E+03  0.83085600401E+03  0.12699999809E+01 0. -1.
       -4    1    3    3    0  502 -0.15274329421E+03  0.14752362112E+03  0.25671042528E+04  0.25758725881E+04  0.12699999809E+01 0.  1.
</event>
<event>
 5   0  0.2504260E-06  0.2983523E+04  0.7818609E-02  0.8248452E-01
        1   -1    0    0  501    0  0.00000000000E+00  0.00000000000E+00  0.22092101823E+04  0.22092101823E+04  0.50400001928E-02 0.  1.
       -1   -1    0    0    0  501  0.00000000000E+00  0.00000000000E+00 -0.10073069994E+04  0.10073069994E+04  0.50400001928E-02 0. -1.
    10030    2    1    2    0    0  0.00000000000E+00  0.00000000000E+00  0.12019031829E+04  0.32165171817E+04  0.29835233398E+04 0.  0.
        4    1    3    3  502    0  0.70509378792E+03  0.73130494165E+03  0.17786852999E+04  0.20483376618E+04  0.12699999809E+01 0.  1.
       -4    1    3    3    0  502 -0.70509378792E+03 -0.73130494165E+03 -0.57678211700E+03  0.11681795200E+04  0.12699999809E+01 0. -1.
</event>
<event>
 5   0  0.2552990E-06  0.3131700E+04  0.7818609E-02  0.8207092E-01
       -1   -1    0    0    0  501  0.00000000000E+00  0.00000000000E+00  0.10206413360E+04  0.10206413360E+04  0.50400001928E-02 0.  1.
        1   -1    0    0  501    0  0.00000000000E+00  0.00000000000E+00 -0.24023000690E+04  0.24023000690E+04  0.50400001928E-02 0. -1.
    10030    2    1    2    0    0  0.00000000000E+00  0.00000000000E+00 -0.13816587330E+04  0.34229414050E+04  0.31317003381E+04 0.  0.
        3    1    3    3  502    0 -0.76681778332E+03 -0.81737841291E+03  0.50437741486E+03  0.12290295235E+04  0.10100000352E+00 0.  1.
       -3    1    3    3    0  502  0.76681778332E+03  0.81737841291E+03 -0.18860361478E+04  0.21939118815E+04  0.10100000352E+00 0. -1.
</event>
<event>
 5   0  0.6792811E-06  0.2985484E+04  0.7818609E-02  0.8247888E-01
       -2   -1    0    0    0  501  0.00000000000E+00  0.00000000000E+00  0.12385923767E+04  0.12385923767E+04  0.25500000920E-02 0. -1.
        2   -1    0    0  501    0  0.00000000000E+00  0.00000000000E+00 -0.17990413955E+04  0.17990413955E+04  0.25500000920E-02 0.  1.
    10030    2    1    2    0    0  0.00000000000E+00  0.00000000000E+00 -0.56044901878E+03  0.30376337722E+04  0.29854841870E+04 0.  0.
        2    1    3    3  502    0 -0.12303517080E+04 -0.66453396562E+03  0.25130693595E+03  0.14207483566E+04  0.25500000920E-02 0. -1.
       -2    1    3    3    0  502  0.12303517080E+04  0.66453396562E+03 -0.81175595473E+03  0.16168854155E+04  0.25500000920E-02 0.  1.
</event>
<event>
 5   0  0.2298500E-06  0.3025953E+04  0.7818609E-02  0.8236359E-01
       -3   -1    0    0    0  501  0.00000000000E+00  0.00000000000E+00  0.85338487756E+03  0.85338488354E+03  0.10100000352E+00 0.  1.
        3   -1    0    0  501    0  0.00000000000E+00  0.00000000000E+00 -0.26823738541E+04  0.26823738560E+04  0.10100000352E+00 0. -1.
    10030    2    1    2    0    0  0.00000000000E+00  0.00000000000E+00 -0.18289889765E+04  0.35357587395E+04  0.30259526083E+04 0.  0.
        2    1    3    3  502    0  0.10291983133E+04  0.18402145095E+02  0.38115176702E+03  0.10976631890E+04  0.25500000920E-02 0.  1.
       -2    1    3    3    0  502 -0.10291983133E+04 -0.18402145095E+02 -0.22101407435E+04  0.24380955505E+04  0.25500000920E-02 0. -1.
</event>
<event>
 5   0  0.7217255E-06  0.3010898E+04  0.7818609E-02  0.8240626E-01
        2   -1    0    0  501    0  0.00000000000E+00  0.00000000000E+00  0.17975450502E+04  0.17975450502E+04  0.25500000920E-02 0. -1.
       -2   -1    0    0    0  501  0.00000000000E+00  0.00000000000E+00 -0.12608174399E+04  0.12608174399E+04  0.25500000920E-02 0.  1.
    10030    2    1    2    0    0  0.00000000000E+00  0.00000000000E+00  0.53672761029E+03  0.30583624901E+04  0.30108976391E+04 0.  0.
        1    1    3    3  502    0  0.11251097542E+04  0.91445849363E+03 -0.14332769565E+03  0.14569314067E+04  0.50400001928E-02 0.  1.
       -1    1    3    3    0  502 -0.11251097542E+04 -0.91445849363E+03  0.68005530594E+03  0.16014310833E+04  0.50400001928E-02 0. -1.
</event>
<event>
 5   0  0.2552990E-06  0.2661334E+04  0.7818609E-02  0.8347661E-01
       -1   -1    0    0    0  501  0.00000000000E+00  0.00000000000E+00  0.12119994246E+04  0.12119994246E+04  0.50400001928E-02 0. -1.
        1   -1    0    0  501    0  0.00000000000E+00  0.00000000000E+00 -0.14609534385E+04  0.14609534386E+04  0.50400001928E-02 0.  1.
    10030    2    1    2    0    0  0.00000000000E+00  0.00000000000E+00 -0.24895401397E+03  0.26729528631E+04  0.26613340466E+04 0.  0.
        3    1    3    3  502    0  0.22378369812E+03  0.89658579152E+03  0.83716297513E+03  0.12469110162E+04  0.10100000352E+00 0. -1.
       -3    1    3    3    0  502 -0.22378369812E+03 -0.89658579152E+03 -0.10861169891E+04  0.14260418470E+04  0.10100000352E+00 0.  1.
</event>
<event>
 5   0  0.7217255E-06  0.2811750E+04  0.7818609E-02  0.8299630E-01
        2   -1    0    0  501    0  0.00000000000E+00  0.00000000000E+00  0.24611593523E+04  0.24611593523E+04  0.25500000920E-02 0.  1.
       -2   -1    0    0    0  501  0.00000000000E+00  0.00000000000E+00 -0.80307025491E+03  0.80307025492E+03  0.25500000920E-02 0. -1.
    10030    2    1    2    0    0  0.00000000000E+00  0.00000000000E+00  0.16580890974E+04  0.32642296072E+04  0.28117495397E+04 0.  0.
        1    1    3    3  502    0 -0.11212758061E+04 -0.67512263900E+03  0.14248985533E+04  0.19347831657E+04  0.50400001928E-02 0.  1.
       -1    1    3    3    0  502  0.11212758061E+04  0.67512263900E+03  0.23319054411E+03  0.13294464415E+04  0.50400001928E-02 0. -1.
</event>
<event>
 5   0  0.2628425E-06  0.3016494E+04  0.7818609E-02  0.8239037E-01
        1   -1    0    0  501    0  0.00000000000E+00  0.00000000000E+00  0.19663681015E+04  0.19663681015E+04  0.50400001928E-02 0.  1.
       -1   -1    0    0    0  501  0.00000000000E+00  0.00000000000E+00 -0.11568579377E+04  0.11568579377E+04  0.50400001928E-02 0. -1.
    10030    2    1    2    0    0  0.00000000000E+00  0.00000000000E+00  0.80951016387E+03  0.31232260392E+04  0.30164936908E+04 0.  0.
        1    1    3    3  502    0  0.11567253347E+04 -0.11010429440E+03  0.14003779665E+04  0.18196688997E+04  0.50400001928E-02 0.  1.
       -1    1    3    3    0  502 -0.11567253347E+04  0.11010429440E+03 -0.59086780260E+03  0.13035571395E+04  0.50400001928E-02 0. -1.
</event>
<event>
 5   0  0.6780150E-06  0.3012763E+04  0.7818609E-02  0.8240096E-01
        2   -1    0    0  501    0  0.00000000000E+00  0.00000000000E+00  0.14821927720E+04  0.14821927720E+04  0.25500000920E-02 0.  1.
       -2   -1    0    0    0  501  0.00000000000E+00  0.00000000000E+00 -0.15309647299E+04  0.15309647299E+04  0.25500000920E-02 0. -1.
    10030    2    1    2    0    0  0.00000000000E+00  0.00000000000E+00 -0.48771957869E+02  0.30131575019E+04  0.30127627566E+04 0.  0.
        5    1    3    3  502    0 -0.11472172688E+04  0.97604303728E+03 -0.45013591542E+01  0.15062568920E+04  0.46999998093E+01 0. -1.
       -5    1    3    3    0  502  0.11472172688E+04 -0.97604303728E+03 -0.44270598715E+02  0.15069006100E+04  0.46999998093E+01 0.  1.
</event>
<event>
 5   0  0.2422083E-06  0.2991887E+04  0.7818609E-02  0.8246051E-01
       -1   -1    0    0    0  501  0.00000000000E+00  0.00000000000E+00  0.17606986581E+04  0.17606986582E+04  0.50400001928E-02 0.  1.
        1   -1    0    0  501    0  0.00000000000E+00  0.00000000000E+00 -0.12709997320E+04  0.12709997320E+04  0.50400001928E-02 0. -1.
    10030    2    1    2    0    0  0.00000000000E+00  0.00000000000E+00  0.48969892618E+03  0.30316983901E+04  0.29918873793E+04 0.  0.
        2    1    3    3  502    0 -0.40522129597E+02 -0.11776624066E+04 -0.68899724528E+03  0.13650084215E+04  0.25500000920E-02 0. -1.
       -2    1    3    3    0  502  0.40522129597E+02  0.11776624066E+04  0.11786961715E+04  0.16666899686E+04  0.25500000920E-02 0.  1.
</event>
<event>
 5   0  0.7201538E-06  0.3031680E+04  0.7818609E-02  0.8234742E-01
        2   -1    0    0  501    0  0.00000000000E+00  0.00000000000E+00  0.22354768131E+04  0.22354768131E+04  0.25500000920E-02 0. -1.
       -2   -1    0    0    0  501  0.00000000000E+00  0.00000000000E+00 -0.10278658913E+04  0.10278658913E+04  0.25500000920E-02 0.  1.
    10030    2    1    2    0    0  0.00000000000E+00  0.00000000000E+00  0.12076109218E+04  0.32633427044E+04  0.30316796446E+04 0.  0.
        3    1    3    3  502    0  0.23924023535E+03 -0.76335163047E+03 -0.78214979722E+03  0.11187939567E+04  0.10100000352E+00 0.  1.
       -3    1    3    3    0  502 -0.23924023535E+03  0.76335163047E+03  0.19897607191E+04  0.21445487477E+04  0.10100000352E+00 0. -1.
</event>
<event>
 5   0  0.6792811E-06  0.2963160E+04  0.7818609E-02  0.8254330E-01
       -2   -1    0    0    0  501  0.00000000000E+00  0.00000000000E+00  0.15655279488E+04  0.15655279488E+04  0.25500000920E-02 0.  1.
        2   -1    0    0  501    0  0.00000000000E+00  0.00000000000E+00 -0.14021334709E+04  0.14021334709E+04  0.25500000920E-02 0. -1.
    10030    2    1    2    0    0  0.00000000000E+00  0.00000000000E+00  0.16339447787E+03  0.29676614197E+04  0.29631598921E+04 0.  0.
        2    1    3    3  502    0 -0.60441916285E+03 -0.10010423897E+04  0.99284343608E+03  0.15339968966E+04  0.25500000920E-02 0.  1.
       -2    1    3    3    0  502  0.60441916285E+03  0.10010423897E+04 -0.82944895821E+03  0.14336645230E+04  0.25500000920E-02 0. -1.
</event>
<event>
 5   0  0.2422083E-06  0.2425162E+04  0.7818609E-02  0.8430143E-01
       -1   -1    0    0    0  501  0.00000000000E+00  0.00000000000E+00  0.83724120811E+03  0.83724120813E+03  0.50400001928E-02 0. -1.
        1   -1    0    0  501    0  0.00000000000E+00  0.00000000000E+00 -0.17561875070E+04  0.17561875070E+04  0.50400001928E-02 0.  1.
    10030    2    1    2    0    0  0.00000000000E+00  0.00000000000E+00 -0.91894629885E+03  0.25934287151E+04  0.24251618915E+04 0.  0.
        2    1    3    3  502    0 -0.32000440909E+03 -0.11465540015E+04 -0.21243937012E+03  0.12091812876E+04  0.25500000920E-02 0. -1.
       -2    1    3    3    0  502  0.32000440909E+03  0.11465540015E+04 -0.70650692873E+03  0.13842474275E+04  0.25500000920E-02 0.  1.
</event>
<event>
 5   0  0.6780150E-06  0.3030307E+04  0.7818609E-02  0.8235129E-01
       -2   -1    0    0    0  501  0.00000000000E+00  0.00000000000E+00  0.80864465192E+03  0.80864465192E+03  0.25500000920E-02 0.  1.
        2   -1    0    0  501    0  0.00000000000E+00  0.00000000000E+00 -0.28389360956E+04  0.28389360956E+04  0.25500000920E-02 0. -1.
    10030    2    1    2    0    0  0.00000000000E+00  0.00000000000E+00 -0.20302914437E+04  0.36475807476E+04  0.30303072391E+04 0.  0.
        5    1    3    3  502    0 -0.33035581995E+03  0.10533266600E+04 -0.22643499287E+04  0.25191138740E+04  0.46999998093E+01 0. -1.
       -5    1    3    3    0  502  0.33035581995E+03 -0.10533266600E+04  0.23405848497E+03  0.11284668736E+04  0.46999998093E+01 0.  1.
</event>
<event>
 5   0  0.6780150E-06  0.2993907E+04  0.7818609E-02  0.8245473E-01
       -2   -1    0    0    0  501  0.00000000000E+00  0.00000000000E+00  0.26689873628E+04  0.26689873628E+04  0.25500000920E-02 0.  1.
        2   -1    0    0  501    0  0.00000000000E+00  0.00000000000E+00 -0.83959522980E+03  0.83959522980E+03  0.25500000920E-02 0. -1.
    10030    2    1    2    0    0  0.00000000000E+00  0.00000000000E+00  0.18293921330E+04  0.35085825926E+04  0.29939065170E+04 0.  0.
        5    1    3    3  502    0 -0.14155066775E+04  0.33960516029E+03  0.50560763957E+03  0.15409905886E+04  0.46999998093E+01 0. -1.
       -5    1    3    3    0  502  0.14155066775E+04 -0.33960516029E+03  0.13237844934E+04  0.19675920040E+04  0.46999998093E+01 0.  1.
</event>
<event>
 5   0  0.7201538E-06  0.3016221E+04  0.7818609E-02  0.8239114E-01
        2   -1    0    0  501    0  0.00000000000E+00  0.00000000000E+00  0.14289129983E+04  0.14289129984E+04  0.25500000920E-02 0. -1.
       -2   -1    0    0    0  501  0.00000000000E+00  0.00000000000E+00 -0.15916970128E+04  0.15916970128E+04  0.25500000920E-02 0.  1.
    10030    2    1    2    0    0  0.00000000000E+00  0.00000000000E+00 -0.16278401441E+03  0.30206100111E+04  0.30162205165E+04 0.  0.
        3    1    3    3  502    0  0.68269959135E+03  0.12730096875E+04  0.35255620040E+03  0.14869190567E+04  0.10100000352E+00 0. -1.
       -3    1    3    3    0  502 -0.68269959135E+03 -0.12730096875E+04 -0.51534021480E+03  0.15336909544E+04  0.10100000352E+00 0.  1.
</event>
<event>
 5   0  0.7217255E-06  0.2986612E+04  0.7818609E-02  0.8247564E-01
        2   -1    0    0  501    0  0.00000000000E+00  0.00000000000E+00  0.19274889157E+04  0.19274889157E+04  0.25500000920E-02 0. -1.
       -2   -1    0    0    0  501  0.00000000000E+00  0.00000000000E+00 -0.11569265005E+04  0.11569265005E+04  0.25500000920E-02 0.  1.
    10030    2    1    2    0    0  0.00000000000E+00  0.00000000000E+00  0.77056241520E+03  0.30844154161E+04  0.29866121314E+04 0.  0.
        1    1    3    3  502    0 -0.16715939438E+03  0.99899926159E+03 -0.74793065068E+03  0.12591036677E+04  0.50400001928E-02 0.  1.
       -1    1    3    3    0  502  0.16715939438E+03 -0.99899926159E+03  0.15184930659E+04  0.18253117484E+04  0.50400001928E-02 0. -1.
</event>
<event>
 5   0  0.2672155E-06  0.3018098E+04  0.7818609E-02  0.8238582E-01
        1   -1    0    0  501    0  0.00000000000E+00  0.00000000000E+00  0.14293819791E+04  0.14293819791E+04  0.50400001928E-02 0.  1.
       -1   -1    0    0    0  501  0.00000000000E+00  0.00000000000E+00 -0.15931558679E+04  0.15931558680E+04  0.50400001928E-02 0. -1.
    10030    2    1    2    0    0  0.00000000000E+00  0.00000000000E+00 -0.16377388881E+03  0.30225378471E+04  0.30180976045E+04 0.  0.
        5    1    3    3  502    0 -0.61342804261E+03 -0.18935211505E+03  0.12857935065E+04  0.14371622101E+04  0.46999998093E+01 0.  1.
       -5    1    3    3    0  502  0.61342804261E+03  0.18935211505E+03 -0.14495673953E+04  0.15853756370E+04  0.46999998093E+01 0. -1.
</event>
<event>
 5   0  0.2628425E-06  0.3000754E+04  0.7818609E-02  0.8243516E-01
       -1   -1    0    0    0  501  0.00000000000E+00  0.00000000000E+00  0.15886801941E+04  0.15886801941E+04  0.50400001928E-02 0. -1.
        1   -1    0    0  501    0  0.00000000000E+00  0.00000000000E+00 -0.14169817696E+04  0.14169817696E+04  0.50400001928E-02 0.  1.
    10030    2    1    2    0    0  0.00000000000E+00  0.00000000000E+00  0.17169842450E+03  0.30056619636E+04  0.30007538204E+04 0.  0.
        1    1    3    3  502    0 -0.59175714159E+03 -0.13430069014E+04  0.39826773434E+03  0.15206778883E+04  0.50400001928E-02 0. -1.
       -1    1    3    3    0  502  0.59175714159E+03  0.13430069014E+04 -0.22656930984E+03  0.14849840753E+04  0.50400001928E-02 0.  1.
</event>
<event>
 5   0  0.6792811E-06  0.2809102E+04  0.7818609E-02  0.8300448E-01
        2   -1    0    0  501    0  0.00000000000E+00  0.00000000000E+00  0.13478357674E+04  0.13478357674E+04  0.25500000920E-02 0. -1.
       -2   -1    0    0    0  501  0.00000000000E+00  0.00000000000E+00 -0.14636528289E+04  0.14636528289E+04  0.25500000920E-02 0.  1.
    10030    2    1    2    0    0  0.00000000000E+00  0.00000000000E+00 -0.11581706154E+03  0.28114885964E+04  0.28091020871E+04 0.  0.
        2    1    3    3  502    0 -0.29257717958E+03  0.59912289732E+03 -0.12951682905E+04  0.14567122409E+04  0.25500000920E-02 0.  1.
       -2    1    3    3    0  502  0.29257717958E+03 -0.59912289732E+03  0.11793512289E+04  0.13547763555E+04  0.25500000920E-02 0. -1.
</event>
<event>
 5   0  0.2422083E-06  0.2209320E+04  0.7818609E-02  0.8514559E-01
        1   -1    0    0  501    0  0.00000000000E+00  0.00000000000E+00  0.14348268219E+04  0.14348268219E+04  0.50400001928E-02 0. -1.
       -1   -1    0    0    0  501  0.00000000000E+00  0.00000000000E+00 -0.85046757027E+03  0.85046757029E+03  0.50400001928E-02 0.  1.
    10030    2    1    2    0    0  0.00000000000E+00  0.00000000000E+00  0.58435925159E+03  0.22852943922E+04  0.22093199687E+04 0.  0.
        2    1    3    3  502    0 -0.28277666980E+03 -0.87469978522E+02  0.13930427524E+04  0.14241424621E+04  0.25500000920E-02 0. -1.
       -2    1    3    3    0  502  0.28277666980E+03  0.87469978522E+02 -0.80868350086E+03  0.86115193009E+03  0.25500000920E-02 0.  1.
</event>
<event>
 5   0  0.7201538E-06  0.2973654E+04  0.7818609E-02  0.8251294E-01
       -2   -1    0    0    0  501  0.00000000000E+00  0.00000000000E+00  0.91563161966E+03  0.91563161966E+03  0.25500000920E-02 0.  1.
        2   -1    0    0  501    0  0.00000000000E+00  0.00000000000E+00 -0.24143500204E+04  0.24143500204E+04  0.25500000920E-02 0. -1.
    10030    2    1    2    0    0  0.00000000000E+00  0.00000000000E+00 -0.14987184007E+04  0.33299816400E+04  0.29736544652E+04 0.  0.
        3    1    3    3  502    0 -0.15074266805E+03  0.11966555142E+04  0.22427794878E+03  0.12267878301E+04  0.10100000352E+00 0.  1.
       -3    1    3    3    0  502  0.15074266805E+03 -0.11966555142E+04 -0.17229963495E+04  0.21031938099E+04  0.10100000352E+00 0. -1.
</event>
<event>
 5   0  0.6780150E-06  0.2999923E+04  0.7818609E-02  0.8243753E-01
       -2   -1    0    0    0  501  0.00000000000E+00  0.00000000000E+00  0.16512987735E+04  0.16512987735E+04  0.25500000920E-02 0.  1.
        2   -1    0    0  501    0  0.00000000000E+00  0.00000000000E+00 -0.13624942087E+04  0.13624942087E+04  0.25500000920E-02 0. -1.
    10030    2    1    2    0    0  0.00000000000E+00  0.00000000000E+00  0.28880456484E+03  0.30137929823E+04  0.29999233429E+04 0.  0.
        5    1    3    3  502    0  0.82339023246E+03 -0.92232796853E+02  0.14005368569E+04  0.16272688595E+04  0.46999998093E+01 0.  1.
       -5    1    3    3    0  502 -0.82339023246E+03  0.92232796853E+02 -0.11117322920E+04  0.13865241227E+04  0.46999998093E+01 0. -1.
</event>
<event>
 5   0  0.2672155E-06  0.3055395E+04  0.7818609E-02  0.8228087E-01
       -1   -1    0    0    0  501  0.00000000000E+00  0.00000000000E+00  0.18742540849E+04  0.18742540849E+04  0.50400001928E-02 0. -1.
        1   -1    0    0  501    0  0.00000000000E+00  0.00000000000E+00 -0.12452207084E+04  0.12452207085E+04  0.50400001928E-02 0.  1.
    10030    2    1    2    0    0  0.00000000000E+00  0.00000000000E+00  0.62903337648E+03  0.31194747934E+04  0.30553952278E+04 0.  0.
        5    1    3    3  502    0  0.88243665940E+03  0.89474019104E+03  0.12014025269E+04  0.17385754482E+04  0.46999998093E+01 0. -1.
       -5    1    3    3    0  502 -0.88243665940E+03 -0.89474019104E+03 -0.57236915040E+03  0.13808993452E+04  0.46999998093E+01 0.  1.
</event>
<event>
 5   0  0.2672155E-06  0.3021341E+04  0.7818609E-02  0.8237663E-01
        1   -1    0    0  501    0  0.00000000000E+00  0.00000000000E+00  0.22387290384E+04  0.22387290385E+04  0.50400001928E-02 0. -1.
       -1   -1    0    0    0  501  0.00000000000E+00  0.00000000000E+00 -0.10193841655E+04  0.10193841655E+04  0.50400001928E-02 0.  1.
    10030    2    1    2    0    0  0.00000000000E+00  0.00000000000E+00  0.12193448730E+04  0.32581132039E+04  0.30213407173E+04 0.  0.
        5    1    3    3  502    0 -0.27772972313E+03 -0.11712787156E+04 -0.37458470147E+03  0.12606995745E+04  0.46999998093E+01 0.  1.
       -5    1    3    3    0  502  0.27772972313E+03  0.11712787156E+04  0.15939295745E+04  0.19974136294E+04  0.46999998093E+01 0. -1.
</event>
<event>
 5   0  0.7217255E-06  0.2325917E+04  0.7818609E-02  0.8467772E-01
        2   -1    0    0  501    0  0.00000000000E+00  0.00000000000E+00  0.33241174446E+04  0.33241174446E+04  0.25500000920E-02 0.  1.
       -2   -1    0    0    0  501  0.00000000000E+00  0.00000000000E+00 -0.40686670056E+03  0.40686670057E+03  0.25500000920E-02 0. -1.
    10030    2    1    2    0    0  0.00000000000E+00  0.00000000000E+00  0.29172507441E+04  0.37309841452E+04  0.23259171929E+04 0.  0.
        1    1    3    3  502    0  0.35424309703E+03  0.48825503451E+03  0.30535405859E+04  0.31125538165E+04  0.50400001928E-02 0.  1.
       -1    1    3    3    0  502 -0.35424309703E+03 -0.48825503451E+03 -0.13628984183E+03  0.61843032876E+03  0.50400001928E-02 0. -1.
</event>
<event>
 5   0  0.7193153E-06  0.2980940E+04  0.7818609E-02  0.8249195E-01
       -2   -1    0    0    0  501  0.00000000000E+00  0.00000000000E+00  0.14317463991E+04  0.14317463991E+04  0.25500000920E-02 0.  1.
        2   -1    0    0  501    0  0.00000000000E+00  0.00000000000E+00 -0.15516024173E+04  0.15516024173E+04  0.25500000920E-02 0. -1.
    10030    2    1    2    0    0  0.00000000000E+00  0.00000000000E+00 -0.11985601815E+03  0.29833488164E+04  0.29809402368E+04 0.  0.
        4    1    3    3  502    0 -0.12190080925E+04  0.22087973952E+03  0.76943389527E+03  0.14583547994E+04  0.12699999809E+01 0.  1.
       -4    1    3    3    0  502  0.12190080925E+04 -0.22087973952E+03 -0.88928991342E+03  0.15249940170E+04  0.12699999809E+01 0. -1.
</event>
<event>
 5   0  0.2422083E-06  0.3007920E+04  0.7818609E-02  0.8241473E-01
       -1   -1    0    0    0  501  0.00000000000E+00  0.00000000000E+00  0.13381402081E+04  0.13381402081E+04  0.50400001928E-02 0. -1.
        1   -1    0    0  501    0  0.00000000000E+00  0.00000000000E+00 -0.16903277508E+04  0.16903277508E+04  0.50400001928E-02 0.  1.
    10030    2    1    2    0    0  0.00000000000E+00  0.00000000000E+00 -0.35218754273E+03  0.30284679589E+04  0.30079198980E+04 0.  0.
        2    1    3    3  502    0 -0.62456581300E+03 -0.75312977405E+03 -0.13260911169E+04  0.16479698303E+04  0.25500000920E-02 0.  1.
       -2    1    3    3    0  502  0.62456581300E+03  0.75312977405E+03  0.97390357414E+03  0.13804981286E+04  0.25500000920E-02 0. -1.
</event>
<event>
 5   0  0.2504260E-06  0.3006127E+04  0.7818609E-02  0.8241983E-01
       -1   -1    0    0    0  501  0.00000000000E+00  0.00000000000E+00  0.11900811901E+04  0.11900811901E+04  0.50400001928E-02 0.  1.
        1   -1    0    0  501    0  0.00000000000E+00  0.00000000000E+00 -0.18983582527E+04  0.18983582527E+04  0.50400001928E-02 0. -1.
    10030    2    1    2    0    0  0.00000000000E+00  0.00000000000E+00 -0.70827706257E+03  0.30884394428E+04  0.30061273750E+04 0.  0.
        4    1    3    3  502    0 -0.68381559563E+03 -0.63045427671E+03 -0.15671982332E+04  0.18224127630E+04  0.12699999809E+01 0. -1.
       -4    1    3    3    0  502  0.68381559563E+03  0.63045427671E+03  0.85892117059E+03  0.12660266798E+04  0.12699999809E+01 0.  1.
</event>
<event>
 5   0  0.6780150E-06  0.3031537E+04  0.7818609E-02  0.8234782E-01
       -2   -1    0    0    0  501  0.00000000000E+00  0.00000000000E+00  0.13689700419E+04  0.13689700419E+04  0.25500000920E-02 0. -1.
        2   -1    0    0  501    0  0.00000000000E+00  0.00000000000E+00 -0.16783088336E+04  0.16783088336E+04  0.25500000920E-02 0.  1.
    10030    2    1    2    0    0  0.00000000000E+00  0.00000000000E+00 -0.30933879166E+03  0.30472788755E+04  0.30315372432E+04 0.  0.
        5    1    3    3  502    0 -0.12267715073E+04  0.83703455308E+03  0.15011662783E+03  0.14926996570E+04  0.46999998093E+01 0. -1.
       -5    1    3    3    0  502  0.12267715073E+04 -0.83703455308E+03 -0.45945541948E+03  0.15545792185E+04  0.46999998093E+01 0.  1.
</event>
<event>
 5   0  0.2628425E-06  0.2957202E+04  0.7818609E-02  0.8256059E-01
        1   -1    0    0  501    0  0.00000000000E+00  0.00000000000E+00  0.11985890859E+04  0.11985890859E+04  0.50400001928E-02 0. -1.
       -1   -1    0    0    0  501  0.00000000000E+00  0.00000000000E+00 -0.18240285310E+04  0.18240285310E+04  0.50400001928E-02 0.  1.
    10030    2    1    2    0    0  0.00000000000E+00  0.00000000000E+00 -0.62543944510E+03  0.30226176169E+04  0.29572018461E+04 0.  0.
        1    1    3    3  502    0  0.78416786465E+03  0.15139526590E+03 -0.15846015323E+04  0.17744863434E+04  0.50400001928E-02 0.  1.
       -1    1    3    3    0  502 -0.78416786465E+03 -0.15139526590E+03  0.95916208723E+03  0.12481312736E+04  0.50400001928E-02 0. -1.
</event>
<event>
 5   0  0.6780150E-06  0.3051422E+04  0.7818609E-02  0.8229198E-01
        2   -1    0    0  501    0  0.00000000000E+00  0.00000000000E+00  0.14984928895E+04  0.14984928895E+04  0.25500000920E-02 0. -1.
       -2   -1    0    0    0  501  0.00000000000E+00  0.00000000000E+00 -0.15534234771E+04  0.15534234771E+04  0.25500000920E-02 0.  1.
    10030    2    1    2    0    0  0.00000000000E+00  0.00000000000E+00 -0.54930587562E+02  0.30519163666E+04  0.30514219864E+04 0.  0.
        5    1    3    3  502    0  0.13481754718E+04  0.52684295790E+03  0.45493156153E+03  0.15172756574E+04  0.46999998093E+01 0.  1.
       -5    1    3    3    0  502 -0.13481754718E+04 -0.52684295790E+03 -0.50986214910E+03  0.15346407091E+04  0.46999998093E+01 0. -1.
</event>
<event>
 5   0  0.2422083E-06  0.3020145E+04  0.7818609E-02  0.8238002E-01
        1   -1    0    0  501    0  0.00000000000E+00  0.00000000000E+00  0.12776742703E+04  0.12776742703E+04  0.50400001928E-02 0.  1.
       -1   -1    0    0    0  501  0.00000000000E+00  0.00000000000E+00 -0.17847423298E+04  0.17847423298E+04  0.50400001928E-02 0. -1.
    10030    2    1    2    0    0  0.00000000000E+00  0.00000000000E+00 -0.50706805943E+03  0.30624166001E+04  0.30201452640E+04 0.  0.
        2    1    3    3  502    0  0.90227541739E+03  0.32497526228E+03 -0.14363118939E+04  0.17270500011E+04  0.25500000920E-02 0. -1.
       -2    1    3    3    0  502 -0.90227541739E+03 -0.32497526228E+03  0.92924383442E+03  0.13353665990E+04  0.25500000920E-02 0.  1.
</event>
<event>
 5   0  0.7217255E-06  0.3000523E+04  0.7818609E-02  0.8243581E-01
       -2   -1    0    0    0  501  0.00000000000E+00  0.00000000000E+00  0.15683821696E+04  0.15683821696E+04  0.25500000920E-02 0. -1.
        2   -1    0    0  501    0  0.00000000000E+00  0.00000000000E+00 -0.14351000230E+04  0.14351000230E+04  0.25500000920E-02 0.  1.
    10030    2    1    2    0    0  0.00000000000E+00  0.00000000000E+00  0.13328214656E+03  0.30034821926E+04  0.30005234794E+04 0.  0.
        1    1    3    3  502    0 -0.10689905329E+04 -0.54853395719E+03 -0.83266289457E+03  0.14618336970E+04  0.50400001928E-02 0.  1.
       -1    1    3    3    0  502  0.10689905329E+04  0.54853395719E+03  0.96594504113E+03  0.15416484956E+04  0.50400001928E-02 0. -1.
</event>
<event>
 5   0  0.6792811E-06  0.2544511E+04  0.7818609E-02  0.8387298E-01
        2   -1    0    0  501    0  0.00000000000E+00  0.00000000000E+00  0.12950025315E+04  0.12950025315E+04  0.25500000920E-02 0. -1.
       -2   -1    0    0    0  501  0.00000000000E+00  0.00000000000E+00 -0.12499080355E+04  0.12499080355E+04  0.25500000920E-02 0.  1.
    10030    2    1    2    0    0  0.00000000000E+00  0.00000000000E+00  0.45094496051E+02  0.25449105670E+04  0.25445110101E+04 0.  0.
        2    1    3    3  502    0 -0.10729264877E+04 -0.23037616589E+03  0.66637936528E+03  0.12838636549E+04  0.25500000920E-02 0. -1.
       -2    1    3    3    0  502  0.10729264877E+04  0.23037616589E+03 -0.62128486923E+03  0.12610469121E+04  0.25500000920E-02 0.  1.
</event>
<event>
 5   0  0.2298500E-06  0.3013830E+04  0.7818609E-02  0.8239793E-01
        3   -1    0    0  501    0  0.00000000000E+00  0.00000000000E+00  0.22506068175E+04  0.22506068198E+04  0.10100000352E+00 0. -1.
       -3   -1    0    0    0  501  0.00000000000E+00  0.00000000000E+00 -0.10089693671E+04  0.10089693722E+04  0.10100000352E+00 0.  1.
    10030    2    1    2    0    0  0.00000000000E+00  0.00000000000E+00  0.12416374504E+04  0.32595761919E+04  0.30138303524E+04 0.  0.
        5    1    3    3  502    0 -0.12517690984E+04 -0.56590356146E+03  0.12906737329E+04  0.18849492013E+04  0.46999998093E+01 0. -1.
       -5    1    3    3    0  502  0.12517690984E+04  0.56590356146E+03 -0.49036282517E+02  0.13746269907E+04  0.46999998093E+01 0.  1.
</event>
<event>
 5   0  0.2504260E-06  0.2266506E+04  0.7818609E-02  0.8491245E-01
        1   -1    0    0  501    0  0.00000000000E+00  0.00000000000E+00  0.24342148585E+04  0.24342148585E+04  0.50400001928E-02 0. -1.
       -1   -1    0    0    0  501  0.00000000000E+00  0.00000000000E+00 -0.52758812017E+03  0.52758812020E+03  0.50400001928E-02 0.  1.
    10030    2    1    2    0    0  0.00000000000E+00  0.00000000000E+00  0.19066267384E+04  0.29618029787E+04  0.22665064230E+04 0.  0.
        4    1    3    3  502    0 -0.47911489009E+03 -0.25896750571E+03 -0.34535978186E+03  0.64489552545E+03  0.12699999809E+01 0.  1.
       -4    1    3    3    0  502  0.47911489009E+03  0.25896750571E+03  0.22519865202E+04  0.23169074533E+04  0.12699999809E+01 0. -1.
</event>
<event>
 5   0  0.7193153E-06  0.2987036E+04  0.7818609E-02  0.8247443E-01
       -2   -1    0    0    0  501  0.00000000000E+00  0.00000000000E+00  0.32708072932E+04  0.32708072932E+04  0.25500000920E-02 0. -1.
        2   -1    0    0  501    0  0.00000000000E+00  0.00000000000E+00 -0.68197102911E+03  0.68197102912E+03  0.25500000920E-02 0.  1.
    10030    2    1    2    0    0  0.00000000000E+00  0.00000000000E+00  0.25888362641E+04  0.39527783223E+04  0.29870358657E+04 0.  0.
        4    1    3    3  502    0 -0.82634263539E+03  0.71058129219E+03 -0.56932363591E+02  0.10913344267E+04  0.12699999809E+01 0.  1.
       -4    1    3    3    0  502  0.82634263539E+03 -0.71058129219E+03  0.26457686277E+04  0.28614438957E+04  0.12699999809E+01 0. -1.
</event>
<event>
 5   0  0.6780150E-06  0.2987730E+04  0.7818609E-02  0.8247243E-01
       -2   -1    0    0    0  501  0.00000000000E+00  0.00000000000E+00  0.20485729338E+04  0.20485729338E+04  0.25500000920E-02 0. -1.
        2   -1    0    0  501    0  0.00000000000E+00  0.00000000000E+00 -0.10893592864E+04  0.10893592864E+04  0.25500000920E-02 0.  1.
    10030    2    1    2    0    0  0.00000000000E+00  0.00000000000E+00  0.95921364736E+03  0.31379322202E+04  0.29877295388E+04 0.  0.
        5    1    3    3  502    0 -0.58895716863E+03  0.58513982784E+03  0.17839559282E+04  0.19676839198E+04  0.46999998093E+01 0. -1.
       -5    1    3    3    0  502  0.58895716863E+03 -0.58513982784E+03 -0.82474228086E+03  0.11702483003E+04  0.46999998093E+01 0.  1.
</event>
<event>
 5   0  0.2628425E-06  0.2951902E+04  0.7818609E-02  0.8257601E-01
       -1   -1    0    0    0  501  0.00000000000E+00  0.00000000000E+00  0.19101808414E+04  0.19101808414E+04  0.50400001928E-02 0. -1.
        1   -1    0    0  501    0  0.00000000000E+00  0.00000000000E+00 -0.11404316556E+04  0.11404316556E+04  0.50400001928E-02 0.  1.
    10030    2    1    2    0    0  0.00000000000E+00  0.00000000000E+00  0.76974918584E+03  0.30506124970E+04  0.29519015562E+04 0.  0.
        1    1    3    3  502    0  0.55501398569E+03 -0.89059267728E+03  0.14574809688E+04  0.17959528434E+04  0.50400001928E-02 0. -1.
       -1    1    3    3    0  502 -0.55501398569E+03  0.89059267728E+03 -0.68773178296E+03  0.12546596536E+04  0.50400001928E-02 0.  1.
</event>
<event>
 5   0  0.7193153E-06  0.2928007E+04  0.7818609E-02  0.8264593E-01
       -2   -1    0    0    0  501  0.00000000000E+00  0.00000000000E+00  0.14086255506E+04  0.14086255506E+04  0.25500000920E-02 0. -1.
        2   -1    0    0  501    0  0.00000000000E+00  0.00000000000E+00 -0.15215586782E+04  0.15215586782E+04  0.25500000920E-02 0.  1.
    10030    2    1    2    0    0  0.00000000000E+00  0.00000000000E+00 -0.11293312755E+03  0.29301842288E+04  0.29280071249E+04 0.  0.
        4    1    3    3  502    0  0.12215921765E+04 -0.46003617518E+03 -0.71981996583E+03  0.14906586210E+04  0.12699999809E+01 0. -1.
       -4    1    3    3    0  502 -0.12215921765E+04  0.46003617518E+03  0.60688683828E+03  0.14395256078E+04  0.12699999809E+01 0.  1.
</event>
<event>
 5   0  0.2552990E-06  0.3021415E+04  0.7818609E-02  0.8237642E-01
        1   -1    0    0  501    0  0.00000000000E+00  0.00000000000E+00  0.14201312951E+04  0.14201312951E+04  0.50400001928E-02 0. -1.
       -1   -1    0    0    0  501  0.00000000000E+00  0.00000000000E+00 -0.16070608267E+04  0.16070608267E+04  0.50400001928E-02 0.  1.
    10030    2    1    2    0    0  0.00000000000E+00  0.00000000000E+00 -0.18692953161E+03  0.30271921217E+04  0.30214151473E+04 0.  0.
        3    1    3    3  502    0 -0.87858964530E+02  0.14347205450E+04  0.37228437780E+03  0.14848359869E+04  0.10100000352E+00 0. -1.
       -3    1    3    3    0  502  0.87858964530E+02 -0.14347205450E+04 -0.55921390941E+03  0.15423561348E+04  0.10100000352E+00 0.  1.
</event>
<event>
 5   0  0.2422083E-06  0.2993448E+04  0.7818609E-02  0.8245604E-01
       -1   -1    0    0    0  501  0.00000000000E+00  0.00000000000E+00  0.16566672693E+04  0.16566672694E+04  0.50400001928E-02 0.  1.
        1   -1    0    0  501    0  0.00000000000E+00  0.00000000000E+00 -0.13522225421E+04  0.13522225422E+04  0.50400001928E-02 0. -1.
    10030    2    1    2    0    0  0.00000000000E+00  0.00000000000E+00  0.30444472720E+03  0.30088898115E+04  0.29934480630E+04 0.  0.
        2    1    3    3  502    0 -0.81316532239E+03 -0.44748854297E+03  0.13324595249E+04  0.16238633634E+04  0.25500000920E-02 0.  1.
       -2    1    3    3    0  502  0.81316532239E+03  0.44748854297E+03 -0.10280147977E+04  0.13850264481E+04  0.25500000920E-02 0. -1.
</event>
<event>
 5   0  0.2422083E-06  0.2975378E+04  0.7818609E-02  0.8250797E-01
       -1   -1    0    0    0  501  0.00000000000E+00  0.00000000000E+00  0.11070593128E+04  0.11070593129E+04  0.50400001928E-02 0.  1.
        1   -1    0    0  501    0  0.00000000000E+00  0.00000000000E+00 -0.19991872865E+04  0.19991872865E+04  0.50400001928E-02 0. -1.
    10030    2    1    2    0    0  0.00000000000E+00  0.00000000000E+00 -0.89212797362E+03  0.31062465993E+04  0.29753782305E+04 0.  0.
        2    1    3    3  502    0  0.87995367257E+02  0.64831866461E+03  0.94880094588E+03  0.11525118266E+04  0.25500000920E-02 0.  1.
       -2    1    3    3    0  502 -0.87995367257E+02 -0.64831866461E+03 -0.18409289195E+04  0.19537347727E+04  0.25500000920E-02 0. -1.
</event>
<event>
 5   0  0.2628425E-06  0.3022025E+04  0.7818609E-02  0.8237469E-01
       -1   -1    0    0    0  501  0.00000000000E+00  0.00000000000E+00  0.10893248557E+04  0.10893248557E+04  0.50400001928E-02 0.  1.
        1   -1    0    0  501    0  0.00000000000E+00  0.00000000000E+00 -0.20959393708E+04  0.20959393709E+04  0.50400001928E-02 0. -1.
    10030    2    1    2    0    0  0.00000000000E+00  0.00000000000E+00 -0.10066145152E+04  0.31852642266E+04  0.30220250513E+04 0.  0.
        1    1    3    3  502    0 -0.13830834721E+04  0.58771465775E+03 -0.33721872896E+03  0.15401444351E+04  0.50400001928E-02 0.  1.
       -1    1    3    3    0  502  0.13830834721E+04 -0.58771465775E+03 -0.66939578620E+03  0.16451197915E+04  0.50400001928E-02 0. -1.
</event>
<event>
 5   0  0.2672155E-06  0.2994925E+04  0.7818609E-02  0.8245182E-01
        1   -1    0    0  501    0  0.00000000000E+00  0.00000000000E+00  0.14961786338E+04  0.14961786338E+04  0.50400001928E-02 0.  1.
       -1   -1    0    0    0  501  0.00000000000E+00  0.00000000000E+00 -0.14987473257E+04  0.14987473257E+04  0.50400001928E-02 0. -1.
    10030    2    1    2    0    0  0.00000000000E+00  0.00000000000E+00 -0.25686919305E+01  0.29949259595E+04  0.29949248579E+04 0.  0.
        5    1    3    3  502    0  0.83955090063E+03 -0.30332888232E+02  0.12383151731E+04  0.14963997984E+04  0.46999998093E+01 0.  1.
       -5    1    3    3    0  502 -0.83955090063E+03  0.30332888232E+02 -0.12408838650E+04  0.14985261611E+04  0.46999998093E+01 0. -1.
</event>
<event>
 5   0  0.2422083E-06  0.2978856E+04  0.7818609E-02  0.8249794E-01
       -1   -1    0    0    0  501  0.00000000000E+00  0.00000000000E+00  0.18944759405E+04  0.18944759405E+04  0.50400001928E-02 0. -1.
        1   -1    0    0  501    0  0.00000000000E+00  0.00000000000E+00 -0.11709814771E+04  0.11709814771E+04  0.50400001928E-02 0.  1.
    10030    2    1    2    0    0  0.00000000000E+00  0.00000000000E+00  0.72349446339E+03  0.30654574176E+04  0.29788563142E+04 0.  0.
        2    1    3    3  502    0 -0.12846714897E+04 -0.49667152306E+03 -0.22159478595E+03  0.13950511415E+04  0.25500000920E-02 0.  1.
       -2    1    3    3    0  502  0.12846714897E+04  0.49667152306E+03  0.94508924934E+03  0.16704062761E+04  0.25500000920E-02 0. -1.
</event>
<event>
 5   0  0.7193153E-06  0.2983521E+04  0.7818609E-02  0.8248452E-01
        2   -1    0    0  501    0  0.00000000000E+00  0.00000000000E+00  0.22571895097E+04  0.22571895098E+04  0.25500000920E-02 0.  1.
       -2   -1    0    0    0  501  0.00000000000E+00  0.00000000000E+00 -0.98589365292E+03  0.98589365292E+03  0.25500000920E-02 0. -1.
    10030    2    1    2    0    0  0.00000000000E+00  0.00000000000E+00  0.12712958568E+04  0.32430831627E+04  0.29835206124E+04 0.  0.
        4    1    3    3  502    0 -0.29197325047E+03  0.83796058784E+03  0.19391044124E+04  0.21324994398E+04  0.12699999809E+01 0.  1.
       -4    1    3    3    0  502  0.29197325047E+03 -0.83796058784E+03 -0.66780855554E+03  0.11105837229E+04  0.12699999809E+01 0. -1.
</event>
<event>
 5   0  0.7193153E-06  0.3030111E+04  0.7818609E-02  0.8235184E-01
        2   -1    0    0  501    0  0.00000000000E+00  0.00000000000E+00  0.20386791404E+04  0.20386791404E+04  0.25500000920E-02 0. -1.
       -2   -1    0    0    0  501  0.00000000000E+00  0.00000000000E+00 -0.11259219511E+04  0.11259219511E+04  0.25500000920E-02 0.  1.
    10030    2    1    2    0    0  0.00000000000E+00  0.00000000000E+00  0.91275718930E+03  0.31646010915E+04  0.30301112821E+04 0.  0.
        4    1    3    3  502    0  0.92075626834E+03 -0.38330041950E+03 -0.73471458365E+03  0.12387568162E+04  0.12699999809E+01 0.  1.
       -4    1    3    3    0  502 -0.92075626834E+03  0.38330041950E+03  0.16474717729E+04  0.19258442753E+04  0.12699999809E+01 0. -1.
</event>
<event>
 5   0  0.7217255E-06  0.2648535E+04  0.7818609E-02  0.8351899E-01
        2   -1    0    0  501    0  0.00000000000E+00  0.00000000000E+00  0.12915903941E+04  0.12915903941E+04  0.25500000920E-02 0.  1.
       -2   -1    0    0    0  501  0.00000000000E+00  0.00000000000E+00 -0.13577715657E+04  0.13577715657E+04  0.25500000920E-02 0. -1.
    10030    2    1    2    0    0  0.00000000000E+00  0.00000000000E+00 -0.66181171637E+02  0.26493619598E+04  0.26485352266E+04 0.  0.
        1    1    3    3  502    0 -0.89086160718E+03 -0.86827929474E+03 -0.48726025439E+03  0.13360261571E+04  0.50400001928E-02 0. -1.
       -1    1    3    3    0  502  0.89086160718E+03  0.86827929474E+03  0.42107908275E+03  0.13133358027E+04  0.50400001928E-02 0.  1.
</event>
<event>
 5   0  0.2504260E-06  0.3017025E+04  0.7818609E-02  0.8238886E-01
       -1   -1    0    0    0  501  0.00000000000E+00  0.00000000000E+00  0.11095155991E+04  0.11095155991E+04  0.50400001928E-02 0. -1.
        1   -1    0    0  501    0  0.00000000000E+00  0.00000000000E+00 -0.20509940176E+04  0.20509940176E+04  0.50400001928E-02 0.  1.
    10030    2    1    2    0    0  0.00000000000E+00  0.00000000000E+00 -0.94147841851E+03  0.31605096167E+04  0.30170249295E+04 0.  0.
        4    1    3    3  502    0 -0.13387280103E+04  0.31754611778E+03  0.17720760752E+03  0.13872391184E+04  0.12699999809E+01 0. -1.
       -4    1    3    3    0  502  0.13387280103E+04 -0.31754611778E+03 -0.11186860260E+04  0.17732704983E+04  0.12699999809E+01 0.  1.
</event>
<event>
 5   0  0.2504260E-06  0.2835114E+04  0.7818609E-02  0.8292449E-01
        1   -1    0    0  501    0  0.00000000000E+00  0.00000000000E+00  0.14253886372E+04  0.14253886372E+04  0.50400001928E-02 0.  1.
       -1   -1    0    0    0  501  0.00000000000E+00  0.00000000000E+00 -0.14097685582E+04  0.14097685582E+04  0.50400001928E-02 0. -1.
    10030    2    1    2    0    0  0.00000000000E+00  0.00000000000E+00  0.15620078978E+02  0.28351571955E+04  0.28351141663E+04 0.  0.
        4    1    3    3  502    0 -0.58225045416E+03 -0.78626231929E+02  0.12978950420E+04  0.14246862211E+04  0.12699999809E+01 0.  1.
       -4    1    3    3    0  502  0.58225045416E+03  0.78626231929E+02 -0.12822749630E+04  0.14104709743E+04  0.12699999809E+01 0. -1.
</event>
<event>
 5   0  0.6780150E-06  0.2906339E+04  0.7818609E-02  0.8270994E-01
        2   -1    0    0  501    0  0.00000000000E+00  0.00000000000E+00  0.19349488467E+04  0.19349488467E+04  0.25500000920E-02 0.  1.
       -2   -1    0    0    0  501  0.00000000000E+00  0.00000000000E+00 -0.10913478135E+04  0.10913478135E+04  0.25500000920E-02 0. -1.
    10030    2    1    2    0    0  0.00000000000E+00  0.00000000000E+00  0.84360103321E+03  0.30262966601E+04  0.29063394110E+04 0.  0.
        5    1    3    3  502    0  0.29266223157E+03  0.53319817098E+03 -0.95241678786E+03  0.11300757935E+04  0.46999998093E+01 0. -1.
       -5    1    3    3    0  502 -0.29266223157E+03 -0.53319817098E+03  0.17960178211E+04  0.18962208666E+04  0.46999998093E+01 0.  1.
</event>
<event>
 5   0  0.2672155E-06  0.2920366E+04  0.7818609E-02  0.8266844E-01
        1   -1    0    0  501    0  0.00000000000E+00  0.00000000000E+00  0.20861807144E+04  0.20861807144E+04  0.50400001928E-02 0. -1.
       -1   -1    0    0    0  501  0.00000000000E+00  0.00000000000E+00 -0.10220275214E+04  0.10220275215E+04  0.50400001928E-02 0.  1.
    10030    2    1    2    0    0  0.00000000000E+00  0.00000000000E+00  0.10641531929E+04  0.31082082358E+04  0.29203658023E+04 0.  0.
        5    1    3    3  502    0 -0.11918409857E+04  0.74644092625E+03  0.95036041043E+03  0.16973114008E+04  0.46999998093E+01 0. -1.
       -5    1    3    3    0  502  0.11918409857E+04 -0.74644092625E+03  0.11379278250E+03  0.14108968350E+04  0.46999998093E+01 0.  1.
</event>
<event>
 5   0  0.2298500E-06  0.2996887E+04  0.7818609E-02  0.8244621E-01
        3   -1    0    0  501    0  0.00000000000E+00  0.00000000000E+00  0.28566847227E+04  0.28566847245E+04  0.10100000352E+00 0.  1.
       -3   -1    0    0    0  501  0.00000000000E+00  0.00000000000E+00 -0.78599230869E+03  0.78599231517E+03  0.10100000352E+00 0. -1.
    10030    2    1    2    0    0  0.00000000000E+00  0.00000000000E+00  0.20706924140E+04  0.36426770397E+04  0.29968865414E+04 0.  0.
        2    1    3    3  502    0 -0.12600325716E+03 -0.87686650301E+03 -0.43361440194E+03  0.98630276005E+03  0.25500000920E-02 0. -1.
       -2    1    3    3    0  502  0.12600325716E+03  0.87686650301E+03  0.25043068160E+04  0.26563742796E+04  0.25500000920E-02 0.  1.
</event>
<event>
 5   0  0.6792811E-06  0.3002010E+04  0.7818609E-02  0.8243157E-01
        2   -1    0    0  501    0  0.00000000000E+00  0.00000000000E+00  0.18272505829E+04  0.18272505829E+04  0.25500000920E-02 0.  1.
       -2   -1    0    0    0  501  0.00000000000E+00  0.00000000000E+00 -0.12330090396E+04  0.12330090396E+04  0.25500000920E-02 0. -1.
    10030    2    1    2    0    0  0.00000000000E+00  0.00000000000E+00  0.59424154332E+03  0.30602596226E+04  0.30020103174E+04 0.  0.
        2    1    3    3  502    0 -0.64328775574E+03 -0.80782136298E+03 -0.81333761587E+03  0.13145008819E+04  0.25500000920E-02 0. -1.
       -2    1    3    3    0  502  0.64328775574E+03  0.80782136298E+03  0.14075791592E+04  0.17457587406E+04  0.25500000920E-02 0.  1.
</event>
<event>
 5   0  0.2552990E-06  0.2583946E+04  0.7818609E-02  0.8373675E-01
       -1   -1    0    0    0  501  0.00000000000E+00  0.00000000000E+00  0.10138571927E+04  0.10138571927E+04  0.50400001928E-02 0.  1.
        1   -1    0    0  501    0  0.00000000000E+00  0.00000000000E+00 -0.16463799313E+04  0.16463799313E+04  0.50400001928E-02 0. -1.
    10030    2    1    2    0    0  0.00000000000E+00  0.00000000000E+00 -0.63252273860E+03  0.26602371240E+04  0.25839459246E+04 0.  0.
        3    1    3    3  502    0  0.70839891111E+03  0.45808758478E+03 -0.13236824953E+04  0.15696523854E+04  0.10100000352E+00 0. -1.
       -3    1    3    3    0  502 -0.70839891111E+03 -0.45808758478E+03  0.69115975666E+03  0.10905847386E+04  0.10100000352E+00 0.  1.
</event>
<event>
 5   0  0.7201538E-06  0.2989352E+04  0.7818609E-02  0.8246778E-01
        2   -1    0    0  501    0  0.00000000000E+00  0.00000000000E+00  0.14604206514E+04  0.14604206514E+04  0.25500000920E-02 0. -1.
       -2   -1    0    0    0  501  0.00000000000E+00  0.00000000000E+00 -0.15297351351E+04  0.15297351351E+04  0.25500000920E-02 0.  1.
    10030    2    1    2    0    0  0.00000000000E+00  0.00000000000E+00 -0.69314483700E+02  0.29901557866E+04  0.29893522928E+04 0.  0.
        3    1    3    3  502    0 -0.53906776093E+03  0.60668527084E+02  0.13584776981E+04  0.14627837802E+04  0.10100000352E+00 0. -1.
       -3    1    3    3    0  502  0.53906776093E+03 -0.60668527084E+02 -0.14277921818E+04  0.15273720064E+04  0.10100000352E+00 0.  1.
</event>
<event>
 5   0  0.7193153E-06  0.3006404E+04  0.7818609E-02  0.8241905E-01
        2   -1    0    0  501    0  0.00000000000E+00  0.00000000000E+00  0.26352659465E+04  0.26352659465E+04  0.25500000920E-02 0. -1.
       -2   -1    0    0    0  501  0.00000000000E+00  0.00000000000E+00 -0.85745278740E+03  0.85745278741E+03  0.25500000920E-02 0.  1.
    10030    2    1    2    0    0  0.00000000000E+00  0.00000000000E+00  0.17778131591E+04  0.34927187339E+04  0.30064039192E+04 0.  0.
        4    1    3    3  502    0 -0.10405999882E+03  0.73935461443E+03 -0.62679612044E+03  0.97485830701E+03  0.12699999809E+01 0.  1.
       -4    1    3    3    0  502  0.10405999882E+03 -0.73935461443E+03  0.24046092795E+04  0.25178604269E+04  0.12699999809E+01 0. -1.
</event>
<event>
 5   0  0.7193153E-06  0.2931611E+04  0.7818609E-02  0.8263534E-01
        2   -1    0    0  501    0  0.00000000000E+00  0.00000000000E+00  0.16235932118E+04  0.16235932118E+04  0.25500000920E-02 0.  1.
       -2   -1    0    0    0  501  0.00000000000E+00  0.00000000000E+00 -0.13233525325E+04  0.13233525325E+04  0.25500000920E-02 0. -1.
    10030    2    1    2    0    0  0.00000000000E+00  0.00000000000E+00  0.30024067925E+03  0.29469457443E+04  0.29316112898E+04 0.  0.
        4    1    3    3  502    0 -0.92455303093E+03  0.62151388394E+03 -0.80749410703E+03  0.13759092124E+04  0.12699999809E+01 0. -1.
       -4    1    3    3    0  502  0.92455303093E+03 -0.62151388394E+03  0.11077347863E+04  0.15710365319E+04  0.12699999809E+01 0.  1.
</event>
<event>
 5   0  0.2422083E-06  0.2960233E+04  0.7818609E-02  0.8255178E-01
       -1   -1    0    0    0  501  0.00000000000E+00  0.00000000000E+00  0.11696157693E+04  0.11696157693E+04  0.50400001928E-02 0. -1.
        1   -1    0    0  501    0  0.00000000000E+00  0.00000000000E+00 -0.18730471688E+04  0.18730471689E+04  0.50400001928E-02 0.  1.
    10030    2    1    2    0    0  0.00000000000E+00  0.00000000000E+00 -0.70343139956E+03  0.30426629381E+04  0.29602334403E+04 0.  0.
        2    1    3    3  502    0 -0.13851026062E+03  0.13456062139E+04 -0.96919717135E+03  0.16640866360E+04  0.25500000920E-02 0.  1.
       -2    1    3    3    0  502  0.13851026062E+03 -0.13456062139E+04  0.26576577179E+03  0.13785763021E+04  0.25500000920E-02 0. -1.
</event>
<event>
 5   0  0.7217255E-06  0.2966589E+04  0.7818609E-02  0.8253337E-01
       -2   -1    0    0    0  501  0.00000000000E+00  0.00000000000E+00  0.12547659487E+04  0.12547659487E+04  0.25500000920E-02 0. -1.
        2   -1    0    0  501    0  0.00000000000E+00  0.00000000000E+00 -0.17534440955E+04  0.17534440955E+04  0.25500000920E-02 0.  1.
    10030    2    1    2    0    0  0.00000000000E+00  0.00000000000E+00 -0.49867814681E+03  0.30082100442E+04  0.29665885754E+04 0.  0.
        1    1    3    3  502    0  0.14139635259E+04  0.29999901770E+03  0.88303526202E+02  0.14481332038E+04  0.50400001928E-02 0. -1.
       -1    1    3    3    0  502 -0.14139635259E+04 -0.29999901770E+03 -0.58698167301E+03  0.15600768403E+04  0.50400001928E-02 0.  1.
</event>
<event>
 5   0  0.2628425E-06  0.3022698E+04  0.7818609E-02  0.8237279E-01
        1   -1    0    0  501    0  0.00000000000E+00  0.00000000000E+00  0.18468891547E+04  0.18468891547E+04  0.50400001928E-02 0. -1.
       -1   -1    0    0    0  501  0.00000000000E+00  0.00000000000E+00 -0.12367692533E+04  0.12367692533E+04  0.50400001928E-02 0.  1.
    10030    2    1    2    0    0  0.00000000000E+00  0.00000000000E+00  0.61011990145E+03  0.30836584080E+04  0.30226979477E+04 0.  0.
        1    1    3    3  502    0  0.76639681173E+03 -0.38474923317E+03 -0.96453834960E+03  0.12906317342E+04  0.50400001928E-02 0.  1.
       -1    1    3    3    0  502 -0.76639681173E+03  0.38474923317E+03  0.15746582510E+04  0.17930266738E+04  0.50400001928E-02 0. -1.
</event>
<event>
 5   0  0.2672155E-06  0.2991076E+04  0.7818609E-02  0.8246284E-01
       -1   -1    0    0    0  501  0.00000000000E+00  0.00000000000E+00  0.13063580242E+04  0.13063580242E+04  0.50400001928E-02 0. -1.
        1   -1    0    0  501    0  0.00000000000E+00  0.00000000000E+00 -0.17121141331E+04  0.17121141331E+04  0.50400001928E-02 0.  1.
    10030    2    1    2    0    0  0.00000000000E+00  0.00000000000E+00 -0.40575610890E+03  0.30184721572E+04  0.29910760846E+04 0.  0.
        5    1    3    3  502    0  0.36930433315E+03  0.62318830076E+03  0.11174874373E+04  0.13317468270E+04  0.46999998093E+01 0. -1.
       -5    1    3    3    0  502 -0.36930433315E+03 -0.62318830076E+03 -0.15232435462E+04  0.16867253302E+04  0.46999998093E+01 0.  1.
</event>
<event>
 5   0  0.7217255E-06  0.2996159E+04  0.7818609E-02  0.8244828E-01
       -2   -1    0    0    0  501  0.00000000000E+00  0.00000000000E+00  0.14123065188E+04  0.14123065188E+04  0.25500000920E-02 0.  1.
        2   -1    0    0  501    0  0.00000000000E+00  0.00000000000E+00 -0.15890621539E+04  0.15890621539E+04  0.25500000920E-02 0. -1.
    10030    2    1    2    0    0  0.00000000000E+00  0.00000000000E+00 -0.17675563508E+03  0.30013686727E+04  0.29961594342E+04 0.  0.
        1    1    3    3  502    0  0.14405448297E+04  0.38741564638E+03  0.49638899892E+02  0.14925563004E+04  0.50400001928E-02 0. -1.
       -1    1    3    3    0  502 -0.14405448297E+04 -0.38741564638E+03 -0.22639453497E+03  0.15088123723E+04  0.50400001928E-02 0.  1.
</event>
<event>
 5   0  0.2672155E-06  0.3012105E+04  0.7818609E-02  0.8240283E-01
       -1   -1    0    0    0  501  0.00000000000E+00  0.00000000000E+00  0.17015445565E+04  0.17015445565E+04  0.50400001928E-02 0.  1.
        1   -1    0    0  501    0  0.00000000000E+00  0.00000000000E+00 -0.13330209266E+04  0.13330209266E+04  0.50400001928E-02 0. -1.
    10030    2    1    2    0    0  0.00000000000E+00  0.00000000000E+00  0.36852362990E+03  0.30345654832E+04  0.30121052448E+04 0.  0.
        5    1    3    3  502    0 -0.97030933456E+03 -0.39190690838E+03 -0.90690313014E+03  0.13847695140E+04  0.46999998093E+01 0. -1.
       -5    1    3    3    0  502  0.97030933456E+03  0.39190690838E+03  0.12754267600E+04  0.16497959691E+04  0.46999998093E+01 0.  1.
</event>
<event>
 5   0  0.2552990E-06  0.3043088E+04  0.7818609E-02  0.8231533E-01
        1   -1    0    0  501    0  0.00000000000E+00  0.00000000000E+00  0.12086229112E+04  0.12086229112E+04  0.50400001928E-02 0. -1.
       -1   -1    0    0    0  501  0.00000000000E+00  0.00000000000E+00 -0.19154827806E+04  0.19154827806E+04  0.50400001928E-02 0.  1.
    10030    2    1    2    0    0  0.00000000000E+00  0.00000000000E+00 -0.70685986940E+03  0.31241056918E+04  0.30430881516E+04 0.  0.
        3    1    3    3  502    0  0.19875476519E+03 -0.75722735931E+03  0.98598899183E+03  0.12589960415E+04  0.10100000352E+00 0. -1.
       -3    1    3    3    0  502 -0.19875476519E+03  0.75722735931E+03 -0.16928488612E+04  0.18651096503E+04  0.10100000352E+00 0.  1.
</event>
<event>
 5   0  0.2504260E-06  0.3000264E+04  0.7818609E-02  0.8243655E-01
       -1   -1    0    0    0  501  0.00000000000E+00  0.00000000000E+00  0.17939581216E+04  0.17939581216E+04  0.50400001928E-02 0.  1.
        1   -1    0    0  501    0  0.00000000000E+00  0.00000000000E+00 -0.12544308680E+04  0.12544308680E+04  0.50400001928E-02 0. -1.
    10030    2    1    2    0    0  0.00000000000E+00  0.00000000000E+00  0.53952725361E+03  0.30483889896E+04  0.30002642841E+04 0.  0.
        4    1    3    3  502    0 -0.11489222438E+04  0.84371430846E+03  0.74472156488E+03  0.16082561919E+04  0.12699999809E+01 0.  1.
       -4    1    3    3    0  502  0.11489222438E+04 -0.84371430846E+03 -0.20519431127E+03  0.14401327977E+04  0.12699999809E+01 0. -1.
</event>
<event>
 5   0  0.6780150E-06  0.3067527E+04  0.7818609E-02  0.8224707E-01
       -2   -1    0    0    0  501  0.00000000000E+00  0.00000000000E+00  0.12378050110E+04  0.12378050110E+04  0.25500000920E-02 0. -1.
        2   -1    0    0  501    0  0.00000000000E+00  0.00000000000E+00 -0.19004850790E+04  0.19004850790E+04  0.25500000920E-02 0.  1.
    10030    2    1    2    0    0  0.00000000000E+00  0.00000000000E+00 -0.66268006797E+03  0.31382900900E+04  0.30675266611E+04 0.  0.
        5    1    3    3  502    0 -0.62009475579E+02  0.15323032749E+04 -0.35659475955E+03  0.15744778226E+04  0.46999998093E+01 0. -1.
       -5    1    3    3    0  502  0.62009475579E+02 -0.15323032749E+04 -0.30608530842E+03  0.15638122673E+04  0.46999998093E+01 0.  1.
</event>
<event>
 5   0  0.7217255E-06  0.3025227E+04  0.7818609E-02  0.8236564E-01
        2   -1    0    0  501    0  0.00000000000E+00  0.00000000000E+00  0.24681333673E+04  0.24681333673E+04  0.25500000920E-02 0. -1.
       -2   -1    0    0    0  501  0.00000000000E+00  0.00000000000E+00 -0.92701638875E+03  0.92701638875E+03  0.25500000920E-02 0.  1.
    10030    2    1    2    0    0  0.00000000000E+00  0.00000000000E+00  0.15411169786E+04  0.33951497561E+04  0.30252273178E+04 0.  0.
        1    1    3    3  502    0  0.24398882803E+03  0.11861150669E+04  0.17878169033E+04  0.21593260013E+04  0.50400001928E-02 0. -1.
       -1    1    3    3    0  502 -0.24398882803E+03 -0.11861150669E+04 -0.24669992470E+03  0.12358237548E+04  0.50400001928E-02 0.  1.
</event>
<event>
 5   0  0.2422083E-06  0.2983310E+04  0.7818609E-02  0.8248513E-01
       -1   -1    0    0    0  501  0.00000000000E+00  0.00000000000E+00  0.15365632989E+04  0.15365632989E+04  0.50400001928E-02 0.  1.
        1   -1    0    0  501    0  0.00000000000E+00  0.00000000000E+00 -0.14480594764E+04  0.14480594764E+04  0.50400001928E-02 0. -1.
    10030    2    1    2    0    0  0.00000000000E+00  0.00000000000E+00  0.88503822482E+02  0.29846227752E+04  0.29833102728E+04 0.  0.
        2    1    3    3  502    0  0.83523318036E+03 -0.11771757459E+04  0.42081868206E+03  0.15034778234E+04  0.25500000920E-02 0.  1.
       -2    1    3    3    0  502 -0.83523318036E+03  0.11771757459E+04 -0.33231485958E+03  0.14811449518E+04  0.25500000920E-02 0. -1.
</event>
<event>
 5   0  0.2672155E-06  0.3051858E+04  0.7818609E-02  0.8229076E-01
       -1   -1    0    0    0  501  0.00000000000E+00  0.00000000000E+00  0.11011664235E+04  0.11011664235E+04  0.50400001928E-02 0. -1.
        1   -1    0    0  501    0  0.00000000000E+00  0.00000000000E+00 -0.21145386369E+04  0.21145386369E+04  0.50400001928E-02 0.  1.
    10030    2    1    2    0    0  0.00000000000E+00  0.00000000000E+00 -0.10133722134E+04  0.32157050604E+04  0.30518577608E+04 0.  0.
        5    1    3    3  502    0  0.58706567944E+03 -0.11295609899E+04 -0.13932143478E+04  0.18872261261E+04  0.46999998093E+01 0.  1.
       -5    1    3    3    0  502 -0.58706567944E+03  0.11295609899E+04  0.37984213439E+03  0.13284789343E+04  0.46999998093E+01 0. -1.
</event>
<event>
 5   0  0.7201538E-06  0.2762495E+04  0.7818609E-02  0.8315008E-01
        2   -1    0    0  501    0  0.00000000000E+00  0.00000000000E+00  0.13462669775E+04  0.13462669775E+04  0.25500000920E-02 0.  1.
       -2   -1    0    0    0  501  0.00000000000E+00  0.00000000000E+00 -0.14171371498E+04  0.14171371498E+04  0.25500000920E-02 0. -1.
    10030    2    1    2    0    0  0.00000000000E+00  0.00000000000E+00 -0.70870172303E+02  0.27634041272E+04  0.27624952107E+04 0.  0.
        3    1    3    3  502    0  0.27506989741E+03 -0.68401682443E+03  0.11329828126E+04  0.13517368562E+04  0.10100000352E+00 0.  1.
       -3    1    3    3    0  502 -0.27506989741E+03  0.68401682443E+03 -0.12038529849E+04  0.14116672710E+04  0.10100000352E+00 0. -1.
</event>
<event>
 5   0  0.7217255E-06  0.3002242E+04  0.7818609E-02  0.8243091E-01
        2   -1    0    0  501    0  0.00000000000E+00  0.00000000000E+00  0.90840994108E+03  0.90840994108E+03  0.25500000920E-02 0.  1.
       -2   -1    0    0    0  501  0.00000000000E+00  0.00000000000E+00 -0.24805580810E+04  0.24805580810E+04  0.25500000920E-02 0. -1.
    10030    2    1    2    0    0  0.00000000000E+00  0.00000000000E+00 -0.15721481400E+04  0.33889680221E+04  0.30022415760E+04 0.  0.
        1    1    3    3  502    0 -0.20285656385E+02 -0.10801956782E+04 -0.19624946751E+04  0.22402275690E+04  0.50400001928E-02 0. -1.
       -1    1    3    3    0  502  0.20285656385E+02  0.10801956782E+04  0.39034653516E+03  0.11487404531E+04  0.50400001928E-02 0.  1.
</event>
<event>
 5   0  0.2298500E-06  0.3115083E+04  0.7818609E-02  0.8211611E-01
        3   -1    0    0  501    0  0.00000000000E+00  0.00000000000E+00  0.17601686104E+04  0.17601686133E+04  0.10100000352E+00 0.  1.
       -3   -1    0    0    0  501  0.00000000000E+00  0.00000000000E+00 -0.13782406699E+04  0.13782406736E+04  0.10100000352E+00 0. -1.
    10030    2    1    2    0    0  0.00000000000E+00  0.00000000000E+00  0.38192794050E+03  0.31384092869E+04  0.31150832895E+04 0.  0.
        1    1    3    3  502    0  0.15299529615E+04  0.16164806381E+03 -0.53857321382E+02  0.15394111770E+04  0.50400001928E-02 0. -1.
       -1    1    3    3    0  502 -0.15299529615E+04 -0.16164806381E+03  0.43578526189E+03  0.15989981099E+04  0.50400001928E-02 0.  1.
</event>
<event>
 5   0  0.2422083E-06  0.2794622E+04  0.7818609E-02  0.8304940E-01
       -1   -1    0    0    0  501  0.00000000000E+00  0.00000000000E+00  0.13314874007E+04  0.13314874007E+04  0.50400001928E-02 0. -1.
        1   -1    0    0  501    0  0.00000000000E+00  0.00000000000E+00 -0.14663885184E+04  0.14663885184E+04  0.50400001928E-02 0.  1.
    10030    2    1    2    0    0  0.00000000000E+00  0.00000000000E+00 -0.13490111765E+03  0.27978759191E+04  0.27946218612E+04 0.  0.
        2    1    3    3  502    0 -0.14722225166E+03  0.13805696570E+04  0.90311057130E+02  0.13913313969E+04  0.25500000920E-02 0.  1.
       -2    1    3    3    0  502  0.14722225166E+03 -0.13805696570E+04 -0.22521217478E+03  0.14065445221E+04  0.25500000920E-02 0. -1.
</event>
<event>
 5   0  0.2672155E-06  0.2980713E+04  0.7818609E-02  0.8249260E-01
       -1   -1    0    0    0  501  0.00000000000E+00  0.00000000000E+00  0.15140678407E+04  0.15140678408E+04  0.50400001928E-02 0. -1.
        1   -1    0    0  501    0  0.00000000000E+00  0.00000000000E+00 -0.14670161806E+04  0.14670161806E+04  0.50400001928E-02 0.  1.
    10030    2    1    2    0    0  0.00000000000E+00  0.00000000000E+00  0.47051660126E+02  0.29810840214E+04  0.29807126805E+04 0.  0.
        5    1    3    3  502    0 -0.95014415330E+03  0.21781636928E+03 -0.11039664023E+04  0.14727463428E+04  0.46999998093E+01 0.  1.
       -5    1    3    3    0  502  0.95014415330E+03 -0.21781636928E+03  0.11510180624E+04  0.15083376786E+04  0.46999998093E+01 0. -1.
</event>
<event>
 5   0  0.2422083E-06  0.3029726E+04  0.7818609E-02  0.8235293E-01
        1   -1    0    0  501    0  0.00000000000E+00  0.00000000000E+00  0.11524603327E+04  0.11524603327E+04  0.50400001928E-02 0. -1.
       -1   -1    0    0    0  501  0.00000000000E+00  0.00000000000E+00 -0.19912269878E+04  0.19912269878E+04  0.50400001928E-02 0.  1.
    10030    2    1    2    0    0  0.00000000000E+00  0.00000000000E+00 -0.83876665513E+03  0.31436873206E+04  0.30297261374E+04 0.  0.
        2    1    3    3  502    0 -0.74976928798E+03 -0.11114293658E+04 -0.11511633014E+04  0.17670897450E+04  0.25500000920E-02 0.  1.
       -2    1    3    3    0  502  0.74976928798E+03  0.11114293658E+04  0.31239664627E+03  0.13765975756E+04  0.25500000920E-02 0. -1.
</event>
<event>
 5   0  0.2672155E-06  0.3014661E+04  0.7818609E-02  0.8239557E-01
        1   -1    0    0  501    0  0.00000000000E+00  0.00000000000E+00  0.22273050668E+04  0.22273050668E+04  0.50400001928E-02 0. -1.
       -1   -1    0    0    0  501  0.00000000000E+00  0.00000000000E+00 -0.10200873166E+04  0.10200873166E+04  0.50400001928E-02 0.  1.
    10030    2    1    2    0    0  0.00000000000E+00  0.00000000000E+00  0.12072177502E+04  0.32473923834E+04  0.30146612737E+04 0.  0.
        5    1    3    3  502    0 -0.98615458409E+03  0.60132977538E+03 -0.43962179659E+03  0.12358753078E+04  0.46999998093E+01 0.  1.
       -5    1    3    3    0  502  0.98615458409E+03 -0.60132977538E+03  0.16468395468E+04  0.20115170755E+04  0.46999998093E+01 0. -1.
</event>
<event>
 5   0  0.2422083E-06  0.3014341E+04  0.7818609E-02  0.8239648E-01
       -1   -1    0    0    0  501  0.00000000000E+00  0.00000000000E+00  0.20325282481E+04  0.20325282481E+04  0.50400001928E-02 0. -1.
        1   -1    0    0  501    0  0.00000000000E+00  0.00000000000E+00 -0.11176046055E+04  0.11176046055E+04  0.50400001928E-02 0.  1.
    10030    2    1    2    0    0  0.00000000000E+00  0.00000000000E+00  0.91492364257E+03  0.31501328536E+04  0.30143410098E+04 0.  0.
        2    1    3    3  502    0 -0.43411734528E+03 -0.92613439716E+03  0.16142981183E+04  0.19110576144E+04  0.25500000920E-02 0. -1.
       -2    1    3    3    0  502  0.43411734528E+03  0.92613439716E+03 -0.69937447569E+03  0.12390752392E+04  0.25500000920E-02 0.  1.
</event>
<event>
 5   0  0.7201538E-06  0.2992628E+04  0.7818609E-02  0.8245839E-01
        2   -1    0    0  501    0  0.00000000000E+00  0.00000000000E+00  0.19173794889E+04  0.19173794889E+04  0.25500000920E-02 0. -1.
       -2   -1    0    0    0  501  0.00000000000E+00  0.00000000000E+00 -0.11677162515E+04  0.11677162515E+04  0.25500000920E-02 0.  1.
    10030    2    1    2    0    0  0.00000000000E+00  0.00000000000E+00  0.74966323745E+03  0.30850957404E+04  0.29926277346E+04 0.  0.
        3    1    3    3  502    0  0.14684165296E+04 -0.24480061044E+03  0.53042811969E+03  0.15803570620E+04  0.10100000352E+00 0. -1.
       -3    1    3    3    0  502 -0.14684165296E+04  0.24480061044E+03  0.21923511776E+03  0.15047386784E+04  0.10100000352E+00 0.  1.
</event>
<event>
 5   0  0.6792811E-06  0.3017423E+04  0.7818609E-02  0.8238773E-01
       -2   -1    0    0    0  501  0.00000000000E+00  0.00000000000E+00  0.15064993106E+04  0.15064993106E+04  0.25500000920E-02 0. -1.
        2   -1    0    0  501    0  0.00000000000E+00  0.00000000000E+00 -0.15109266756E+04  0.15109266756E+04  0.25500000920E-02 0.  1.
    10030    2    1    2    0    0  0.00000000000E+00  0.00000000000E+00 -0.44273650185E+01  0.30174259862E+04  0.30174227381E+04 0.  0.
        2    1    3    3  502    0  0.12649905396E+04  0.16206394271E+03  0.80385430919E+03  0.15075302773E+04  0.25500000920E-02 0. -1.
       -2    1    3    3    0  502 -0.12649905396E+04 -0.16206394271E+03 -0.80828167421E+03  0.15098957088E+04  0.25500000920E-02 0.  1.
</event>
<event>
 5   0  0.7217255E-06  0.2858518E+04  0.7818609E-02  0.8285328E-01
        2   -1    0    0  501    0  0.00000000000E+00  0.00000000000E+00  0.18812309972E+04  0.18812309972E+04  0.25500000920E-02 0. -1.
       -2   -1    0    0    0  501  0.00000000000E+00  0.00000000000E+00 -0.10858750400E+04  0.10858750400E+04  0.25500000920E-02 0.  1.
    10030    2    1    2    0    0  0.00000000000E+00  0.00000000000E+00  0.79535595720E+03  0.29671060372E+04  0.28585183465E+04 0.  0.
        1    1    3    3  502    0 -0.26329966689E+03  0.92556279608E+03  0.14946045721E+04  0.17775927630E+04  0.50400001928E-02 0.  1.
       -1    1    3    3    0  502  0.26329966689E+03 -0.92556279608E+03 -0.69924861490E+03  0.11895132742E+04  0.50400001928E-02 0. -1.
</event>
<event>
 5   0  0.2422083E-06  0.2612102E+04  0.7818609E-02  0.8364102E-01
       -1   -1    0    0    0  501  0.00000000000E+00  0.00000000000E+00  0.12369645904E+04  0.12369645904E+04  0.50400001928E-02 0.  1.
        1   -1    0    0  501    0  0.00000000000E+00  0.00000000000E+00 -0.13789957852E+04  0.13789957852E+04  0.50400001928E-02 0. -1.
    10030    2    1    2    0    0  0.00000000000E+00  0.00000000000E+00 -0.14203119487E+03  0.26159603756E+04  0.26121018025E+04 0.  0.
        2    1    3    3  502    0 -0.31941727274E+03 -0.44927774908E+03  0.11147482270E+04  0.12436002169E+04  0.25500000920E-02 0.  1.
       -2    1    3    3    0  502  0.31941727274E+03  0.44927774908E+03 -0.12567794219E+04  0.13723601587E+04  0.25500000920E-02 0. -1.
</event>
<event>
 5   0  0.7193153E-06  0.2976016E+04  0.7818609E-02  0.8250613E-01
       -2   -1    0    0    0  501  0.00000000000E+00  0.00000000000E+00  0.12858445433E+04  0.12858445433E+04  0.25500000920E-02 0.  1.
        2   -1    0    0  501    0  0.00000000000E+00  0.00000000000E+00 -0.17219557758E+04  0.17219557758E+04  0.25500000920E-02 0. -1.
    10030    2    1    2    0    0  0.00000000000E+00  0.00000000000E+00 -0.43611123255E+03  0.30078003192E+04  0.29760157514E+04 0.  0.
        4    1    3    3  502    0  0.95163431799E+03  0.10053304830E+04  0.33354674406E+03  0.14239214510E+04  0.12699999809E+01 0.  1.
       -4    1    3    3    0  502 -0.95163431799E+03 -0.10053304830E+04 -0.76965797661E+03  0.15838788682E+04  0.12699999809E+01 0. -1.
</event>
<event>
 5   0  0.2628425E-06  0.2960057E+04  0.7818609E-02  0.8255230E-01
       -1   -1    0    0    0  501  0.00000000000E+00  0.00000000000E+00  0.13835686788E+04  0.13835686788E+04  0.50400001928E-02 0. -1.
        1   -1    0    0  501    0  0.00000000000E+00  0.00000000000E+00 -0.15832130545E+04  0.15832130545E+04  0.50400001928E-02 0.  1.
    10030    2    1    2    0    0  0.00000000000E+00  0.00000000000E+00 -0.19964437569E+03  0.29667817333E+04  0.29600567523E+04 0.  0.
        1    1    3    3  502    0  0.42908324157E+03 -0.13756041838E+04 -0.43835381799E+03  0.15061717592E+04  0.50400001928E-02 0.  1.
       -1    1    3    3    0  502 -0.42908324157E+03  0.13756041838E+04  0.23870944231E+03  0.14606099741E+04  0.50400001928E-02 0. -1.
</event>
<event>
 5   0  0.2504260E-06  0.2937219E+04  0.7818609E-02  0.8261889E-01
       -1   -1    0    0    0  501  0.00000000000E+00  0.00000000000E+00  0.14057596192E+04  0.14057596192E+04  0.50400001928E-02 0. -1.
        1   -1    0    0  501    0  0.00000000000E+00  0.00000000000E+00 -0.15342689789E+04  0.15342689789E+04  0.50400001928E-02 0.  1.
    10030    2    1    2    0    0  0.00000000000E+00  0.00000000000E+00 -0.12850935967E+03  0.29400285981E+04  0.29372186678E+04 0.  0.
        4    1    3    3  502    0 -0.98352954956E+03 -0.59365477612E+03 -0.98003725319E+03  0.15100433764E+04  0.12699999809E+01 0.  1.
       -4    1    3    3    0  502  0.98352954956E+03  0.59365477612E+03  0.85152789352E+03  0.14299852217E+04  0.12699999809E+01 0. -1.
</event>
<event>
 5   0  0.7201538E-06  0.3020744E+04  0.7818609E-02  0.8237832E-01
        2   -1    0    0  501    0  0.00000000000E+00  0.00000000000E+00  0.17391558590E+04  0.17391558590E+04  0.25500000920E-02 0.  1.
       -2   -1    0    0    0  501  0.00000000000E+00  0.00000000000E+00 -0.13116842241E+04  0.13116842241E+04  0.25500000920E-02 0. -1.
    10030    2    1    2    0    0  0.00000000000E+00  0.00000000000E+00  0.42747163491E+03  0.30508400831E+04  0.30207438181E+04 0.  0.
        3    1    3    3  502    0  0.43566939407E+03 -0.69669697333E+03 -0.10661823771E+04  0.13460829710E+04  0.10100000352E+00 0. -1.
       -3    1    3    3    0  502 -0.43566939407E+03  0.69669697333E+03  0.14936540120E+04  0.17047571121E+04  0.10100000352E+00 0.  1.
</event>
<event>
 5   0  0.2672155E-06  0.3019163E+04  0.7818609E-02  0.8238280E-01
       -1   -1    0    0    0  501  0.00000000000E+00  0.00000000000E+00  0.10039284972E+04  0.10039284973E+04  0.50400001928E-02 0.  1.
        1   -1    0    0  501    0  0.00000000000E+00  0.00000000000E+00 -0.22699184774E+04  0.22699184774E+04  0.50400001928E-02 0. -1.
    10030    2    1    2    0    0  0.00000000000E+00  0.00000000000E+00 -0.12659899801E+04  0.32738469747E+04  0.30191626958E+04 0.  0.
        5    1    3    3  502    0 -0.59012003958E+02  0.13969401746E+04 -0.12501159334E+04  0.18755629035E+04  0.46999998093E+01 0. -1.
       -5    1    3    3    0  502  0.59012003958E+02 -0.13969401746E+04 -0.15874046725E+02  0.13982840711E+04  0.46999998093E+01 0.  1.
</event>
<event>
 5   0  0.7201538E-06  0.2997416E+04  0.7818609E-02  0.8244469E-01
       -2   -1    0    0    0  501  0.00000000000E+00  0.00000000000E+00  0.11671661892E+04  0.11671661892E+04  0.25500000920E-02 0.  1.
        2   -1    0    0  501    0  0.00000000000E+00  0.00000000000E+00 -0.19244264709E+04  0.19244264709E+04  0.25500000920E-02 0. -1.
    10030    2    1    2    0    0  0.00000000000E+00  0.00000000000E+00 -0.75726028173E+03  0.30915926600E+04  0.29974158940E+04 0.  0.
        3    1    3    3  502    0  0.82446811123E+03 -0.12193851054E+04 -0.66940588524E+03  0.16170194653E+04  0.10100000352E+00 0.  1.
       -3    1    3    3    0  502 -0.82446811123E+03  0.12193851054E+04 -0.87854396490E+02  0.14745731948E+04  0.10100000352E+00 0. -1.
</event>
<event>
 5   0  0.2504260E-06  0.2949922E+04  0.7818609E-02  0.8258177E-01
       -1   -1    0    0    0  501  0.00000000000E+00  0.00000000000E+00  0.13740724092E+04  0.13740724092E+04  0.50400001928E-02 0.  1.
        1   -1    0    0  501    0  0.00000000000E+00  0.00000000000E+00 -0.15832567372E+04  0.15832567372E+04  0.50400001928E-02 0. -1.
    10030    2    1    2    0    0  0.00000000000E+00  0.00000000000E+00 -0.20918432796E+03  0.29573291464E+04  0.29499216256E+04 0.  0.
        4    1    3    3  502    0 -0.24465748046E+02 -0.11495851040E+04 -0.10306885026E+04  0.15441712621E+04  0.12699999809E+01 0. -1.
       -4    1    3    3    0  502  0.24465748046E+02  0.11495851040E+04  0.82150417468E+03  0.14131578844E+04  0.12699999809E+01 0.  1.
</event>
<event>
 5   0  0.2672155E-06  0.2513872E+04  0.7818609E-02  0.8398060E-01
        1   -1    0    0  501    0  0.00000000000E+00  0.00000000000E+00  0.17722993239E+04  0.17722993239E+04  0.50400001928E-02 0. -1.
       -1   -1    0    0    0  501  0.00000000000E+00  0.00000000000E+00 -0.89143445095E+03  0.89143445096E+03  0.50400001928E-02 0.  1.
    10030    2    1    2    0    0  0.00000000000E+00  0.00000000000E+00  0.88086487296E+03  0.26637337749E+04  0.25138724508E+04 0.  0.
        5    1    3    3  502    0  0.64231796662E+03  0.10158010437E+04  0.50468014891E+02  0.12029103213E+04  0.46999998093E+01 0. -1.
       -5    1    3    3    0  502 -0.64231796662E+03 -0.10158010437E+04  0.83039685807E+03  0.14608234536E+04  0.46999998093E+01 0.  1.
</event>
<event>
 5   0  0.6780150E-06  0.3043762E+04  0.7818609E-02  0.8231344E-01
       -2   -1    0    0    0  501  0.00000000000E+00  0.00000000000E+00  0.11957304555E+04  0.11957304555E+04  0.25500000920E-02 0.  1.
        2   -1    0    0  501    0  0.00000000000E+00  0.00000000000E+00 -0.19369934429E+04  0.19369934429E+04  0.25500000920E-02 0. -1.
    10030    2    1    2    0    0  0.00000000000E+00  0.00000000000E+00 -0.74126298739E+03  0.31327238984E+04  0.30437621798E+04 0.  0.
        5    1    3    3  502    0 -0.46808486495E+02 -0.15674429831E+03 -0.19279109931E+04  0.19348443598E+04  0.46999998093E+01 0. -1.
       -5    1    3    3    0  502  0.46808486495E+02  0.15674429831E+03  0.11866480057E+04  0.11978795385E+04  0.46999998093E+01 0.  1.
</event>
<event>
 5   0  0.2628425E-06  0.3003717E+04  0.7818609E-02  0.8242670E-01
       -1   -1    0    0    0  501  0.00000000000E+00  0.00000000000E+00  0.76891658251E+03  0.76891658253E+03  0.50400001928E-02 0.  1.
        1   -1    0    0  501    0  0.00000000000E+00  0.00000000000E+00 -0.29334516521E+04  0.29334516521E+04  0.50400001928E-02 0. -1.
    10030    2    1    2    0    0  0.00000000000E+00  0.00000000000E+00 -0.21645350696E+04  0.37023682346E+04  0.30037174430E+04 0.  0.
        1    1    3    3  502    0 -0.73335502341E+03 -0.75459730318E+03  0.23859684239E+03  0.10789602094E+04  0.50400001928E-02 0.  1.
       -1    1    3    3    0  502  0.73335502341E+03  0.75459730318E+03 -0.24031319119E+04  0.26234080252E+04  0.50400001928E-02 0. -1.
</event>
<event>
 5   0  0.6780150E-06  0.2955717E+04  0.7818609E-02  0.8256490E-01
        2   -1    0    0  501    0  0.00000000000E+00  0.00000000000E+00  0.28279482397E+04  0.28279482397E+04  0.25500000920E-02 0. -1.
       -2   -1    0    0    0  501  0.00000000000E+00  0.00000000000E+00 -0.77231460166E+03  0.77231460167E+03  0.25500000920E-02 0.  1.
    10030    2    1    2    0    0  0.00000000000E+00  0.00000000000E+00  0.20556336380E+04  0.36002628414E+04  0.29557169812E+04 0.  0.
        5    1    3    3  502    0  0.10085364676E+04  0.40073974274E+03 -0.19408491273E+03  0.11024650522E+04  0.46999998093E+01 0.  1.
       -5    1    3    3    0  502 -0.10085364676E+04 -0.40073974274E+03  0.22497185508E+04  0.24977977892E+04  0.46999998093E+01 0. -1.
</event>
<event>
 5   0  0.2422083E-06  0.3091292E+04  0.7818609E-02  0.8218132E-01
       -1   -1    0    0    0  501  0.00000000000E+00  0.00000000000E+00  0.11705624567E+04  0.11705624567E+04  0.50400001928E-02 0.  1.
        1   -1    0    0  501    0  0.00000000000E+00  0.00000000000E+00 -0.20409171672E+04  0.20409171672E+04  0.50400001928E-02 0. -1.
    10030    2    1    2    0    0  0.00000000000E+00  0.00000000000E+00 -0.87035471048E+03  0.32114796239E+04  0.30912916480E+04 0.  0.
        2    1    3    3  502    0 -0.57692978236E+03 -0.10050982410E+04  0.62730265981E+03  0.13177932595E+04  0.25500000920E-02 0.  1.
       -2    1    3    3    0  502  0.57692978236E+03  0.10050982410E+04 -0.14976573703E+04  0.18936863644E+04  0.25500000920E-02 0. -1.
</event>
<event>
 5   0  0.2552990E-06  0.2207788E+04  0.7818609E-02  0.8515193E-01
       -1   -1    0    0    0  501  0.00000000000E+00  0.00000000000E+00  0.10858568082E+04  0.10858568082E+04  0.50400001928E-02 0. -1.
        1   -1    0    0  501    0  0.00000000000E+00  0.00000000000E+00 -0.11222312816E+04  0.11222312816E+04  0.50400001928E-02 0.  1.
    10030    2    1    2    0    0  0.00000000000E+00  0.00000000000E+00 -0.36374473475E+02  0.22080880898E+04  0.22077884659E+04 0.  0.
        3    1    3    3  502    0 -0.84550802854E+03 -0.22240955610E+03  0.65587205484E+03  0.10929400713E+04  0.10100000352E+00 0. -1.
       -3    1    3    3    0  502  0.84550802854E+03  0.22240955610E+03 -0.69224652831E+03  0.11151480185E+04  0.10100000352E+00 0.  1.
</event>
<event>
 5   0  0.2672155E-06  0.2986801E+04  0.7818609E-02  0.8247510E-01
       -1   -1    0    0    0  501  0.00000000000E+00  0.00000000000E+00  0.93975747264E+03  0.93975747265E+03  0.50400001928E-02 0. -1.
        1   -1    0    0  501    0  0.00000000000E+00  0.00000000000E+00 -0.23732134996E+04  0.23732134996E+04  0.50400001928E-02 0.  1.
    10030    2    1    2    0    0  0.00000000000E+00  0.00000000000E+00 -0.14334560269E+04  0.33129709722E+04  0.29868010449E+04 0.  0.
        5    1    3    3  502    0  0.82739325756E+03  0.12194255586E+04 -0.44811574178E+03  0.15402623489E+04  0.46999998093E+01 0.  1.
       -5    1    3    3    0  502 -0.82739325756E+03 -0.12194255586E+04 -0.98534028514E+03  0.17727086233E+04  0.46999998093E+01 0. -1.
</event>
<event>
 5   0  0.6792811E-06  0.2941926E+04  0.7818609E-02  0.8260511E-01
       -2   -1    0    0    0  501  0.00000000000E+00  0.00000000000E+00  0.13980844323E+04  0.13980844323E+04  0.25500000920E-02 0. -1.
        2   -1    0    0  501    0  0.00000000000E+00  0.00000000000E+00 -0.15476404260E+04  0.15476404260E+04  0.25500000920E-02 0.  1.
    10030    2    1    2    0    0  0.00000000000E+00  0.00000000000E+00 -0.14955599365E+03  0.29457248583E+04  0.29419258906E+04 0.  0.
        2    1    3    3  502    0  0.69385716899E+03 -0.80212409578E+03  0.94579829363E+03  0.14210472364E+04  0.25500000920E-02 0. -1.
       -2    1    3    3    0  502 -0.69385716899E+03  0.80212409578E+03 -0.10953542873E+04  0.15246776219E+04  0.25500000920E-02 0.  1.
</event>
<event>
 5   0  0.7217255E-06  0.2989414E+04  0.7818609E-02  0.8246760E-01
        2   -1    0    0  501    0  0.00000000000E+00  0.00000000000E+00  0.25685475601E+04  0.25685475601E+04  0.25500000920E-02 0.  1.
       -2   -1    0    0    0  501  0.00000000000E+00  0.00000000000E+00 -0.86981006712E+03  0.86981006713E+03  0.25500000920E-02 0. -1.
    10030    2    1    2    0    0  0.00000000000E+00  0.00000000000E+00  0.16987374930E+04  0.34383576273E+04  0.29894136721E+04 0.  0.
        1    1    3    3  502    0  0.11428444740E+04  0.26819860331E+03 -0.21485636766E+03  0.11933931629E+04  0.50400001928E-02 0. -1.
       -1    1    3    3    0  502 -0.11428444740E+04 -0.26819860331E+03  0.19135938607E+04  0.22449644643E+04  0.50400001928E-02 0.  1.
</event>
<event>
 5   0  0.2628425E-06  0.3000358E+04  0.7818609E-02  0.8243629E-01
        1   -1    0    0  501    0  0.00000000000E+00  0.00000000000E+00  0.15901407400E+04  0.15901407400E+04  0.50400001928E-02 0. -1.
       -1   -1    0    0    0  501  0.00000000000E+00  0.00000000000E+00 -0.14153069879E+04  0.14153069879E+04  0.50400001928E-02 0.  1.
    10030    2    1    2    0    0  0.00000000000E+00  0.00000000000E+00  0.17483375207E+03  0.30054477280E+04  0.30003581794E+04 0.  0.
        1    1    3    3  502    0  0.18306970076E+03 -0.63301698264E+03 -0.12625755619E+04  0.14241917235E+04  0.50400001928E-02 0.  1.
       -1    1    3    3    0  502 -0.18306970076E+03  0.63301698264E+03  0.14374093140E+04  0.15812560045E+04  0.50400001928E-02 0. -1.
</event>
<event>
 5   0  0.2552990E-06  0.3007995E+04  0.7818609E-02  0.8241452E-01
       -1   -1    0    0    0  501  0.00000000000E+00  0.00000000000E+00  0.10451769616E+04  0.10451769617E+04  0.50400001928E-02 0.  1.
        1   -1    0    0  501    0  0.00000000000E+00  0.00000000000E+00 -0.21642346226E+04  0.21642346226E+04  0.50400001928E-02 0. -1.
    10030    2    1    2    0    0  0.00000000000E+00  0.00000000000E+00 -0.11190576609E+04  0.32094115843E+04  0.30079947920E+04 0.  0.
        3    1    3    3  502    0 -0.51703333316E+03  0.14053903730E+04 -0.70876067286E+03  0.16567399523E+04  0.10100000352E+00 0.  1.
       -3    1    3    3    0  502  0.51703333316E+03 -0.14053903730E+04 -0.41029698809E+03  0.15526716319E+04  0.10100000352E+00 0. -1.
</event>
<event>
 5   0  0.2552990E-06  0.2760063E+04  0.7818609E-02  0.8315776E-01
        1   -1    0    0  501    0  0.00000000000E+00  0.00000000000E+00  0.24267262055E+04  0.24267262055E+04  0.50400001928E-02 0.  1.
       -1   -1    0    0    0  501  0.00000000000E+00  0.00000000000E+00 -0.78479682492E+03  0.78479682493E+03  0.50400001928E-02 0. -1.
    10030    2    1    2    0    0  0.00000000000E+00  0.00000000000E+00  0.16419293805E+04  0.32115230304E+04  0.27600630580E+04 0.  0.
        3    1    3    3  502    0  0.11573493596E+04  0.47613298404E+03  0.14416481423E+03  0.12597395217E+04  0.10100000352E+00 0. -1.
       -3    1    3    3    0  502 -0.11573493596E+04 -0.47613298404E+03  0.14977645663E+04  0.19517835087E+04  0.10100000352E+00 0.  1.
</event>
<event>
 5   0  0.2422083E-06  0.2847424E+04  0.7818609E-02  0.8288695E-01
        1   -1    0    0  501    0  0.00000000000E+00  0.00000000000E+00  0.13272761647E+04  0.13272761647E+04  0.50400001928E-02 0. -1.
       -1   -1    0    0    0  501  0.00000000000E+00  0.00000000000E+00 -0.15271540812E+04  0.15271540812E+04  0.50400001928E-02 0.  1.
    10030    2    1    2    0    0  0.00000000000E+00  0.00000000000E+00 -0.19987791656E+03  0.28544302459E+04  0.28474235455E+04 0.  0.
        2    1    3    3  502    0  0.10161560823E+03  0.98736009395E+03 -0.11231118332E+04  0.14988615269E+04  0.25500000920E-02 0.  1.
       -2    1    3    3    0  502 -0.10161560823E+03 -0.98736009395E+03  0.92323391668E+03  0.13555687190E+04  0.25500000920E-02 0. -1.
</event>
<event>
 5   0  0.7217255E-06  0.3002804E+04  0.7818609E-02  0.8242931E-01
       -2   -1    0    0    0  501  0.00000000000E+00  0.00000000000E+00  0.93668722523E+03  0.93668722523E+03  0.25500000920E-02 0.  1.
        2   -1    0    0  501    0  0.00000000000E+00  0.00000000000E+00 -0.24065741015E+04  0.24065741015E+04  0.25500000920E-02 0. -1.
    10030    2    1    2    0    0  0.00000000000E+00  0.00000000000E+00 -0.14698868763E+04  0.33432613267E+04  0.30028035017E+04 0.  0.
        1    1    3    3  502    0 -0.94799197553E+03  0.11642583622E+04 -0.72985372605E+03  0.16693929379E+04  0.50400001928E-02 0. -1.
       -1    1    3    3    0  502  0.94799197553E+03 -0.11642583622E+04 -0.74003315023E+03  0.16738683888E+04  0.50400001928E-02 0.  1.
</event>
<event>
 5   0  0.7201538E-06  0.3003573E+04  0.7818609E-02  0.8242711E-01
        2   -1    0    0  501    0  0.00000000000E+00  0.00000000000E+00  0.27778962335E+04  0.27778962335E+04  0.25500000920E-02 0. -1.
       -2   -1    0    0    0  501  0.00000000000E+00  0.00000000000E+00 -0.81189591933E+03  0.81189591934E+03  0.25500000920E-02 0.  1.
    10030    2    1    2    0    0  0.00000000000E+00  0.00000000000E+00  0.19660003142E+04  0.35897921529E+04  0.30035729499E+04 0.  0.
        3    1    3    3  502    0 -0.28764580010E+03 -0.12806127931E+04  0.11072508657E+03  0.13171823288E+04  0.10100000352E+00 0.  1.
       -3    1    3    3    0  502  0.28764580010E+03  0.12806127931E+04  0.18552752276E+04  0.22726098241E+04  0.10100000352E+00 0. -1.
</event>
<event>
 5   0  0.2552990E-06  0.2997391E+04  0.7818609E-02  0.8244476E-01
        1   -1    0    0  501    0  0.00000000000E+00  0.00000000000E+00  0.26459594773E+04  0.26459594773E+04  0.50400001928E-02 0. -1.
       -1   -1    0    0    0  501  0.00000000000E+00  0.00000000000E+00 -0.84887467475E+03  0.84887467476E+03  0.50400001928E-02 0.  1.
    10030    2    1    2    0    0  0.00000000000E+00  0.00000000000E+00  0.17970848025E+04  0.34948341520E+04  0.29973908592E+04 0.  0.
        3    1    3    3  502    0  0.80206192851E+03  0.43448073285E+03 -0.48792482288E+03  0.10344793315E+04  0.10100000352E+00 0.  1.
       -3    1    3    3    0  502 -0.80206192851E+03 -0.43448073285E+03  0.22850096254E+04  0.24603548205E+04  0.10100000352E+00 0. -1.
</event>
<event>
 5   0  0.7193153E-06  0.2968588E+04  0.7818609E-02  0.8252758E-01
       -2   -1    0    0    0  501  0.00000000000E+00  0.00000000000E+00  0.17382018727E+04  0.17382018727E+04  0.25500000920E-02 0.  1.
        2   -1    0    0  501    0  0.00000000000E+00  0.00000000000E+00 -0.12674759261E+04  0.12674759261E+04  0.25500000920E-02 0. -1.
    10030    2    1    2    0    0  0.00000000000E+00  0.00000000000E+00  0.47072594665E+03  0.30056777988E+04  0.29685882358E+04 0.  0.
        4    1    3    3  502    0  0.59463869584E+03  0.12668336431E+04  0.73617894396E+03  0.15812728127E+04  0.12699999809E+01 0. -1.
       -4    1    3    3    0  502 -0.59463869584E+03 -0.12668336431E+04 -0.26545299731E+03  0.14244049861E+04  0.12699999809E+01 0.  1.
</event>
<event>
 5   0  0.2552990E-06  0.2850657E+04  0.7818609E-02  0.8287712E-01
        1   -1    0    0  501    0  0.00000000000E+00  0.00000000000E+00  0.17508724169E+04  0.17508724170E+04  0.50400001928E-02 0.  1.
       -1   -1    0    0    0  501  0.00000000000E+00  0.00000000000E+00 -0.11603140455E+04  0.11603140455E+04  0.50400001928E-02 0. -1.
    10030    2    1    2    0    0  0.00000000000E+00  0.00000000000E+00  0.59055837142E+03  0.29111864625E+04  0.28506573679E+04 0.  0.
        3    1    3    3  502    0 -0.48024612482E+03  0.89112846040E+03  0.13199868030E+04  0.16634636887E+04  0.10100000352E+00 0.  1.
       -3    1    3    3    0  502  0.48024612482E+03 -0.89112846040E+03 -0.72942843155E+03  0.12477227738E+04  0.10100000352E+00 0. -1.
</event>
<event>
 5   0  0.2552990E-06  0.3024476E+04  0.7818609E-02  0.8236776E-01
       -1   -1    0    0    0  501  0.00000000000E+00  0.00000000000E+00  0.12749650593E+04  0.12749650593E+04  0.50400001928E-02 0.  1.
        1   -1    0    0  501    0  0.00000000000E+00  0.00000000000E+00 -0.17936674693E+04  0.17936674693E+04  0.50400001928E-02 0. -1.
    10030    2    1    2    0    0  0.00000000000E+00  0.00000000000E+00 -0.51870240996E+03  0.30686325286E+04  0.30244757240E+04 0.  0.
        3    1    3    3  502    0  0.68218805249E+02  0.34740853396E+03  0.12323233917E+04  0.12821729395E+04  0.10100000352E+00 0.  1.
       -3    1    3    3    0  502 -0.68218805249E+02 -0.34740853396E+03 -0.17510258017E+04  0.17864595890E+04  0.10100000352E+00 0. -1.
</event>
<event>
 5   0  0.6780150E-06  0.3008449E+04  0.7818609E-02  0.8241322E-01
       -2   -1    0    0    0  501  0.00000000000E+00  0.00000000000E+00  0.17445104196E+04  0.17445104196E+04  0.25500000920E-02 0.  1.
        2   -1    0    0  501    0  0.00000000000E+00  0.00000000000E+00 -0.12970355468E+04  0.12970355468E+04  0.25500000920E-02 0. -1.
    10030    2    1    2    0    0  0.00000000000E+00  0.00000000000E+00  0.44747487280E+03  0.30415459665E+04  0.30084494518E+04 0.  0.
        5    1    3    3  502    0 -0.86220196528E+03 -0.23888185512E+03  0.14462603577E+04  0.17006316126E+04  0.46999998093E+01 0.  1.
       -5    1    3    3    0  502  0.86220196528E+03  0.23888185512E+03 -0.99878548486E+03  0.13409143539E+04  0.46999998093E+01 0. -1.
</event>
<event>
 5   0  0.2504260E-06  0.2985646E+04  0.7818609E-02  0.8247842E-01
       -1   -1    0    0    0  501  0.00000000000E+00  0.00000000000E+00  0.16240555369E+04  0.16240555369E+04  0.50400001928E-02 0.  1.
        1   -1    0    0  501    0  0.00000000000E+00  0.00000000000E+00 -0.13721951085E+04  0.13721951085E+04  0.50400001928E-02 0. -1.
    10030    2    1    2    0    0  0.00000000000E+00  0.00000000000E+00  0.25186042836E+03  0.29962506454E+04  0.29856463713E+04 0.  0.
        4    1    3    3  502    0  0.22734423742E+03 -0.14048941446E+04  0.57820426919E+03  0.15361428155E+04  0.12699999809E+01 0. -1.
       -4    1    3    3    0  502 -0.22734423742E+03  0.14048941446E+04 -0.32634384083E+03  0.14601078299E+04  0.12699999809E+01 0.  1.
</event>
<event>
 5   0  0.2552990E-06  0.3005348E+04  0.7818609E-02  0.8242205E-01
       -1   -1    0    0    0  501  0.00000000000E+00  0.00000000000E+00  0.94433361017E+03  0.94433361018E+03  0.50400001928E-02 0. -1.
        1   -1    0    0  501    0  0.00000000000E+00  0.00000000000E+00 -0.23911352030E+04  0.23911352031E+04  0.50400001928E-02 0.  1.
    10030    2    1    2    0    0  0.00000000000E+00  0.00000000000E+00 -0.14468015929E+04  0.33354688132E+04  0.30053481254E+04 0.  0.
        3    1    3    3  502    0  0.74278747796E+03 -0.12436293589E+04 -0.27990426434E+03  0.14753622020E+04  0.10100000352E+00 0. -1.
       -3    1    3    3    0  502 -0.74278747796E+03  0.12436293589E+04 -0.11668973285E+04  0.18601066112E+04  0.10100000352E+00 0.  1.
</event>
<event>
 5   0  0.6792811E-06  0.3023721E+04  0.7818609E-02  0.8236989E-01
        2   -1    0    0  501    0  0.00000000000E+00  0.00000000000E+00  0.14041511995E+04  0.14041511995E+04  0.25500000920E-02 0. -1.
       -2   -1    0    0    0  501  0.00000000000E+00  0.00000000000E+00 -0.16278321551E+04  0.16278321551E+04  0.25500000920E-02 0.  1.
    10030    2    1    2    0    0  0.00000000000E+00  0.00000000000E+00 -0.22368095563E+03  0.30319833547E+04  0.30237211996E+04 0.  0.
        2    1    3    3  502    0  0.10113882217E+04 -0.59675085021E+03 -0.10666528020E+04  0.15864318177E+04  0.25500000920E-02 0.  1.
       -2    1    3    3    0  502 -0.10113882217E+04  0.59675085021E+03  0.84297184634E+03  0.14455515370E+04  0.25500000920E-02 0. -1.
</event>
<event>
 5   0  0.2504260E-06  0.2990053E+04  0.7818609E-02  0.8246577E-01
       -1   -1    0    0    0  501  0.00000000000E+00  0.00000000000E+00  0.14990857470E+04  0.14990857470E+04  0.50400001928E-02 0. -1.
        1   -1    0    0  501    0  0.00000000000E+00  0.00000000000E+00 -0.14909785135E+04  0.14909785135E+04  0.50400001928E-02 0.  1.
    10030    2    1    2    0    0  0.00000000000E+00  0.00000000000E+00  0.81072334891E+01  0.29900642606E+04  0.29900532696E+04 0.  0.
        4    1    3    3  502    0 -0.51377897540E+03 -0.49584401805E+03  0.13175548858E+04  0.14985935459E+04  0.12699999809E+01 0. -1.
       -4    1    3    3    0  502  0.51377897540E+03  0.49584401805E+03 -0.13094476523E+04  0.14914707147E+04  0.12699999809E+01 0.  1.
</event>
<event>
 5   0  0.7217255E-06  0.3000046E+04  0.7818609E-02  0.8243718E-01
       -2   -1    0    0    0  501  0.00000000000E+00  0.00000000000E+00  0.10629311899E+04  0.10629311899E+04  0.25500000920E-02 0. -1.
        2   -1    0    0  501    0  0.00000000000E+00  0.00000000000E+00 -0.21168532358E+04  0.21168532358E+04  0.25500000920E-02 0.  1.
    10030    2    1    2    0    0  0.00000000000E+00  0.00000000000E+00 -0.10539220458E+04  0.31797844257E+04  0.30000462188E+04 0.  0.
        1    1    3    3  502    0 -0.20510057897E+02  0.12847917406E+04 -0.13472525492E+04  0.18617733242E+04  0.50400001928E-02 0.  1.
       -1    1    3    3    0  502  0.20510057897E+02 -0.12847917406E+04  0.29333050339E+03  0.13180111014E+04  0.50400001928E-02 0. -1.
</event>
<event>
 5   0  0.2422083E-06  0.2948573E+04  0.7818609E-02  0.8258571E-01
        1   -1    0    0  501    0  0.00000000000E+00  0.00000000000E+00  0.24786875668E+04  0.24786875668E+04  0.50400001928E-02 0.  1.
       -1   -1    0    0    0  501  0.00000000000E+00  0.00000000000E+00 -0.87688356808E+03  0.87688356809E+03  0.50400001928E-02 0. -1.
    10030    2    1    2    0    0  0.00000000000E+00  0.00000000000E+00  0.16018039987E+04  0.33555711349E+04  0.29485728058E+04 0.  0.
        2    1    3    3  502    0 -0.99200169952E+03 -0.10846952985E+04  0.67170081770E+03  0.16161105318E+04  0.25500000920E-02 0.  1.
       -2    1    3    3    0  502  0.99200169952E+03  0.10846952985E+04  0.93010318099E+03  0.17394606031E+04  0.25500000920E-02 0. -1.
</event>
<event>
 5   0  0.2504260E-06  0.2956878E+04  0.7818609E-02  0.8256153E-01
        1   -1    0    0  501    0  0.00000000000E+00  0.00000000000E+00  0.25014263334E+04  0.25014263334E+04  0.50400001928E-02 0. -1.
       -1   -1    0    0    0  501  0.00000000000E+00  0.00000000000E+00 -0.87381444602E+03  0.87381444604E+03  0.50400001928E-02 0.  1.
    10030    2    1    2    0    0  0.00000000000E+00  0.00000000000E+00  0.16276118873E+04  0.33752407794E+04  0.29568783984E+04 0.  0.
        4    1    3    3  502    0 -0.85422739850E+03  0.32963252432E+03 -0.51121455430E+03  0.10486677180E+04  0.12699999809E+01 0.  1.
       -4    1    3    3    0  502  0.85422739850E+03 -0.32963252432E+03  0.21388264417E+04  0.23265730614E+04  0.12699999809E+01 0. -1.
</event>
<event>
 5   0  0.7201538E-06  0.2930986E+04  0.7818609E-02  0.8263718E-01
        2   -1    0    0  501    0  0.00000000000E+00  0.00000000000E+00  0.18886934207E+04  0.18886934207E+04  0.25500000920E-02 0.  1.
       -2   -1    0    0    0  501  0.00000000000E+00  0.00000000000E+00 -0.11371192836E+04  0.11371192836E+04  0.25500000920E-02 0. -1.
    10030    2    1    2    0    0  0.00000000000E+00  0.00000000000E+00  0.75157413711E+03  0.30258127043E+04  0.29309859839E+04 0.  0.
        3    1    3    3  502    0 -0.11601335904E+04 -0.89540854290E+03  0.37391368688E+03  0.15124410275E+04  0.10100000352E+00 0.  1.
       -3    1    3    3    0  502  0.11601335904E+04  0.89540854290E+03  0.37766045023E+03  0.15133716768E+04  0.10100000352E+00 0. -1.
</event>
<event>
 5   0  0.2552990E-06  0.3004917E+04  0.7818609E-02  0.8242328E-01
       -1   -1    0    0    0  501  0.00000000000E+00  0.00000000000E+00  0.13130545048E+04  0.13130545048E+04  0.50400001928E-02 0.  1.
        1   -1    0    0  501    0  0.00000000000E+00  0.00000000000E+00 -0.17191837900E+04  0.17191837900E+04  0.50400001928E-02 0. -1.
    10030    2    1    2    0    0  0.00000000000E+00  0.00000000000E+00 -0.40612928523E+03  0.30322382948E+04  0.30049173167E+04 0.  0.
        3    1    3    3  502    0 -0.20411557946E+03  0.28363541123E+02  0.12987255719E+04  0.13149736809E+04  0.10100000352E+00 0.  1.
       -3    1    3    3    0  502  0.20411557946E+03 -0.28363541123E+02 -0.17048548571E+04  0.17172646139E+04  0.10100000352E+00 0. -1.
</event>
<event>
 5   0  0.6792811E-06  0.3017755E+04  0.7818609E-02  0.8238679E-01
       -2   -1    0    0    0  501  0.00000000000E+00  0.00000000000E+00  0.16330072749E+04  0.16330072749E+04  0.25500000920E-02 0.  1.
        2   -1    0    0  501    0  0.00000000000E+00  0.00000000000E+00 -0.13941832371E+04  0.13941832371E+04  0.25500000920E-02 0. -1.
    10030    2    1    2    0    0  0.00000000000E+00  0.00000000000E+00  0.23882403778E+03  0.30271905119E+04  0.30177550389E+04 0.  0.
        2    1    3    3  502    0  0.79352972817E+03 -0.98862868806E+03  0.94028304219E+03  0.15783562056E+04  0.25500000920E-02 0.  1.
       -2    1    3    3    0  502 -0.79352972817E+03  0.98862868806E+03 -0.70145900441E+03  0.14488343063E+04  0.25500000920E-02 0. -1.
</event>
<event>
 5   0  0.7201538E-06  0.3289987E+04  0.7818609E-02  0.8165448E-01
        2   -1    0    0  501    0  0.00000000000E+00  0.00000000000E+00  0.14380485176E+04  0.14380485176E+04  0.25500000920E-02 0.  1.
       -2   -1    0    0    0  501  0.00000000000E+00  0.00000000000E+00 -0.18817192520E+04  0.18817192520E+04  0.25500000920E-02 0. -1.
    10030    2    1    2    0    0  0.00000000000E+00  0.00000000000E+00 -0.44367073438E+03  0.33197677697E+04  0.32899869793E+04 0.  0.
        3    1    3    3  502    0 -0.89906276404E+03 -0.16552844127E+03  0.11581294278E+04  0.14754583357E+04  0.10100000352E+00 0.  1.
       -3    1    3    3    0  502  0.89906276404E+03  0.16552844127E+03 -0.16018001622E+04  0.18443094340E+04  0.10100000352E+00 0. -1.
</event>
<event>
 5   0  0.6792811E-06  0.3040988E+04  0.7818609E-02  0.8232122E-01
        2   -1    0    0  501    0  0.00000000000E+00  0.00000000000E+00  0.25160405597E+04  0.25160405597E+04  0.25500000920E-02 0. -1.
       -2   -1    0    0    0  501  0.00000000000E+00  0.00000000000E+00 -0.91886507313E+03  0.91886507313E+03  0.25500000920E-02 0.  1.
    10030    2    1    2    0    0  0.00000000000E+00  0.00000000000E+00  0.15971754866E+04  0.34349056329E+04  0.30409878612E+04 0.  0.
        2    1    3    3  502    0  0.27814638539E+03 -0.13249622942E+04  0.15803469472E+04  0.20809581846E+04  0.25500000920E-02 0. -1.
       -2    1    3    3    0  502 -0.27814638539E+03  0.13249622942E+04  0.16828539446E+02  0.13539474482E+04  0.25500000920E-02 0.  1.
</event>
<event>
 5   0  0.6792811E-06  0.3004416E+04  0.7818609E-02  0.8242471E-01
        2   -1    0    0  501    0  0.00000000000E+00  0.00000000000E+00  0.69509171019E+03  0.69509171019E+03  0.25500000920E-02 0.  1.
       -2   -1    0    0    0  501  0.00000000000E+00  0.00000000000E+00 -0.32465190432E+04  0.32465190433E+04  0.25500000920E-02 0. -1.
    10030    2    1    2    0    0  0.00000000000E+00  0.00000000000E+00 -0.25514273331E+04  0.39416107534E+04  0.30044157328E+04 0.  0.
        2    1    3    3  502    0 -0.47283566895E+03 -0.10497907804E+04 -0.98492288394E+01  0.11514040385E+04  0.25500000920E-02 0.  1.
       -2    1    3    3    0  502  0.47283566895E+03  0.10497907804E+04 -0.25415781042E+04  0.27902067150E+04  0.25500000920E-02 0. -1.
</event>
<event>
 5   0  0.2672155E-06  0.3061867E+04  0.7818609E-02  0.8226282E-01
       -1   -1    0    0    0  501  0.00000000000E+00  0.00000000000E+00  0.12087051004E+04  0.12087051004E+04  0.50400001928E-02 0. -1.
        1   -1    0    0  501    0  0.00000000000E+00  0.00000000000E+00 -0.19390650019E+04  0.19390650019E+04  0.50400001928E-02 0.  1.
    10030    2    1    2    0    0  0.00000000000E+00  0.00000000000E+00 -0.73035990144E+03  0.31477701023E+04  0.30618672459E+04 0.  0.
        5    1    3    3  502    0  0.13842401237E+03  0.11782136854E+04  0.62963964326E+03  0.13430624952E+04  0.46999998093E+01 0. -1.
       -5    1    3    3    0  502 -0.13842401237E+03 -0.11782136854E+04 -0.13599995447E+04  0.18047076071E+04  0.46999998093E+01 0.  1.
</event>
<event>
 5   0  0.2504260E-06  0.3015998E+04  0.7818609E-02  0.8239177E-01
        1   -1    0    0  501    0  0.00000000000E+00  0.00000000000E+00  0.34841299232E+04  0.34841299232E+04  0.50400001928E-02 0. -1.
       -1   -1    0    0    0  501  0.00000000000E+00  0.00000000000E+00 -0.65269108400E+03  0.65269108402E+03  0.50400001928E-02 0.  1.
    10030    2    1    2    0    0  0.00000000000E+00  0.00000000000E+00  0.28314388392E+04  0.41368210072E+04  0.30159977032E+04 0.  0.
        4    1    3    3  502    0  0.12793696097E+03 -0.10649743844E+04  0.28695916688E+04  0.30635104478E+04  0.12699999809E+01 0. -1.
       -4    1    3    3    0  502 -0.12793696097E+03  0.10649743844E+04 -0.38152829650E+02  0.10733105593E+04  0.12699999809E+01 0.  1.
</event>
<event>
 5   0  0.6792811E-06  0.2328281E+04  0.7818609E-02  0.8466853E-01
        2   -1    0    0  501    0  0.00000000000E+00  0.00000000000E+00  0.98871204705E+03  0.98871204705E+03  0.25500000920E-02 0. -1.
       -2   -1    0    0    0  501  0.00000000000E+00  0.00000000000E+00 -0.13706957141E+04  0.13706957141E+04  0.25500000920E-02 0.  1.
    10030    2    1    2    0    0  0.00000000000E+00  0.00000000000E+00 -0.38198366703E+03  0.23594077611E+04  0.23282812247E+04 0.  0.
        2    1    3    3  502    0 -0.31622365265E+03  0.36350580057E+03  0.88293514130E+03  0.10058371286E+04  0.25500000920E-02 0. -1.
       -2    1    3    3    0  502  0.31622365265E+03 -0.36350580057E+03 -0.12649188083E+04  0.13535706325E+04  0.25500000920E-02 0.  1.
</event>
<event>
 5   0  0.6792811E-06  0.2909620E+04  0.7818609E-02  0.8270021E-01
       -2   -1    0    0    0  501  0.00000000000E+00  0.00000000000E+00  0.13625376753E+04  0.13625376753E+04  0.25500000920E-02 0. -1.
        2   -1    0    0  501    0  0.00000000000E+00  0.00000000000E+00 -0.15533313329E+04  0.15533313329E+04  0.25500000920E-02 0.  1.
    10030    2    1    2    0    0  0.00000000000E+00  0.00000000000E+00 -0.19079365759E+03  0.29158690081E+04  0.29096202248E+04 0.  0.
        2    1    3    3  502    0 -0.13405380021E+04  0.41295635594E+03 -0.48209776691E+03  0.14832374536E+04  0.25500000920E-02 0.  1.
       -2    1    3    3    0  502  0.13405380021E+04 -0.41295635594E+03  0.29130410932E+03  0.14326315545E+04  0.25500000920E-02 0. -1.
</event>
<event>
 5   0  0.7201538E-06  0.2270005E+04  0.7818609E-02  0.8489842E-01
       -2   -1    0    0    0  501  0.00000000000E+00  0.00000000000E+00  0.67488092942E+03  0.67488092942E+03  0.25500000920E-02 0.  1.
        2   -1    0    0  501    0  0.00000000000E+00  0.00000000000E+00 -0.19088271485E+04  0.19088271485E+04  0.25500000920E-02 0. -1.
    10030    2    1    2    0    0  0.00000000000E+00  0.00000000000E+00 -0.12339462190E+04  0.25837080779E+04  0.22700053216E+04 0.  0.
        3    1    3    3  502    0 -0.79401116565E+03 -0.22046965649E+03 -0.15053269299E+04  0.17161205601E+04  0.10100000352E+00 0. -1.
       -3    1    3    3    0  502  0.79401116565E+03  0.22046965649E+03  0.27138071088E+03  0.86758751780E+03  0.10100000352E+00 0.  1.
</event>
<event>
 5   0  0.2422083E-06  0.3059770E+04  0.7818609E-02  0.8226866E-01
       -1   -1    0    0    0  501  0.00000000000E+00  0.00000000000E+00  0.18298747545E+04  0.18298747545E+04  0.50400001928E-02 0. -1.
        1   -1    0    0  501    0  0.00000000000E+00  0.00000000000E+00 -0.12790755878E+04  0.12790755878E+04  0.50400001928E-02 0.  1.
    10030    2    1    2    0    0  0.00000000000E+00  0.00000000000E+00  0.55079916667E+03  0.31089503423E+04  0.30597700091E+04 0.  0.
        2    1    3    3  502    0 -0.15111884332E+04 -0.94489934720E+02  0.49784606384E+03  0.15938850435E+04  0.25500000920E-02 0. -1.
       -2    1    3    3    0  502  0.15111884332E+04  0.94489934720E+02  0.52953102837E+02  0.15150652988E+04  0.25500000920E-02 0.  1.
</event>
<event>
 5   0  0.2628425E-06  0.3000970E+04  0.7818609E-02  0.8243454E-01
       -1   -1    0    0    0  501  0.00000000000E+00  0.00000000000E+00  0.10411815263E+04  0.10411815263E+04  0.50400001928E-02 0.  1.
        1   -1    0    0  501    0  0.00000000000E+00  0.00000000000E+00 -0.21624047194E+04  0.21624047194E+04  0.50400001928E-02 0. -1.
    10030    2    1    2    0    0  0.00000000000E+00  0.00000000000E+00 -0.11212231932E+04  0.32035862457E+04  0.30009704072E+04 0.  0.
        1    1    3    3  502    0  0.14314526692E+04 -0.28392726293E+03 -0.93314957910E+03  0.17321776964E+04  0.50400001928E-02 0. -1.
       -1    1    3    3    0  502 -0.14314526692E+04  0.28392726293E+03 -0.18807361405E+03  0.14714085494E+04  0.50400001928E-02 0.  1.
</event>
<event>
 5   0  0.6792811E-06  0.2995675E+04  0.7818609E-02  0.8244967E-01
       -2   -1    0    0    0  501  0.00000000000E+00  0.00000000000E+00  0.13193887671E+04  0.13193887671E+04  0.25500000920E-02 0.  1.
        2   -1    0    0  501    0  0.00000000000E+00  0.00000000000E+00 -0.17004210698E+04  0.17004210698E+04  0.25500000920E-02 0. -1.
    10030    2    1    2    0    0  0.00000000000E+00  0.00000000000E+00 -0.38103230270E+03  0.30198098369E+04  0.29956745209E+04 0.  0.
        2    1    3    3  502    0 -0.29824512225E+03 -0.48942978985E+03 -0.15855096051E+04  0.16859218191E+04  0.25500000920E-02 0. -1.
       -2    1    3    3    0  502  0.29824512225E+03  0.48942978985E+03  0.12044773024E+04  0.13338880178E+04  0.25500000920E-02 0.  1.
</event>
<event>
 5   0  0.6780150E-06  0.3020077E+04  0.7818609E-02  0.8238021E-01
        2   -1    0    0  501    0  0.00000000000E+00  0.00000000000E+00  0.23032363199E+04  0.23032363199E+04  0.25500000920E-02 0. -1.
       -2   -1    0    0    0  501  0.00000000000E+00  0.00000000000E+00 -0.99000552146E+03  0.99000552147E+03  0.25500000920E-02 0.  1.
    10030    2    1    2    0    0  0.00000000000E+00  0.00000000000E+00  0.13132307984E+04  0.32932418413E+04  0.30200772665E+04 0.  0.
        5    1    3    3  502    0  0.10812012456E+03 -0.10079746407E+03 -0.98208917469E+03  0.99316228641E+03  0.46999998093E+01 0.  1.
       -5    1    3    3    0  502 -0.10812012456E+03  0.10079746407E+03  0.22953199731E+04  0.23000795549E+04  0.46999998093E+01 0. -1.
</event>
<event>
 5   0  0.2422083E-06  0.2968399E+04  0.7818609E-02  0.8252813E-01
       -1   -1    0    0    0  501  0.00000000000E+00  0.00000000000E+00  0.14054695556E+04  0.14054695556E+04  0.50400001928E-02 0.  1.
        1   -1    0    0  501    0  0.00000000000E+00  0.00000000000E+00 -0.15673399902E+04  0.15673399902E+04  0.50400001928E-02 0. -1.
    10030    2    1    2    0    0  0.00000000000E+00  0.00000000000E+00 -0.16187043452E+03  0.29728095458E+04  0.29683993259E+04 0.  0.
        2    1    3    3  502    0  0.51829236713E+02 -0.52642812817E+03 -0.14697311844E+04  0.15620251594E+04  0.25500000920E-02 0. -1.
       -2    1    3    3    0  502 -0.51829236713E+02  0.52642812817E+03  0.13078607499E+04  0.14107843865E+04  0.25500000920E-02 0.  1.
</event>
<event>
 5   0  0.2672155E-06  0.3148239E+04  0.7818609E-02  0.8202622E-01
        1   -1    0    0  501    0  0.00000000000E+00  0.00000000000E+00  0.18843681213E+04  0.18843681213E+04  0.50400001928E-02 0.  1.
       -1   -1    0    0    0  501  0.00000000000E+00  0.00000000000E+00 -0.13149513851E+04  0.13149513851E+04  0.50400001928E-02 0. -1.
    10030    2    1    2    0    0  0.00000000000E+00  0.00000000000E+00  0.56941673615E+03  0.31993195064E+04  0.31482391721E+04 0.  0.
        5    1    3    3  502    0 -0.78044926971E+03 -0.22647971536E+03  0.16547049685E+04  0.18434925405E+04  0.46999998093E+01 0.  1.
       -5    1    3    3    0  502  0.78044926971E+03  0.22647971536E+03 -0.10852882324E+04  0.13558269659E+04  0.46999998093E+01 0. -1.
</event>
<event>
 5   0  0.7193153E-06  0.2983249E+04  0.7818609E-02  0.8248530E-01
        2   -1    0    0  501    0  0.00000000000E+00  0.00000000000E+00  0.16317509025E+04  0.16317509025E+04  0.25500000920E-02 0.  1.
       -2   -1    0    0    0  501  0.00000000000E+00  0.00000000000E+00 -0.13635317913E+04  0.13635317913E+04  0.25500000920E-02 0. -1.
    10030    2    1    2    0    0  0.00000000000E+00  0.00000000000E+00  0.26821911118E+03  0.29952826938E+04  0.29832493903E+04 0.  0.
        4    1    3    3  502    0 -0.77241970361E+03  0.10647588340E+04 -0.57200456027E+03  0.14344108208E+04  0.12699999809E+01 0. -1.
       -4    1    3    3    0  502  0.77241970361E+03 -0.10647588340E+04  0.84022367145E+03  0.15608718730E+04  0.12699999809E+01 0.  1.
</event>
<event>
 5   0  0.2552990E-06  0.2962152E+04  0.7818609E-02  0.8254622E-01
       -1   -1    0    0    0  501  0.00000000000E+00  0.00000000000E+00  0.11069927993E+04  0.11069927993E+04  0.50400001928E-02 0.  1.
        1   -1    0    0  501    0  0.00000000000E+00  0.00000000000E+00 -0.19815721528E+04  0.19815721528E+04  0.50400001928E-02 0. -1.
    10030    2    1    2    0    0  0.00000000000E+00  0.00000000000E+00 -0.87457935345E+03  0.30885649521E+04  0.29621519910E+04 0.  0.
        3    1    3    3  502    0 -0.64994460584E+03  0.32705144965E+03  0.90780100972E+03  0.11633973203E+04  0.10100000352E+00 0.  1.
       -3    1    3    3    0  502  0.64994460584E+03 -0.32705144965E+03 -0.17823803632E+04  0.19251676318E+04  0.10100000352E+00 0. -1.
</event>
<event>
 5   0  0.2422083E-06  0.2917651E+04  0.7818609E-02  0.8267645E-01
       -1   -1    0    0    0  501  0.00000000000E+00  0.00000000000E+00  0.10855852925E+04  0.10855852925E+04  0.50400001928E-02 0.  1.
        1   -1    0    0  501    0  0.00000000000E+00  0.00000000000E+00 -0.19603914458E+04  0.19603914458E+04  0.50400001928E-02 0. -1.
    10030    2    1    2    0    0  0.00000000000E+00  0.00000000000E+00 -0.87480615327E+03  0.30459767383E+04  0.29176511931E+04 0.  0.
        2    1    3    3  502    0  0.25496951473E+03  0.11644891222E+04  0.44049106885E+03  0.12708566996E+04  0.25500000920E-02 0.  1.
       -2    1    3    3    0  502 -0.25496951473E+03 -0.11644891222E+04 -0.13152972221E+04  0.17751200387E+04  0.25500000920E-02 0. -1.
</event>
<event>
 5   0  0.6792811E-06  0.3009045E+04  0.7818609E-02  0.8241153E-01
        2   -1    0    0  501    0  0.00000000000E+00  0.00000000000E+00  0.15947814236E+04  0.15947814236E+04  0.25500000920E-02 0.  1.
       -2   -1    0    0    0  501  0.00000000000E+00  0.00000000000E+00 -0.14193722386E+04  0.14193722386E+04  0.25500000920E-02 0. -1.
    10030    2    1    2    0    0  0.00000000000E+00  0.00000000000E+00  0.17540918502E+03  0.30141536622E+04  0.30090453498E+04 0.  0.
        2    1    3    3  502    0  0.74693742678E+03  0.12886876890E+04 -0.12468601968E+03  0.14947167233E+04  0.25500000920E-02 0. -1.
       -2    1    3    3    0  502 -0.74693742678E+03 -0.12886876890E+04  0.30009520469E+03  0.15194369389E+04  0.25500000920E-02 0.  1.
</event>
<event>
 5   0  0.6780150E-06  0.2979689E+04  0.7818609E-02  0.8249555E-01
        2   -1    0    0  501    0  0.00000000000E+00  0.00000000000E+00  0.16703827654E+04  0.16703827654E+04  0.25500000920E-02 0.  1.
       -2   -1    0    0    0  501  0.00000000000E+00  0.00000000000E+00 -0.13288194204E+04  0.13288194204E+04  0.25500000920E-02 0. -1.
    10030    2    1    2    0    0  0.00000000000E+00  0.00000000000E+00  0.34156334498E+03  0.29992021857E+04  0.29796892845E+04 0.  0.
        5    1    3    3  502    0 -0.74411319624E+02 -0.90833311778E+03  0.13570618525E+04  0.16347002964E+04  0.46999998093E+01 0.  1.
       -5    1    3    3    0  502  0.74411319624E+02  0.90833311778E+03 -0.10154985075E+04  0.13645018894E+04  0.46999998093E+01 0. -1.
</event>
<event>
 5   0  0.2504260E-06  0.2979778E+04  0.7818609E-02  0.8249529E-01
       -1   -1    0    0    0  501  0.00000000000E+00  0.00000000000E+00  0.22078726870E+04  0.22078726870E+04  0.50400001928E-02 0.  1.
        1   -1    0    0  501    0  0.00000000000E+00  0.00000000000E+00 -0.10053883940E+04  0.10053883940E+04  0.50400001928E-02 0. -1.
    10030    2    1    2    0    0  0.00000000000E+00  0.00000000000E+00  0.12024842930E+04  0.32132610811E+04  0.29797782300E+04 0.  0.
        4    1    3    3  502    0 -0.36006122203E+02  0.14124561570E+04  0.91510399846E+02  0.14158759135E+04  0.12699999809E+01 0.  1.
       -4    1    3    3    0  502  0.36006122203E+02 -0.14124561570E+04  0.11109738932E+04  0.17973851675E+04  0.12699999809E+01 0. -1.
</event>
<event>
 5   0  0.6780150E-06  0.3012886E+04  0.7818609E-02  0.8240061E-01
        2   -1    0    0  501    0  0.00000000000E+00  0.00000000000E+00  0.24493392861E+04  0.24493392861E+04  0.25500000920E-02 0.  1.
       -2   -1    0    0    0  501  0.00000000000E+00  0.00000000000E+00 -0.92652325438E+03  0.92652325438E+03  0.25500000920E-02 0. -1.
    10030    2    1    2    0    0  0.00000000000E+00  0.00000000000E+00  0.15228160317E+04  0.33758625405E+04  0.30128855315E+04 0.  0.
        5    1    3    3  502    0 -0.54209687001E+01  0.14400311666E+04  0.12569931397E+04  0.19114844993E+04  0.46999998093E+01 0. -1.
       -5    1    3    3    0  502  0.54209687001E+01 -0.14400311666E+04  0.26582289200E+03  0.14643780412E+04  0.46999998093E+01 0.  1.
</event>
<event>
 5   0  0.2552990E-06  0.2970675E+04  0.7818609E-02  0.8252155E-01
       -1   -1    0    0    0  501  0.00000000000E+00  0.00000000000E+00  0.16138277724E+04  0.16138277725E+04  0.50400001928E-02 0.  1.
        1   -1    0    0  501    0  0.00000000000E+00  0.00000000000E+00 -0.13670773245E+04  0.13670773245E+04  0.50400001928E-02 0. -1.
    10030    2    1    2    0    0  0.00000000000E+00  0.00000000000E+00  0.24675044795E+03  0.29809050970E+04  0.29706749087E+04 0.  0.
        3    1    3    3  502    0  0.26555480253E+03  0.11910415064E+04 -0.72637521527E+03  0.14201127373E+04  0.10100000352E+00 0. -1.
       -3    1    3    3    0  502 -0.26555480253E+03 -0.11910415064E+04  0.97312566322E+03  0.15607923596E+04  0.10100000352E+00 0.  1.
</event>
<event>
 5   0  0.6792811E-06  0.3031263E+04  0.7818609E-02  0.8234859E-01
       -2   -1    0    0    0  501  0.00000000000E+00  0.00000000000E+00  0.12368596695E+04  0.12368596695E+04  0.25500000920E-02 0. -1.
        2   -1    0    0  501    0  0.00000000000E+00  0.00000000000E+00 -0.18572351089E+04  0.18572351089E+04  0.25500000920E-02 0.  1.
    10030    2    1    2    0    0  0.00000000000E+00  0.00000000000E+00 -0.62037543941E+03  0.30940947784E+04  0.30312632370E+04 0.  0.
        2    1    3    3  502    0  0.71625600589E+03  0.13248344197E+03  0.10464838727E+04  0.12750305974E+04  0.25500000920E-02 0. -1.
       -2    1    3    3    0  502 -0.71625600589E+03 -0.13248344197E+03 -0.16668593121E+04  0.18190641810E+04  0.25500000920E-02 0.  1.
</event>
<event>
 5   0  0.7201538E-06  0.2844735E+04  0.7818609E-02  0.8289513E-01
        2   -1    0    0  501    0  0.00000000000E+00  0.00000000000E+00  0.11416501496E+04  0.11416501496E+04  0.25500000920E-02 0. -1.
       -2   -1    0    0    0  501  0.00000000000E+00  0.00000000000E+00 -0.17721094860E+04  0.17721094860E+04  0.25500000920E-02 0.  1.
    10030    2    1    2    0    0  0.00000000000E+00  0.00000000000E+00 -0.63045933642E+03  0.29137596356E+04  0.28447348276E+04 0.  0.
        3    1    3    3  502    0  0.42910819717E+03  0.52124274072E+03 -0.15975253134E+04  0.17343341595E+04  0.10100000352E+00 0.  1.
       -3    1    3    3    0  502 -0.42910819717E+03 -0.52124274072E+03  0.96706597700E+03  0.11794254761E+04  0.10100000352E+00 0. -1.
</event>
<event>
 5   0  0.7217255E-06  0.3017537E+04  0.7818609E-02  0.8238741E-01
        2   -1    0    0  501    0  0.00000000000E+00  0.00000000000E+00  0.12948626131E+04  0.12948626131E+04  0.25500000920E-02 0.  1.
       -2   -1    0    0    0  501  0.00000000000E+00  0.00000000000E+00 -0.17580110124E+04  0.17580110124E+04  0.25500000920E-02 0. -1.
    10030    2    1    2    0    0  0.00000000000E+00  0.00000000000E+00 -0.46314839929E+03  0.30528736256E+04  0.30175372299E+04 0.  0.
        1    1    3    3  502    0 -0.70134906904E+03 -0.84565540139E+03 -0.12777820792E+04  0.16851559621E+04  0.50400001928E-02 0. -1.
       -1    1    3    3    0  502  0.70134906904E+03  0.84565540139E+03  0.81463367993E+03  0.13677176635E+04  0.50400001928E-02 0.  1.
</event>
<event>
 5   0  0.2628425E-06  0.2781702E+04  0.7818609E-02  0.8308972E-01
       -1   -1    0    0    0  501  0.00000000000E+00  0.00000000000E+00  0.25214243027E+04  0.25214243027E+04  0.50400001928E-02 0. -1.
        1   -1    0    0  501    0  0.00000000000E+00  0.00000000000E+00 -0.76721183043E+03  0.76721183044E+03  0.50400001928E-02 0.  1.
    10030    2    1    2    0    0  0.00000000000E+00  0.00000000000E+00  0.17542124723E+04  0.32886361332E+04  0.27817020362E+04 0.  0.
        1    1    3    3  502    0 -0.23098549391E+03 -0.13457998703E+04  0.11897518912E+04  0.18110883888E+04  0.50400001928E-02 0. -1.
       -1    1    3    3    0  502  0.23098549391E+03  0.13457998703E+04  0.56446058104E+03  0.14775477444E+04  0.50400001928E-02 0.  1.
</event>
<event>
 5   0  0.7201538E-06  0.2966343E+04  0.7818609E-02  0.8253408E-01
       -2   -1    0    0    0  501  0.00000000000E+00  0.00000000000E+00  0.15689253919E+04  0.15689253919E+04  0.25500000920E-02 0. -1.
        2   -1    0    0  501    0  0.00000000000E+00  0.00000000000E+00 -0.14021046993E+04  0.14021046993E+04  0.25500000920E-02 0.  1.
    10030    2    1    2    0    0  0.00000000000E+00  0.00000000000E+00  0.16682069255E+03  0.29710300912E+04  0.29663429774E+04 0.  0.
        3    1    3    3  502    0  0.59739855672E+02 -0.23951977981E+03  0.15482050879E+04  0.15677619653E+04  0.10100000352E+00 0. -1.
       -3    1    3    3    0  502 -0.59739855672E+02  0.23951977981E+03 -0.13813843954E+04  0.14032681259E+04  0.10100000352E+00 0.  1.
</event>
<event>
 5   0  0.2504260E-06  0.2983881E+04  0.7818609E-02  0.8248349E-01
       -1   -1    0    0    0  501  0.00000000000E+00  0.00000000000E+00  0.96910521549E+03  0.96910521551E+03  0.50400001928E-02 0.  1.
        1   -1    0    0  501    0  0.00000000000E+00  0.00000000000E+00 -0.22968472047E+04  0.22968472047E+04  0.50400001928E-02 0. -1.
    10030    2    1    2    0    0  0.00000000000E+00  0.00000000000E+00 -0.13277419892E+04  0.32659524202E+04  0.29838811004E+04 0.  0.
        4    1    3    3  502    0  0.95760207092E+03 -0.72339261871E+02 -0.19135799840E+04  0.21410335502E+04  0.12699999809E+01 0. -1.
       -4    1    3    3    0  502 -0.95760207092E+03  0.72339261871E+02  0.58583799480E+03  0.11249188700E+04  0.12699999809E+01 0.  1.
</event>
<event>
 5   0  0.6780150E-06  0.2982544E+04  0.7818609E-02  0.8248733E-01
       -2   -1    0    0    0  501  0.00000000000E+00  0.00000000000E+00  0.18903109786E+04  0.18903109786E+04  0.25500000920E-02 0. -1.
        2   -1    0    0  501    0  0.00000000000E+00  0.00000000000E+00 -0.11764685848E+04  0.11764685849E+04  0.25500000920E-02 0.  1.
    10030    2    1    2    0    0  0.00000000000E+00  0.00000000000E+00  0.71384239371E+03  0.30667795634E+04  0.29825435332E+04 0.  0.
        5    1    3    3  502    0 -0.27234063849E+03  0.13430323961E+04 -0.24787798299E+03  0.13926130205E+04  0.46999998093E+01 0.  1.
       -5    1    3    3    0  502  0.27234063849E+03 -0.13430323961E+04  0.96172037670E+03  0.16741665429E+04  0.46999998093E+01 0. -1.
</event>
<event>
 5   0  0.2504260E-06  0.2951674E+04  0.7818609E-02  0.8257667E-01
       -1   -1    0    0    0  501  0.00000000000E+00  0.00000000000E+00  0.19901503990E+04  0.19901503990E+04  0.50400001928E-02 0.  1.
        1   -1    0    0  501    0  0.00000000000E+00  0.00000000000E+00 -0.10944376438E+04  0.10944376438E+04  0.50400001928E-02 0. -1.
    10030    2    1    2    0    0  0.00000000000E+00  0.00000000000E+00  0.89571275513E+03  0.30845880428E+04  0.29516744492E+04 0.  0.
        4    1    3    3  502    0  0.44866246074E+03  0.88553931874E+03  0.15891017584E+04  0.18736925842E+04  0.12699999809E+01 0.  1.
       -4    1    3    3    0  502 -0.44866246074E+03 -0.88553931874E+03 -0.69338900330E+03  0.12108954585E+04  0.12699999809E+01 0. -1.
</event>
<event>
 5   0  0.2552990E-06  0.2369909E+04  0.7818609E-02  0.8450856E-01
        1   -1    0    0  501    0  0.00000000000E+00  0.00000000000E+00  0.13109649461E+04  0.13109649461E+04  0.50400001928E-02 0. -1.
       -1   -1    0    0    0  501  0.00000000000E+00  0.00000000000E+00 -0.10710562704E+04  0.10710562704E+04  0.50400001928E-02 0.  1.
    10030    2    1    2    0    0  0.00000000000E+00  0.00000000000E+00  0.23990867569E+03  0.23820212165E+04  0.23699090495E+04 0.  0.
        3    1    3    3  502    0  0.13353364032E+03 -0.12338788431E+03 -0.10569533509E+04  0.10724766661E+04  0.10100000352E+00 0.  1.
       -3    1    3    3    0  502 -0.13353364032E+03  0.12338788431E+03  0.12968620266E+04  0.13095445504E+04  0.10100000352E+00 0. -1.
</event>
<event>
 5   0  0.7217255E-06  0.2969442E+04  0.7818609E-02  0.8252511E-01
        2   -1    0    0  501    0  0.00000000000E+00  0.00000000000E+00  0.12862877785E+04  0.12862877785E+04  0.25500000920E-02 0. -1.
       -2   -1    0    0    0  501  0.00000000000E+00  0.00000000000E+00 -0.17137663864E+04  0.17137663864E+04  0.25500000920E-02 0.  1.
    10030    2    1    2    0    0  0.00000000000E+00  0.00000000000E+00 -0.42747860792E+03  0.30000541649E+04  0.29694422089E+04 0.  0.
        1    1    3    3  502    0  0.14361304723E+04  0.17944842360E+03  0.12092208095E+03  0.14523410824E+04  0.50400001928E-02 0. -1.
       -1    1    3    3    0  502 -0.14361304723E+04 -0.17944842360E+03 -0.54840068887E+03  0.15477130825E+04  0.50400001928E-02 0.  1.
</event>
<event>
 5   0  0.7193153E-06  0.2935936E+04  0.7818609E-02  0.8262265E-01
        2   -1    0    0  501    0  0.00000000000E+00  0.00000000000E+00  0.16432287566E+04  0.16432287566E+04  0.25500000920E-02 0. -1.
       -2   -1    0    0    0  501  0.00000000000E+00  0.00000000000E+00 -0.13113997773E+04  0.13113997773E+04  0.25500000920E-02 0.  1.
    10030    2    1    2    0    0  0.00000000000E+00  0.00000000000E+00  0.33182897925E+03  0.29546285339E+04  0.29359358477E+04 0.  0.
        4    1    3    3  502    0  0.30856691411E+03 -0.13027018944E+04  0.77198003356E+03  0.15453803905E+04  0.12699999809E+01 0. -1.
       -4    1    3    3    0  502 -0.30856691411E+03  0.13027018944E+04 -0.44015105431E+03  0.14092481434E+04  0.12699999809E+01 0.  1.
</event>
<event>
 5   0  0.7201538E-06  0.2975296E+04  0.7818609E-02  0.8250821E-01
       -2   -1    0    0    0  501  0.00000000000E+00  0.00000000000E+00  0.11255416327E+04  0.11255416327E+04  0.25500000920E-02 0.  1.
        2   -1    0    0  501    0  0.00000000000E+00  0.00000000000E+00 -0.19662498926E+04  0.19662498926E+04  0.25500000920E-02 0. -1.
    10030    2    1    2    0    0  0.00000000000E+00  0.00000000000E+00 -0.84070825998E+03  0.30917915253E+04  0.29752956925E+04 0.  0.
        3    1    3    3  502    0 -0.28980101494E+03 -0.55248690452E+03 -0.18237395902E+04  0.19274990301E+04  0.10100000352E+00 0. -1.
       -3    1    3    3    0  502  0.28980101494E+03  0.55248690452E+03  0.98303133024E+03  0.11642924952E+04  0.10100000352E+00 0.  1.
</event>
<event>
 5   0  0.2504260E-06  0.3019708E+04  0.7818609E-02  0.8238126E-01
        1   -1    0    0  501    0  0.00000000000E+00  0.00000000000E+00  0.21801318233E+04  0.21801318233E+04  0.50400001928E-02 0.  1.
       -1   -1    0    0    0  501  0.00000000000E+00  0.00000000000E+00 -0.10456517188E+04  0.10456517188E+04  0.50400001928E-02 0. -1.
    10030    2    1    2    0    0  0.00000000000E+00  0.00000000000E+00  0.11344801045E+04  0.32257835421E+04  0.30197076602E+04 0.  0.
        4    1    3    3  502    0 -0.12296595992E+04  0.13210590236E+03 -0.35797383342E+03  0.12875020690E+04  0.12699999809E+01 0. -1.
       -4    1    3    3    0  502  0.12296595992E+04 -0.13210590236E+03  0.14924539379E+04  0.19382814731E+04  0.12699999809E+01 0.  1.
</event>
<event>
 5   0  0.2422083E-06  0.2716876E+04  0.7818609E-02  0.8329550E-01
        1   -1    0    0  501    0  0.00000000000E+00  0.00000000000E+00  0.23116353475E+04  0.23116353475E+04  0.50400001928E-02 0.  1.
       -1   -1    0    0    0  501  0.00000000000E+00  0.00000000000E+00 -0.79828927701E+03  0.79828927703E+03  0.50400001928E-02 0. -1.
    10030    2    1    2    0    0  0.00000000000E+00  0.00000000000E+00  0.15133460705E+04  0.31099246245E+04  0.27168759341E+04 0.  0.
        2    1    3    3  502    0 -0.12868074751E+04 -0.42124618247E+03  0.88223176454E+03  0.16160614811E+04  0.25500000920E-02 0.  1.
       -2    1    3    3    0  502  0.12868074751E+04  0.42124618247E+03  0.63111430592E+03  0.14938631434E+04  0.25500000920E-02 0. -1.
</event>
<event>
 5   0  0.6780150E-06  0.3001024E+04  0.7818609E-02  0.8243438E-01
       -2   -1    0    0    0  501  0.00000000000E+00  0.00000000000E+00  0.13294459262E+04  0.13294459262E+04  0.25500000920E-02 0.  1.
        2   -1    0    0  501    0  0.00000000000E+00  0.00000000000E+00 -0.16935904250E+04  0.16935904250E+04  0.25500000920E-02 0. -1.
    10030    2    1    2    0    0  0.00000000000E+00  0.00000000000E+00 -0.36414449882E+03  0.30230363513E+04  0.30010244193E+04 0.  0.
        5    1    3    3  502    0  0.48485270652E+03  0.27509387913E+03  0.12212561374E+04  0.13424780938E+04  0.46999998093E+01 0.  1.
       -5    1    3    3    0  502 -0.48485270652E+03 -0.27509387913E+03 -0.15854006362E+04  0.16805582574E+04  0.46999998093E+01 0. -1.
</event>
<event>
 5   0  0.2628425E-06  0.2951536E+04  0.7818609E-02  0.8257707E-01
        1   -1    0    0  501    0  0.00000000000E+00  0.00000000000E+00  0.13112655585E+04  0.13112655585E+04  0.50400001928E-02 0.  1.
       -1   -1    0    0    0  501  0.00000000000E+00  0.00000000000E+00 -0.16609080078E+04  0.16609080078E+04  0.50400001928E-02 0. -1.
    10030    2    1    2    0    0  0.00000000000E+00  0.00000000000E+00 -0.34964244932E+03  0.29721735663E+04  0.29515361875E+04 0.  0.
        1    1    3    3  502    0 -0.12032304034E+04  0.77710380330E+02 -0.10317053121E+04  0.15868894599E+04  0.50400001928E-02 0. -1.
       -1    1    3    3    0  502  0.12032304034E+04 -0.77710380330E+02  0.68206286280E+03  0.13852841065E+04  0.50400001928E-02 0.  1.
</event>
<event>
 5   0  0.7201538E-06  0.2172684E+04  0.7818609E-02  0.8529884E-01
       -2   -1    0    0    0  501  0.00000000000E+00  0.00000000000E+00  0.78015278119E+03  0.78015278119E+03  0.25500000920E-02 0. -1.
        2   -1    0    0  501    0  0.00000000000E+00  0.00000000000E+00 -0.15127028020E+04  0.15127028020E+04  0.25500000920E-02 0.  1.
    10030    2    1    2    0    0  0.00000000000E+00  0.00000000000E+00 -0.73255002080E+03  0.22928555832E+04  0.21726843287E+04 0.  0.
        3    1    3    3  502    0 -0.97403564979E+03  0.41342651126E+03 -0.62578765924E+03  0.12293401205E+04  0.10100000352E+00 0.  1.
       -3    1    3    3    0  502  0.97403564979E+03 -0.41342651126E+03 -0.10676236157E+03  0.10635154627E+04  0.10100000352E+00 0. -1.
</event>
<event>
 5   0  0.2422083E-06  0.2982759E+04  0.7818609E-02  0.8248671E-01
        1   -1    0    0  501    0  0.00000000000E+00  0.00000000000E+00  0.20849052636E+04  0.20849052636E+04  0.50400001928E-02 0. -1.
       -1   -1    0    0    0  501  0.00000000000E+00  0.00000000000E+00 -0.10668169262E+04  0.10668169262E+04  0.50400001928E-02 0.  1.
    10030    2    1    2    0    0  0.00000000000E+00  0.00000000000E+00  0.10180883374E+04  0.31517221898E+04  0.29827586056E+04 0.  0.
        2    1    3    3  502    0  0.53356940270E+02  0.14045112340E+04  0.10360063675E+04  0.17460836071E+04  0.25500000920E-02 0. -1.
       -2    1    3    3    0  502 -0.53356940270E+02 -0.14045112340E+04 -0.17918030127E+02  0.14056385827E+04  0.25500000920E-02 0.  1.
</event>
<event>
 5   0  0.2504260E-06  0.2909148E+04  0.7818609E-02  0.8270161E-01
        1   -1    0    0  501    0  0.00000000000E+00  0.00000000000E+00  0.15340425042E+04  0.15340425042E+04  0.50400001928E-02 0. -1.
       -1   -1    0    0    0  501  0.00000000000E+00  0.00000000000E+00 -0.13792225902E+04  0.13792225902E+04  0.50400001928E-02 0.  1.
    10030    2    1    2    0    0  0.00000000000E+00  0.00000000000E+00  0.15481991397E+03  0.29132650944E+04  0.29091483813E+04 0.  0.
        4    1    3    3  502    0 -0.94461045792E+03  0.11022002399E+04 -0.15727983777E+02  0.14516829091E+04  0.12699999809E+01 0. -1.
       -4    1    3    3    0  502  0.94461045792E+03 -0.11022002399E+04  0.17054789775E+03  0.14615821853E+04  0.12699999809E+01 0.  1.
</event>
<event>
 5   0  0.2298500E-06  0.3015711E+04  0.7818609E-02  0.8239259E-01
       -3   -1    0    0    0  501  0.00000000000E+00  0.00000000000E+00  0.13638978110E+04  0.13638978147E+04  0.10100000352E+00 0. -1.
        3   -1    0    0  501    0  0.00000000000E+00  0.00000000000E+00 -0.16670074046E+04  0.16670074077E+04  0.10100000352E+00 0.  1.
    10030    2    1    2    0    0  0.00000000000E+00  0.00000000000E+00 -0.30310959365E+03  0.30309052224E+04  0.30157107025E+04 0.  0.
        1    1    3    3  502    0 -0.44801115219E+03 -0.41386497361E+03 -0.15374986530E+04  0.16540557176E+04  0.50400001928E-02 0.  1.
       -1    1    3    3    0  502  0.44801115219E+03  0.41386497361E+03  0.12343890594E+04  0.13768495048E+04  0.50400001928E-02 0. -1.
</event>
<event>
 5   0  0.7193153E-06  0.2988718E+04  0.7818609E-02  0.8246960E-01
        2   -1    0    0  501    0  0.00000000000E+00  0.00000000000E+00  0.11868958914E+04  0.11868958914E+04  0.25500000920E-02 0. -1.
       -2   -1    0    0    0  501  0.00000000000E+00  0.00000000000E+00 -0.18814702972E+04  0.18814702972E+04  0.25500000920E-02 0.  1.
    10030    2    1    2    0    0  0.00000000000E+00  0.00000000000E+00 -0.69457440583E+03  0.30683661886E+04  0.29887183645E+04 0.  0.
        4    1    3    3  502    0 -0.13074342228E+04 -0.44695002420E+03 -0.93162952623E+03  0.16664584477E+04  0.12699999809E+01 0.  1.
       -4    1    3    3    0  502  0.13074342228E+04  0.44695002420E+03  0.23705512039E+03  0.14019077409E+04  0.12699999809E+01 0. -1.
</event>
<event>
 5   0  0.2672155E-06  0.2968255E+04  0.7818609E-02  0.8252854E-01
        1   -1    0    0  501    0  0.00000000000E+00  0.00000000000E+00  0.25340263235E+04  0.25340263235E+04  0.50400001928E-02 0. -1.
       -1   -1    0    0    0  501  0.00000000000E+00  0.00000000000E+00 -0.86922328654E+03  0.86922328655E+03  0.50400001928E-02 0.  1.
    10030    2    1    2    0    0  0.00000000000E+00  0.00000000000E+00  0.16648030369E+04  0.34032496100E+04  0.29682551704E+04 0.  0.
        5    1    3    3  502    0 -0.58290273358E+03 -0.90837003281E+03 -0.33556034996E+03  0.11302807403E+04  0.46999998093E+01 0.  1.
       -5    1    3    3    0  502  0.58290273358E+03  0.90837003281E+03  0.20003633869E+04  0.22729688698E+04  0.46999998093E+01 0. -1.
</event>
<event>
 5   0  0.6792811E-06  0.2849007E+04  0.7818609E-02  0.8288213E-01
        2   -1    0    0  501    0  0.00000000000E+00  0.00000000000E+00  0.17202228779E+04  0.17202228779E+04  0.25500000920E-02 0. -1.
       -2   -1    0    0    0  501  0.00000000000E+00  0.00000000000E+00 -0.11796205619E+04  0.11796205619E+04  0.25500000920E-02 0.  1.
    10030    2    1    2    0    0  0.00000000000E+00  0.00000000000E+00  0.54060231597E+03  0.28998434398E+04  0.28490070395E+04 0.  0.
        2    1    3    3  502    0 -0.44415429901E+02 -0.96285626150E+03 -0.79729269884E+03  0.12508959023E+04  0.25500000920E-02 0.  1.
       -2    1    3    3    0  502  0.44415429901E+02  0.96285626150E+03  0.13378950148E+04  0.16489475375E+04  0.25500000920E-02 0. -1.
</event>
<event>
 5   0  0.2504260E-06  0.2989314E+04  0.7818609E-02  0.8246789E-01
        1   -1    0    0  501    0  0.00000000000E+00  0.00000000000E+00  0.12693402237E+04  0.12693402237E+04  0.50400001928E-02 0.  1.
       -1   -1    0    0    0  501  0.00000000000E+00  0.00000000000E+00 -0.17599690775E+04  0.17599690775E+04  0.50400001928E-02 0. -1.
    10030    2    1    2    0    0  0.00000000000E+00  0.00000000000E+00 -0.49062885383E+03  0.30293093012E+04  0.29893139966E+04 0.  0.
        4    1    3    3  502    0  0.49488220800E+03 -0.14103406600E+04 -0.25074829996E+03  0.15155347241E+04  0.12699999809E+01 0. -1.
       -4    1    3    3    0  502 -0.49488220800E+03  0.14103406600E+04 -0.23988055386E+03  0.15137745771E+04  0.12699999809E+01 0.  1.
</event>
<event>
 5   0  0.2628425E-06  0.3059278E+04  0.7818609E-02  0.8227003E-01
       -1   -1    0    0    0  501  0.00000000000E+00  0.00000000000E+00  0.12745936720E+04  0.12745936720E+04  0.50400001928E-02 0.  1.
        1   -1    0    0  501    0  0.00000000000E+00  0.00000000000E+00 -0.18357189098E+04  0.18357189098E+04  0.50400001928E-02 0. -1.
    10030    2    1    2    0    0  0.00000000000E+00  0.00000000000E+00 -0.56112523776E+03  0.31103125819E+04  0.30592781541E+04 0.  0.
        1    1    3    3  502    0 -0.33158857892E+03 -0.44559230168E+03  0.11684470198E+04  0.12937433761E+04  0.50400001928E-02 0.  1.
       -1    1    3    3    0  502  0.33158857892E+03  0.44559230168E+03 -0.17295722576E+04  0.18165692058E+04  0.50400001928E-02 0. -1.
</event>
<event>
 5   0  0.6792811E-06  0.3116365E+04  0.7818609E-02  0.8211261E-01
        2   -1    0    0  501    0  0.00000000000E+00  0.00000000000E+00  0.17866500766E+04  0.17866500767E+04  0.25500000920E-02 0.  1.
       -2   -1    0    0    0  501  0.00000000000E+00  0.00000000000E+00 -0.13589302978E+04  0.13589302979E+04  0.25500000920E-02 0. -1.
    10030    2    1    2    0    0  0.00000000000E+00  0.00000000000E+00  0.42771977880E+03  0.31455803745E+04  0.31163651396E+04 0.  0.
        2    1    3    3  502    0 -0.61355672043E+03  0.76543038286E+03 -0.10081079951E+04  0.14066333033E+04  0.25500000920E-02 0. -1.
       -2    1    3    3    0  502  0.61355672043E+03 -0.76543038286E+03  0.14358277739E+04  0.17389470712E+04  0.25500000920E-02 0.  1.
</event>
<event>
 5   0  0.7217255E-06  0.3017140E+04  0.7818609E-02  0.8238853E-01
       -2   -1    0    0    0  501  0.00000000000E+00  0.00000000000E+00  0.15225552126E+04  0.15225552126E+04  0.25500000920E-02 0.  1.
        2   -1    0    0  501    0  0.00000000000E+00  0.00000000000E+00 -0.14947135101E+04  0.14947135101E+04  0.25500000920E-02 0. -1.
    10030    2    1    2    0    0  0.00000000000E+00  0.00000000000E+00  0.27841702517E+02  0.30172687227E+04  0.30171402660E+04 0.  0.
        1    1    3    3  502    0  0.61586440570E+03  0.48716009409E+03  0.13020633923E+04  0.15205206349E+04  0.50400001928E-02 0.  1.
       -1    1    3    3    0  502 -0.61586440570E+03 -0.48716009409E+03 -0.12742216898E+04  0.14967480878E+04  0.50400001928E-02 0. -1.
</event>
<event>
 5   0  0.2422083E-06  0.2997665E+04  0.7818609E-02  0.8244398E-01
       -1   -1    0    0    0  501  0.00000000000E+00  0.00000000000E+00  0.13200264570E+04  0.13200264570E+04  0.50400001928E-02 0. -1.
        1   -1    0    0  501    0  0.00000000000E+00  0.00000000000E+00 -0.17018593371E+04  0.17018593371E+04  0.50400001928E-02 0.  1.
    10030    2    1    2    0    0  0.00000000000E+00  0.00000000000E+00 -0.38183288016E+03  0.30218857941E+04  0.29976653256E+04 0.  0.
        2    1    3    3  502    0  0.12607810733E+04 -0.18061690967E+03 -0.98743214215E+03  0.16115872977E+04  0.25500000920E-02 0.  1.
       -2    1    3    3    0  502 -0.12607810733E+04  0.18061690967E+03  0.60559926200E+03  0.14102984964E+04  0.25500000920E-02 0. -1.
</event>
<event>
 5   0  0.2628425E-06  0.2912323E+04  0.7818609E-02  0.8269220E-01
       -1   -1    0    0    0  501  0.00000000000E+00  0.00000000000E+00  0.17846572589E+04  0.17846572589E+04  0.50400001928E-02 0.  1.
        1   -1    0    0  501    0  0.00000000000E+00  0.00000000000E+00 -0.11881308778E+04  0.11881308778E+04  0.50400001928E-02 0. -1.
    10030    2    1    2    0    0  0.00000000000E+00  0.00000000000E+00  0.59652638109E+03  0.29727881367E+04  0.29123230559E+04 0.  0.
        1    1    3    3  502    0 -0.41483737325E+03 -0.12103544544E+03  0.17176972691E+04  0.17712209161E+04  0.50400001928E-02 0.  1.
       -1    1    3    3    0  502  0.41483737325E+03  0.12103544544E+03 -0.11211708880E+04  0.12015672206E+04  0.50400001928E-02 0. -1.
</event>
<event>
 5   0  0.2504260E-06  0.3037342E+04  0.7818609E-02  0.8233147E-01
        1   -1    0    0  501    0  0.00000000000E+00  0.00000000000E+00  0.24468501797E+04  0.24468501797E+04  0.50400001928E-02 0. -1.
       -1   -1    0    0    0  501  0.00000000000E+00  0.00000000000E+00 -0.94258386004E+03  0.94258386006E+03  0.50400001928E-02 0.  1.
    10030    2    1    2    0    0  0.00000000000E+00  0.00000000000E+00  0.15042663197E+04  0.33894340398E+04  0.30373419217E+04 0.  0.
        4    1    3    3  502    0 -0.80971953783E+03  0.99988434665E+03 -0.14820528718E+03  0.12951373891E+04  0.12699999809E+01 0.  1.
       -4    1    3    3    0  502  0.80971953783E+03 -0.99988434665E+03  0.16524716069E+04  0.20942966507E+04  0.12699999809E+01 0. -1.
</event>
<event>
 5   0  0.7193153E-06  0.3181044E+04  0.7818609E-02  0.8193841E-01
        2   -1    0    0  501    0  0.00000000000E+00  0.00000000000E+00  0.25444069845E+04  0.25444069845E+04  0.25500000920E-02 0. -1.
       -2   -1    0    0    0  501  0.00000000000E+00  0.00000000000E+00 -0.99424383229E+03  0.99424383229E+03  0.25500000920E-02 0.  1.
    10030    2    1    2    0    0  0.00000000000E+00  0.00000000000E+00  0.15501631522E+04  0.35386508168E+04  0.31810444519E+04 0.  0.
        4    1    3    3  502    0  0.14518171818E+04  0.45599351441E+03  0.12897550677E+04  0.19947864452E+04  0.12699999809E+01 0. -1.
       -4    1    3    3    0  502 -0.14518171818E+04 -0.45599351441E+03  0.26040808454E+03  0.15438643716E+04  0.12699999809E+01 0.  1.
</event>
<event>
 5   0  0.2552990E-06  0.3007861E+04  0.7818609E-02  0.8241490E-01
        1   -1    0    0  501    0  0.00000000000E+00  0.00000000000E+00  0.18296123793E+04  0.18296123793E+04  0.50400001928E-02 0.  1.
       -1   -1    0    0    0  501  0.00000000000E+00  0.00000000000E+00 -0.12362218636E+04  0.12362218636E+04  0.50400001928E-02 0. -1.
    10030    2    1    2    0    0  0.00000000000E+00  0.00000000000E+00  0.59339051565E+03  0.30658342429E+04  0.30078609179E+04 0.  0.
        3    1    3    3  502    0  0.62785673400E+03 -0.12696624283E+04  0.81196828144E+03  0.16326479291E+04  0.10100000352E+00 0.  1.
       -3    1    3    3    0  502 -0.62785673400E+03  0.12696624283E+04 -0.21857776579E+03  0.14331863138E+04  0.10100000352E+00 0. -1.
</event>
<event>
 5   0  0.2628425E-06  0.2937423E+04  0.7818609E-02  0.8261829E-01
        1   -1    0    0  501    0  0.00000000000E+00  0.00000000000E+00  0.14475880652E+04  0.14475880652E+04  0.50400001928E-02 0.  1.
       -1   -1    0    0    0  501  0.00000000000E+00  0.00000000000E+00 -0.14901431910E+04  0.14901431910E+04  0.50400001928E-02 0. -1.
    10030    2    1    2    0    0  0.00000000000E+00  0.00000000000E+00 -0.42555125809E+02  0.29377312563E+04  0.29374230195E+04 0.  0.
        1    1    3    3  502    0  0.14381255300E+04  0.35439103254E+02 -0.31737032757E+03  0.14731547423E+04  0.50400001928E-02 0. -1.
       -1    1    3    3    0  502 -0.14381255300E+04 -0.35439103254E+02  0.27481520177E+03  0.14645765139E+04  0.50400001928E-02 0.  1.
</event>
<event>
 5   0  0.2628425E-06  0.3036034E+04  0.7818609E-02  0.8233515E-01
       -1   -1    0    0    0  501  0.00000000000E+00  0.00000000000E+00  0.75296727105E+03  0.75296727107E+03  0.50400001928E-02 0.  1.
        1   -1    0    0  501    0  0.00000000000E+00  0.00000000000E+00 -0.30603920376E+04  0.30603920376E+04  0.50400001928E-02 0. -1.
    10030    2    1    2    0    0  0.00000000000E+00  0.00000000000E+00 -0.23074247665E+04  0.38133593086E+04  0.30360336236E+04 0.  0.
        1    1    3    3  502    0 -0.10094209083E+04 -0.32796443869E+03 -0.25168897759E+04  0.27315243706E+04  0.50400001928E-02 0. -1.
       -1    1    3    3    0  502  0.10094209083E+04  0.32796443869E+03  0.20946500934E+03  0.10818349381E+04  0.50400001928E-02 0.  1.
</event>
<event>
 5   0  0.7193153E-06  0.3005164E+04  0.7818609E-02  0.8242258E-01
       -2   -1    0    0    0  501  0.00000000000E+00  0.00000000000E+00  0.11307901822E+04  0.11307901823E+04  0.25500000920E-02 0.  1.
        2   -1    0    0  501    0  0.00000000000E+00  0.00000000000E+00 -0.19966151476E+04  0.19966151476E+04  0.25500000920E-02 0. -1.
    10030    2    1    2    0    0  0.00000000000E+00  0.00000000000E+00 -0.86582496533E+03  0.31274053298E+04  0.30051640931E+04 0.  0.
        4    1    3    3  502    0  0.12642616202E+04  0.69090484686E+03 -0.87693444755E+03  0.16866305434E+04  0.12699999809E+01 0. -1.
       -4    1    3    3    0  502 -0.12642616202E+04 -0.69090484686E+03  0.11109482220E+02  0.14407747864E+04  0.12699999809E+01 0.  1.
</event>
<event>
 5   0  0.7201538E-06  0.2996901E+04  0.7818609E-02  0.8244616E-01
        2   -1    0    0  501    0  0.00000000000E+00  0.00000000000E+00  0.25576169046E+04  0.25576169046E+04  0.25500000920E-02 0. -1.
       -2   -1    0    0    0  501  0.00000000000E+00  0.00000000000E+00 -0.87790838847E+03  0.87790838847E+03  0.25500000920E-02 0.  1.
    10030    2    1    2    0    0  0.00000000000E+00  0.00000000000E+00  0.16797085161E+04  0.34355252931E+04  0.29969006223E+04 0.  0.
        3    1    3    3  502    0  0.58088236932E+03 -0.39737943741E+03 -0.67664477672E+03  0.97631086664E+03  0.10100000352E+00 0.  1.
       -3    1    3    3    0  502 -0.58088236932E+03  0.39737943741E+03  0.23563532928E+04  0.24592144264E+04  0.10100000352E+00 0. -1.
</event>
<event>
 5   0  0.6780150E-06  0.2337668E+04  0.7818609E-02  0.8463215E-01
       -2   -1    0    0    0  501  0.00000000000E+00  0.00000000000E+00  0.17301064555E+04  0.17301064555E+04  0.25500000920E-02 0. -1.
        2   -1    0    0  501    0  0.00000000000E+00  0.00000000000E+00 -0.78964686976E+03  0.78964686976E+03  0.25500000920E-02 0.  1.
    10030    2    1    2    0    0  0.00000000000E+00  0.00000000000E+00  0.94045958574E+03  0.25197533253E+04  0.23376681945E+04 0.  0.
        5    1    3    3  502    0 -0.94744031396E+02 -0.78051428449E+01 -0.78546264020E+03  0.79120856977E+03  0.46999998093E+01 0.  1.
       -5    1    3    3    0  502  0.94744031396E+02  0.78051428449E+01  0.17259222259E+04  0.17285447555E+04  0.46999998093E+01 0. -1.
</event>
<event>
 5   0  0.7201538E-06  0.3439912E+04  0.7818609E-02  0.8128179E-01
        2   -1    0    0  501    0  0.00000000000E+00  0.00000000000E+00  0.17390530092E+04  0.17390530092E+04  0.25500000920E-02 0. -1.
       -2   -1    0    0    0  501  0.00000000000E+00  0.00000000000E+00 -0.17010689098E+04  0.17010689098E+04  0.25500000920E-02 0.  1.
    10030    2    1    2    0    0  0.00000000000E+00  0.00000000000E+00  0.37984099403E+02  0.34401219189E+04  0.34399122118E+04 0.  0.
        3    1    3    3  502    0 -0.74914816746E+03 -0.36270953064E+03 -0.14862468161E+04  0.17034408675E+04  0.10100000352E+00 0.  1.
       -3    1    3    3    0  502  0.74914816746E+03  0.36270953064E+03  0.15242309155E+04  0.17366810514E+04  0.10100000352E+00 0. -1.
</event>
<event>
 5   0  0.2672155E-06  0.3003585E+04  0.7818609E-02  0.8242708E-01
        1   -1    0    0  501    0  0.00000000000E+00  0.00000000000E+00  0.20693681363E+04  0.20693681363E+04  0.50400001928E-02 0.  1.
       -1   -1    0    0    0  501  0.00000000000E+00  0.00000000000E+00 -0.10898885420E+04  0.10898885420E+04  0.50400001928E-02 0. -1.
    10030    2    1    2    0    0  0.00000000000E+00  0.00000000000E+00  0.97947959431E+03  0.31592566783E+04  0.30035849387E+04 0.  0.
        5    1    3    3  502    0  0.10301184501E+04  0.37933145878E+03 -0.58822916717E+03  0.12454204190E+04  0.46999998093E+01 0. -1.
       -5    1    3    3    0  502 -0.10301184501E+04 -0.37933145878E+03  0.15677087615E+04  0.19138362594E+04  0.46999998093E+01 0.  1.
</event>
<event>
 5   0  0.6780150E-06  0.2686720E+04  0.7818609E-02  0.8339327E-01
       -2   -1    0    0    0  501  0.00000000000E+00  0.00000000000E+00  0.97378887469E+03  0.97378887469E+03  0.25500000920E-02 0.  1.
        2   -1    0    0  501    0  0.00000000000E+00  0.00000000000E+00 -0.18531903484E+04  0.18531903484E+04  0.25500000920E-02 0. -1.
    10030    2    1    2    0    0  0.00000000000E+00  0.00000000000E+00 -0.87940147373E+03  0.28269792231E+04  0.26867200405E+04 0.  0.
        5    1    3    3  502    0  0.13230550234E+03  0.13221934163E+04 -0.64721159480E+03  0.14780409718E+04  0.46999998093E+01 0.  1.
       -5    1    3    3    0  502 -0.13230550234E+03 -0.13221934163E+04 -0.23218987893E+03  0.13489382513E+04  0.46999998093E+01 0. -1.
</event>
<event>
 5   0  0.6792811E-06  0.3003350E+04  0.7818609E-02  0.8242775E-01
       -2   -1    0    0    0  501  0.00000000000E+00  0.00000000000E+00  0.10231819030E+04  0.10231819030E+04  0.25500000920E-02 0. -1.
        2   -1    0    0  501    0  0.00000000000E+00  0.00000000000E+00 -0.22039358951E+04  0.22039358951E+04  0.25500000920E-02 0.  1.
    10030    2    1    2    0    0  0.00000000000E+00  0.00000000000E+00 -0.11807539921E+04  0.32271177981E+04  0.30033496787E+04 0.  0.
        2    1    3    3  502    0  0.11167269907E+04  0.33752656413E+03  0.42559912387E+03  0.12418284775E+04  0.25500000920E-02 0. -1.
       -2    1    3    3    0  502 -0.11167269907E+04 -0.33752656413E+03 -0.16063531160E+04  0.19852893206E+04  0.25500000920E-02 0.  1.
</event>
<event>
 5   0  0.6780150E-06  0.2958201E+04  0.7818609E-02  0.8255769E-01
        2   -1    0    0  501    0  0.00000000000E+00  0.00000000000E+00  0.11216454888E+04  0.11216454888E+04  0.25500000920E-02 0. -1.
       -2   -1    0    0    0  501  0.00000000000E+00  0.00000000000E+00 -0.19504718919E+04  0.19504718919E+04  0.25500000920E-02 0.  1.
    10030    2    1    2    0    0  0.00000000000E+00  0.00000000000E+00 -0.82882640311E+03  0.30721173808E+04  0.29582008036E+04 0.  0.
        5    1    3    3  502    0 -0.66267065551E+03  0.12338922826E+04  0.79390163410E+02  0.14028355039E+04  0.46999998093E+01 0. -1.
       -5    1    3    3    0  502  0.66267065551E+03 -0.12338922826E+04 -0.90821656652E+03  0.16692818769E+04  0.46999998093E+01 0.  1.
</event>
<event>
 5   0  0.2628425E-06  0.3036661E+04  0.7818609E-02  0.8233339E-01
       -1   -1    0    0    0  501  0.00000000000E+00  0.00000000000E+00  0.15652056180E+04  0.15652056180E+04  0.50400001928E-02 0.  1.
        1   -1    0    0  501    0  0.00000000000E+00  0.00000000000E+00 -0.14728595832E+04  0.14728595832E+04  0.50400001928E-02 0. -1.
    10030    2    1    2    0    0  0.00000000000E+00  0.00000000000E+00  0.92346034743E+02  0.30380652012E+04  0.30366613866E+04 0.  0.
        1    1    3    3  502    0 -0.11450926720E+04 -0.42538315540E+03 -0.85598662634E+03  0.14916102577E+04  0.50400001928E-02 0. -1.
       -1    1    3    3    0  502  0.11450926720E+04  0.42538315540E+03  0.94833266108E+03  0.15464549435E+04  0.50400001928E-02 0.  1.
</event>
<event>
 5   0  0.6792811E-06  0.2991780E+04  0.7818609E-02  0.8246082E-01
        2   -1    0    0  501    0  0.00000000000E+00  0.00000000000E+00  0.14143815552E+04  0.14143815552E+04  0.25500000920E-02 0.  1.
       -2   -1    0    0    0  501  0.00000000000E+00  0.00000000000E+00 -0.15820951271E+04  0.15820951271E+04  0.25500000920E-02 0. -1.
    10030    2    1    2    0    0  0.00000000000E+00  0.00000000000E+00 -0.16771357186E+03  0.29964766824E+04  0.29917795149E+04 0.  0.
        2    1    3    3  502    0  0.12376498420E+04  0.12718457978E+03  0.74794884877E+03  0.14516819655E+04  0.25500000920E-02 0.  1.
       -2    1    3    3    0  502 -0.12376498420E+04 -0.12718457978E+03 -0.91566242063E+03  0.15447947168E+04  0.25500000920E-02 0. -1.
</event>
<event>
 5   0  0.2672155E-06  0.2977173E+04  0.7818609E-02  0.8250279E-01
        1   -1    0    0  501    0  0.00000000000E+00  0.00000000000E+00  0.16798824494E+04  0.16798824494E+04  0.50400001928E-02 0. -1.
       -1   -1    0    0    0  501  0.00000000000E+00  0.00000000000E+00 -0.13190745056E+04  0.13190745056E+04  0.50400001928E-02 0.  1.
    10030    2    1    2    0    0  0.00000000000E+00  0.00000000000E+00  0.36080794376E+03  0.29989569550E+04  0.29771732307E+04 0.  0.
        5    1    3    3  502    0 -0.14852061620E+04 -0.86189339075E+02  0.12902018765E+03  0.14932964356E+04  0.46999998093E+01 0.  1.
       -5    1    3    3    0  502  0.14852061620E+04  0.86189339075E+02  0.23178775611E+03  0.15056605194E+04  0.46999998093E+01 0. -1.
</event>
<event>
 5   0  0.2552990E-06  0.2979614E+04  0.7818609E-02  0.8249576E-01
        1   -1    0    0  501    0  0.00000000000E+00  0.00000000000E+00  0.30257617739E+04  0.30257617739E+04  0.50400001928E-02 0. -1.
       -1   -1    0    0    0  501  0.00000000000E+00  0.00000000000E+00 -0.73354261675E+03  0.73354261677E+03  0.50400001928E-02 0.  1.
    10030    2    1    2    0    0  0.00000000000E+00  0.00000000000E+00  0.22922191572E+04  0.37593043907E+04  0.29796142095E+04 0.  0.
        3    1    3    3  502    0  0.76294046579E+03 -0.12427963887E+04  0.76154871442E+03  0.16451679163E+04  0.10100000352E+00 0.  1.
       -3    1    3    3    0  502 -0.76294046579E+03  0.12427963887E+04  0.15306704428E+04  0.21141364744E+04  0.10100000352E+00 0. -1.
</event>
<event>
 5   0  0.7193153E-06  0.3022914E+04  0.7818609E-02  0.8237218E-01
        2   -1    0    0  501    0  0.00000000000E+00  0.00000000000E+00  0.21622253173E+04  0.21622253173E+04  0.25500000920E-02 0. -1.
       -2   -1    0    0    0  501  0.00000000000E+00  0.00000000000E+00 -0.10565511125E+04  0.10565511125E+04  0.25500000920E-02 0.  1.
    10030    2    1    2    0    0  0.00000000000E+00  0.00000000000E+00  0.11056742048E+04  0.32187764298E+04  0.30229135380E+04 0.  0.
        4    1    3    3  502    0 -0.31441293849E+03 -0.14764311219E+04  0.63389852308E+03  0.16372334299E+04  0.12699999809E+01 0. -1.
       -4    1    3    3    0  502  0.31441293849E+03  0.14764311219E+04  0.47177568174E+03  0.15815429999E+04  0.12699999809E+01 0.  1.
</event>
<event>
 5   0  0.2672155E-06  0.3011332E+04  0.7818609E-02  0.8240502E-01
       -1   -1    0    0    0  501  0.00000000000E+00  0.00000000000E+00  0.90978376674E+03  0.90978376676E+03  0.50400001928E-02 0.  1.
        1   -1    0    0  501    0  0.00000000000E+00  0.00000000000E+00 -0.24918346997E+04  0.24918346997E+04  0.50400001928E-02 0. -1.
    10030    2    1    2    0    0  0.00000000000E+00  0.00000000000E+00 -0.15820509329E+04  0.34016184664E+04  0.30113324354E+04 0.  0.
        5    1    3    3  502    0 -0.57568185699E+03 -0.80923185399E+03  0.48734836738E+03  0.11062532780E+04  0.46999998093E+01 0.  1.
       -5    1    3    3    0  502  0.57568185699E+03  0.80923185399E+03 -0.20693993003E+04  0.22953651884E+04  0.46999998093E+01 0. -1.
</event>
<event>
 5   0  0.2628425E-06  0.3001200E+04  0.7818609E-02  0.8243388E-01
       -1   -1    0    0    0  501  0.00000000000E+00  0.00000000000E+00  0.86973464028E+03  0.86973464029E+03  0.50400001928E-02 0. -1.
        1   -1    0    0  501    0  0.00000000000E+00  0.00000000000E+00 -0.25890660407E+04  0.25890660407E+04  0.50400001928E-02 0.  1.
    10030    2    1    2    0    0  0.00000000000E+00  0.00000000000E+00 -0.17193314004E+04  0.34588006810E+04  0.30012000410E+04 0.  0.
        1    1    3    3  502    0 -0.10090779716E+04 -0.86404912884E+03 -0.16639075662E+04  0.21291800391E+04  0.50400001928E-02 0.  1.
       -1    1    3    3    0  502  0.10090779716E+04  0.86404912884E+03 -0.55423834178E+02  0.13296206419E+04  0.50400001928E-02 0. -1.
</event>
<event>
 5   0  0.2552990E-06  0.2982118E+04  0.7818609E-02  0.8248856E-01
       -1   -1    0    0    0  501  0.00000000000E+00  0.00000000000E+00  0.11660913060E+04  0.11660913060E+04  0.50400001928E-02 0.  1.
        1   -1    0    0  501    0  0.00000000000E+00  0.00000000000E+00 -0.19065885927E+04  0.19065885927E+04  0.50400001928E-02 0. -1.
    10030    2    1    2    0    0  0.00000000000E+00  0.00000000000E+00 -0.74049728669E+03  0.30726798988E+04  0.29821176249E+04 0.  0.
        3    1    3    3  502    0  0.21369367896E+03  0.13812193971E+03  0.11435564281E+04  0.11715220754E+04  0.10100000352E+00 0.  1.
       -3    1    3    3    0  502 -0.21369367896E+03 -0.13812193971E+03 -0.18840537148E+04  0.19011578233E+04  0.10100000352E+00 0. -1.
</event>
<event>
 5   0  0.6780150E-06  0.3005137E+04  0.7818609E-02  0.8242265E-01
       -2   -1    0    0    0  501  0.00000000000E+00  0.00000000000E+00  0.35960153075E+04  0.35960153075E+04  0.25500000920E-02 0. -1.
        2   -1    0    0  501    0  0.00000000000E+00  0.00000000000E+00 -0.62783722746E+03  0.62783722747E+03  0.25500000920E-02 0.  1.
    10030    2    1    2    0    0  0.00000000000E+00  0.00000000000E+00  0.29681780800E+04  0.42238525350E+04  0.30051371220E+04 0.  0.
        5    1    3    3  502    0  0.58736358105E+03  0.78041156677E+03 -0.12072713119E+03  0.98419272507E+03  0.46999998093E+01 0.  1.
       -5    1    3    3    0  502 -0.58736358105E+03 -0.78041156677E+03  0.30889052112E+04  0.32396598099E+04  0.46999998093E+01 0. -1.
</event>
<event>
 5   0  0.2504260E-06  0.3034648E+04  0.7818609E-02  0.8233906E-01
       -1   -1    0    0    0  501  0.00000000000E+00  0.00000000000E+00  0.16714870240E+04  0.16714870240E+04  0.50400001928E-02 0. -1.
        1   -1    0    0  501    0  0.00000000000E+00  0.00000000000E+00 -0.13773793127E+04  0.13773793127E+04  0.50400001928E-02 0.  1.
    10030    2    1    2    0    0  0.00000000000E+00  0.00000000000E+00  0.29410771130E+03  0.30488663367E+04  0.30346476885E+04 0.  0.
        4    1    3    3  502    0  0.10817837175E+04 -0.10514074494E+04  0.31077874344E+03  0.15402268263E+04  0.12699999809E+01 0. -1.
       -4    1    3    3    0  502 -0.10817837175E+04  0.10514074494E+04 -0.16671032136E+02  0.15086395104E+04  0.12699999809E+01 0.  1.
</event>
<event>
 5   0  0.2298500E-06  0.2281238E+04  0.7818609E-02  0.8485356E-01
        3   -1    0    0  501    0  0.00000000000E+00  0.00000000000E+00  0.44396633014E+03  0.44396634163E+03  0.10100000352E+00 0.  1.
       -3   -1    0    0    0  501  0.00000000000E+00  0.00000000000E+00 -0.29304293561E+04  0.29304293578E+04  0.10100000352E+00 0. -1.
    10030    2    1    2    0    0  0.00000000000E+00  0.00000000000E+00 -0.24864630260E+04  0.33743956995E+04  0.22812382508E+04 0.  0.
        4    1    3    3  502    0 -0.85912613138E+03  0.50946617808E+03 -0.42852293595E+03  0.10868702847E+04  0.12699999809E+01 0.  1.
       -4    1    3    3    0  502  0.85912613138E+03 -0.50946617808E+03 -0.20579400900E+04  0.22875254148E+04  0.12699999809E+01 0. -1.
</event>
<event>
 5   0  0.6780150E-06  0.2952152E+04  0.7818609E-02  0.8257528E-01
       -2   -1    0    0    0  501  0.00000000000E+00  0.00000000000E+00  0.92789757973E+03  0.92789757973E+03  0.25500000920E-02 0.  1.
        2   -1    0    0  501    0  0.00000000000E+00  0.00000000000E+00 -0.23481047385E+04  0.23481047385E+04  0.25500000920E-02 0. -1.
    10030    2    1    2    0    0  0.00000000000E+00  0.00000000000E+00 -0.14202071587E+04  0.32760023182E+04  0.29521522344E+04 0.  0.
        5    1    3    3  502    0  0.36678474842E+03 -0.83296295237E+03 -0.19996587505E+04  0.21970470045E+04  0.46999998093E+01 0. -1.
       -5    1    3    3    0  502 -0.36678474842E+03  0.83296295237E+03  0.57945159177E+03  0.10789553137E+04  0.46999998093E+01 0.  1.
</event>
<event>
 5   0  0.2672155E-06  0.2816036E+04  0.7818609E-02  0.8298307E-01
       -1   -1    0    0    0  501  0.00000000000E+00  0.00000000000E+00  0.17719975748E+04  0.17719975748E+04  0.50400001928E-02 0.  1.
        1   -1    0    0  501    0  0.00000000000E+00  0.00000000000E+00 -0.11188020378E+04  0.11188020378E+04  0.50400001928E-02 0. -1.
    10030    2    1    2    0    0  0.00000000000E+00  0.00000000000E+00  0.65319553703E+03  0.28907996126E+04  0.28160358646E+04 0.  0.
        5    1    3    3  502    0 -0.75857198695E+03  0.27898489820E+03 -0.85693315025E+03  0.11779730671E+04  0.46999998093E+01 0. -1.
       -5    1    3    3    0  502  0.75857198695E+03 -0.27898489820E+03  0.15101286873E+04  0.17128265455E+04  0.46999998093E+01 0.  1.
</event>
<event>
 5   0  0.7193153E-06  0.2700705E+04  0.7818609E-02  0.8334776E-01
        2   -1    0    0  501    0  0.00000000000E+00  0.00000000000E+00  0.23782208954E+04  0.23782208954E+04  0.25500000920E-02 0.  1.
       -2   -1    0    0    0  501  0.00000000000E+00  0.00000000000E+00 -0.76672918082E+03  0.76672918082E+03  0.25500000920E-02 0. -1.
    10030    2    1    2    0    0  0.00000000000E+00  0.00000000000E+00  0.16114917145E+04  0.31449500762E+04  0.27007046184E+04 0.  0.
        4    1    3    3  502    0  0.91661656314E+03 -0.91657780131E+03  0.36515978759E+03  0.13467160328E+04  0.12699999809E+01 0. -1.
       -4    1    3    3    0  502 -0.91661656314E+03  0.91657780131E+03  0.12463319270E+04  0.17982340434E+04  0.12699999809E+01 0.  1.
</event>
<event>
 5   0  0.2504260E-06  0.2387083E+04  0.7818609E-02  0.8444355E-01
        1   -1    0    0  501    0  0.00000000000E+00  0.00000000000E+00  0.11053935309E+04  0.11053935310E+04  0.50400001928E-02 0.  1.
       -1   -1    0    0    0  501  0.00000000000E+00  0.00000000000E+00 -0.12887186353E+04  0.12887186354E+04  0.50400001928E-02 0. -1.
    10030    2    1    2    0    0  0.00000000000E+00  0.00000000000E+00 -0.18332510440E+03  0.23941121663E+04  0.23870829418E+04 0.  0.
        4    1    3    3  502    0  0.45003358151E+03 -0.67760122990E+03 -0.96765650455E+03  0.12641338438E+04  0.12699999809E+01 0. -1.
       -4    1    3    3    0  502 -0.45003358151E+03  0.67760122990E+03  0.78433140015E+03  0.11299783225E+04  0.12699999809E+01 0.  1.
</event>
<event>
 5   0  0.2422083E-06  0.3001368E+04  0.7818609E-02  0.8243340E-01
        1   -1    0    0  501    0  0.00000000000E+00  0.00000000000E+00  0.24946264696E+04  0.24946264696E+04  0.50400001928E-02 0. -1.
       -1   -1    0    0    0  501  0.00000000000E+00  0.00000000000E+00 -0.90276144918E+03  0.90276144919E+03  0.50400001928E-02 0.  1.
    10030    2    1    2    0    0  0.00000000000E+00  0.00000000000E+00  0.15918650204E+04  0.33973879188E+04  0.30013680926E+04 0.  0.
        2    1    3    3  502    0 -0.52196446275E+03 -0.80959912242E+03  0.20984851514E+04  0.23090122499E+04  0.25500000920E-02 0. -1.
       -2    1    3    3    0  502  0.52196446275E+03  0.80959912242E+03 -0.50662013105E+03  0.10883756689E+04  0.25500000920E-02 0.  1.
</event>
<event>
 5   0  0.2552990E-06  0.3076555E+04  0.7818609E-02  0.8222202E-01
       -1   -1    0    0    0  501  0.00000000000E+00  0.00000000000E+00  0.91689225354E+03  0.91689225355E+03  0.50400001928E-02 0.  1.
        1   -1    0    0  501    0  0.00000000000E+00  0.00000000000E+00 -0.25807807361E+04  0.25807807361E+04  0.50400001928E-02 0. -1.
    10030    2    1    2    0    0  0.00000000000E+00  0.00000000000E+00 -0.16638884826E+04  0.34976729897E+04  0.30765551287E+04 0.  0.
        3    1    3    3  502    0  0.43851140848E+03 -0.83507562443E+03  0.54956539637E+03  0.10916344118E+04  0.10100000352E+00 0.  1.
       -3    1    3    3    0  502 -0.43851140848E+03  0.83507562443E+03 -0.22134538789E+04  0.24060385779E+04  0.10100000352E+00 0. -1.
</event>
<event>
 5   0  0.7201538E-06  0.3094623E+04  0.7818609E-02  0.8217215E-01
        2   -1    0    0  501    0  0.00000000000E+00  0.00000000000E+00  0.14794338152E+04  0.14794338152E+04  0.25500000920E-02 0. -1.
       -2   -1    0    0    0  501  0.00000000000E+00  0.00000000000E+00 -0.16183039426E+04  0.16183039426E+04  0.25500000920E-02 0.  1.
    10030    2    1    2    0    0  0.00000000000E+00  0.00000000000E+00 -0.13887012739E+03  0.30977377577E+04  0.30946234510E+04 0.  0.
        3    1    3    3  502    0  0.23440117787E+03 -0.13367759030E+04  0.67445467474E+03  0.15155206516E+04  0.10100000352E+00 0. -1.
       -3    1    3    3    0  502 -0.23440117787E+03  0.13367759030E+04 -0.81332480213E+03  0.15822171061E+04  0.10100000352E+00 0.  1.
</event>
<event>
 5   0  0.2422083E-06  0.3009533E+04  0.7818609E-02  0.8241014E-01
        1   -1    0    0  501    0  0.00000000000E+00  0.00000000000E+00  0.12192858163E+04  0.12192858164E+04  0.50400001928E-02 0.  1.
       -1   -1    0    0    0  501  0.00000000000E+00  0.00000000000E+00 -0.18570888661E+04  0.18570888661E+04  0.50400001928E-02 0. -1.
    10030    2    1    2    0    0  0.00000000000E+00  0.00000000000E+00 -0.63780304978E+03  0.30763746825E+04  0.30095329300E+04 0.  0.
        2    1    3    3  502    0  0.13483160079E+04 -0.41481265486E+03 -0.85426689616E+03  0.16491808650E+04  0.25500000920E-02 0. -1.
       -2    1    3    3    0  502 -0.13483160079E+04  0.41481265486E+03  0.21646384638E+03  0.14271938174E+04  0.25500000920E-02 0.  1.
</event>
<event>
 5   0  0.2422083E-06  0.2965158E+04  0.7818609E-02  0.8253751E-01
        1   -1    0    0  501    0  0.00000000000E+00  0.00000000000E+00  0.13813939244E+04  0.13813939244E+04  0.50400001928E-02 0. -1.
       -1   -1    0    0    0  501  0.00000000000E+00  0.00000000000E+00 -0.15911756373E+04  0.15911756373E+04  0.50400001928E-02 0.  1.
    10030    2    1    2    0    0  0.00000000000E+00  0.00000000000E+00 -0.20978171297E+03  0.29725695617E+04  0.29651579101E+04 0.  0.
        2    1    3    3  502    0 -0.10900409444E+04  0.97507888870E+03  0.13876451334E+03  0.14690894084E+04  0.25500000920E-02 0. -1.
       -2    1    3    3    0  502  0.10900409444E+04 -0.97507888870E+03 -0.34854622631E+03  0.15034801533E+04  0.25500000920E-02 0.  1.
</event>
<event>
 5   0  0.6780150E-06  0.2690465E+04  0.7818609E-02  0.8338106E-01
       -2   -1    0    0    0  501  0.00000000000E+00  0.00000000000E+00  0.16744018230E+04  0.16744018230E+04  0.25500000920E-02 0.  1.
        2   -1    0    0  501    0  0.00000000000E+00  0.00000000000E+00 -0.10807739432E+04  0.10807739432E+04  0.25500000920E-02 0. -1.
    10030    2    1    2    0    0  0.00000000000E+00  0.00000000000E+00  0.59362787979E+03  0.27551757663E+04  0.26904645404E+04 0.  0.
        5    1    3    3  502    0 -0.50930776847E+03 -0.10331459574E+04 -0.41476799907E+03  0.12242710302E+04  0.46999998093E+01 0. -1.
       -5    1    3    3    0  502  0.50930776847E+03  0.10331459574E+04  0.10083958789E+04  0.15309047361E+04  0.46999998093E+01 0.  1.
</event>
<event>
 5   0  0.7193153E-06  0.3052383E+04  0.7818609E-02  0.8228929E-01
        2   -1    0    0  501    0  0.00000000000E+00  0.00000000000E+00  0.21111879063E+04  0.21111879064E+04  0.25500000920E-02 0. -1.
       -2   -1    0    0    0  501  0.00000000000E+00  0.00000000000E+00 -0.11032934533E+04  0.11032934533E+04  0.25500000920E-02 0.  1.
    10030    2    1    2    0    0  0.00000000000E+00  0.00000000000E+00  0.10078944530E+04  0.32144813597E+04  0.30523825421E+04 0.  0.
        4    1    3    3  502    0 -0.59439911946E+03  0.83552611206E+03 -0.68650197308E+03  0.12339776210E+04  0.12699999809E+01 0.  1.
       -4    1    3    3    0  502  0.59439911946E+03 -0.83552611206E+03  0.16943964261E+04  0.19805037387E+04  0.12699999809E+01 0. -1.
</event>
<event>
 5   0  0.2422083E-06  0.3057738E+04  0.7818609E-02  0.8227433E-01
       -1   -1    0    0    0  501  0.00000000000E+00  0.00000000000E+00  0.93800772035E+03  0.93800772036E+03  0.50400001928E-02 0. -1.
        1   -1    0    0  501    0  0.00000000000E+00  0.00000000000E+00 -0.24919199680E+04  0.24919199680E+04  0.50400001928E-02 0.  1.
    10030    2    1    2    0    0  0.00000000000E+00  0.00000000000E+00 -0.15539122477E+04  0.34299276884E+04  0.30577378361E+04 0.  0.
        2    1    3    3  502    0  0.84974415737E+03 -0.94252782903E+03  0.17948182413E+03  0.12816542305E+04  0.25500000920E-02 0. -1.
       -2    1    3    3    0  502 -0.84974415737E+03  0.94252782903E+03 -0.17333940718E+04  0.21482734578E+04  0.25500000920E-02 0.  1.
</event>
<event>
 5   0  0.2552990E-06  0.2982441E+04  0.7818609E-02  0.8248763E-01
        1   -1    0    0  501    0  0.00000000000E+00  0.00000000000E+00  0.17769034338E+04  0.17769034338E+04  0.50400001928E-02 0.  1.
       -1   -1    0    0    0  501  0.00000000000E+00  0.00000000000E+00 -0.12514685069E+04  0.12514685069E+04  0.50400001928E-02 0. -1.
    10030    2    1    2    0    0  0.00000000000E+00  0.00000000000E+00  0.52543492686E+03  0.30283719407E+04  0.29824410721E+04 0.  0.
        3    1    3    3  502    0 -0.13854339936E+04  0.47991815566E+03 -0.13482447220E+02  0.14662641554E+04  0.10100000352E+00 0. -1.
       -3    1    3    3    0  502  0.13854339936E+04 -0.47991815566E+03  0.53891737408E+03  0.15621077853E+04  0.10100000352E+00 0.  1.
</event>
<event>
 5   0  0.2552990E-06  0.2776380E+04  0.7818609E-02  0.8310639E-01
       -1   -1    0    0    0  501  0.00000000000E+00  0.00000000000E+00  0.82095754571E+03  0.82095754573E+03  0.50400001928E-02 0. -1.
        1   -1    0    0  501    0  0.00000000000E+00  0.00000000000E+00 -0.23473454414E+04  0.23473454414E+04  0.50400001928E-02 0.  1.
    10030    2    1    2    0    0  0.00000000000E+00  0.00000000000E+00 -0.15263878957E+04  0.31683029871E+04  0.27763796229E+04 0.  0.
        3    1    3    3  502    0  0.11466749884E+04 -0.93134200575E+02 -0.16497343358E+04  0.20112585356E+04  0.10100000352E+00 0.  1.
       -3    1    3    3    0  502 -0.11466749884E+04  0.93134200575E+02  0.12334644011E+03  0.11570444515E+04  0.10100000352E+00 0. -1.
</event>
<event>
 5   0  0.6792811E-06  0.2944946E+04  0.7818609E-02  0.8259629E-01
        2   -1    0    0  501    0  0.00000000000E+00  0.00000000000E+00  0.85090681353E+03  0.85090681353E+03  0.25500000920E-02 0.  1.
       -2   -1    0    0    0  501  0.00000000000E+00  0.00000000000E+00 -0.25480780934E+04  0.25480780934E+04  0.25500000920E-02 0. -1.
    10030    2    1    2    0    0  0.00000000000E+00  0.00000000000E+00 -0.16971712799E+04  0.33989849069E+04  0.29449461870E+04 0.  0.
        2    1    3    3  502    0 -0.12229416238E+04  0.37854782101E+03 -0.88942917241E+01  0.12802202063E+04  0.25500000920E-02 0.  1.
       -2    1    3    3    0  502  0.12229416238E+04 -0.37854782101E+03 -0.16882769881E+04  0.21187647007E+04  0.25500000920E-02 0. -1.
</event>
<event>
 5   0  0.2628425E-06  0.2208740E+04  0.7818609E-02  0.8514799E-01
       -1   -1    0    0    0  501  0.00000000000E+00  0.00000000000E+00  0.74536900419E+03  0.74536900421E+03  0.50400001928E-02 0.  1.
        1   -1    0    0  501    0  0.00000000000E+00  0.00000000000E+00 -0.16362802197E+04  0.16362802197E+04  0.50400001928E-02 0. -1.
    10030    2    1    2    0    0  0.00000000000E+00  0.00000000000E+00 -0.89091121549E+03  0.23816492239E+04  0.22087395120E+04 0.  0.
        1    1    3    3  502    0 -0.18355792711E+02 -0.99561512675E+03 -0.96038141948E+03  0.13834445730E+04  0.50400001928E-02 0. -1.
       -1    1    3    3    0  502  0.18355792711E+02  0.99561512675E+03  0.69470203994E+02  0.99820465086E+03  0.50400001928E-02 0.  1.
</event>
<event>
 5   0  0.6780150E-06  0.3001781E+04  0.7818609E-02  0.8243222E-01
        2   -1    0    0  501    0  0.00000000000E+00  0.00000000000E+00  0.12896611323E+04  0.12896611323E+04  0.25500000920E-02 0.  1.
       -2   -1    0    0    0  501  0.00000000000E+00  0.00000000000E+00 -0.17467165063E+04  0.17467165063E+04  0.25500000920E-02 0. -1.
    10030    2    1    2    0    0  0.00000000000E+00  0.00000000000E+00 -0.45705537401E+03  0.30363776385E+04  0.30017810628E+04 0.  0.
        5    1    3    3  502    0  0.17401537290E+03 -0.12126889500E+04  0.64850297477E+03  0.13861724416E+04  0.46999998093E+01 0.  1.
       -5    1    3    3    0  502 -0.17401537290E+03  0.12126889500E+04 -0.11055583488E+04  0.16502051970E+04  0.46999998093E+01 0. -1.
</event>
<event>
 5   0  0.2552990E-06  0.2988159E+04  0.7818609E-02  0.8247120E-01
        1   -1    0    0  501    0  0.00000000000E+00  0.00000000000E+00  0.20771320059E+04  0.20771320059E+04  0.50400001928E-02 0.  1.
       -1   -1    0    0    0  501  0.00000000000E+00  0.00000000000E+00 -0.10746901831E+04  0.10746901832E+04  0.50400001928E-02 0. -1.
    10030    2    1    2    0    0  0.00000000000E+00  0.00000000000E+00  0.10024418227E+04  0.31518221890E+04  0.29881588819E+04 0.  0.
        3    1    3    3  502    0 -0.11637483588E+04 -0.11777373540E+03 -0.47925772118E+03  0.12640683799E+04  0.10100000352E+00 0. -1.
       -3    1    3    3    0  502  0.11637483588E+04  0.11777373540E+03  0.14816995439E+04  0.18877538092E+04  0.10100000352E+00 0.  1.
</event>
<event>
 5   0  0.6792811E-06  0.2860529E+04  0.7818609E-02  0.8284719E-01
       -2   -1    0    0    0  501  0.00000000000E+00  0.00000000000E+00  0.95381965997E+03  0.95381965998E+03  0.25500000920E-02 0. -1.
        2   -1    0    0  501    0  0.00000000000E+00  0.00000000000E+00 -0.21446992672E+04  0.21446992672E+04  0.25500000920E-02 0.  1.
    10030    2    1    2    0    0  0.00000000000E+00  0.00000000000E+00 -0.11908796073E+04  0.30985189272E+04  0.28605288503E+04 0.  0.
        2    1    3    3  502    0 -0.66919276546E+03  0.56626513323E+03  0.62870861004E+03  0.10787722998E+04  0.25500000920E-02 0. -1.
       -2    1    3    3    0  502  0.66919276546E+03 -0.56626513323E+03 -0.18195882173E+04  0.20197466274E+04  0.25500000920E-02 0.  1.
</event>
<event>
 5   0  0.6780150E-06  0.2949322E+04  0.7818609E-02  0.8258352E-01
       -2   -1    0    0    0  501  0.00000000000E+00  0.00000000000E+00  0.17136698496E+04  0.17136698496E+04  0.25500000920E-02 0.  1.
        2   -1    0    0  501    0  0.00000000000E+00  0.00000000000E+00 -0.12689872828E+04  0.12689872828E+04  0.25500000920E-02 0. -1.
    10030    2    1    2    0    0  0.00000000000E+00  0.00000000000E+00  0.44468256677E+03  0.29826571324E+04  0.29493221228E+04 0.  0.
        5    1    3    3  502    0  0.13861338104E+04  0.25602990455E+03  0.66046402318E+03  0.15566480233E+04  0.46999998093E+01 0. -1.
       -5    1    3    3    0  502 -0.13861338104E+04 -0.25602990455E+03 -0.21578145641E+03  0.14260091091E+04  0.46999998093E+01 0.  1.
</event>
<event>
 5   0  0.2628425E-06  0.2941038E+04  0.7818609E-02  0.8260771E-01
       -1   -1    0    0    0  501  0.00000000000E+00  0.00000000000E+00  0.17154683074E+04  0.17154683074E+04  0.50400001928E-02 0. -1.
        1   -1    0    0  501    0  0.00000000000E+00  0.00000000000E+00 -0.12605458505E+04  0.12605458505E+04  0.50400001928E-02 0.  1.
    10030    2    1    2    0    0  0.00000000000E+00  0.00000000000E+00  0.45492245692E+03  0.29760141579E+04  0.29410382225E+04 0.  0.
        1    1    3    3  502    0 -0.10123842586E+04  0.77367467604E+03  0.97031158498E+03  0.16015614142E+04  0.50400001928E-02 0.  1.
       -1    1    3    3    0  502  0.10123842586E+04 -0.77367467604E+03 -0.51538912806E+03  0.13744527437E+04  0.50400001928E-02 0. -1.
</event>
<event>
 5   0  0.2504260E-06  0.3042139E+04  0.7818609E-02  0.8231799E-01
        1   -1    0    0  501    0  0.00000000000E+00  0.00000000000E+00  0.17536692768E+04  0.17536692768E+04  0.50400001928E-02 0.  1.
       -1   -1    0    0    0  501  0.00000000000E+00  0.00000000000E+00 -0.13193212515E+04  0.13193212515E+04  0.50400001928E-02 0. -1.
    10030    2    1    2    0    0  0.00000000000E+00  0.00000000000E+00  0.43434802526E+03  0.30729905283E+04  0.30421394741E+04 0.  0.
        4    1    3    3  502    0 -0.76809900512E+03  0.69822993377E+03  0.13402722841E+04  0.16952381929E+04  0.12699999809E+01 0.  1.
       -4    1    3    3    0  502  0.76809900512E+03 -0.69822993377E+03 -0.90592425884E+03  0.13777523354E+04  0.12699999809E+01 0. -1.
</event>
<event>
 5   0  0.7201538E-06  0.2737268E+04  0.7818609E-02  0.8323013E-01
       -2   -1    0    0    0  501  0.00000000000E+00  0.00000000000E+00  0.14002799519E+04  0.14002799519E+04  0.25500000920E-02 0. -1.
        2   -1    0    0  501    0  0.00000000000E+00  0.00000000000E+00 -0.13377028776E+04  0.13377028776E+04  0.25500000920E-02 0.  1.
    10030    2    1    2    0    0  0.00000000000E+00  0.00000000000E+00  0.62577074329E+02  0.27379828295E+04  0.27372676311E+04 0.  0.
        3    1    3    3  502    0 -0.55848911528E+03  0.12263612153E+04 -0.20812016842E+03  0.13635196871E+04  0.10100000352E+00 0. -1.
       -3    1    3    3    0  502  0.55848911528E+03 -0.12263612153E+04  0.27069724275E+03  0.13744631424E+04  0.10100000352E+00 0.  1.
</event>
<event>
 5   0  0.2672155E-06  0.2995855E+04  0.7818609E-02  0.8244916E-01
        1   -1    0    0  501    0  0.00000000000E+00  0.00000000000E+00  0.21937263818E+04  0.21937263818E+04  0.50400001928E-02 0.  1.
       -1   -1    0    0    0  501  0.00000000000E+00  0.00000000000E+00 -0.10228194750E+04  0.10228194751E+04  0.50400001928E-02 0. -1.
    10030    2    1    2    0    0  0.00000000000E+00  0.00000000000E+00  0.11709069067E+04  0.32165458569E+04  0.29958545133E+04 0.  0.
        5    1    3    3  502    0 -0.13896212436E+04 -0.63521698280E+02 -0.11065873043E+02  0.13911242757E+04  0.46999998093E+01 0.  1.
       -5    1    3    3    0  502  0.13896212436E+04  0.63521698280E+02  0.11819727798E+04  0.18254215812E+04  0.46999998093E+01 0. -1.
</event>
<event>
 5   0  0.7217255E-06  0.2986204E+04  0.7818609E-02  0.8247681E-01
       -2   -1    0    0    0  501  0.00000000000E+00  0.00000000000E+00  0.10769254036E+04  0.10769254036E+04  0.25500000920E-02 0. -1.
        2   -1    0    0  501    0  0.00000000000E+00  0.00000000000E+00 -0.20701095395E+04  0.20701095395E+04  0.25500000920E-02 0.  1.
    10030    2    1    2    0    0  0.00000000000E+00  0.00000000000E+00 -0.99318413582E+03  0.31470349431E+04  0.29862039792E+04 0.  0.
        1    1    3    3  502    0  0.41811719801E+03  0.13761991882E+04 -0.74249545478E+02  0.14402288679E+04  0.50400001928E-02 0. -1.
       -1    1    3    3    0  502 -0.41811719801E+03 -0.13761991882E+04 -0.91893459035E+03  0.17068060752E+04  0.50400001928E-02 0.  1.
</event>
<event>
 5   0  0.2628425E-06  0.3006895E+04  0.7818609E-02  0.8241765E-01
       -1   -1    0    0    0  501  0.00000000000E+00  0.00000000000E+00  0.13070554680E+04  0.13070554680E+04  0.50400001928E-02 0.  1.
        1   -1    0    0  501    0  0.00000000000E+00  0.00000000000E+00 -0.17293490295E+04  0.17293490295E+04  0.50400001928E-02 0. -1.
    10030    2    1    2    0    0  0.00000000000E+00  0.00000000000E+00 -0.42229356150E+03  0.30364044974E+04  0.30068954787E+04 0.  0.
        1    1    3    3  502    0  0.50985476203E+03 -0.12866574403E+03 -0.16334609272E+04  0.17160132146E+04  0.50400001928E-02 0. -1.
       -1    1    3    3    0  502 -0.50985476203E+03  0.12866574403E+03  0.12111673657E+04  0.13203912828E+04  0.50400001928E-02 0.  1.
</event>
<event>
 5   0  0.6792811E-06  0.2959819E+04  0.7818609E-02  0.8255299E-01
        2   -1    0    0  501    0  0.00000000000E+00  0.00000000000E+00  0.22838694092E+04  0.22838694092E+04  0.25500000920E-02 0. -1.
       -2   -1    0    0    0  501  0.00000000000E+00  0.00000000000E+00 -0.95895652394E+03  0.95895652395E+03  0.25500000920E-02 0.  1.
    10030    2    1    2    0    0  0.00000000000E+00  0.00000000000E+00  0.13249128852E+04  0.32428259331E+04  0.29598185551E+04 0.  0.
        2    1    3    3  502    0 -0.11776368699E+04  0.64259024451E+03  0.13470025267E+04  0.19010961645E+04  0.25500000920E-02 0. -1.
       -2    1    3    3    0  502  0.11776368699E+04 -0.64259024451E+03 -0.22089641425E+02  0.13417297686E+04  0.25500000920E-02 0.  1.
</event>
<event>
 5   0  0.2552990E-06  0.3009137E+04  0.7818609E-02  0.8241127E-01
       -1   -1    0    0    0  501  0.00000000000E+00  0.00000000000E+00  0.32171280439E+04  0.32171280439E+04  0.50400001928E-02 0.  1.
        1   -1    0    0  501    0  0.00000000000E+00  0.00000000000E+00 -0.70364827715E+03  0.70364827717E+03  0.50400001928E-02 0. -1.
    10030    2    1    2    0    0  0.00000000000E+00  0.00000000000E+00  0.25134797667E+04  0.39207763210E+04  0.30091371557E+04 0.  0.
        3    1    3    3  502    0 -0.43874992622E+03 -0.11141705660E+04  0.69797512473E+02  0.11994787413E+04  0.10100000352E+00 0. -1.
       -3    1    3    3    0  502  0.43874992622E+03  0.11141705660E+04  0.24436822542E+04  0.27212975798E+04  0.10100000352E+00 0.  1.
</event>
<event>
 5   0  0.7193153E-06  0.2926092E+04  0.7818609E-02  0.8265156E-01
       -2   -1    0    0    0  501  0.00000000000E+00  0.00000000000E+00  0.95156866173E+03  0.95156866173E+03  0.25500000920E-02 0. -1.
        2   -1    0    0  501    0  0.00000000000E+00  0.00000000000E+00 -0.22494476351E+04  0.22494476351E+04  0.25500000920E-02 0.  1.
    10030    2    1    2    0    0  0.00000000000E+00  0.00000000000E+00 -0.12978789733E+04  0.32010162968E+04  0.29260921898E+04 0.  0.
        4    1    3    3  502    0  0.97219622178E+01 -0.14525461840E+04 -0.84004496867E+03  0.16779934730E+04  0.12699999809E+01 0.  1.
       -4    1    3    3    0  502 -0.97219622178E+01  0.14525461840E+04 -0.45783400468E+03  0.15230228238E+04  0.12699999809E+01 0. -1.
</event>
<event>
 5   0  0.7217255E-06  0.2897407E+04  0.7818609E-02  0.8273649E-01
       -2   -1    0    0    0  501  0.00000000000E+00  0.00000000000E+00  0.12003744144E+04  0.12003744144E+04  0.25500000920E-02 0. -1.
        2   -1    0    0  501    0  0.00000000000E+00  0.00000000000E+00 -0.17484063120E+04  0.17484063120E+04  0.25500000920E-02 0.  1.
    10030    2    1    2    0    0  0.00000000000E+00  0.00000000000E+00 -0.54803189755E+03  0.29487807264E+04  0.28974072567E+04 0.  0.
        1    1    3    3  502    0  0.13856444287E+04 -0.37155159686E+02 -0.70261382893E+03  0.15540454245E+04  0.50400001928E-02 0. -1.
       -1    1    3    3    0  502 -0.13856444287E+04  0.37155159686E+02  0.15458193138E+03  0.13947353019E+04  0.50400001928E-02 0.  1.
</event>
<event>
 5   0  0.2552990E-06  0.2997676E+04  0.7818609E-02  0.8244395E-01
        1   -1    0    0  501    0  0.00000000000E+00  0.00000000000E+00  0.23528725778E+04  0.23528725778E+04  0.50400001928E-02 0. -1.
       -1   -1    0    0    0  501  0.00000000000E+00  0.00000000000E+00 -0.95479703037E+03  0.95479703038E+03  0.50400001928E-02 0.  1.
    10030    2    1    2    0    0  0.00000000000E+00  0.00000000000E+00  0.13980755475E+04  0.33076696082E+04  0.29976762668E+04 0.  0.
        3    1    3    3  502    0 -0.98368714042E+03 -0.10834219754E+04  0.34136881511E+03  0.15026563962E+04  0.10100000352E+00 0. -1.
       -3    1    3    3    0  502  0.98368714042E+03  0.10834219754E+04  0.10567067324E+04  0.18050132120E+04  0.10100000352E+00 0.  1.
</event>
<event>
 5   0  0.2672155E-06  0.3028442E+04  0.7818609E-02  0.8235655E-01
       -1   -1    0    0    0  501  0.00000000000E+00  0.00000000000E+00  0.12652903469E+04  0.12652903469E+04  0.50400001928E-02 0. -1.
        1   -1    0    0  501    0  0.00000000000E+00  0.00000000000E+00 -0.18121262443E+04  0.18121262443E+04  0.50400001928E-02 0.  1.
    10030    2    1    2    0    0  0.00000000000E+00  0.00000000000E+00 -0.54683589733E+03  0.30774165912E+04  0.30284424012E+04 0.  0.
        5    1    3    3  502    0  0.69367393770E+03 -0.62298272518E+03  0.93900390140E+03  0.13232692185E+04  0.46999998093E+01 0. -1.
       -5    1    3    3    0  502 -0.69367393770E+03  0.62298272518E+03 -0.14858397987E+04  0.17541473727E+04  0.46999998093E+01 0.  1.
</event>
<event>
 5   0  0.2552990E-06  0.2928416E+04  0.7818609E-02  0.8264473E-01
        1   -1    0    0  501    0  0.00000000000E+00  0.00000000000E+00  0.24315217583E+04  0.24315217583E+04  0.50400001928E-02 0. -1.
       -1   -1    0    0    0  501  0.00000000000E+00  0.00000000000E+00 -0.88171350590E+03  0.88171350592E+03  0.50400001928E-02 0.  1.
    10030    2    1    2    0    0  0.00000000000E+00  0.00000000000E+00  0.15498082524E+04  0.33132352642E+04  0.29284163462E+04 0.  0.
        3    1    3    3  502    0  0.82351797169E+03 -0.48539670568E+03 -0.47994666731E+03  0.10696450931E+04  0.10100000352E+00 0.  1.
       -3    1    3    3    0  502 -0.82351797169E+03  0.48539670568E+03  0.20297549197E+04  0.22435901711E+04  0.10100000352E+00 0. -1.
</event>
<event>
 5   0  0.2298500E-06  0.2979033E+04  0.7818609E-02  0.8249743E-01
       -3   -1    0    0    0  501  0.00000000000E+00  0.00000000000E+00  0.19380156172E+04  0.19380156198E+04  0.10100000352E+00 0. -1.
        3   -1    0    0  501    0  0.00000000000E+00  0.00000000000E+00 -0.11448101236E+04  0.11448101280E+04  0.10100000352E+00 0.  1.
    10030    2    1    2    0    0  0.00000000000E+00  0.00000000000E+00  0.79320549363E+03  0.30828257479E+04  0.29790333393E+04 0.  0.
        2    1    3    3  502    0  0.12202131264E+04 -0.85003494118E+03  0.30891297030E+03  0.15188504529E+04  0.25500000920E-02 0.  1.
       -2    1    3    3    0  502 -0.12202131264E+04  0.85003494118E+03  0.48429252333E+03  0.15639752950E+04  0.25500000920E-02 0. -1.
</event>
<event>
 5   0  0.6792811E-06  0.3108583E+04  0.7818609E-02  0.8213386E-01
        2   -1    0    0  501    0  0.00000000000E+00  0.00000000000E+00  0.11498385146E+04  0.11498385146E+04  0.25500000920E-02 0. -1.
       -2   -1    0    0    0  501  0.00000000000E+00  0.00000000000E+00 -0.21010095350E+04  0.21010095350E+04  0.25500000920E-02 0.  1.
    10030    2    1    2    0    0  0.00000000000E+00  0.00000000000E+00 -0.95117102041E+03  0.32508480497E+04  0.31085827529E+04 0.  0.
        2    1    3    3  502    0  0.44316183728E+03  0.88173639889E+03  0.78019106771E+03  0.12579942739E+04  0.25500000920E-02 0. -1.
       -2    1    3    3    0  502 -0.44316183728E+03 -0.88173639889E+03 -0.17313620881E+04  0.19928537757E+04  0.25500000920E-02 0.  1.
</event>
<event>
 5   0  0.2552990E-06  0.2989928E+04  0.7818609E-02  0.8246613E-01
       -1   -1    0    0    0  501  0.00000000000E+00  0.00000000000E+00  0.12465851641E+04  0.12465851641E+04  0.50400001928E-02 0. -1.
        1   -1    0    0  501    0  0.00000000000E+00  0.00000000000E+00 -0.17928321418E+04  0.17928321418E+04  0.50400001928E-02 0.  1.
    10030    2    1    2    0    0  0.00000000000E+00  0.00000000000E+00 -0.54624697765E+03  0.30394173059E+04  0.29899283936E+04 0.  0.
        3    1    3    3  502    0  0.46258561081E+03  0.46339595282E+03 -0.16393165168E+04  0.17652421672E+04  0.10100000352E+00 0.  1.
       -3    1    3    3    0  502 -0.46258561081E+03 -0.46339595282E+03  0.10930695392E+04  0.12741751387E+04  0.10100000352E+00 0. -1.
</event>
<event>
 5   0  0.7217255E-06  0.2900135E+04  0.7818609E-02  0.8272837E-01
       -2   -1    0    0    0  501  0.00000000000E+00  0.00000000000E+00  0.80408903376E+03  0.80408903377E+03  0.25500000920E-02 0.  1.
        2   -1    0    0  501    0  0.00000000000E+00  0.00000000000E+00 -0.26150030416E+04  0.26150030416E+04  0.25500000920E-02 0. -1.
    10030    2    1    2    0    0  0.00000000000E+00  0.00000000000E+00 -0.18109140078E+04  0.34190920753E+04  0.29001346651E+04 0.  0.
        1    1    3    3  502    0 -0.10630121735E+04  0.97342729894E+03 -0.71852979644E+03  0.16105404856E+04  0.50400001928E-02 0.  1.
       -1    1    3    3    0  502  0.10630121735E+04 -0.97342729894E+03 -0.10923842114E+04  0.18085515897E+04  0.50400001928E-02 0. -1.
</event>
<event>
 5   0  0.7193153E-06  0.3026352E+04  0.7818609E-02  0.8236246E-01
        2   -1    0    0  501    0  0.00000000000E+00  0.00000000000E+00  0.22917044206E+04  0.22917044206E+04  0.25500000920E-02 0. -1.
       -2   -1    0    0    0  501  0.00000000000E+00  0.00000000000E+00 -0.99912602582E+03  0.99912602582E+03  0.25500000920E-02 0.  1.
    10030    2    1    2    0    0  0.00000000000E+00  0.00000000000E+00  0.12925783947E+04  0.32908304464E+04  0.30263519492E+04 0.  0.
        4    1    3    3  502    0 -0.10841344781E+04 -0.57204765861E+02 -0.49990638991E+03  0.11952104264E+04  0.12699999809E+01 0.  1.
       -4    1    3    3    0  502  0.10841344781E+04  0.57204765861E+02  0.17924847847E+04  0.20956200199E+04  0.12699999809E+01 0. -1.
</event>
<event>
 5   0  0.2672155E-06  0.3003571E+04  0.7818609E-02  0.8242712E-01
       -1   -1    0    0    0  501  0.00000000000E+00  0.00000000000E+00  0.11959907217E+04  0.11959907217E+04  0.50400001928E-02 0.  1.
        1   -1    0    0  501    0  0.00000000000E+00  0.00000000000E+00 -0.18857666147E+04  0.18857666147E+04  0.50400001928E-02 0. -1.
    10030    2    1    2    0    0  0.00000000000E+00  0.00000000000E+00 -0.68977589294E+03  0.30817573364E+04  0.30035707912E+04 0.  0.
        5    1    3    3  502    0 -0.13191763628E+04  0.63592284016E+03 -0.34905777566E+01  0.14644652296E+04  0.46999998093E+01 0.  1.
       -5    1    3    3    0  502  0.13191763628E+04 -0.63592284016E+03 -0.68628531519E+03  0.16172921067E+04  0.46999998093E+01 0. -1.
</event>
<event>
 5   0  0.7201538E-06  0.2968699E+04  0.7818609E-02  0.8252726E-01
        2   -1    0    0  501    0  0.00000000000E+00  0.00000000000E+00  0.17927216933E+04  0.17927216933E+04  0.25500000920E-02 0. -1.
       -2   -1    0    0    0  501  0.00000000000E+00  0.00000000000E+00 -0.12290214724E+04  0.12290214724E+04  0.25500000920E-02 0.  1.
    10030    2    1    2    0    0  0.00000000000E+00  0.00000000000E+00  0.56370022093E+03  0.30217431657E+04  0.29686990114E+04 0.  0.
        3    1    3    3  502    0  0.97235548935E+03 -0.11205916664E+04  0.23528820006E+03  0.15021855504E+04  0.10100000352E+00 0.  1.
       -3    1    3    3    0  502 -0.97235548935E+03  0.11205916664E+04  0.32841202087E+03  0.15195576153E+04  0.10100000352E+00 0. -1.
</event>
<event>
 5   0  0.7201538E-06  0.3042673E+04  0.7818609E-02  0.8231649E-01
        2   -1    0    0  501    0  0.00000000000E+00  0.00000000000E+00  0.20556077286E+04  0.20556077286E+04  0.25500000920E-02 0. -1.
       -2   -1    0    0    0  501  0.00000000000E+00  0.00000000000E+00 -0.11259273070E+04  0.11259273070E+04  0.25500000920E-02 0.  1.
    10030    2    1    2    0    0  0.00000000000E+00  0.00000000000E+00  0.92968042161E+03  0.31815350356E+04  0.30426730841E+04 0.  0.
        3    1    3    3  502    0  0.23829682400E+01 -0.54487038989E+03 -0.10203986680E+04  0.11567639656E+04  0.10100000352E+00 0.  1.
       -3    1    3    3    0  502 -0.23829682400E+01  0.54487038989E+03  0.19500790896E+04  0.20247710700E+04  0.10100000352E+00 0. -1.
</event>
<event>
 5   0  0.2422083E-06  0.2856344E+04  0.7818609E-02  0.8285986E-01
       -1   -1    0    0    0  501  0.00000000000E+00  0.00000000000E+00  0.77660008308E+03  0.77660008309E+03  0.50400001928E-02 0. -1.
        1   -1    0    0  501    0  0.00000000000E+00  0.00000000000E+00 -0.26264156378E+04  0.26264156378E+04  0.50400001928E-02 0.  1.
    10030    2    1    2    0    0  0.00000000000E+00  0.00000000000E+00 -0.18498155547E+04  0.34030157209E+04  0.28563435386E+04 0.  0.
        2    1    3    3  502    0 -0.11408509341E+03 -0.14114967168E+04 -0.70414303734E+03  0.15815042861E+04  0.25500000920E-02 0. -1.
       -2    1    3    3    0  502  0.11408509341E+03  0.14114967168E+04 -0.11456725174E+04  0.18215114348E+04  0.25500000920E-02 0.  1.
</event>
<event>
 5   0  0.2672155E-06  0.3011828E+04  0.7818609E-02  0.8240361E-01
        1   -1    0    0  501    0  0.00000000000E+00  0.00000000000E+00  0.15920473324E+04  0.15920473324E+04  0.50400001928E-02 0.  1.
       -1   -1    0    0    0  501  0.00000000000E+00  0.00000000000E+00 -0.14244404184E+04  0.14244404184E+04  0.50400001928E-02 0. -1.
    10030    2    1    2    0    0  0.00000000000E+00  0.00000000000E+00  0.16760691406E+03  0.30164877508E+04  0.30118277297E+04 0.  0.
        5    1    3    3  502    0  0.40804275662E+02  0.15052461237E+04  0.10182007739E+03  0.15092449437E+04  0.46999998093E+01 0. -1.
       -5    1    3    3    0  502 -0.40804275662E+02 -0.15052461237E+04  0.65786836668E+02  0.15072428072E+04  0.46999998093E+01 0.  1.
</event>
<event>
 5   0  0.2628425E-06  0.3084158E+04  0.7818609E-02  0.8220099E-01
        1   -1    0    0  501    0  0.00000000000E+00  0.00000000000E+00  0.21969036252E+04  0.21969036252E+04  0.50400001928E-02 0. -1.
       -1   -1    0    0    0  501  0.00000000000E+00  0.00000000000E+00 -0.10824360275E+04  0.10824360275E+04  0.50400001928E-02 0.  1.
    10030    2    1    2    0    0  0.00000000000E+00  0.00000000000E+00  0.11144675977E+04  0.32793396527E+04  0.30841579939E+04 0.  0.
        1    1    3    3  502    0  0.10089926625E+04 -0.10898848844E+04  0.99832724110E+03  0.17895732828E+04  0.50400001928E-02 0. -1.
       -1    1    3    3    0  502 -0.10089926625E+04  0.10898848844E+04  0.11614035659E+03  0.14897663698E+04  0.50400001928E-02 0.  1.
</event>
<event>
 5   0  0.6780150E-06  0.2964690E+04  0.7818609E-02  0.8253886E-01
        2   -1    0    0  501    0  0.00000000000E+00  0.00000000000E+00  0.13689780644E+04  0.13689780644E+04  0.25500000920E-02 0. -1.
       -2   -1    0    0    0  501  0.00000000000E+00  0.00000000000E+00 -0.16051003434E+04  0.16051003434E+04  0.25500000920E-02 0.  1.
    10030    2    1    2    0    0  0.00000000000E+00  0.00000000000E+00 -0.23612227900E+03  0.29740784077E+04  0.29646903118E+04 0.  0.
        5    1    3    3  502    0  0.92948807281E+03 -0.11339619197E+04 -0.33671317304E+03  0.15043987383E+04  0.46999998093E+01 0. -1.
       -5    1    3    3    0  502 -0.92948807281E+03  0.11339619197E+04  0.10059089403E+03  0.14696796695E+04  0.46999998093E+01 0.  1.
</event>
<event>
 5   0  0.7201538E-06  0.3008575E+04  0.7818609E-02  0.8241286E-01
        2   -1    0    0  501    0  0.00000000000E+00  0.00000000000E+00  0.19654022625E+04  0.19654022625E+04  0.25500000920E-02 0.  1.
       -2   -1    0    0    0  501  0.00000000000E+00  0.00000000000E+00 -0.11513579830E+04  0.11513579830E+04  0.25500000920E-02 0. -1.
    10030    2    1    2    0    0  0.00000000000E+00  0.00000000000E+00  0.81404427950E+03  0.31167602454E+04  0.30085754666E+04 0.  0.
        3    1    3    3  502    0  0.67021443947E+03  0.22534790529E+03  0.17825134934E+04  0.19176348551E+04  0.10100000352E+00 0.  1.
       -3    1    3    3    0  502 -0.67021443947E+03 -0.22534790529E+03 -0.96846921386E+03  0.11991253903E+04  0.10100000352E+00 0. -1.
</event>
<event>
 5   0  0.7193153E-06  0.2662318E+04  0.7818609E-02  0.8347336E-01
       -2   -1    0    0    0  501  0.00000000000E+00  0.00000000000E+00  0.13293989582E+04  0.13293989582E+04  0.25500000920E-02 0.  1.
        2   -1    0    0  501    0  0.00000000000E+00  0.00000000000E+00 -0.13329215192E+04  0.13329215192E+04  0.25500000920E-02 0. -1.
    10030    2    1    2    0    0  0.00000000000E+00  0.00000000000E+00 -0.35225610312E+01  0.26623204774E+04  0.26623181470E+04 0.  0.
        4    1    3    3  502    0  0.29316581474E+02 -0.67412328506E+03 -0.11492295832E+04  0.13326784733E+04  0.12699999809E+01 0. -1.
       -4    1    3    3    0  502 -0.29316581474E+02  0.67412328506E+03  0.11457070222E+04  0.13296420041E+04  0.12699999809E+01 0.  1.
</event>
<event>
 5   0  0.7201538E-06  0.2977393E+04  0.7818609E-02  0.8250216E-01
       -2   -1    0    0    0  501  0.00000000000E+00  0.00000000000E+00  0.11493324823E+04  0.11493324823E+04  0.25500000920E-02 0.  1.
        2   -1    0    0  501    0  0.00000000000E+00  0.00000000000E+00 -0.19282647204E+04  0.19282647204E+04  0.25500000920E-02 0. -1.
    10030    2    1    2    0    0  0.00000000000E+00  0.00000000000E+00 -0.77893223814E+03  0.30775972027E+04  0.29773930057E+04 0.  0.
        3    1    3    3  502    0 -0.15154352052E+03 -0.41294534975E+03  0.10806253397E+04  0.11667220901E+04  0.10100000352E+00 0.  1.
       -3    1    3    3    0  502  0.15154352052E+03  0.41294534975E+03 -0.18595575778E+04  0.19108751126E+04  0.10100000352E+00 0. -1.
</event>
<event>
 5   0  0.2672155E-06  0.2990769E+04  0.7818609E-02  0.8246372E-01
        1   -1    0    0  501    0  0.00000000000E+00  0.00000000000E+00  0.14412363346E+04  0.14412363346E+04  0.50400001928E-02 0. -1.
       -1   -1    0    0    0  501  0.00000000000E+00  0.00000000000E+00 -0.15515672444E+04  0.15515672444E+04  0.50400001928E-02 0.  1.
    10030    2    1    2    0    0  0.00000000000E+00  0.00000000000E+00 -0.11033090981E+03  0.29928035790E+04  0.29907691909E+04 0.  0.
        5    1    3    3  502    0 -0.66300388059E+03 -0.11730399730E+04  0.59377861996E+03  0.14724782047E+04  0.46999998093E+01 0. -1.
       -5    1    3    3    0  502  0.66300388059E+03  0.11730399730E+04 -0.70410952977E+03  0.15203253743E+04  0.46999998093E+01 0.  1.
</event>
<event>
 5   0  0.2504260E-06  0.3105785E+04  0.7818609E-02  0.8214152E-01
       -1   -1    0    0    0  501  0.00000000000E+00  0.00000000000E+00  0.12960907639E+04  0.12960907640E+04  0.50400001928E-02 0. -1.
        1   -1    0    0  501    0  0.00000000000E+00  0.00000000000E+00 -0.18605761800E+04  0.18605761800E+04  0.50400001928E-02 0.  1.
    10030    2    1    2    0    0  0.00000000000E+00  0.00000000000E+00 -0.56448541607E+03  0.31566669440E+04  0.31057853130E+04 0.  0.
        4    1    3    3  502    0  0.26079807977E+03 -0.12871245803E+04 -0.11245344962E+04  0.17289548200E+04  0.12699999809E+01 0.  1.
       -4    1    3    3    0  502 -0.26079807977E+03  0.12871245803E+04  0.56004908013E+03  0.14277121239E+04  0.12699999809E+01 0. -1.
</event>
<event>
 5   0  0.2672155E-06  0.3116072E+04  0.7818609E-02  0.8211341E-01
       -1   -1    0    0    0  501  0.00000000000E+00  0.00000000000E+00  0.11720238094E+04  0.11720238094E+04  0.50400001928E-02 0.  1.
        1   -1    0    0  501    0  0.00000000000E+00  0.00000000000E+00 -0.20711838859E+04  0.20711838859E+04  0.50400001928E-02 0. -1.
    10030    2    1    2    0    0  0.00000000000E+00  0.00000000000E+00 -0.89916007650E+03  0.32432076953E+04  0.31160724176E+04 0.  0.
        5    1    3    3  502    0  0.92959270606E+03 -0.41128433979E+03  0.77933854926E+03  0.12808934662E+04  0.46999998093E+01 0.  1.
       -5    1    3    3    0  502 -0.92959270606E+03  0.41128433979E+03 -0.16784986258E+04  0.19623142292E+04  0.46999998093E+01 0. -1.
</event>
<event>
 5   0  0.2504260E-06  0.3027537E+04  0.7818609E-02  0.8235911E-01
        1   -1    0    0  501    0  0.00000000000E+00  0.00000000000E+00  0.23090714160E+04  0.23090714160E+04  0.50400001928E-02 0. -1.
       -1   -1    0    0    0  501  0.00000000000E+00  0.00000000000E+00 -0.99238815412E+03  0.99238815413E+03  0.50400001928E-02 0.  1.
    10030    2    1    2    0    0  0.00000000000E+00  0.00000000000E+00  0.13166832619E+04  0.33014595701E+04  0.30275370322E+04 0.  0.
        4    1    3    3  502    0 -0.98927399925E+03  0.10549765208E+04  0.17084229254E+03  0.14563060142E+04  0.12699999809E+01 0.  1.
       -4    1    3    3    0  502  0.98927399925E+03 -0.10549765208E+04  0.11458409693E+04  0.18451535559E+04  0.12699999809E+01 0. -1.
</event>
<event>
 5   0  0.7201538E-06  0.3018490E+04  0.7818609E-02  0.8238471E-01
       -2   -1    0    0    0  501  0.00000000000E+00  0.00000000000E+00  0.98160789276E+03  0.98160789276E+03  0.25500000920E-02 0.  1.
        2   -1    0    0  501    0  0.00000000000E+00  0.00000000000E+00 -0.23204996150E+04  0.23204996150E+04  0.25500000920E-02 0. -1.
    10030    2    1    2    0    0  0.00000000000E+00  0.00000000000E+00 -0.13388917223E+04  0.33021075078E+04  0.30184901771E+04 0.  0.
        3    1    3    3  502    0  0.68996831037E+03  0.40874591470E+03 -0.20681289010E+04  0.22181719170E+04  0.10100000352E+00 0. -1.
       -3    1    3    3    0  502 -0.68996831037E+03 -0.40874591470E+03  0.72923717867E+03  0.10839355908E+04  0.10100000352E+00 0.  1.
</event>
<event>
 5   0  0.2552990E-06  0.2846639E+04  0.7818609E-02  0.8288933E-01
       -1   -1    0    0    0  501  0.00000000000E+00  0.00000000000E+00  0.15569933382E+04  0.15569933382E+04  0.50400001928E-02 0.  1.
        1   -1    0    0  501    0  0.00000000000E+00  0.00000000000E+00 -0.13011219988E+04  0.13011219988E+04  0.50400001928E-02 0. -1.
    10030    2    1    2    0    0  0.00000000000E+00  0.00000000000E+00  0.25587133940E+03  0.28581153370E+04  0.28466389194E+04 0.  0.
        3    1    3    3  502    0 -0.12502650224E+02 -0.69103275061E+03 -0.11213296534E+04  0.13172178182E+04  0.10100000352E+00 0. -1.
       -3    1    3    3    0  502  0.12502650224E+02  0.69103275061E+03  0.13772009928E+04  0.15408975188E+04  0.10100000352E+00 0.  1.
</event>
<event>
 5   0  0.2298500E-06  0.2908353E+04  0.7818609E-02  0.8270397E-01
       -4   -1    0    0    0  501  0.00000000000E+00  0.00000000000E+00  0.15437414627E+04  0.15437419851E+04  0.12699999809E+01 0. -1.
        4   -1    0    0  501    0  0.00000000000E+00  0.00000000000E+00 -0.13698067942E+04  0.13698073830E+04  0.12699999809E+01 0.  1.
    10030    2    1    2    0    0  0.00000000000E+00  0.00000000000E+00  0.17393466845E+03  0.29135493681E+04  0.29083529104E+04 0.  0.
        4    1    3    3  502    0  0.64192833323E+03 -0.11744666573E+04 -0.48254083510E+03  0.14227758729E+04  0.12699999809E+01 0.  1.
       -4    1    3    3    0  502 -0.64192833323E+03  0.11744666573E+04  0.65647550355E+03  0.14907734951E+04  0.12699999809E+01 0. -1.
</event>
<event>
 5   0  0.7201538E-06  0.2279882E+04  0.7818609E-02  0.8485896E-01
        2   -1    0    0  501    0  0.00000000000E+00  0.00000000000E+00  0.11914054697E+04  0.11914054697E+04  0.25500000920E-02 0. -1.
       -2   -1    0    0    0  501  0.00000000000E+00  0.00000000000E+00 -0.10906995546E+04  0.10906995546E+04  0.25500000920E-02 0.  1.
    10030    2    1    2    0    0  0.00000000000E+00  0.00000000000E+00  0.10070591509E+03  0.22821050242E+04  0.22798819400E+04 0.  0.
        3    1    3    3  502    0  0.53882443659E+03 -0.75564990639E+03 -0.61220397657E+03  0.11118148558E+04  0.10100000352E+00 0.  1.
       -3    1    3    3    0  502 -0.53882443659E+03  0.75564990639E+03  0.71290989166E+03  0.11702901684E+04  0.10100000352E+00 0. -1.
</event>
<event>
 5   0  0.2552990E-06  0.2522329E+04  0.7818609E-02  0.8395074E-01
       -1   -1    0    0    0  501  0.00000000000E+00  0.00000000000E+00  0.17273376261E+04  0.17273376261E+04  0.50400001928E-02 0.  1.
        1   -1    0    0  501    0  0.00000000000E+00  0.00000000000E+00 -0.92080222683E+03  0.92080222685E+03  0.50400001928E-02 0. -1.
    10030    2    1    2    0    0  0.00000000000E+00  0.00000000000E+00  0.80653539928E+03  0.26481398530E+04  0.25223293462E+04 0.  0.
        3    1    3    3  502    0 -0.10370886222E+04  0.71591078981E+03  0.35124567390E+03  0.13082257462E+04  0.10100000352E+00 0.  1.
       -3    1    3    3    0  502  0.10370886222E+04 -0.71591078981E+03  0.45528972538E+03  0.13399141068E+04  0.10100000352E+00 0. -1.
</event>
<event>
 5   0  0.7193153E-06  0.3129268E+04  0.7818609E-02  0.8207751E-01
        2   -1    0    0  501    0  0.00000000000E+00  0.00000000000E+00  0.18902859209E+04  0.18902859209E+04  0.25500000920E-02 0.  1.
       -2   -1    0    0    0  501  0.00000000000E+00  0.00000000000E+00 -0.12950846504E+04  0.12950846504E+04  0.25500000920E-02 0. -1.
    10030    2    1    2    0    0  0.00000000000E+00  0.00000000000E+00  0.59520127053E+03  0.31853705713E+04  0.31292684647E+04 0.  0.
        4    1    3    3  502    0  0.10161323530E+04 -0.58953610907E+03 -0.75436837514E+03  0.13961199952E+04  0.12699999809E+01 0. -1.
       -4    1    3    3    0  502 -0.10161323530E+04  0.58953610907E+03  0.13495696457E+04  0.17892505761E+04  0.12699999809E+01 0.  1.
</event>
<event>
 5   0  0.2298500E-06  0.2980409E+04  0.7818609E-02  0.8249347E-01
       -4   -1    0    0    0  501  0.00000000000E+00  0.00000000000E+00  0.13445515083E+04  0.13445521081E+04  0.12699999809E+01 0. -1.
        4   -1    0    0  501    0  0.00000000000E+00  0.00000000000E+00 -0.16516351170E+04  0.16516356053E+04  0.12699999809E+01 0.  1.
    10030    2    1    2    0    0  0.00000000000E+00  0.00000000000E+00 -0.30708360874E+03  0.29961877133E+04  0.29804094468E+04 0.  0.
        5    1    3    3  502    0 -0.11048094694E+04  0.99424619816E+03 -0.45461892780E+02  0.14870165903E+04  0.46999998093E+01 0.  1.
       -5    1    3    3    0  502  0.11048094694E+04 -0.99424619816E+03 -0.26162171596E+03  0.15091711230E+04  0.46999998093E+01 0. -1.
</event>
<event>
 5   0  0.2422083E-06  0.3011436E+04  0.7818609E-02  0.8240473E-01
        1   -1    0    0  501    0  0.00000000000E+00  0.00000000000E+00  0.18102962765E+04  0.18102962765E+04  0.50400001928E-02 0. -1.
       -1   -1    0    0    0  501  0.00000000000E+00  0.00000000000E+00 -0.12523839473E+04  0.12523839474E+04  0.50400001928E-02 0.  1.
    10030    2    1    2    0    0  0.00000000000E+00  0.00000000000E+00  0.55791232917E+03  0.30626802239E+04  0.30114355359E+04 0.  0.
        2    1    3    3  502    0  0.13498705923E+04  0.31986334190E+03  0.87434350589E+03  0.16397986888E+04  0.25500000920E-02 0. -1.
       -2    1    3    3    0  502 -0.13498705923E+04 -0.31986334190E+03 -0.31643117672E+03  0.14228815351E+04  0.25500000920E-02 0.  1.
</event>
<event>
 5   0  0.2504260E-06  0.2996454E+04  0.7818609E-02  0.8244744E-01
       -1   -1    0    0    0  501  0.00000000000E+00  0.00000000000E+00  0.17737942219E+04  0.17737942219E+04  0.50400001928E-02 0.  1.
        1   -1    0    0  501    0  0.00000000000E+00  0.00000000000E+00 -0.12654708169E+04  0.12654708169E+04  0.50400001928E-02 0. -1.
    10030    2    1    2    0    0  0.00000000000E+00  0.00000000000E+00  0.50832340507E+03  0.30392650388E+04  0.29964544535E+04 0.  0.
        4    1    3    3  502    0 -0.65595720007E+03  0.57189576510E+03  0.14911506451E+04  0.17265214953E+04  0.12699999809E+01 0.  1.
       -4    1    3    3    0  502  0.65595720007E+03 -0.57189576510E+03 -0.98282724002E+03  0.13127435435E+04  0.12699999809E+01 0. -1.
</event>
<event>
 5   0  0.2552990E-06  0.2771667E+04  0.7818609E-02  0.8312119E-01
       -1   -1    0    0    0  501  0.00000000000E+00  0.00000000000E+00  0.64323021965E+03  0.64323021967E+03  0.50400001928E-02 0. -1.
        1   -1    0    0  501    0  0.00000000000E+00  0.00000000000E+00 -0.29857647165E+04  0.29857647165E+04  0.50400001928E-02 0.  1.
    10030    2    1    2    0    0  0.00000000000E+00  0.00000000000E+00 -0.23425344968E+04  0.36289949361E+04  0.27716667148E+04 0.  0.
        3    1    3    3  502    0 -0.12803289897E+04 -0.36835480940E+03 -0.16708825515E+04  0.21370016609E+04  0.10100000352E+00 0.  1.
       -3    1    3    3    0  502  0.12803289897E+04  0.36835480940E+03 -0.67165194527E+03  0.14919932752E+04  0.10100000352E+00 0. -1.
</event>
<event>
 5   0  0.2672155E-06  0.3021079E+04  0.7818609E-02  0.8237737E-01
        1   -1    0    0  501    0  0.00000000000E+00  0.00000000000E+00  0.12675286313E+04  0.12675286313E+04  0.50400001928E-02 0.  1.
       -1   -1    0    0    0  501  0.00000000000E+00  0.00000000000E+00 -0.18001398714E+04  0.18001398714E+04  0.50400001928E-02 0. -1.
    10030    2    1    2    0    0  0.00000000000E+00  0.00000000000E+00 -0.53261124014E+03  0.30676685027E+04  0.30210785010E+04 0.  0.
        5    1    3    3  502    0  0.29640735196E+03 -0.53324539862E+03 -0.16694621048E+04  0.17774514853E+04  0.46999998093E+01 0. -1.
       -5    1    3    3    0  502 -0.29640735196E+03  0.53324539862E+03  0.11368508646E+04  0.12902170173E+04  0.46999998093E+01 0.  1.
</event>
<event>
 5   0  0.7201538E-06  0.2962455E+04  0.7818609E-02  0.8254534E-01
       -2   -1    0    0    0  501  0.00000000000E+00  0.00000000000E+00  0.17450082421E+04  0.17450082421E+04  0.25500000920E-02 0.  1.
        2   -1    0    0  501    0  0.00000000000E+00  0.00000000000E+00 -0.12573203741E+04  0.12573203741E+04  0.25500000920E-02 0. -1.
    10030    2    1    2    0    0  0.00000000000E+00  0.00000000000E+00  0.48768786793E+03  0.30023286162E+04  0.29624546685E+04 0.  0.
        3    1    3    3  502    0 -0.10163204663E+04  0.35308866648E+03 -0.78792356727E+03  0.13335675666E+04  0.10100000352E+00 0. -1.
       -3    1    3    3    0  502  0.10163204663E+04 -0.35308866648E+03  0.12756114352E+04  0.16687610496E+04  0.10100000352E+00 0.  1.
</event>
<event>
 5   0  0.2628425E-06  0.2495283E+04  0.7818609E-02  0.8404668E-01
       -1   -1    0    0    0  501  0.00000000000E+00  0.00000000000E+00  0.10609751020E+04  0.10609751021E+04  0.50400001928E-02 0. -1.
        1   -1    0    0  501    0  0.00000000000E+00  0.00000000000E+00 -0.14671502432E+04  0.14671502433E+04  0.50400001928E-02 0.  1.
    10030    2    1    2    0    0  0.00000000000E+00  0.00000000000E+00 -0.40617514121E+03  0.25281253453E+04  0.24952834541E+04 0.  0.
        1    1    3    3  502    0 -0.10530805056E+04 -0.32698461924E+03  0.38830065976E+03  0.11690487136E+04  0.50400001928E-02 0. -1.
       -1    1    3    3    0  502  0.10530805056E+04  0.32698461924E+03 -0.79447580097E+03  0.13590766317E+04  0.50400001928E-02 0.  1.
</event>
<event>
 5   0  0.7217255E-06  0.3034613E+04  0.7818609E-02  0.8233915E-01
       -2   -1    0    0    0  501  0.00000000000E+00  0.00000000000E+00  0.15467951235E+04  0.15467951235E+04  0.25500000920E-02 0.  1.
        2   -1    0    0  501    0  0.00000000000E+00  0.00000000000E+00 -0.14883799845E+04  0.14883799845E+04  0.25500000920E-02 0. -1.
    10030    2    1    2    0    0  0.00000000000E+00  0.00000000000E+00  0.58415139003E+02  0.30351751080E+04  0.30346129256E+04 0.  0.
        1    1    3    3  502    0  0.11288930638E+04 -0.68596917259E+03 -0.71743300024E+03  0.15032176705E+04  0.50400001928E-02 0. -1.
       -1    1    3    3    0  502 -0.11288930638E+04  0.68596917259E+03  0.77584813925E+03  0.15319574375E+04  0.50400001928E-02 0.  1.
</event>
<event>
 5   0  0.2552990E-06  0.2978621E+04  0.7818609E-02  0.8249862E-01
        1   -1    0    0  501    0  0.00000000000E+00  0.00000000000E+00  0.19346015579E+04  0.19346015579E+04  0.50400001928E-02 0.  1.
       -1   -1    0    0    0  501  0.00000000000E+00  0.00000000000E+00 -0.11465128973E+04  0.11465128973E+04  0.50400001928E-02 0. -1.
    10030    2    1    2    0    0  0.00000000000E+00  0.00000000000E+00  0.78808866058E+03  0.30811144552E+04  0.29786209140E+04 0.  0.
        3    1    3    3  502    0  0.13124700895E+04 -0.47322327359E+03  0.93305778625E+03  0.16784263002E+04  0.10100000352E+00 0.  1.
       -3    1    3    3    0  502 -0.13124700895E+04  0.47322327359E+03 -0.14496912566E+03  0.14026881550E+04  0.10100000352E+00 0. -1.
</event>
<event>
 5   0  0.2422083E-06  0.3010460E+04  0.7818609E-02  0.8240750E-01
        1   -1    0    0  501    0  0.00000000000E+00  0.00000000000E+00  0.19285585634E+04  0.19285585634E+04  0.50400001928E-02 0. -1.
       -1   -1    0    0    0  501  0.00000000000E+00  0.00000000000E+00 -0.11748243074E+04  0.11748243074E+04  0.50400001928E-02 0.  1.
    10030    2    1    2    0    0  0.00000000000E+00  0.00000000000E+00  0.75373425601E+03  0.31033828708E+04  0.30104600835E+04 0.  0.
        2    1    3    3  502    0  0.24806017800E+03 -0.43538783889E+03  0.18400518911E+04  0.19070625013E+04  0.25500000920E-02 0. -1.
       -2    1    3    3    0  502 -0.24806017800E+03  0.43538783889E+03 -0.10863176351E+04  0.11963203695E+04  0.25500000920E-02 0.  1.
</event>
<event>
 5   0  0.2672155E-06  0.3048404E+04  0.7818609E-02  0.8230042E-01
        1   -1    0    0  501    0  0.00000000000E+00  0.00000000000E+00  0.12902022010E+04  0.12902022010E+04  0.50400001928E-02 0. -1.
       -1   -1    0    0    0  501  0.00000000000E+00  0.00000000000E+00 -0.18006421428E+04  0.18006421428E+04  0.50400001928E-02 0.  1.
    10030    2    1    2    0    0  0.00000000000E+00  0.00000000000E+00 -0.51043994176E+03  0.30908443439E+04  0.30484044718E+04 0.  0.
        5    1    3    3  502    0  0.20342871161E+03  0.12428762598E+04 -0.11256858678E+04  0.16891759532E+04  0.46999998093E+01 0.  1.
       -5    1    3    3    0  502 -0.20342871161E+03 -0.12428762598E+04  0.61524592605E+03  0.14016683907E+04  0.46999998093E+01 0. -1.
</event>
<event>
 5   0  0.6780150E-06  0.2595656E+04  0.7818609E-02  0.8369678E-01
       -2   -1    0    0    0  501  0.00000000000E+00  0.00000000000E+00  0.10378995752E+04  0.10378995752E+04  0.25500000920E-02 0. -1.
        2   -1    0    0  501    0  0.00000000000E+00  0.00000000000E+00 -0.16228518556E+04  0.16228518556E+04  0.25500000920E-02 0.  1.
    10030    2    1    2    0    0  0.00000000000E+00  0.00000000000E+00 -0.58495228039E+03  0.26607514308E+04  0.25956557950E+04 0.  0.
        5    1    3    3  502    0  0.34856408546E+03  0.49181159455E+03  0.88567761088E+03  0.10713647776E+04  0.46999998093E+01 0. -1.
       -5    1    3    3    0  502 -0.34856408546E+03 -0.49181159455E+03 -0.14706298913E+04  0.15893866532E+04  0.46999998093E+01 0.  1.
</event>
<event>
 5   0  0.6780150E-06  0.2983504E+04  0.7818609E-02  0.8248457E-01
        2   -1    0    0  501    0  0.00000000000E+00  0.00000000000E+00  0.19324362437E+04  0.19324362437E+04  0.25500000920E-02 0.  1.
       -2   -1    0    0    0  501  0.00000000000E+00  0.00000000000E+00 -0.11515640930E+04  0.11515640930E+04  0.25500000920E-02 0. -1.
    10030    2    1    2    0    0  0.00000000000E+00  0.00000000000E+00  0.78087215077E+03  0.30840003367E+04  0.29835041077E+04 0.  0.
        5    1    3    3  502    0 -0.84055258700E+03  0.69595100586E+03  0.14417621029E+04  0.18081970317E+04  0.46999998093E+01 0.  1.
       -5    1    3    3    0  502  0.84055258700E+03 -0.69595100586E+03 -0.66088995217E+03  0.12758033050E+04  0.46999998093E+01 0. -1.
</event>
<event>
 5   0  0.6780150E-06  0.3065907E+04  0.7818609E-02  0.8225157E-01
        2   -1    0    0  501    0  0.00000000000E+00  0.00000000000E+00  0.14759481776E+04  0.14759481776E+04  0.25500000920E-02 0.  1.
       -2   -1    0    0    0  501  0.00000000000E+00  0.00000000000E+00 -0.15921600143E+04  0.15921600143E+04  0.25500000920E-02 0. -1.
    10030    2    1    2    0    0  0.00000000000E+00  0.00000000000E+00 -0.11621183662E+03  0.30681081919E+04  0.30659065032E+04 0.  0.
        5    1    3    3  502    0 -0.16223778969E+03  0.13000522470E+04 -0.85458364750E+03  0.15642225692E+04  0.46999998093E+01 0. -1.
       -5    1    3    3    0  502  0.16223778969E+03 -0.13000522470E+04  0.73837181087E+03  0.15038856228E+04  0.46999998093E+01 0.  1.
</event>
<event>
 5   0  0.2504260E-06  0.2887691E+04  0.7818609E-02  0.8276549E-01
       -1   -1    0    0    0  501  0.00000000000E+00  0.00000000000E+00  0.74176008397E+03  0.74176008399E+03  0.50400001928E-02 0. -1.
        1   -1    0    0  501    0  0.00000000000E+00  0.00000000000E+00 -0.28104632195E+04  0.28104632195E+04  0.50400001928E-02 0.  1.
    10030    2    1    2    0    0  0.00000000000E+00  0.00000000000E+00 -0.20687031356E+04  0.35522233035E+04  0.28876907270E+04 0.  0.
        4    1    3    3  502    0  0.30693023359E+03  0.19659975174E+03 -0.27529349037E+04  0.27769605376E+04  0.12699999809E+01 0.  1.
       -4    1    3    3    0  502 -0.30693023359E+03 -0.19659975174E+03  0.68423176816E+03  0.77526276586E+03  0.12699999809E+01 0. -1.
</event>
<event>
 5   0  0.6792811E-06  0.2533941E+04  0.7818609E-02  0.8390993E-01
        2   -1    0    0  501    0  0.00000000000E+00  0.00000000000E+00  0.18387791597E+04  0.18387791597E+04  0.25500000920E-02 0.  1.
       -2   -1    0    0    0  501  0.00000000000E+00  0.00000000000E+00 -0.87297847597E+03  0.87297847598E+03  0.25500000920E-02 0. -1.
    10030    2    1    2    0    0  0.00000000000E+00  0.00000000000E+00  0.96580068371E+03  0.27117576357E+04  0.25339413004E+04 0.  0.
        2    1    3    3  502    0 -0.43333125244E+02 -0.34354446514E+03  0.17871582210E+04  0.18203942062E+04  0.25500000920E-02 0.  1.
       -2    1    3    3    0  502  0.43333125244E+02  0.34354446514E+03 -0.82135753727E+03  0.89136342942E+03  0.25500000920E-02 0. -1.
</event>
<event>
 5   0  0.7201538E-06  0.2998821E+04  0.7818609E-02  0.8244068E-01
        2   -1    0    0  501    0  0.00000000000E+00  0.00000000000E+00  0.19251704880E+04  0.19251704880E+04  0.25500000920E-02 0.  1.
       -2   -1    0    0    0  501  0.00000000000E+00  0.00000000000E+00 -0.11678089140E+04  0.11678089140E+04  0.25500000920E-02 0. -1.
    10030    2    1    2    0    0  0.00000000000E+00  0.00000000000E+00  0.75736157401E+03  0.30929794019E+04  0.29988206060E+04 0.  0.
        3    1    3    3  502    0 -0.66279382395E+03 -0.77022693455E+02 -0.10062395026E+04  0.12073715647E+04  0.10100000352E+00 0. -1.
       -3    1    3    3    0  502  0.66279382395E+03  0.77022693455E+02  0.17636010766E+04  0.18856078373E+04  0.10100000352E+00 0.  1.
</event>
<event>
 5   0  0.2552990E-06  0.3016082E+04  0.7818609E-02  0.8239153E-01
       -1   -1    0    0    0  501  0.00000000000E+00  0.00000000000E+00  0.10967297306E+04  0.10967297307E+04  0.50400001928E-02 0. -1.
        1   -1    0    0  501    0  0.00000000000E+00  0.00000000000E+00 -0.20736079818E+04  0.20736079818E+04  0.50400001928E-02 0.  1.
    10030    2    1    2    0    0  0.00000000000E+00  0.00000000000E+00 -0.97687825115E+03  0.31703377125E+04  0.30160819109E+04 0.  0.
        3    1    3    3  502    0  0.43668943369E+03  0.65393459996E+03  0.86417563549E+03  0.11683867774E+04  0.10100000352E+00 0. -1.
       -3    1    3    3    0  502 -0.43668943369E+03 -0.65393459996E+03 -0.18410538866E+04  0.20019509350E+04  0.10100000352E+00 0.  1.
</event>
<event>
 5   0  0.7201538E-06  0.2960597E+04  0.7818609E-02  0.8255073E-01
       -2   -1    0    0    0  501  0.00000000000E+00  0.00000000000E+00  0.19445572785E+04  0.19445572785E+04  0.25500000920E-02 0. -1.
        2   -1    0    0  501    0  0.00000000000E+00  0.00000000000E+00 -0.11268803611E+04  0.11268803611E+04  0.25500000920E-02 0.  1.
    10030    2    1    2    0    0  0.00000000000E+00  0.00000000000E+00  0.81767691740E+03  0.30714376396E+04  0.29605968372E+04 0.  0.
        3    1    3    3  502    0 -0.17307167154E+03  0.37420585753E+03  0.18837900716E+04  0.19283798566E+04  0.10100000352E+00 0. -1.
       -3    1    3    3    0  502  0.17307167154E+03 -0.37420585753E+03 -0.10661131542E+04  0.11430577829E+04  0.10100000352E+00 0.  1.
</event>
<event>
 5   0  0.2504260E-06  0.2979068E+04  0.7818609E-02  0.8249734E-01
       -1   -1    0    0    0  501  0.00000000000E+00  0.00000000000E+00  0.85450348535E+03  0.85450348537E+03  0.50400001928E-02 0. -1.
        1   -1    0    0  501    0  0.00000000000E+00  0.00000000000E+00 -0.25964914828E+04  0.25964914828E+04  0.50400001928E-02 0.  1.
    10030    2    1    2    0    0  0.00000000000E+00  0.00000000000E+00 -0.17419879975E+04  0.34509949682E+04  0.29790676540E+04 0.  0.
        4    1    3    3  502    0  0.59525874967E+02  0.45156154108E+03 -0.25138438761E+04  0.25547727494E+04  0.12699999809E+01 0.  1.
       -4    1    3    3    0  502 -0.59525874967E+02 -0.45156154108E+03  0.77185587859E+03  0.89622221876E+03  0.12699999809E+01 0. -1.
</event>
<event>
 5   0  0.6780150E-06  0.3002832E+04  0.7818609E-02  0.8242923E-01
       -2   -1    0    0    0  501  0.00000000000E+00  0.00000000000E+00  0.23063704096E+04  0.23063704096E+04  0.25500000920E-02 0. -1.
        2   -1    0    0  501    0  0.00000000000E+00  0.00000000000E+00 -0.97740145594E+03  0.97740145594E+03  0.25500000920E-02 0.  1.
    10030    2    1    2    0    0  0.00000000000E+00  0.00000000000E+00  0.13289689537E+04  0.32837718656E+04  0.30028318610E+04 0.  0.
        5    1    3    3  502    0 -0.18273118325E+03  0.85902682072E+03  0.19961628628E+04  0.21808269140E+04  0.46999998093E+01 0. -1.
       -5    1    3    3    0  502  0.18273118325E+03 -0.85902682072E+03 -0.66719390905E+03  0.11029449516E+04  0.46999998093E+01 0.  1.
</event>
<event>
 5   0  0.2552990E-06  0.2968850E+04  0.7818609E-02  0.8252682E-01
       -1   -1    0    0    0  501  0.00000000000E+00  0.00000000000E+00  0.10262326528E+04  0.10262326528E+04  0.50400001928E-02 0. -1.
        1   -1    0    0  501    0  0.00000000000E+00  0.00000000000E+00 -0.21471904594E+04  0.21471904594E+04  0.50400001928E-02 0.  1.
    10030    2    1    2    0    0  0.00000000000E+00  0.00000000000E+00 -0.11209578066E+04  0.31734231122E+04  0.29688495828E+04 0.  0.
        3    1    3    3  502    0 -0.85325134365E+03 -0.10965390327E+02 -0.18588194489E+04  0.20453282986E+04  0.10100000352E+00 0.  1.
       -3    1    3    3    0  502  0.85325134365E+03  0.10965390327E+02  0.73786164228E+03  0.11280948136E+04  0.10100000352E+00 0. -1.
</event>
<event>
 5   0  0.6792811E-06  0.2798162E+04  0.7818609E-02  0.8303839E-01
       -2   -1    0    0    0  501  0.00000000000E+00  0.00000000000E+00  0.17247586600E+04  0.17247586600E+04  0.25500000920E-02 0.  1.
        2   -1    0    0  501    0  0.00000000000E+00  0.00000000000E+00 -0.11348993270E+04  0.11348993270E+04  0.25500000920E-02 0. -1.
    10030    2    1    2    0    0  0.00000000000E+00  0.00000000000E+00  0.58985933303E+03  0.28596579870E+04  0.27981618555E+04 0.  0.
        2    1    3    3  502    0  0.13732454742E+04  0.18646469115E+03  0.49112596959E+03  0.14702982458E+04  0.25500000920E-02 0.  1.
       -2    1    3    3    0  502 -0.13732454742E+04 -0.18646469115E+03  0.98733363441E+02  0.13893597412E+04  0.25500000920E-02 0. -1.
</event>
<event>
 5   0  0.2672155E-06  0.2959631E+04  0.7818609E-02  0.8255353E-01
        1   -1    0    0  501    0  0.00000000000E+00  0.00000000000E+00  0.26269475752E+04  0.26269475752E+04  0.50400001928E-02 0.  1.
       -1   -1    0    0    0  501  0.00000000000E+00  0.00000000000E+00 -0.83361166996E+03  0.83361166998E+03  0.50400001928E-02 0. -1.
    10030    2    1    2    0    0  0.00000000000E+00  0.00000000000E+00  0.17933359052E+04  0.34605592452E+04  0.29596311629E+04 0.  0.
        5    1    3    3  502    0  0.14331842257E+04 -0.33154264842E+03  0.70851433712E+03  0.16327743899E+04  0.46999998093E+01 0.  1.
       -5    1    3    3    0  502 -0.14331842257E+04  0.33154264842E+03  0.10848215681E+04  0.18277848553E+04  0.46999998093E+01 0. -1.
</event>
<event>
 5   0  0.2422083E-06  0.2977573E+04  0.7818609E-02  0.8250164E-01
        1   -1    0    0  501    0  0.00000000000E+00  0.00000000000E+00  0.14997749273E+04  0.14997749273E+04  0.50400001928E-02 0. -1.
       -1   -1    0    0    0  501  0.00000000000E+00  0.00000000000E+00 -0.14778790554E+04  0.14778790554E+04  0.50400001928E-02 0.  1.
    10030    2    1    2    0    0  0.00000000000E+00  0.00000000000E+00  0.21895871886E+02  0.29776539828E+04  0.29775734772E+04 0.  0.
        2    1    3    3  502    0  0.53484477904E+03  0.62555861358E+03  0.12515875548E+04  0.14979499070E+04  0.25500000920E-02 0. -1.
       -2    1    3    3    0  502 -0.53484477904E+03 -0.62555861358E+03 -0.12296916829E+04  0.14797040757E+04  0.25500000920E-02 0.  1.
</event>
<event>
 5   0  0.2672155E-06  0.3038325E+04  0.7818609E-02  0.8232871E-01
        1   -1    0    0  501    0  0.00000000000E+00  0.00000000000E+00  0.16252882277E+04  0.16252882277E+04  0.50400001928E-02 0. -1.
       -1   -1    0    0    0  501  0.00000000000E+00  0.00000000000E+00 -0.14199663202E+04  0.14199663202E+04  0.50400001928E-02 0.  1.
    10030    2    1    2    0    0  0.00000000000E+00  0.00000000000E+00  0.20532190748E+03  0.30452545479E+04  0.30383248963E+04 0.  0.
        5    1    3    3  502    0 -0.46687240608E+02  0.57307685949E+02 -0.14181555386E+04  0.14200884095E+04  0.46999998093E+01 0.  1.
       -5    1    3    3    0  502  0.46687240608E+02 -0.57307685949E+02  0.16234774461E+04  0.16251661383E+04  0.46999998093E+01 0. -1.
</event>
<event>
 5   0  0.6780150E-06  0.2992915E+04  0.7818609E-02  0.8245757E-01
       -2   -1    0    0    0  501  0.00000000000E+00  0.00000000000E+00  0.99264854165E+03  0.99264854165E+03  0.25500000920E-02 0. -1.
        2   -1    0    0  501    0  0.00000000000E+00  0.00000000000E+00 -0.22559696398E+04  0.22559696398E+04  0.25500000920E-02 0.  1.
    10030    2    1    2    0    0  0.00000000000E+00  0.00000000000E+00 -0.12633210981E+04  0.32486181814E+04  0.29929149490E+04 0.  0.
        5    1    3    3  502    0  0.52766762294E+03 -0.82107742920E+01  0.88828436520E+03  0.10332336331E+04  0.46999998093E+01 0. -1.
       -5    1    3    3    0  502 -0.52766762294E+03  0.82107742920E+01 -0.21516054633E+04  0.22153845483E+04  0.46999998093E+01 0.  1.
</event>
<event>
 5   0  0.2672155E-06  0.3004350E+04  0.7818609E-02  0.8242490E-01
       -1   -1    0    0    0  501  0.00000000000E+00  0.00000000000E+00  0.91972413977E+03  0.91972413978E+03  0.50400001928E-02 0.  1.
        1   -1    0    0  501    0  0.00000000000E+00  0.00000000000E+00 -0.24534854080E+04  0.24534854080E+04  0.50400001928E-02 0. -1.
    10030    2    1    2    0    0  0.00000000000E+00  0.00000000000E+00 -0.15337612682E+04  0.33732095478E+04  0.30043500171E+04 0.  0.
        5    1    3    3  502    0 -0.68022610593E+03 -0.58834580825E+03 -0.21177846052E+04  0.23008459464E+04  0.46999998093E+01 0. -1.
       -5    1    3    3    0  502  0.68022610593E+03  0.58834580825E+03  0.58402333699E+03  0.10723636013E+04  0.46999998093E+01 0.  1.
</event>
<event>
 5   0  0.7217255E-06  0.2841491E+04  0.7818609E-02  0.8290501E-01
       -2   -1    0    0    0  501  0.00000000000E+00  0.00000000000E+00  0.65032411632E+03  0.65032411633E+03  0.25500000920E-02 0. -1.
        2   -1    0    0  501    0  0.00000000000E+00  0.00000000000E+00 -0.31038650150E+04  0.31038650150E+04  0.25500000920E-02 0.  1.
    10030    2    1    2    0    0  0.00000000000E+00  0.00000000000E+00 -0.24535408987E+04  0.37541891314E+04  0.28414913500E+04 0.  0.
        1    1    3    3  502    0  0.51058068896E+03  0.27163540937E+03  0.48776311004E+03  0.75656545461E+03  0.50400001928E-02 0. -1.
       -1    1    3    3    0  502 -0.51058068896E+03 -0.27163540937E+03 -0.29413040087E+04  0.29976236768E+04  0.50400001928E-02 0.  1.
</event>
<event>
 5   0  0.6780150E-06  0.2933832E+04  0.7818609E-02  0.8262882E-01
        2   -1    0    0  501    0  0.00000000000E+00  0.00000000000E+00  0.87373301534E+03  0.87373301534E+03  0.25500000920E-02 0. -1.
       -2   -1    0    0    0  501  0.00000000000E+00  0.00000000000E+00 -0.24628151670E+04  0.24628151670E+04  0.25500000920E-02 0.  1.
    10030    2    1    2    0    0  0.00000000000E+00  0.00000000000E+00 -0.15890821516E+04  0.33365481823E+04  0.29338322529E+04 0.  0.
        5    1    3    3  502    0  0.10186040356E+04 -0.94183287318E+03 -0.13366455615E+04  0.19264596517E+04  0.46999998093E+01 0.  1.
       -5    1    3    3    0  502 -0.10186040356E+04  0.94183287318E+03 -0.25243659012E+03  0.14100885307E+04  0.46999998093E+01 0. -1.
</event>
<event>
 5   0  0.6780150E-06  0.3024282E+04  0.7818609E-02  0.8236831E-01
       -2   -1    0    0    0  501  0.00000000000E+00  0.00000000000E+00  0.75732458660E+03  0.75732458660E+03  0.25500000920E-02 0.  1.
        2   -1    0    0  501    0  0.00000000000E+00  0.00000000000E+00 -0.30192739796E+04  0.30192739796E+04  0.25500000920E-02 0. -1.
    10030    2    1    2    0    0  0.00000000000E+00  0.00000000000E+00 -0.22619493930E+04  0.37765985662E+04  0.30242820096E+04 0.  0.
        5    1    3    3  502    0 -0.25865227096E+03  0.14743688528E+04 -0.13984651628E+04  0.20485095589E+04  0.46999998093E+01 0. -1.
       -5    1    3    3    0  502  0.25865227096E+03 -0.14743688528E+04 -0.86348423021E+03  0.17280890073E+04  0.46999998093E+01 0.  1.
</event>
<event>
 5   0  0.2672155E-06  0.2981780E+04  0.7818609E-02  0.8248953E-01
       -1   -1    0    0    0  501  0.00000000000E+00  0.00000000000E+00  0.12962222245E+04  0.12962222245E+04  0.50400001928E-02 0.  1.
        1   -1    0    0  501    0  0.00000000000E+00  0.00000000000E+00 -0.17147931277E+04  0.17147931277E+04  0.50400001928E-02 0. -1.
    10030    2    1    2    0    0  0.00000000000E+00  0.00000000000E+00 -0.41857090318E+03  0.30110153522E+04  0.29817799801E+04 0.  0.
        5    1    3    3  502    0 -0.13815406597E+04 -0.26319923495E+03  0.29034079754E+03  0.14360530284E+04  0.46999998093E+01 0.  1.
       -5    1    3    3    0  502  0.13815406597E+04  0.26319923495E+03 -0.70891170072E+03  0.15749623237E+04  0.46999998093E+01 0. -1.
</event>
<event>
 5   0  0.2672155E-06  0.2903836E+04  0.7818609E-02  0.8271737E-01
       -1   -1    0    0    0  501  0.00000000000E+00  0.00000000000E+00  0.13346253362E+04  0.13346253363E+04  0.50400001928E-02 0. -1.
        1   -1    0    0  501    0  0.00000000000E+00  0.00000000000E+00 -0.15795187337E+04  0.15795187337E+04  0.50400001928E-02 0.  1.
    10030    2    1    2    0    0  0.00000000000E+00  0.00000000000E+00 -0.24489339749E+03  0.29141440700E+04  0.29038358915E+04 0.  0.
        5    1    3    3  502    0  0.11465722635E+04  0.56043129403E+03 -0.81724278110E+03  0.15154600107E+04  0.46999998093E+01 0. -1.
       -5    1    3    3    0  502 -0.11465722635E+04 -0.56043129403E+03  0.57234938361E+03  0.13986840593E+04  0.46999998093E+01 0.  1.
</event>
<event>
 5   0  0.6780150E-06  0.2747147E+04  0.7818609E-02  0.8319868E-01
        2   -1    0    0  501    0  0.00000000000E+00  0.00000000000E+00  0.16750974877E+04  0.16750974877E+04  0.25500000920E-02 0.  1.
       -2   -1    0    0    0  501  0.00000000000E+00  0.00000000000E+00 -0.11263249290E+04  0.11263249290E+04  0.25500000920E-02 0. -1.
    10030    2    1    2    0    0  0.00000000000E+00  0.00000000000E+00  0.54877255862E+03  0.28014224167E+04  0.27471469265E+04 0.  0.
        5    1    3    3  502    0 -0.78957845878E+03  0.18041849682E+03  0.14056719380E+04  0.16223195319E+04  0.46999998093E+01 0.  1.
       -5    1    3    3    0  502  0.78957845878E+03 -0.18041849682E+03 -0.85689937934E+03  0.11791028848E+04  0.46999998093E+01 0. -1.
</event>
<event>
 5   0  0.2504260E-06  0.2993985E+04  0.7818609E-02  0.8245451E-01
        1   -1    0    0  501    0  0.00000000000E+00  0.00000000000E+00  0.22769817446E+04  0.22769817446E+04  0.50400001928E-02 0.  1.
       -1   -1    0    0    0  501  0.00000000000E+00  0.00000000000E+00 -0.98419166085E+03  0.98419166086E+03  0.50400001928E-02 0. -1.
    10030    2    1    2    0    0  0.00000000000E+00  0.00000000000E+00  0.12927900838E+04  0.32611734055E+04  0.29939849332E+04 0.  0.
        4    1    3    3  502    0  0.24129446518E+03  0.13569829100E+04  0.12827949152E+04  0.18828675058E+04  0.12699999809E+01 0.  1.
       -4    1    3    3    0  502 -0.24129446518E+03 -0.13569829100E+04  0.99951686047E+01  0.13783058997E+04  0.12699999809E+01 0. -1.
</event>
<event>
 5   0  0.7217255E-06  0.2996132E+04  0.7818609E-02  0.8244836E-01
       -2   -1    0    0    0  501  0.00000000000E+00  0.00000000000E+00  0.11454452596E+04  0.11454452596E+04  0.25500000920E-02 0. -1.
        2   -1    0    0  501    0  0.00000000000E+00  0.00000000000E+00 -0.19592393152E+04  0.19592393152E+04  0.25500000920E-02 0.  1.
    10030    2    1    2    0    0  0.00000000000E+00  0.00000000000E+00 -0.81379405568E+03  0.31046845748E+04  0.29961317635E+04 0.  0.
        1    1    3    3  502    0  0.71331834256E+03 -0.15119497239E+02  0.95807909209E+03  0.11945573254E+04  0.50400001928E-02 0. -1.
       -1    1    3    3    0  502 -0.71331834256E+03  0.15119497239E+02 -0.17718731478E+04  0.19101272494E+04  0.50400001928E-02 0.  1.
</event>
<event>
 5   0  0.2672155E-06  0.3034931E+04  0.7818609E-02  0.8233826E-01
        1   -1    0    0  501    0  0.00000000000E+00  0.00000000000E+00  0.10892558768E+04  0.10892558768E+04  0.50400001928E-02 0. -1.
       -1   -1    0    0    0  501  0.00000000000E+00  0.00000000000E+00 -0.21140130930E+04  0.21140130930E+04  0.50400001928E-02 0.  1.
    10030    2    1    2    0    0  0.00000000000E+00  0.00000000000E+00 -0.10247572162E+04  0.32032689699E+04  0.30349307638E+04 0.  0.
        5    1    3    3  502    0  0.45953389818E+03 -0.14457206165E+04 -0.55186478883E+03  0.16142665021E+04  0.46999998093E+01 0. -1.
       -5    1    3    3    0  502 -0.45953389818E+03  0.14457206165E+04 -0.47289242737E+03  0.15890024678E+04  0.46999998093E+01 0.  1.
</event>
<event>
 5   0  0.2628425E-06  0.2979734E+04  0.7818609E-02  0.8249542E-01
       -1   -1    0    0    0  501  0.00000000000E+00  0.00000000000E+00  0.13854547676E+04  0.13854547676E+04  0.50400001928E-02 0. -1.
        1   -1    0    0  501    0  0.00000000000E+00  0.00000000000E+00 -0.16021481088E+04  0.16021481088E+04  0.50400001928E-02 0.  1.
    10030    2    1    2    0    0  0.00000000000E+00  0.00000000000E+00 -0.21669334120E+03  0.29876028763E+04  0.29797340389E+04 0.  0.
        1    1    3    3  502    0 -0.13071994217E+04 -0.33416161017E+03 -0.74189302238E+03  0.15397530862E+04  0.50400001928E-02 0.  1.
       -1    1    3    3    0  502  0.13071994217E+04  0.33416161017E+03  0.52519968118E+03  0.14478497902E+04  0.50400001928E-02 0. -1.
</event>
<event>
 5   0  0.2628425E-06  0.3016780E+04  0.7818609E-02  0.8238955E-01
       -1   -1    0    0    0  501  0.00000000000E+00  0.00000000000E+00  0.15411184907E+04  0.15411184907E+04  0.50400001928E-02 0.  1.
        1   -1    0    0  501    0  0.00000000000E+00  0.00000000000E+00 -0.14763567923E+04  0.14763567923E+04  0.50400001928E-02 0. -1.
    10030    2    1    2    0    0  0.00000000000E+00  0.00000000000E+00  0.64761698465E+02  0.30174752830E+04  0.30167802383E+04 0.  0.
        1    1    3    3  502    0 -0.63025503327E+03  0.73015070367E+03 -0.11275842694E+04  0.14838422226E+04  0.50400001928E-02 0. -1.
       -1    1    3    3    0  502  0.63025503327E+03 -0.73015070367E+03  0.11923459678E+04  0.15336330604E+04  0.50400001928E-02 0.  1.
</event>
<event>
 5   0  0.2504260E-06  0.3039769E+04  0.7818609E-02  0.8232465E-01
       -1   -1    0    0    0  501  0.00000000000E+00  0.00000000000E+00  0.81222271633E+03  0.81222271635E+03  0.50400001928E-02 0.  1.
        1   -1    0    0  501    0  0.00000000000E+00  0.00000000000E+00 -0.28441079160E+04  0.28441079160E+04  0.50400001928E-02 0. -1.
    10030    2    1    2    0    0  0.00000000000E+00  0.00000000000E+00 -0.20318851996E+04  0.36563306323E+04  0.30397691077E+04 0.  0.
        4    1    3    3  502    0 -0.76260788356E+02  0.13988645517E+04 -0.17249092973E+04  0.22221501837E+04  0.12699999809E+01 0. -1.
       -4    1    3    3    0  502  0.76260788356E+02 -0.13988645517E+04 -0.30697590232E+03  0.14341804487E+04  0.12699999809E+01 0.  1.
</event>
<event>
 5   0  0.7193153E-06  0.3010113E+04  0.7818609E-02  0.8240849E-01
       -2   -1    0    0    0  501  0.00000000000E+00  0.00000000000E+00  0.13618893263E+04  0.13618893263E+04  0.25500000920E-02 0.  1.
        2   -1    0    0  501    0  0.00000000000E+00  0.00000000000E+00 -0.16632737218E+04  0.16632737218E+04  0.25500000920E-02 0. -1.
    10030    2    1    2    0    0  0.00000000000E+00  0.00000000000E+00 -0.30138439540E+03  0.30251630481E+04  0.30101127743E+04 0.  0.
        4    1    3    3  502    0 -0.74221576688E+03  0.28396090112E+03 -0.14352358341E+04  0.16405552567E+04  0.12699999809E+01 0. -1.
       -4    1    3    3    0  502  0.74221576688E+03 -0.28396090112E+03  0.11338514387E+04  0.13846077914E+04  0.12699999809E+01 0.  1.
</event>
<event>
 5   0  0.7201538E-06  0.2282468E+04  0.7818609E-02  0.8484866E-01
       -2   -1    0    0    0  501  0.00000000000E+00  0.00000000000E+00  0.65845656546E+03  0.65845656546E+03  0.25500000920E-02 0.  1.
        2   -1    0    0  501    0  0.00000000000E+00  0.00000000000E+00 -0.19779825339E+04  0.19779825339E+04  0.25500000920E-02 0. -1.
    10030    2    1    2    0    0  0.00000000000E+00  0.00000000000E+00 -0.13195259684E+04  0.26364390993E+04  0.22824684758E+04 0.  0.
        3    1    3    3  502    0 -0.54012044719E+03 -0.93496335359E+03 -0.10865639753E+04  0.15318315353E+04  0.10100000352E+00 0. -1.
       -3    1    3    3    0  502  0.54012044719E+03  0.93496335359E+03 -0.23296199315E+03  0.11046075640E+04  0.10100000352E+00 0.  1.
</event>
<event>
 5   0  0.2504260E-06  0.2542581E+04  0.7818609E-02  0.8387971E-01
        1   -1    0    0  501    0  0.00000000000E+00  0.00000000000E+00  0.14941509964E+04  0.14941509964E+04  0.50400001928E-02 0. -1.
       -1   -1    0    0    0  501  0.00000000000E+00  0.00000000000E+00 -0.10816711759E+04  0.10816711759E+04  0.50400001928E-02 0.  1.
    10030    2    1    2    0    0  0.00000000000E+00  0.00000000000E+00  0.41247982045E+03  0.25758221723E+04  0.25425814168E+04 0.  0.
        4    1    3    3  502    0  0.13056528034E+03 -0.12303543297E+02 -0.10747995128E+04  0.10827715712E+04  0.12699999809E+01 0.  1.
       -4    1    3    3    0  502 -0.13056528034E+03  0.12303543297E+02  0.14872793333E+04  0.14930506012E+04  0.12699999809E+01 0. -1.
</event>
<event>
 5   0  0.6780150E-06  0.3046672E+04  0.7818609E-02  0.8230528E-01
        2   -1    0    0  501    0  0.00000000000E+00  0.00000000000E+00  0.11740400869E+04  0.11740400869E+04  0.25500000920E-02 0.  1.
       -2   -1    0    0    0  501  0.00000000000E+00  0.00000000000E+00 -0.19765525602E+04  0.19765525602E+04  0.25500000920E-02 0. -1.
    10030    2    1    2    0    0  0.00000000000E+00  0.00000000000E+00 -0.80251247333E+03  0.31505926471E+04  0.30466715868E+04 0.  0.
        5    1    3    3  502    0  0.83991683347E+03  0.69283515231E+03  0.70047058022E+03  0.12946667367E+04  0.46999998093E+01 0.  1.
       -5    1    3    3    0  502 -0.83991683347E+03 -0.69283515231E+03 -0.15029830536E+04  0.18559259103E+04  0.46999998093E+01 0. -1.
</event>
<event>
 5   0  0.7201538E-06  0.2941825E+04  0.7818609E-02  0.8260541E-01
        2   -1    0    0  501    0  0.00000000000E+00  0.00000000000E+00  0.24485656469E+04  0.24485656469E+04  0.25500000920E-02 0.  1.
       -2   -1    0    0    0  501  0.00000000000E+00  0.00000000000E+00 -0.88361249703E+03  0.88361249704E+03  0.25500000920E-02 0. -1.
    10030    2    1    2    0    0  0.00000000000E+00  0.00000000000E+00  0.15649531498E+04  0.33321781439E+04  0.29418247435E+04 0.  0.
        3    1    3    3  502    0  0.71395158029E+03  0.11892787347E+04  0.13367692931E+04  0.19264119292E+04  0.10100000352E+00 0.  1.
       -3    1    3    3    0  502 -0.71395158029E+03 -0.11892787347E+04  0.22818385672E+03  0.14057662147E+04  0.10100000352E+00 0. -1.
</event>
<event>
 5   0  0.7193153E-06  0.3007279E+04  0.7818609E-02  0.8241655E-01
        2   -1    0    0  501    0  0.00000000000E+00  0.00000000000E+00  0.29178717282E+04  0.29178717282E+04  0.25500000920E-02 0. -1.
       -2   -1    0    0    0  501  0.00000000000E+00  0.00000000000E+00 -0.77485641685E+03  0.77485641685E+03  0.25500000920E-02 0.  1.
    10030    2    1    2    0    0  0.00000000000E+00  0.00000000000E+00  0.21430153114E+04  0.36927281451E+04  0.30072789243E+04 0.  0.
        4    1    3    3  502    0 -0.12433872745E+04  0.30280805558E+03  0.10212288266E+03  0.12837972305E+04  0.12699999809E+01 0.  1.
       -4    1    3    3    0  502  0.12433872745E+04 -0.30280805558E+03  0.20408924287E+04  0.24089309146E+04  0.12699999809E+01 0. -1.
</event>
<event>
 5   0  0.6792811E-06  0.2986273E+04  0.7818609E-02  0.8247662E-01
       -2   -1    0    0    0  501  0.00000000000E+00  0.00000000000E+00  0.10251511390E+04  0.10251511390E+04  0.25500000920E-02 0. -1.
        2   -1    0    0  501    0  0.00000000000E+00  0.00000000000E+00 -0.21747582815E+04  0.21747582815E+04  0.25500000920E-02 0.  1.
    10030    2    1    2    0    0  0.00000000000E+00  0.00000000000E+00 -0.11496071424E+04  0.31999094205E+04  0.29862725457E+04 0.  0.
        2    1    3    3  502    0  0.56043937716E+03 -0.90010126633E+03  0.55168039871E+03  0.11952513742E+04  0.25500000920E-02 0. -1.
       -2    1    3    3    0  502 -0.56043937716E+03  0.90010126633E+03 -0.17012875411E+04  0.20046580463E+04  0.25500000920E-02 0.  1.
</event>
<event>
 5   0  0.6792811E-06  0.3021517E+04  0.7818609E-02  0.8237613E-01
       -2   -1    0    0    0  501  0.00000000000E+00  0.00000000000E+00  0.17685266971E+04  0.17685266971E+04  0.25500000920E-02 0. -1.
        2   -1    0    0  501    0  0.00000000000E+00  0.00000000000E+00 -0.12905608354E+04  0.12905608354E+04  0.25500000920E-02 0.  1.
    10030    2    1    2    0    0  0.00000000000E+00  0.00000000000E+00  0.47796586167E+03  0.30590875324E+04  0.30215170306E+04 0.  0.
        2    1    3    3  502    0 -0.29689068545E+03 -0.12002597877E+04 -0.63992648737E+03  0.13922189290E+04  0.25500000920E-02 0.  1.
       -2    1    3    3    0  502  0.29689068545E+03  0.12002597877E+04  0.11178923490E+04  0.16668686034E+04  0.25500000920E-02 0. -1.
</event>
<event>
 5   0  0.6792811E-06  0.3003111E+04  0.7818609E-02  0.8242843E-01
        2   -1    0    0  501    0  0.00000000000E+00  0.00000000000E+00  0.23316358964E+04  0.23316358964E+04  0.25500000920E-02 0.  1.
       -2   -1    0    0    0  501  0.00000000000E+00  0.00000000000E+00 -0.96699006820E+03  0.96699006820E+03  0.25500000920E-02 0. -1.
    10030    2    1    2    0    0  0.00000000000E+00  0.00000000000E+00  0.13646458282E+04  0.32986259646E+04  0.30031108901E+04 0.  0.
        2    1    3    3  502    0  0.10751746511E+03 -0.12967539840E+03  0.23212244741E+04  0.23273286775E+04  0.25500000920E-02 0.  1.
       -2    1    3    3    0  502 -0.10751746511E+03  0.12967539840E+03 -0.95657864583E+03  0.97129728710E+03  0.25500000920E-02 0. -1.
</event>
<event>
 5   0  0.7201538E-06  0.2956485E+04  0.7818609E-02  0.8256267E-01
        2   -1    0    0  501    0  0.00000000000E+00  0.00000000000E+00  0.21428827014E+04  0.21428827014E+04  0.25500000920E-02 0. -1.
       -2   -1    0    0    0  501  0.00000000000E+00  0.00000000000E+00 -0.10197480722E+04  0.10197480722E+04  0.25500000920E-02 0.  1.
    10030    2    1    2    0    0  0.00000000000E+00  0.00000000000E+00  0.11231346292E+04  0.31626307736E+04  0.29564847395E+04 0.  0.
        3    1    3    3  502    0 -0.10978725461E+04  0.11047968266E+03  0.16138601786E+04  0.19550126788E+04  0.10100000352E+00 0. -1.
       -3    1    3    3    0  502  0.10978725461E+04 -0.11047968266E+03 -0.49072554945E+03  0.12076180948E+04  0.10100000352E+00 0.  1.
</event>
<event>
 5   0  0.7193153E-06  0.3177620E+04  0.7818609E-02  0.8194753E-01
       -2   -1    0    0    0  501  0.00000000000E+00  0.00000000000E+00  0.11159809743E+04  0.11159809743E+04  0.25500000920E-02 0.  1.
        2   -1    0    0  501    0  0.00000000000E+00  0.00000000000E+00 -0.22619721341E+04  0.22619721341E+04  0.25500000920E-02 0. -1.
    10030    2    1    2    0    0  0.00000000000E+00  0.00000000000E+00 -0.11459911598E+04  0.33779531084E+04  0.31776204091E+04 0.  0.
        4    1    3    3  502    0 -0.14247497769E+04 -0.68291913202E+03 -0.39503226059E+03  0.16286014145E+04  0.12699999809E+01 0. -1.
       -4    1    3    3    0  502  0.14247497769E+04  0.68291913202E+03 -0.75095889926E+03  0.17493516939E+04  0.12699999809E+01 0.  1.
</event>
<event>
 5   0  0.7217255E-06  0.2864728E+04  0.7818609E-02  0.8283450E-01
       -2   -1    0    0    0  501  0.00000000000E+00  0.00000000000E+00  0.12847081460E+04  0.12847081460E+04  0.25500000920E-02 0.  1.
        2   -1    0    0  501    0  0.00000000000E+00  0.00000000000E+00 -0.15969905595E+04  0.15969905595E+04  0.25500000920E-02 0. -1.
    10030    2    1    2    0    0  0.00000000000E+00  0.00000000000E+00 -0.31228241351E+03  0.28816987055E+04  0.28647281064E+04 0.  0.
        1    1    3    3  502    0 -0.50683047943E+03 -0.52260042039E+03  0.10847297135E+04  0.13063793039E+04  0.50400001928E-02 0.  1.
       -1    1    3    3    0  502  0.50683047943E+03  0.52260042039E+03 -0.13970121270E+04  0.15753194016E+04  0.50400001928E-02 0. -1.
</event>
<event>
 5   0  0.2628425E-06  0.3008960E+04  0.7818609E-02  0.8241177E-01
       -1   -1    0    0    0  501  0.00000000000E+00  0.00000000000E+00  0.20470745947E+04  0.20470745947E+04  0.50400001928E-02 0. -1.
        1   -1    0    0  501    0  0.00000000000E+00  0.00000000000E+00 -0.11057050997E+04  0.11057050997E+04  0.50400001928E-02 0.  1.
    10030    2    1    2    0    0  0.00000000000E+00  0.00000000000E+00  0.94136949499E+03  0.31527796945E+04  0.30089604975E+04 0.  0.
        1    1    3    3  502    0  0.10957195449E+04  0.21642962680E+03  0.15268400372E+04  0.18917408924E+04  0.50400001928E-02 0. -1.
       -1    1    3    3    0  502 -0.10957195449E+04 -0.21642962680E+03 -0.58547054223E+03  0.12610388021E+04  0.50400001928E-02 0.  1.
</event>
<event>
 5   0  0.2552990E-06  0.3060753E+04  0.7818609E-02  0.8226592E-01
       -1   -1    0    0    0  501  0.00000000000E+00  0.00000000000E+00  0.11297078627E+04  0.11297078627E+04  0.50400001928E-02 0.  1.
        1   -1    0    0  501    0  0.00000000000E+00  0.00000000000E+00 -0.20731479449E+04  0.20731479449E+04  0.50400001928E-02 0. -1.
    10030    2    1    2    0    0  0.00000000000E+00  0.00000000000E+00 -0.94344008218E+03  0.32028558076E+04  0.30607525440E+04 0.  0.
        3    1    3    3  502    0  0.34709340056E+03  0.95926295113E+03 -0.16654697592E+04  0.19530613834E+04  0.10100000352E+00 0. -1.
       -3    1    3    3    0  502 -0.34709340056E+03 -0.95926295113E+03  0.72202967705E+03  0.12497944242E+04  0.10100000352E+00 0.  1.
</event>
<event>
 5   0  0.2628425E-06  0.3017606E+04  0.7818609E-02  0.8238721E-01
       -1   -1    0    0    0  501  0.00000000000E+00  0.00000000000E+00  0.16715600409E+04  0.16715600409E+04  0.50400001928E-02 0. -1.
        1   -1    0    0  501    0  0.00000000000E+00  0.00000000000E+00 -0.13618931491E+04  0.13618931492E+04  0.50400001928E-02 0.  1.
    10030    2    1    2    0    0  0.00000000000E+00  0.00000000000E+00  0.30966689173E+03  0.30334531900E+04  0.30176057848E+04 0.  0.
        1    1    3    3  502    0 -0.90892648724E+02  0.56885188922E+03 -0.12469906891E+04  0.13736228464E+04  0.50400001928E-02 0.  1.
       -1    1    3    3    0  502  0.90892648724E+02 -0.56885188922E+03  0.15566575809E+04  0.16598303436E+04  0.50400001928E-02 0. -1.
</event>
<event>
 5   0  0.7193153E-06  0.3013152E+04  0.7818609E-02  0.8239985E-01
       -2   -1    0    0    0  501  0.00000000000E+00  0.00000000000E+00  0.91034065138E+03  0.91034065138E+03  0.25500000920E-02 0.  1.
        2   -1    0    0  501    0  0.00000000000E+00  0.00000000000E+00 -0.24933205105E+04  0.24933205105E+04  0.25500000920E-02 0. -1.
    10030    2    1    2    0    0  0.00000000000E+00  0.00000000000E+00 -0.15829798591E+04  0.34036611619E+04  0.30131518499E+04 0.  0.
        4    1    3    3  502    0 -0.18026693273E+03  0.23526829891E+03 -0.24600617986E+04  0.24778524987E+04  0.12699999809E+01 0. -1.
       -4    1    3    3    0  502  0.18026693273E+03 -0.23526829891E+03  0.87708193944E+03  0.92580866322E+03  0.12699999809E+01 0.  1.
</event>
<event>
 5   0  0.6792811E-06  0.2988275E+04  0.7818609E-02  0.8247087E-01
        2   -1    0    0  501    0  0.00000000000E+00  0.00000000000E+00  0.28319559319E+04  0.28319559319E+04  0.25500000920E-02 0. -1.
       -2   -1    0    0    0  501  0.00000000000E+00  0.00000000000E+00 -0.78830591402E+03  0.78830591403E+03  0.25500000920E-02 0.  1.
    10030    2    1    2    0    0  0.00000000000E+00  0.00000000000E+00  0.20436500179E+04  0.36202618459E+04  0.29882754956E+04 0.  0.
        2    1    3    3  502    0  0.54067260904E+03  0.13916808015E+04  0.95175438660E+03  0.17705758204E+04  0.25500000920E-02 0.  1.
       -2    1    3    3    0  502 -0.54067260904E+03 -0.13916808015E+04  0.10918956313E+04  0.18496860255E+04  0.25500000920E-02 0. -1.
</event>
<event>
 5   0  0.6792811E-06  0.2966058E+04  0.7818609E-02  0.8253490E-01
        2   -1    0    0  501    0  0.00000000000E+00  0.00000000000E+00  0.18136983181E+04  0.18136983181E+04  0.25500000920E-02 0.  1.
       -2   -1    0    0    0  501  0.00000000000E+00  0.00000000000E+00 -0.12126465067E+04  0.12126465067E+04  0.25500000920E-02 0. -1.
    10030    2    1    2    0    0  0.00000000000E+00  0.00000000000E+00  0.60105181141E+03  0.30263448249E+04  0.29660579426E+04 0.  0.
        2    1    3    3  502    0  0.10425031670E+04  0.92490617327E+03  0.81789300872E+03  0.16159248919E+04  0.25500000920E-02 0.  1.
       -2    1    3    3    0  502 -0.10425031670E+04 -0.92490617327E+03 -0.21684119731E+03  0.14104199330E+04  0.25500000920E-02 0. -1.
</event>
<event>
 5   0  0.7217255E-06  0.3066073E+04  0.7818609E-02  0.8225111E-01
       -2   -1    0    0    0  501  0.00000000000E+00  0.00000000000E+00  0.11676939963E+04  0.11676939963E+04  0.25500000920E-02 0. -1.
        2   -1    0    0  501    0  0.00000000000E+00  0.00000000000E+00 -0.20126856252E+04  0.20126856252E+04  0.25500000920E-02 0.  1.
    10030    2    1    2    0    0  0.00000000000E+00  0.00000000000E+00 -0.84499162892E+03  0.31803796215E+04  0.30660730069E+04 0.  0.
        1    1    3    3  502    0 -0.55639530441E+03 -0.95230881047E+03 -0.15269606329E+04  0.18836338763E+04  0.50400001928E-02 0.  1.
       -1    1    3    3    0  502  0.55639530441E+03  0.95230881047E+03  0.68196900400E+03  0.12967457452E+04  0.50400001928E-02 0. -1.
</event>
<event>
 5   0  0.6780150E-06  0.3173855E+04  0.7818609E-02  0.8195756E-01
        2   -1    0    0  501    0  0.00000000000E+00  0.00000000000E+00  0.14232363708E+04  0.14232363708E+04  0.25500000920E-02 0. -1.
       -2   -1    0    0    0  501  0.00000000000E+00  0.00000000000E+00 -0.17694449653E+04  0.17694449653E+04  0.25500000920E-02 0.  1.
    10030    2    1    2    0    0  0.00000000000E+00  0.00000000000E+00 -0.34620859450E+03  0.31926813361E+04  0.31738547104E+04 0.  0.
        5    1    3    3  502    0  0.91271877248E+02 -0.14277048399E+04  0.51773335423E+03  0.15214274815E+04  0.46999998093E+01 0.  1.
       -5    1    3    3    0  502 -0.91271877248E+02  0.14277048399E+04 -0.86394194873E+03  0.16712538545E+04  0.46999998093E+01 0. -1.
</event>
<event>
 5   0  0.2422083E-06  0.2853248E+04  0.7818609E-02  0.8286925E-01
        1   -1    0    0  501    0  0.00000000000E+00  0.00000000000E+00  0.15661086775E+04  0.15661086775E+04  0.50400001928E-02 0. -1.
       -1   -1    0    0    0  501  0.00000000000E+00  0.00000000000E+00 -0.12995622728E+04  0.12995622728E+04  0.50400001928E-02 0.  1.
    10030    2    1    2    0    0  0.00000000000E+00  0.00000000000E+00  0.26654640471E+03  0.28656709503E+04  0.28532478002E+04 0.  0.
        2    1    3    3  502    0 -0.55980940662E+03 -0.79402908191E+03 -0.91597012945E+03  0.13352415634E+04  0.25500000920E-02 0.  1.
       -2    1    3    3    0  502  0.55980940662E+03  0.79402908191E+03  0.11825165342E+04  0.15304293869E+04  0.25500000920E-02 0. -1.
</event>
<event>
 5   0  0.2552990E-06  0.2994355E+04  0.7818609E-02  0.8245345E-01
        1   -1    0    0  501    0  0.00000000000E+00  0.00000000000E+00  0.14458815623E+04  0.14458815623E+04  0.50400001928E-02 0. -1.
       -1   -1    0    0    0  501  0.00000000000E+00  0.00000000000E+00 -0.15502929773E+04  0.15502929773E+04  0.50400001928E-02 0.  1.
    10030    2    1    2    0    0  0.00000000000E+00  0.00000000000E+00 -0.10441141503E+03  0.29961745396E+04  0.29943547098E+04 0.  0.
        3    1    3    3  502    0 -0.67622698633E+03  0.12930741879E+04 -0.38739620645E+03  0.15097680694E+04  0.10100000352E+00 0. -1.
       -3    1    3    3    0  502  0.67622698633E+03 -0.12930741879E+04  0.28298479142E+03  0.14864064702E+04  0.10100000352E+00 0.  1.
</event>
<event>
 5   0  0.2628425E-06  0.2993037E+04  0.7818609E-02  0.8245722E-01
       -1   -1    0    0    0  501  0.00000000000E+00  0.00000000000E+00  0.17337803664E+04  0.17337803664E+04  0.50400001928E-02 0. -1.
        1   -1    0    0  501    0  0.00000000000E+00  0.00000000000E+00 -0.12917255112E+04  0.12917255112E+04  0.50400001928E-02 0.  1.
    10030    2    1    2    0    0  0.00000000000E+00  0.00000000000E+00  0.44205485520E+03  0.30255058776E+04  0.29930374739E+04 0.  0.
        1    1    3    3  502    0  0.73322273260E+03 -0.51188318769E+03 -0.99195996998E+03  0.13355240752E+04  0.50400001928E-02 0.  1.
       -1    1    3    3    0  502 -0.73322273260E+03  0.51188318769E+03  0.14340148252E+04  0.16899818024E+04  0.50400001928E-02 0. -1.
</event>
<event>
 5   0  0.2422083E-06  0.3032981E+04  0.7818609E-02  0.8234375E-01
       -1   -1    0    0    0  501  0.00000000000E+00  0.00000000000E+00  0.14813784004E+04  0.14813784004E+04  0.50400001928E-02 0. -1.
        1   -1    0    0  501    0  0.00000000000E+00  0.00000000000E+00 -0.15524348865E+04  0.15524348865E+04  0.50400001928E-02 0.  1.
    10030    2    1    2    0    0  0.00000000000E+00  0.00000000000E+00 -0.71056486026E+02  0.30338132869E+04  0.30329810477E+04 0.  0.
        2    1    3    3  502    0 -0.94577162814E+03  0.10999637355E+04  0.40656510967E+03  0.15065521499E+04  0.25500000920E-02 0. -1.
       -2    1    3    3    0  502  0.94577162814E+03 -0.10999637355E+04 -0.47762159569E+03  0.15272611370E+04  0.25500000920E-02 0.  1.
</event>
<event>
 5   0  0.7201538E-06  0.2985884E+04  0.7818609E-02  0.8247773E-01
        2   -1    0    0  501    0  0.00000000000E+00  0.00000000000E+00  0.93563722665E+03  0.93563722665E+03  0.25500000920E-02 0. -1.
       -2   -1    0    0    0  501  0.00000000000E+00  0.00000000000E+00 -0.23822014901E+04  0.23822014901E+04  0.25500000920E-02 0.  1.
    10030    2    1    2    0    0  0.00000000000E+00  0.00000000000E+00 -0.14465642635E+04  0.33178387168E+04  0.29858843886E+04 0.  0.
        3    1    3    3  502    0 -0.53300453021E+03  0.13697300268E+04 -0.43220061308E+03  0.15320089934E+04  0.10100000352E+00 0. -1.
       -3    1    3    3    0  502  0.53300453021E+03 -0.13697300268E+04 -0.10143636504E+04  0.17858297234E+04  0.10100000352E+00 0.  1.
</event>
<event>
 5   0  0.2422083E-06  0.2986343E+04  0.7818609E-02  0.8247641E-01
       -1   -1    0    0    0  501  0.00000000000E+00  0.00000000000E+00  0.21198876569E+04  0.21198876569E+04  0.50400001928E-02 0.  1.
        1   -1    0    0  501    0  0.00000000000E+00  0.00000000000E+00 -0.10517357109E+04  0.10517357110E+04  0.50400001928E-02 0. -1.
    10030    2    1    2    0    0  0.00000000000E+00  0.00000000000E+00  0.10681519459E+04  0.31716233678E+04  0.29863432836E+04 0.  0.
        2    1    3    3  502    0  0.11696954795E+04 -0.80295803756E+03  0.10283907719E+04  0.17522889901E+04  0.25500000920E-02 0.  1.
       -2    1    3    3    0  502 -0.11696954795E+04  0.80295803756E+03  0.39761173969E+02  0.14193343777E+04  0.25500000920E-02 0. -1.
</event>
<event>
 5   0  0.6780150E-06  0.3017056E+04  0.7818609E-02  0.8238877E-01
       -2   -1    0    0    0  501  0.00000000000E+00  0.00000000000E+00  0.12399089994E+04  0.12399089994E+04  0.25500000920E-02 0.  1.
        2   -1    0    0  501    0  0.00000000000E+00  0.00000000000E+00 -0.18353413724E+04  0.18353413724E+04  0.25500000920E-02 0. -1.
    10030    2    1    2    0    0  0.00000000000E+00  0.00000000000E+00 -0.59543237302E+03  0.30752503718E+04  0.30170557069E+04 0.  0.
        5    1    3    3  502    0 -0.14217312138E+04 -0.49515629262E+03 -0.20029653310E+03  0.15187627167E+04  0.46999998093E+01 0.  1.
       -5    1    3    3    0  502  0.14217312138E+04  0.49515629262E+03 -0.39513583992E+03  0.15564876551E+04  0.46999998093E+01 0. -1.
</event>
<event>
 5   0  0.7217255E-06  0.3031003E+04  0.7818609E-02  0.8234933E-01
        2   -1    0    0  501    0  0.00000000000E+00  0.00000000000E+00  0.20767609097E+04  0.20767609097E+04  0.25500000920E-02 0. -1.
       -2   -1    0    0    0  501  0.00000000000E+00  0.00000000000E+00 -0.11059262939E+04  0.11059262939E+04  0.25500000920E-02 0.  1.
    10030    2    1    2    0    0  0.00000000000E+00  0.00000000000E+00  0.97083461586E+03  0.31826872036E+04  0.30310028018E+04 0.  0.
        1    1    3    3  502    0  0.39598482546E+03 -0.12906726240E+04 -0.23759342895E+03  0.13707991983E+04  0.50400001928E-02 0.  1.
       -1    1    3    3    0  502 -0.39598482546E+03  0.12906726240E+04  0.12084280448E+04  0.18118880054E+04  0.50400001928E-02 0. -1.
</event>
<event>
 5   0  0.2672155E-06  0.2963759E+04  0.7818609E-02  0.8254156E-01
        1   -1    0    0  501    0  0.00000000000E+00  0.00000000000E+00  0.19304212751E+04  0.19304212751E+04  0.50400001928E-02 0.  1.
       -1   -1    0    0    0  501  0.00000000000E+00  0.00000000000E+00 -0.11375586538E+04  0.11375586538E+04  0.50400001928E-02 0. -1.
    10030    2    1    2    0    0  0.00000000000E+00  0.00000000000E+00  0.79286262133E+03  0.30679799289E+04  0.29637593876E+04 0.  0.
        5    1    3    3  502    0  0.75864126190E+03  0.64393001773E+02  0.17124604177E+04  0.18740933262E+04  0.46999998093E+01 0.  1.
       -5    1    3    3    0  502 -0.75864126190E+03 -0.64393001773E+02 -0.91959779640E+03  0.11938866027E+04  0.46999998093E+01 0. -1.
</event>
<event>
 5   0  0.2552990E-06  0.3005350E+04  0.7818609E-02  0.8242205E-01
       -1   -1    0    0    0  501  0.00000000000E+00  0.00000000000E+00  0.95443920012E+03  0.95443920014E+03  0.50400001928E-02 0.  1.
        1   -1    0    0  501    0  0.00000000000E+00  0.00000000000E+00 -0.23658206193E+04  0.23658206193E+04  0.50400001928E-02 0. -1.
    10030    2    1    2    0    0  0.00000000000E+00  0.00000000000E+00 -0.14113814191E+04  0.33202598194E+04  0.30053498562E+04 0.  0.
        3    1    3    3  502    0 -0.14697968133E+04  0.18254595065E+03 -0.98606680472E+03  0.17793126341E+04  0.10100000352E+00 0.  1.
       -3    1    3    3    0  502  0.14697968133E+04 -0.18254595065E+03 -0.42531461441E+03  0.15409471853E+04  0.10100000352E+00 0. -1.
</event>
<event>
 5   0  0.2628425E-06  0.3018768E+04  0.7818609E-02  0.8238392E-01
        1   -1    0    0  501    0  0.00000000000E+00  0.00000000000E+00  0.18990310782E+04  0.18990310782E+04  0.50400001928E-02 0.  1.
       -1   -1    0    0    0  501  0.00000000000E+00  0.00000000000E+00 -0.11996856319E+04  0.11996856319E+04  0.50400001928E-02 0. -1.
    10030    2    1    2    0    0  0.00000000000E+00  0.00000000000E+00  0.69934544635E+03  0.30987167101E+04  0.30187681587E+04 0.  0.
        1    1    3    3  502    0 -0.76521757979E+03  0.92595783100E+03 -0.58847085876E+03  0.13376299192E+04  0.50400001928E-02 0. -1.
       -1    1    3    3    0  502  0.76521757979E+03 -0.92595783100E+03  0.12878163051E+04  0.17610867909E+04  0.50400001928E-02 0.  1.
</event>
<event>
 5   0  0.2672155E-06  0.3059420E+04  0.7818609E-02  0.8226964E-01
        1   -1    0    0  501    0  0.00000000000E+00  0.00000000000E+00  0.15508783487E+04  0.15508783487E+04  0.50400001928E-02 0.  1.
       -1   -1    0    0    0  501  0.00000000000E+00  0.00000000000E+00 -0.15088309857E+04  0.15088309857E+04  0.50400001928E-02 0. -1.
    10030    2    1    2    0    0  0.00000000000E+00  0.00000000000E+00  0.42047363004E+02  0.30597093345E+04  0.30594204076E+04 0.  0.
        5    1    3    3  502    0 -0.13527650940E+04  0.30662358009E+03  0.66606505593E+03  0.15387190023E+04  0.46999998093E+01 0.  1.
       -5    1    3    3    0  502  0.13527650940E+04 -0.30662358009E+03 -0.62401769292E+03  0.15209903321E+04  0.46999998093E+01 0. -1.
</event>
<event>
 5   0  0.6792811E-06  0.3019329E+04  0.7818609E-02  0.8238233E-01
       -2   -1    0    0    0  501  0.00000000000E+00  0.00000000000E+00  0.11306493678E+04  0.11306493678E+04  0.25500000920E-02 0. -1.
        2   -1    0    0  501    0  0.00000000000E+00  0.00000000000E+00 -0.20157333222E+04  0.20157333222E+04  0.25500000920E-02 0.  1.
    10030    2    1    2    0    0  0.00000000000E+00  0.00000000000E+00 -0.88508395436E+03  0.31463826900E+04  0.30193294662E+04 0.  0.
        2    1    3    3  502    0  0.13893653405E+04 -0.56125147648E+03 -0.63397957185E+03  0.16270431361E+04  0.25500000920E-02 0. -1.
       -2    1    3    3    0  502 -0.13893653405E+04  0.56125147648E+03 -0.25110438251E+03  0.15193395539E+04  0.25500000920E-02 0.  1.
</event>
<event>
 5   0  0.2422083E-06  0.2781161E+04  0.7818609E-02  0.8309141E-01
       -1   -1    0    0    0  501  0.00000000000E+00  0.00000000000E+00  0.15454015666E+04  0.15454015666E+04  0.50400001928E-02 0. -1.
        1   -1    0    0  501    0  0.00000000000E+00  0.00000000000E+00 -0.12512700440E+04  0.12512700440E+04  0.50400001928E-02 0.  1.
    10030    2    1    2    0    0  0.00000000000E+00  0.00000000000E+00  0.29413152261E+03  0.27966716106E+04  0.27811614022E+04 0.  0.
        2    1    3    3  502    0 -0.13807468380E+04 -0.12681278317E+03  0.25334992691E+03  0.14095139227E+04  0.25500000920E-02 0. -1.
       -2    1    3    3    0  502  0.13807468380E+04  0.12681278317E+03  0.40781595693E+02  0.13871576880E+04  0.25500000920E-02 0.  1.
</event>
<event>
 5   0  0.6780150E-06  0.3001308E+04  0.7818609E-02  0.8243358E-01
        2   -1    0    0  501    0  0.00000000000E+00  0.00000000000E+00  0.30889596383E+04  0.30889596383E+04  0.25500000920E-02 0. -1.
       -2   -1    0    0    0  501  0.00000000000E+00  0.00000000000E+00 -0.72903565437E+03  0.72903565438E+03  0.25500000920E-02 0.  1.
    10030    2    1    2    0    0  0.00000000000E+00  0.00000000000E+00  0.23599239839E+04  0.38179952927E+04  0.30013075226E+04 0.  0.
        5    1    3    3  502    0  0.44556126767E+03  0.36431580333E+03 -0.58304238614E+03  0.81927490005E+03  0.46999998093E+01 0.  1.
       -5    1    3    3    0  502 -0.44556126767E+03 -0.36431580333E+03  0.29429663701E+04  0.29987203926E+04  0.46999998093E+01 0. -1.
</event>
<event>
 5   0  0.2628425E-06  0.2969159E+04  0.7818609E-02  0.8252593E-01
        1   -1    0    0  501    0  0.00000000000E+00  0.00000000000E+00  0.19426770212E+04  0.19426770212E+04  0.50400001928E-02 0. -1.
       -1   -1    0    0    0  501  0.00000000000E+00  0.00000000000E+00 -0.11345048141E+04  0.11345048141E+04  0.50400001928E-02 0.  1.
    10030    2    1    2    0    0  0.00000000000E+00  0.00000000000E+00  0.80817220716E+03  0.30771818353E+04  0.29691590950E+04 0.  0.
        1    1    3    3  502    0 -0.13522998989E+04 -0.61154908470E+03  0.44100709131E+03  0.15482876199E+04  0.50400001928E-02 0. -1.
       -1    1    3    3    0  502  0.13522998989E+04  0.61154908470E+03  0.36716511584E+03  0.15288942154E+04  0.50400001928E-02 0.  1.
</event>
<event>
 5   0  0.7201538E-06  0.2965254E+04  0.7818609E-02  0.8253723E-01
        2   -1    0    0  501    0  0.00000000000E+00  0.00000000000E+00  0.11657143838E+04  0.11657143838E+04  0.25500000920E-02 0.  1.
       -2   -1    0    0    0  501  0.00000000000E+00  0.00000000000E+00 -0.18856957681E+04  0.18856957681E+04  0.25500000920E-02 0. -1.
    10030    2    1    2    0    0  0.00000000000E+00  0.00000000000E+00 -0.71998138428E+03  0.30514101520E+04  0.29652539051E+04 0.  0.
        3    1    3    3  502    0  0.31999153502E+03 -0.77114900854E+03  0.90080876893E+03  0.12282189643E+04  0.10100000352E+00 0.  1.
       -3    1    3    3    0  502 -0.31999153502E+03  0.77114900854E+03 -0.16207901532E+04  0.18231911877E+04  0.10100000352E+00 0. -1.
</event>
<event>
 5   0  0.6780150E-06  0.3024194E+04  0.7818609E-02  0.8236856E-01
        2   -1    0    0  501    0  0.00000000000E+00  0.00000000000E+00  0.13434209621E+04  0.13434209621E+04  0.25500000920E-02 0. -1.
       -2   -1    0    0    0  501  0.00000000000E+00  0.00000000000E+00 -0.17019511009E+04  0.17019511009E+04  0.25500000920E-02 0.  1.
    10030    2    1    2    0    0  0.00000000000E+00  0.00000000000E+00 -0.35853013879E+03  0.30453720629E+04  0.30241936349E+04 0.  0.
        5    1    3    3  502    0  0.14572361684E+03 -0.50647867332E+03  0.12479316439E+04  0.13546628720E+04  0.46999998093E+01 0. -1.
       -5    1    3    3    0  502 -0.14572361684E+03  0.50647867332E+03 -0.16064617827E+04  0.16907091909E+04  0.46999998093E+01 0.  1.
</event>
<event>
 5   0  0.6780150E-06  0.2980424E+04  0.7818609E-02  0.8249343E-01
        2   -1    0    0  501    0  0.00000000000E+00  0.00000000000E+00  0.14203087735E+04  0.14203087735E+04  0.25500000920E-02 0.  1.
       -2   -1    0    0    0  501  0.00000000000E+00  0.00000000000E+00 -0.15635561041E+04  0.15635561041E+04  0.25500000920E-02 0. -1.
    10030    2    1    2    0    0  0.00000000000E+00  0.00000000000E+00 -0.14324733054E+03  0.29838648776E+04  0.29804244346E+04 0.  0.
        5    1    3    3  502    0  0.33802316728E+03 -0.11120149797E+04 -0.10053703203E+04  0.15367591053E+04  0.46999998093E+01 0. -1.
       -5    1    3    3    0  502 -0.33802316728E+03  0.11120149797E+04  0.86212298976E+03  0.14471057723E+04  0.46999998093E+01 0.  1.
</event>
<event>
 5   0  0.7201538E-06  0.2999726E+04  0.7818609E-02  0.8243809E-01
        2   -1    0    0  501    0  0.00000000000E+00  0.00000000000E+00  0.12328871732E+04  0.12328871732E+04  0.25500000920E-02 0.  1.
       -2   -1    0    0    0  501  0.00000000000E+00  0.00000000000E+00 -0.18246512754E+04  0.18246512754E+04  0.25500000920E-02 0. -1.
    10030    2    1    2    0    0  0.00000000000E+00  0.00000000000E+00 -0.59176410222E+03  0.30575384485E+04  0.29997260894E+04 0.  0.
        3    1    3    3  502    0 -0.10516102340E+04 -0.77046420297E+03 -0.10518566271E+04  0.16750825491E+04  0.10100000352E+00 0. -1.
       -3    1    3    3    0  502  0.10516102340E+04  0.77046420297E+03  0.46009252484E+03  0.13824558994E+04  0.10100000352E+00 0.  1.
</event>
<event>
 5   0  0.2628425E-06  0.2953782E+04  0.7818609E-02  0.8257053E-01
        1   -1    0    0  501    0  0.00000000000E+00  0.00000000000E+00  0.17211274156E+04  0.17211274156E+04  0.50400001928E-02 0. -1.
       -1   -1    0    0    0  501  0.00000000000E+00  0.00000000000E+00 -0.12673129965E+04  0.12673129965E+04  0.50400001928E-02 0.  1.
    10030    2    1    2    0    0  0.00000000000E+00  0.00000000000E+00  0.45381441904E+03  0.29884404121E+04  0.29537820789E+04 0.  0.
        1    1    3    3  502    0 -0.12720913283E+04  0.54743308347E+03 -0.29224896455E+03  0.14153829113E+04  0.50400001928E-02 0.  1.
       -1    1    3    3    0  502  0.12720913283E+04 -0.54743308347E+03  0.74606338359E+03  0.15730575008E+04  0.50400001928E-02 0. -1.
</event>
<event>
 5   0  0.2504260E-06  0.2742436E+04  0.7818609E-02  0.8321366E-01
        1   -1    0    0  501    0  0.00000000000E+00  0.00000000000E+00  0.15588502882E+04  0.15588502882E+04  0.50400001928E-02 0. -1.
       -1   -1    0    0    0  501  0.00000000000E+00  0.00000000000E+00 -0.12061699106E+04  0.12061699106E+04  0.50400001928E-02 0.  1.
    10030    2    1    2    0    0  0.00000000000E+00  0.00000000000E+00  0.35268037761E+03  0.27650201988E+04  0.27424356421E+04 0.  0.
        4    1    3    3  502    0  0.12284379553E+04  0.33596905247E+03 -0.33607911704E+03  0.13171506368E+04  0.12699999809E+01 0. -1.
       -4    1    3    3    0  502 -0.12284379553E+04 -0.33596905247E+03  0.68875949465E+03  0.14478695620E+04  0.12699999809E+01 0.  1.
</event>
<event>
 5   0  0.2672155E-06  0.2940013E+04  0.7818609E-02  0.8261071E-01
       -1   -1    0    0    0  501  0.00000000000E+00  0.00000000000E+00  0.16134898935E+04  0.16134898936E+04  0.50400001928E-02 0.  1.
        1   -1    0    0  501    0  0.00000000000E+00  0.00000000000E+00 -0.13392827279E+04  0.13392827280E+04  0.50400001928E-02 0. -1.
    10030    2    1    2    0    0  0.00000000000E+00  0.00000000000E+00  0.27420716561E+03  0.29527726215E+04  0.29400130246E+04 0.  0.
        5    1    3    3  502    0 -0.65662741037E+03 -0.39423708463E+03  0.13972659776E+04  0.15934104107E+04  0.46999998093E+01 0.  1.
       -5    1    3    3    0  502  0.65662741037E+03  0.39423708463E+03 -0.11230588120E+04  0.13593622108E+04  0.46999998093E+01 0. -1.
</event>
<event>
 5   0  0.6792811E-06  0.2956868E+04  0.7818609E-02  0.8256156E-01
       -2   -1    0    0    0  501  0.00000000000E+00  0.00000000000E+00  0.11103961367E+04  0.11103961367E+04  0.25500000920E-02 0.  1.
        2   -1    0    0  501    0  0.00000000000E+00  0.00000000000E+00 -0.19684574638E+04  0.19684574638E+04  0.25500000920E-02 0. -1.
    10030    2    1    2    0    0  0.00000000000E+00  0.00000000000E+00 -0.85806132717E+03  0.30788536005E+04  0.29568683184E+04 0.  0.
        2    1    3    3  502    0 -0.40971062127E+03  0.12602406396E+04 -0.11115875811E+04  0.17296520498E+04  0.25500000920E-02 0. -1.
       -2    1    3    3    0  502  0.40971062127E+03 -0.12602406396E+04  0.25352625388E+03  0.13492015507E+04  0.25500000920E-02 0.  1.
</event>
<event>
 5   0  0.2552990E-06  0.2965088E+04  0.7818609E-02  0.8253771E-01
       -1   -1    0    0    0  501  0.00000000000E+00  0.00000000000E+00  0.82930005412E+03  0.82930005414E+03  0.50400001928E-02 0. -1.
        1   -1    0    0  501    0  0.00000000000E+00  0.00000000000E+00 -0.26503516391E+04  0.26503516391E+04  0.50400001928E-02 0.  1.
    10030    2    1    2    0    0  0.00000000000E+00  0.00000000000E+00 -0.18210515850E+04  0.34796516933E+04  0.29650880309E+04 0.  0.
        3    1    3    3  502    0 -0.64136410910E+03  0.10550642268E+04  0.52513186034E+02  0.12358260751E+04  0.10100000352E+00 0. -1.
       -3    1    3    3    0  502  0.64136410910E+03 -0.10550642268E+04 -0.18735647710E+04  0.22438256181E+04  0.10100000352E+00 0.  1.
</event>
<event>
 5   0  0.2504260E-06  0.3002141E+04  0.7818609E-02  0.8243120E-01
        1   -1    0    0  501    0  0.00000000000E+00  0.00000000000E+00  0.14549523944E+04  0.14549523944E+04  0.50400001928E-02 0.  1.
       -1   -1    0    0    0  501  0.00000000000E+00  0.00000000000E+00 -0.15486500991E+04  0.15486500991E+04  0.50400001928E-02 0. -1.
    10030    2    1    2    0    0  0.00000000000E+00  0.00000000000E+00 -0.93697704721E+02  0.30036024935E+04  0.30021406828E+04 0.  0.
        4    1    3    3  502    0 -0.14280345840E+04  0.36022768232E+03  0.24340238913E+03  0.14927468279E+04  0.12699999809E+01 0. -1.
       -4    1    3    3    0  502  0.14280345840E+04 -0.36022768232E+03 -0.33710009385E+03  0.15108556656E+04  0.12699999809E+01 0.  1.
</event>
<event>
 5   0  0.7193153E-06  0.2991487E+04  0.7818609E-02  0.8246166E-01
        2   -1    0    0  501    0  0.00000000000E+00  0.00000000000E+00  0.18178440529E+04  0.18178440529E+04  0.25500000920E-02 0.  1.
       -2   -1    0    0    0  501  0.00000000000E+00  0.00000000000E+00 -0.12307156578E+04  0.12307156578E+04  0.25500000920E-02 0. -1.
    10030    2    1    2    0    0  0.00000000000E+00  0.00000000000E+00  0.58712839514E+03  0.30485597107E+04  0.29914873487E+04 0.  0.
        4    1    3    3  502    0  0.11097091472E+04  0.56112410716E+03  0.11406462158E+04  0.16874211263E+04  0.12699999809E+01 0.  1.
       -4    1    3    3    0  502 -0.11097091472E+04 -0.56112410716E+03 -0.55351782069E+03  0.13611385843E+04  0.12699999809E+01 0. -1.
</event>
<event>
 5   0  0.2504260E-06  0.2922161E+04  0.7818609E-02  0.8266314E-01
        1   -1    0    0  501    0  0.00000000000E+00  0.00000000000E+00  0.23457819954E+04  0.23457819954E+04  0.50400001928E-02 0. -1.
       -1   -1    0    0    0  501  0.00000000000E+00  0.00000000000E+00 -0.91004023877E+03  0.91004023878E+03  0.50400001928E-02 0.  1.
    10030    2    1    2    0    0  0.00000000000E+00  0.00000000000E+00  0.14357417566E+04  0.32558222342E+04  0.29221608493E+04 0.  0.
        4    1    3    3  502    0  0.13611281986E+04  0.34292843565E+03  0.11697466628E+04  0.18271778110E+04  0.12699999809E+01 0. -1.
       -4    1    3    3    0  502 -0.13611281986E+04 -0.34292843565E+03  0.26599509389E+03  0.14286444232E+04  0.12699999809E+01 0.  1.
</event>
<event>
 5   0  0.2504260E-06  0.3021340E+04  0.7818609E-02  0.8237663E-01
        1   -1    0    0  501    0  0.00000000000E+00  0.00000000000E+00  0.17837813276E+04  0.17837813276E+04  0.50400001928E-02 0.  1.
       -1   -1    0    0    0  501  0.00000000000E+00  0.00000000000E+00 -0.12793744836E+04  0.12793744836E+04  0.50400001928E-02 0. -1.
    10030    2    1    2    0    0  0.00000000000E+00  0.00000000000E+00  0.50440684398E+03  0.30631558112E+04  0.30213403084E+04 0.  0.
        4    1    3    3  502    0 -0.16430213402E+03  0.77509805670E+03  0.15562202887E+04  0.17463090759E+04  0.12699999809E+01 0.  1.
       -4    1    3    3    0  502  0.16430213402E+03 -0.77509805670E+03 -0.10518134447E+04  0.13168467353E+04  0.12699999809E+01 0. -1.
</event>
<event>
 5   0  0.2628425E-06  0.2932798E+04  0.7818609E-02  0.8263185E-01
        1   -1    0    0  501    0  0.00000000000E+00  0.00000000000E+00  0.17451022596E+04  0.17451022596E+04  0.50400001928E-02 0. -1.
       -1   -1    0    0    0  501  0.00000000000E+00  0.00000000000E+00 -0.12322062984E+04  0.12322062985E+04  0.50400001928E-02 0.  1.
    10030    2    1    2    0    0  0.00000000000E+00  0.00000000000E+00  0.51289596115E+03  0.29773085580E+04  0.29327979785E+04 0.  0.
        1    1    3    3  502    0 -0.11460932949E+04 -0.83733449808E+03 -0.11747224575E+03  0.14242396676E+04  0.50400001928E-02 0. -1.
       -1    1    3    3    0  502  0.11460932949E+04  0.83733449808E+03  0.63036820690E+03  0.15530688905E+04  0.50400001928E-02 0.  1.
</event>
<event>
 5   0  0.7217255E-06  0.3007788E+04  0.7818609E-02  0.8241510E-01
        2   -1    0    0  501    0  0.00000000000E+00  0.00000000000E+00  0.14087343738E+04  0.14087343738E+04  0.25500000920E-02 0.  1.
       -2   -1    0    0    0  501  0.00000000000E+00  0.00000000000E+00 -0.16054817910E+04  0.16054817910E+04  0.25500000920E-02 0. -1.
    10030    2    1    2    0    0  0.00000000000E+00  0.00000000000E+00 -0.19674741726E+03  0.30142161648E+04  0.30077881478E+04 0.  0.
        1    1    3    3  502    0  0.94152512678E+02  0.92885358310E+03 -0.12799030301E+04  0.15842302361E+04  0.50400001928E-02 0. -1.
       -1    1    3    3    0  502 -0.94152512678E+02 -0.92885358310E+03  0.10831556129E+04  0.14299859287E+04  0.50400001928E-02 0.  1.
</event>
<event>
 5   0  0.2552990E-06  0.2987681E+04  0.7818609E-02  0.8247257E-01
       -1   -1    0    0    0  501  0.00000000000E+00  0.00000000000E+00  0.17396312344E+04  0.17396312344E+04  0.50400001928E-02 0. -1.
        1   -1    0    0  501    0  0.00000000000E+00  0.00000000000E+00 -0.12827775743E+04  0.12827775743E+04  0.50400001928E-02 0.  1.
    10030    2    1    2    0    0  0.00000000000E+00  0.00000000000E+00  0.45685366014E+03  0.30224088087E+04  0.29876813317E+04 0.  0.
        3    1    3    3  502    0 -0.60744802880E+02  0.17670948856E+03  0.17277620659E+04  0.17378371445E+04  0.10100000352E+00 0. -1.
       -3    1    3    3    0  502  0.60744802880E+02 -0.17670948856E+03 -0.12709084057E+04  0.12845716642E+04  0.10100000352E+00 0.  1.
</event>
<event>
 5   0  0.6792811E-06  0.3055363E+04  0.7818609E-02  0.8228096E-01
       -2   -1    0    0    0  501  0.00000000000E+00  0.00000000000E+00  0.13384202552E+04  0.13384202552E+04  0.25500000920E-02 0.  1.
        2   -1    0    0  501    0  0.00000000000E+00  0.00000000000E+00 -0.17437050129E+04  0.17437050129E+04  0.25500000920E-02 0. -1.
    10030    2    1    2    0    0  0.00000000000E+00  0.00000000000E+00 -0.40528475766E+03  0.30821252681E+04  0.30553625699E+04 0.  0.
        2    1    3    3  502    0 -0.40573212111E+03 -0.68020599953E+03 -0.15204199845E+04  0.17143440977E+04  0.25500000920E-02 0. -1.
       -2    1    3    3    0  502  0.40573212111E+03  0.68020599953E+03  0.11151352269E+04  0.13677811704E+04  0.25500000920E-02 0.  1.
</event>
<event>
 5   0  0.7201538E-06  0.2984551E+04  0.7818609E-02  0.8248156E-01
       -2   -1    0    0    0  501  0.00000000000E+00  0.00000000000E+00  0.64441002241E+03  0.64441002242E+03  0.25500000920E-02 0.  1.
        2   -1    0    0  501    0  0.00000000000E+00  0.00000000000E+00 -0.34556983344E+04  0.34556983344E+04  0.25500000920E-02 0. -1.
    10030    2    1    2    0    0  0.00000000000E+00  0.00000000000E+00 -0.28112883119E+04  0.41001083568E+04  0.29845513171E+04 0.  0.
        3    1    3    3  502    0 -0.14387615151E+04  0.19335808499E+03 -0.93081664675E+03  0.17244830201E+04  0.10100000352E+00 0.  1.
       -3    1    3    3    0  502  0.14387615151E+04 -0.19335808499E+03 -0.18804716652E+04  0.23756253367E+04  0.10100000352E+00 0. -1.
</event>
<event>
 5   0  0.2672155E-06  0.2892107E+04  0.7818609E-02  0.8275230E-01
        1   -1    0    0  501    0  0.00000000000E+00  0.00000000000E+00  0.21010104245E+04  0.21010104245E+04  0.50400001928E-02 0.  1.
       -1   -1    0    0    0  501  0.00000000000E+00  0.00000000000E+00 -0.99526893500E+03  0.99526893501E+03  0.50400001928E-02 0. -1.
    10030    2    1    2    0    0  0.00000000000E+00  0.00000000000E+00  0.11057414895E+04  0.30962793595E+04  0.28921067806E+04 0.  0.
        5    1    3    3  502    0 -0.12496290449E+03 -0.12581005567E+04 -0.19854429840E+03  0.12797947752E+04  0.46999998093E+01 0. -1.
       -5    1    3    3    0  502  0.12496290449E+03  0.12581005567E+04  0.13042857879E+04  0.18164845842E+04  0.46999998093E+01 0.  1.
</event>
<event>
 5   0  0.7193153E-06  0.2960398E+04  0.7818609E-02  0.8255131E-01
        2   -1    0    0  501    0  0.00000000000E+00  0.00000000000E+00  0.26235230318E+04  0.26235230318E+04  0.25500000920E-02 0.  1.
       -2   -1    0    0    0  501  0.00000000000E+00  0.00000000000E+00 -0.83513258283E+03  0.83513258284E+03  0.25500000920E-02 0. -1.
    10030    2    1    2    0    0  0.00000000000E+00  0.00000000000E+00  0.17883904489E+04  0.34586556146E+04  0.29603983284E+04 0.  0.
        4    1    3    3  502    0 -0.57641206095E+03 -0.13371650597E+04  0.12049006545E+04  0.18899863652E+04  0.12699999809E+01 0. -1.
       -4    1    3    3    0  502  0.57641206095E+03  0.13371650597E+04  0.58348979448E+03  0.15686692494E+04  0.12699999809E+01 0.  1.
</event>
<event>
 5   0  0.7193153E-06  0.3103186E+04  0.7818609E-02  0.8214864E-01
        2   -1    0    0  501    0  0.00000000000E+00  0.00000000000E+00  0.23040485165E+04  0.23040485165E+04  0.25500000920E-02 0.  1.
       -2   -1    0    0    0  501  0.00000000000E+00  0.00000000000E+00 -0.10448743068E+04  0.10448743068E+04  0.25500000920E-02 0. -1.
    10030    2    1    2    0    0  0.00000000000E+00  0.00000000000E+00  0.12591742096E+04  0.33489228233E+04  0.31031861669E+04 0.  0.
        4    1    3    3  502    0  0.35855664129E+03  0.98451462980E+02 -0.99608202191E+03  0.10632199033E+04  0.12699999809E+01 0. -1.
       -4    1    3    3    0  502 -0.35855664129E+03 -0.98451462980E+02  0.22552562315E+04  0.22857029200E+04  0.12699999809E+01 0.  1.
</event>
<event>
 5   0  0.6792811E-06  0.3017525E+04  0.7818609E-02  0.8238744E-01
        2   -1    0    0  501    0  0.00000000000E+00  0.00000000000E+00  0.17223540941E+04  0.17223540941E+04  0.25500000920E-02 0. -1.
       -2   -1    0    0    0  501  0.00000000000E+00  0.00000000000E+00 -0.13216588853E+04  0.13216588853E+04  0.25500000920E-02 0.  1.
    10030    2    1    2    0    0  0.00000000000E+00  0.00000000000E+00  0.40069520877E+03  0.30440129794E+04  0.30175252060E+04 0.  0.
        2    1    3    3  502    0 -0.22226392820E+03 -0.41665541065E+03 -0.12451863992E+04  0.13317252546E+04  0.25500000920E-02 0.  1.
       -2    1    3    3    0  502  0.22226392820E+03  0.41665541065E+03  0.16458816080E+04  0.17122877248E+04  0.25500000920E-02 0. -1.
</event>
<event>
 5   0  0.2672155E-06  0.2998361E+04  0.7818609E-02  0.8244199E-01
       -1   -1    0    0    0  501  0.00000000000E+00  0.00000000000E+00  0.99766845355E+03  0.99766845357E+03  0.50400001928E-02 0. -1.
        1   -1    0    0  501    0  0.00000000000E+00  0.00000000000E+00 -0.22527948043E+04  0.22527948043E+04  0.50400001928E-02 0.  1.
    10030    2    1    2    0    0  0.00000000000E+00  0.00000000000E+00 -0.12551263507E+04  0.32504632579E+04  0.29983610914E+04 0.  0.
        5    1    3    3  502    0 -0.13268204683E+04  0.68884890057E+03 -0.74903266059E+03  0.16721355745E+04  0.46999998093E+01 0.  1.
       -5    1    3    3    0  502  0.13268204683E+04 -0.68884890057E+03 -0.50609369015E+03  0.15783276834E+04  0.46999998093E+01 0. -1.
</event>
<event>
 5   0  0.7201538E-06  0.3164679E+04  0.7818609E-02  0.8198208E-01
        2   -1    0    0  501    0  0.00000000000E+00  0.00000000000E+00  0.18979562778E+04  0.18979562778E+04  0.25500000920E-02 0.  1.
       -2   -1    0    0    0  501  0.00000000000E+00  0.00000000000E+00 -0.13192079393E+04  0.13192079393E+04  0.25500000920E-02 0. -1.
    10030    2    1    2    0    0  0.00000000000E+00  0.00000000000E+00  0.57874833849E+03  0.32171642171E+04  0.31646794404E+04 0.  0.
        3    1    3    3  502    0  0.44367906453E+02 -0.15800962091E+04  0.36216076337E+03  0.16216759756E+04  0.10100000352E+00 0. -1.
       -3    1    3    3    0  502 -0.44367906453E+02  0.15800962091E+04  0.21658757512E+03  0.15954882415E+04  0.10100000352E+00 0.  1.
</event>
<event>
 5   0  0.2298500E-06  0.3043298E+04  0.7818609E-02  0.8231474E-01
        3   -1    0    0  501    0  0.00000000000E+00  0.00000000000E+00  0.15273907419E+04  0.15273907453E+04  0.10100000352E+00 0.  1.
       -3   -1    0    0    0  501  0.00000000000E+00  0.00000000000E+00 -0.15159290513E+04  0.15159290547E+04  0.10100000352E+00 0. -1.
    10030    2    1    2    0    0  0.00000000000E+00  0.00000000000E+00  0.11461690594E+02  0.30433198000E+04  0.30432982165E+04 0.  0.
        3    1    3    3  502    0 -0.85914784195E+02  0.15192014509E+04 -0.21177636900E+01  0.15216303407E+04  0.10100000352E+00 0.  1.
       -3    1    3    3    0  502  0.85914784195E+02 -0.15192014509E+04  0.13579454284E+02  0.15216894593E+04  0.10100000352E+00 0. -1.
</event>
<event>
 5   0  0.2552990E-06  0.2161752E+04  0.7818609E-02  0.8534519E-01
       -1   -1    0    0    0  501  0.00000000000E+00  0.00000000000E+00  0.70104136240E+03  0.70104136242E+03  0.50400001928E-02 0. -1.
        1   -1    0    0  501    0  0.00000000000E+00  0.00000000000E+00 -0.16665102123E+04  0.16665102123E+04  0.50400001928E-02 0.  1.
    10030    2    1    2    0    0  0.00000000000E+00  0.00000000000E+00 -0.96546884987E+03  0.23675515747E+04  0.21617516876E+04 0.  0.
        3    1    3    3  502    0 -0.33731404983E+03 -0.14537985029E+03 -0.15960619195E+04  0.16377819544E+04  0.10100000352E+00 0.  1.
       -3    1    3    3    0  502  0.33731404983E+03  0.14537985029E+03  0.63059306962E+03  0.72976962031E+03  0.10100000352E+00 0. -1.
</event>
<event>
 5   0  0.2298500E-06  0.3008319E+04  0.7818609E-02  0.8241359E-01
        3   -1    0    0  501    0  0.00000000000E+00  0.00000000000E+00  0.18779179761E+04  0.18779179788E+04  0.10100000352E+00 0.  1.
       -3   -1    0    0    0  501  0.00000000000E+00  0.00000000000E+00 -0.12047892448E+04  0.12047892490E+04  0.10100000352E+00 0. -1.
    10030    2    1    2    0    0  0.00000000000E+00  0.00000000000E+00  0.67312873134E+03  0.30827072279E+04  0.30083187271E+04 0.  0.
        5    1    3    3  502    0 -0.13270754554E+04  0.65221272446E+03  0.54135982267E+02  0.14796835800E+04  0.46999998093E+01 0. -1.
       -5    1    3    3    0  502  0.13270754554E+04 -0.65221272446E+03  0.61899274908E+03  0.16030236479E+04  0.46999998093E+01 0.  1.
</event>
<event>
 5   0  0.7193153E-06  0.2155318E+04  0.7818609E-02  0.8537259E-01
       -2   -1    0    0    0  501  0.00000000000E+00  0.00000000000E+00  0.88227008657E+03  0.88227008657E+03  0.25500000920E-02 0.  1.
        2   -1    0    0  501    0  0.00000000000E+00  0.00000000000E+00 -0.13163191871E+04  0.13163191871E+04  0.25500000920E-02 0. -1.
    10030    2    1    2    0    0  0.00000000000E+00  0.00000000000E+00 -0.43404910053E+03  0.21985892737E+04  0.21553181140E+04 0.  0.
        4    1    3    3  502    0  0.85886769513E+03  0.54243417557E+03  0.15000298291E+03  0.10268354592E+04  0.12699999809E+01 0.  1.
       -4    1    3    3    0  502 -0.85886769513E+03 -0.54243417557E+03 -0.58405208343E+03  0.11717538144E+04  0.12699999809E+01 0. -1.
</event>
<event>
 5   0  0.2504260E-06  0.3031924E+04  0.7818609E-02  0.8234673E-01
        1   -1    0    0  501    0  0.00000000000E+00  0.00000000000E+00  0.14244901567E+04  0.14244901567E+04  0.50400001928E-02 0.  1.
       -1   -1    0    0    0  501  0.00000000000E+00  0.00000000000E+00 -0.16133080892E+04  0.16133080892E+04  0.50400001928E-02 0. -1.
    10030    2    1    2    0    0  0.00000000000E+00  0.00000000000E+00 -0.18881793243E+03  0.30377982459E+04  0.30319244666E+04 0.  0.
        4    1    3    3  502    0 -0.13734260798E+04  0.57314247704E+03  0.19485154025E+03  0.15009197951E+04  0.12699999809E+01 0. -1.
       -4    1    3    3    0  502  0.13734260798E+04 -0.57314247704E+03 -0.38366947268E+03  0.15368784509E+04  0.12699999809E+01 0.  1.
</event>
<event>
 5   0  0.2552990E-06  0.2832873E+04  0.7818609E-02  0.8293135E-01
       -1   -1    0    0    0  501  0.00000000000E+00  0.00000000000E+00  0.29798176516E+04  0.29798176516E+04  0.50400001928E-02 0. -1.
        1   -1    0    0  501    0  0.00000000000E+00  0.00000000000E+00 -0.67329372845E+03  0.67329372847E+03  0.50400001928E-02 0.  1.
    10030    2    1    2    0    0  0.00000000000E+00  0.00000000000E+00  0.23065239232E+04  0.36531113801E+04  0.28328731259E+04 0.  0.
        3    1    3    3  502    0 -0.10746443623E+03 -0.13895211376E+04  0.14794294713E+04  0.20324933376E+04  0.10100000352E+00 0. -1.
       -3    1    3    3    0  502  0.10746443623E+03  0.13895211376E+04  0.82709445190E+03  0.16206180424E+04  0.10100000352E+00 0.  1.
</event>
<event>
 5   0  0.6792811E-06  0.2828915E+04  0.7818609E-02  0.8294347E-01
       -2   -1    0    0    0  501  0.00000000000E+00  0.00000000000E+00  0.83123826389E+03  0.83123826390E+03  0.25500000920E-02 0.  1.
        2   -1    0    0  501    0  0.00000000000E+00  0.00000000000E+00 -0.24068796002E+04  0.24068796002E+04  0.25500000920E-02 0. -1.
    10030    2    1    2    0    0  0.00000000000E+00  0.00000000000E+00 -0.15756413363E+04  0.32381178641E+04  0.28289152835E+04 0.  0.
        2    1    3    3  502    0 -0.18832619765E+03  0.11557626558E+04 -0.16959519159E+04  0.20609480765E+04  0.25500000920E-02 0. -1.
       -2    1    3    3    0  502  0.18832619765E+03 -0.11557626558E+04  0.12031057960E+03  0.11771697876E+04  0.25500000920E-02 0.  1.
</event>
<event>
 5   0  0.2552990E-06  0.2999807E+04  0.7818609E-02  0.8243786E-01
        1   -1    0    0  501    0  0.00000000000E+00  0.00000000000E+00  0.14885313963E+04  0.14885313963E+04  0.50400001928E-02 0.  1.
       -1   -1    0    0    0  501  0.00000000000E+00  0.00000000000E+00 -0.15113620188E+04  0.15113620188E+04  0.50400001928E-02 0. -1.
    10030    2    1    2    0    0  0.00000000000E+00  0.00000000000E+00 -0.22830622457E+02  0.29998934151E+04  0.29998065379E+04 0.  0.
        3    1    3    3  502    0 -0.79036486433E+03 -0.11551286721E+04 -0.55060709245E+03  0.15040502147E+04  0.10100000352E+00 0. -1.
       -3    1    3    3    0  502  0.79036486433E+03  0.11551286721E+04  0.52777646999E+03  0.14958432004E+04  0.10100000352E+00 0.  1.
</event>
<event>
 5   0  0.7193153E-06  0.2996401E+04  0.7818609E-02  0.8244759E-01
       -2   -1    0    0    0  501  0.00000000000E+00  0.00000000000E+00  0.15645540876E+04  0.15645540876E+04  0.25500000920E-02 0. -1.
        2   -1    0    0  501    0  0.00000000000E+00  0.00000000000E+00 -0.14346607385E+04  0.14346607385E+04  0.25500000920E-02 0.  1.
    10030    2    1    2    0    0  0.00000000000E+00  0.00000000000E+00  0.12989334910E+03  0.29992148261E+04  0.29964007227E+04 0.  0.
        4    1    3    3  502    0  0.48862053895E+03 -0.85138975336E+03  0.11978171020E+04  0.15486710322E+04  0.12699999809E+01 0. -1.
       -4    1    3    3    0  502 -0.48862053895E+03  0.85138975336E+03 -0.10679237529E+04  0.14505437939E+04  0.12699999809E+01 0.  1.
</event>
<event>
 5   0  0.7217255E-06  0.3008810E+04  0.7818609E-02  0.8241219E-01
       -2   -1    0    0    0  501  0.00000000000E+00  0.00000000000E+00  0.12717836268E+04  0.12717836268E+04  0.25500000920E-02 0. -1.
        2   -1    0    0  501    0  0.00000000000E+00  0.00000000000E+00 -0.17795755883E+04  0.17795755883E+04  0.25500000920E-02 0.  1.
    10030    2    1    2    0    0  0.00000000000E+00  0.00000000000E+00 -0.50779196158E+03  0.30513592151E+04  0.30088104598E+04 0.  0.
        1    1    3    3  502    0  0.10918371611E+04 -0.73211114882E+03 -0.99577348795E+03  0.16491391572E+04  0.50400001928E-02 0. -1.
       -1    1    3    3    0  502 -0.10918371611E+04  0.73211114882E+03  0.48798152637E+03  0.14022200579E+04  0.50400001928E-02 0.  1.
</event>
<event>
 5   0  0.7201538E-06  0.2277959E+04  0.7818609E-02  0.8486663E-01
        2   -1    0    0  501    0  0.00000000000E+00  0.00000000000E+00  0.12350606636E+04  0.12350606636E+04  0.25500000920E-02 0.  1.
       -2   -1    0    0    0  501  0.00000000000E+00  0.00000000000E+00 -0.10503725609E+04  0.10503725610E+04  0.25500000920E-02 0. -1.
    10030    2    1    2    0    0  0.00000000000E+00  0.00000000000E+00  0.18468810268E+03  0.22854332246E+04  0.22779585880E+04 0.  0.
        3    1    3    3  502    0 -0.40000346169E+03 -0.10454445477E+04  0.30355025264E+03  0.11597843928E+04  0.10100000352E+00 0. -1.
       -3    1    3    3    0  502  0.40000346169E+03  0.10454445477E+04 -0.11886214996E+03  0.11256488318E+04  0.10100000352E+00 0.  1.
</event>
<event>
 5   0  0.7201538E-06  0.2966191E+04  0.7818609E-02  0.8253452E-01
       -2   -1    0    0    0  501  0.00000000000E+00  0.00000000000E+00  0.11090466296E+04  0.11090466296E+04  0.25500000920E-02 0. -1.
        2   -1    0    0  501    0  0.00000000000E+00  0.00000000000E+00 -0.19832997923E+04  0.19832997923E+04  0.25500000920E-02 0.  1.
    10030    2    1    2    0    0  0.00000000000E+00  0.00000000000E+00 -0.87425316269E+03  0.30923464219E+04  0.29661907896E+04 0.  0.
        3    1    3    3  502    0 -0.53120865663E+03 -0.11545951824E+04 -0.12340319068E+04  0.17714704145E+04  0.10100000352E+00 0.  1.
       -3    1    3    3    0  502  0.53120865663E+03  0.11545951824E+04  0.35977874410E+03  0.13208760074E+04  0.10100000352E+00 0. -1.
</event>
<event>
 5   0  0.6780150E-06  0.3140662E+04  0.7818609E-02  0.8204666E-01
       -2   -1    0    0    0  501  0.00000000000E+00  0.00000000000E+00  0.13952688286E+04  0.13952688286E+04  0.25500000920E-02 0.  1.
        2   -1    0    0  501    0  0.00000000000E+00  0.00000000000E+00 -0.17673577004E+04  0.17673577004E+04  0.25500000920E-02 0. -1.
    10030    2    1    2    0    0  0.00000000000E+00  0.00000000000E+00 -0.37208887182E+03  0.31626265290E+04  0.31406617827E+04 0.  0.
        5    1    3    3  502    0 -0.16233248676E+03 -0.35347007753E+03 -0.17180733924E+04  0.17615593103E+04  0.46999998093E+01 0. -1.
       -5    1    3    3    0  502  0.16233248676E+03  0.35347007753E+03  0.13459845206E+04  0.14010672188E+04  0.46999998093E+01 0.  1.
</event>
<event>
 5   0  0.2552990E-06  0.2985680E+04  0.7818609E-02  0.8247832E-01
        1   -1    0    0  501    0  0.00000000000E+00  0.00000000000E+00  0.23958079599E+04  0.23958079599E+04  0.50400001928E-02 0. -1.
       -1   -1    0    0    0  501  0.00000000000E+00  0.00000000000E+00 -0.93019638574E+03  0.93019638576E+03  0.50400001928E-02 0.  1.
    10030    2    1    2    0    0  0.00000000000E+00  0.00000000000E+00  0.14656115741E+04  0.33260043456E+04  0.29856804285E+04 0.  0.
        3    1    3    3  502    0 -0.77032863251E+03  0.42191074764E+03  0.20775282716E+04  0.22555572727E+04  0.10100000352E+00 0. -1.
       -3    1    3    3    0  502  0.77032863251E+03 -0.42191074764E+03 -0.61191669747E+03  0.10704470729E+04  0.10100000352E+00 0.  1.
</event>
<event>
 5   0  0.2504260E-06  0.2982780E+04  0.7818609E-02  0.8248665E-01
       -1   -1    0    0    0  501  0.00000000000E+00  0.00000000000E+00  0.10762993683E+04  0.10762993683E+04  0.50400001928E-02 0.  1.
        1   -1    0    0  501    0  0.00000000000E+00  0.00000000000E+00 -0.20665662233E+04  0.20665662233E+04  0.50400001928E-02 0. -1.
    10030    2    1    2    0    0  0.00000000000E+00  0.00000000000E+00 -0.99026685502E+03  0.31428655916E+04  0.29827798582E+04 0.  0.
        4    1    3    3  502    0 -0.73402752352E+03 -0.38776384516E+02 -0.18624472651E+04  0.20022515929E+04  0.12699999809E+01 0. -1.
       -4    1    3    3    0  502  0.73402752352E+03  0.38776384516E+02  0.87218041007E+03  0.11406139986E+04  0.12699999809E+01 0.  1.
</event>
<event>
 5   0  0.7193153E-06  0.2980438E+04  0.7818609E-02  0.8249339E-01
        2   -1    0    0  501    0  0.00000000000E+00  0.00000000000E+00  0.16235299706E+04  0.16235299706E+04  0.25500000920E-02 0. -1.
       -2   -1    0    0    0  501  0.00000000000E+00  0.00000000000E+00 -0.13678546312E+04  0.13678546312E+04  0.25500000920E-02 0.  1.
    10030    2    1    2    0    0  0.00000000000E+00  0.00000000000E+00  0.25567533948E+03  0.29913846018E+04  0.29804382155E+04 0.  0.
        4    1    3    3  502    0  0.60852591095E+03  0.11409763137E+03 -0.12326589022E+04  0.13794098868E+04  0.12699999809E+01 0.  1.
       -4    1    3    3    0  502 -0.60852591095E+03 -0.11409763137E+03  0.14883342417E+04  0.16119747150E+04  0.12699999809E+01 0. -1.
</event>
<event>
 5   0  0.2552990E-06  0.3001446E+04  0.7818609E-02  0.8243318E-01
       -1   -1    0    0    0  501  0.00000000000E+00  0.00000000000E+00  0.13024712385E+04  0.13024712385E+04  0.50400001928E-02 0.  1.
        1   -1    0    0  501    0  0.00000000000E+00  0.00000000000E+00 -0.17291508925E+04  0.17291508925E+04  0.50400001928E-02 0. -1.
    10030    2    1    2    0    0  0.00000000000E+00  0.00000000000E+00 -0.42667965398E+03  0.30316221310E+04  0.30014458546E+04 0.  0.
        3    1    3    3  502    0  0.96443050206E+03  0.20870118130E+03  0.92873011051E+03  0.13550726935E+04  0.10100000352E+00 0.  1.
       -3    1    3    3    0  502 -0.96443050206E+03 -0.20870118130E+03 -0.13554097645E+04  0.16765494375E+04  0.10100000352E+00 0. -1.
</event>
<event>
 5   0  0.2422083E-06  0.3021165E+04  0.7818609E-02  0.8237713E-01
       -1   -1    0    0    0  501  0.00000000000E+00  0.00000000000E+00  0.11158756755E+04  0.11158756755E+04  0.50400001928E-02 0. -1.
        1   -1    0    0  501    0  0.00000000000E+00  0.00000000000E+00 -0.20449050196E+04  0.20449050196E+04  0.50400001928E-02 0.  1.
    10030    2    1    2    0    0  0.00000000000E+00  0.00000000000E+00 -0.92902934404E+03  0.31607806951E+04  0.30211651859E+04 0.  0.
        2    1    3    3  502    0  0.41591798101E+03 -0.13899360942E+04 -0.24421373494E+02  0.14510363594E+04  0.25500000920E-02 0. -1.
       -2    1    3    3    0  502 -0.41591798101E+03  0.13899360942E+04 -0.90460797055E+03  0.17097443357E+04  0.25500000920E-02 0.  1.
</event>
<event>
 5   0  0.2552990E-06  0.3040834E+04  0.7818609E-02  0.8232166E-01
        1   -1    0    0  501    0  0.00000000000E+00  0.00000000000E+00  0.23766720795E+04  0.23766720795E+04  0.50400001928E-02 0. -1.
       -1   -1    0    0    0  501  0.00000000000E+00  0.00000000000E+00 -0.97264935575E+03  0.97264935576E+03  0.50400001928E-02 0.  1.
    10030    2    1    2    0    0  0.00000000000E+00  0.00000000000E+00  0.14040227237E+04  0.33493214352E+04  0.30408344690E+04 0.  0.
        3    1    3    3  502    0 -0.75611476395E+03 -0.63602059592E+03  0.19748569537E+04  0.22082327170E+04  0.10100000352E+00 0. -1.
       -3    1    3    3    0  502  0.75611476395E+03  0.63602059592E+03 -0.57083422993E+03  0.11410887183E+04  0.10100000352E+00 0.  1.
</event>
<event>
 5   0  0.2552990E-06  0.3010660E+04  0.7818609E-02  0.8240693E-01
        1   -1    0    0  501    0  0.00000000000E+00  0.00000000000E+00  0.14935405999E+04  0.14935405999E+04  0.50400001928E-02 0. -1.
       -1   -1    0    0    0  501  0.00000000000E+00  0.00000000000E+00 -0.15172129586E+04  0.15172129586E+04  0.50400001928E-02 0.  1.
    10030    2    1    2    0    0  0.00000000000E+00  0.00000000000E+00 -0.23672358710E+02  0.30107535585E+04  0.30106604939E+04 0.  0.
        3    1    3    3  502    0 -0.79967524356E+03  0.12719590095E+04 -0.10489240093E+03  0.15061084433E+04  0.10100000352E+00 0.  1.
       -3    1    3    3    0  502  0.79967524356E+03 -0.12719590095E+04  0.81220042221E+02  0.15046451152E+04  0.10100000352E+00 0. -1.
</event>
<event>
 5   0  0.2672155E-06  0.2811356E+04  0.7818609E-02  0.8299752E-01
        1   -1    0    0  501    0  0.00000000000E+00  0.00000000000E+00  0.23842642188E+04  0.23842642188E+04  0.50400001928E-02 0.  1.
       -1   -1    0    0    0  501  0.00000000000E+00  0.00000000000E+00 -0.82873782844E+03  0.82873782845E+03  0.50400001928E-02 0. -1.
    10030    2    1    2    0    0  0.00000000000E+00  0.00000000000E+00  0.15555263903E+04  0.32130020472E+04  0.28113555102E+04 0.  0.
        5    1    3    3  502    0  0.70079048071E+03  0.51268168472E+03  0.20411123189E+04  0.22181324117E+04  0.46999998093E+01 0.  1.
       -5    1    3    3    0  502 -0.70079048071E+03 -0.51268168472E+03 -0.48558592852E+03  0.99486963552E+03  0.46999998093E+01 0. -1.
</event>
<event>
 5   0  0.2422083E-06  0.2955772E+04  0.7818609E-02  0.8256474E-01
        1   -1    0    0  501    0  0.00000000000E+00  0.00000000000E+00  0.15765931938E+04  0.15765931938E+04  0.50400001928E-02 0. -1.
       -1   -1    0    0    0  501  0.00000000000E+00  0.00000000000E+00 -0.13853587672E+04  0.13853587672E+04  0.50400001928E-02 0.  1.
    10030    2    1    2    0    0  0.00000000000E+00  0.00000000000E+00  0.19123442663E+03  0.29619519610E+04  0.29557721180E+04 0.  0.
        2    1    3    3  502    0  0.57593947663E+03  0.89867660369E+01 -0.12682427429E+04  0.13929202051E+04  0.25500000920E-02 0.  1.
       -2    1    3    3    0  502 -0.57593947663E+03 -0.89867660369E+01  0.14594771696E+04  0.15690317560E+04  0.25500000920E-02 0. -1.
</event>
<event>
 5   0  0.2422083E-06  0.2959518E+04  0.7818609E-02  0.8255386E-01
       -1   -1    0    0    0  501  0.00000000000E+00  0.00000000000E+00  0.13212884620E+04  0.13212884620E+04  0.50400001928E-02 0. -1.
        1   -1    0    0  501    0  0.00000000000E+00  0.00000000000E+00 -0.16572361198E+04  0.16572361198E+04  0.50400001928E-02 0.  1.
    10030    2    1    2    0    0  0.00000000000E+00  0.00000000000E+00 -0.33594765775E+03  0.29785245818E+04  0.29595181796E+04 0.  0.
        2    1    3    3  502    0 -0.10594632156E+04 -0.71477455162E+03 -0.91863386189E+03  0.15739292033E+04  0.25500000920E-02 0. -1.
       -2    1    3    3    0  502  0.10594632156E+04  0.71477455162E+03  0.58268620413E+03  0.14045953785E+04  0.25500000920E-02 0.  1.
</event>
<event>
 5   0  0.6780150E-06  0.2673650E+04  0.7818609E-02  0.8343606E-01
        2   -1    0    0  501    0  0.00000000000E+00  0.00000000000E+00  0.22428725250E+04  0.22428725250E+04  0.25500000920E-02 0.  1.
       -2   -1    0    0    0  501  0.00000000000E+00  0.00000000000E+00 -0.79679089975E+03  0.79679089975E+03  0.25500000920E-02 0. -1.
    10030    2    1    2    0    0  0.00000000000E+00  0.00000000000E+00  0.14460816253E+04  0.30396634248E+04  0.26736495038E+04 0.  0.
        5    1    3    3  502    0  0.56284877118E+02 -0.12973423117E+04  0.36206353388E+03  0.13481013143E+04  0.46999998093E+01 0.  1.
       -5    1    3    3    0  502 -0.56284877118E+02  0.12973423117E+04  0.10840180914E+04  0.16915621105E+04  0.46999998093E+01 0. -1.
</event>
<event>
 5   0  0.2552990E-06  0.3074691E+04  0.7818609E-02  0.8222718E-01
       -1   -1    0    0    0  501  0.00000000000E+00  0.00000000000E+00  0.14442115523E+04  0.14442115523E+04  0.50400001928E-02 0. -1.
        1   -1    0    0  501    0  0.00000000000E+00  0.00000000000E+00 -0.16364852230E+04  0.16364852230E+04  0.50400001928E-02 0.  1.
    10030    2    1    2    0    0  0.00000000000E+00  0.00000000000E+00 -0.19227367072E+03  0.30806967752E+04  0.30746907904E+04 0.  0.
        3    1    3    3  502    0  0.12024328257E+03  0.15025266583E+04 -0.39902859302E+03  0.15592525883E+04  0.10100000352E+00 0. -1.
       -3    1    3    3    0  502 -0.12024328257E+03 -0.15025266583E+04  0.20675492230E+03  0.15214441869E+04  0.10100000352E+00 0.  1.
</event>
<event>
 5   0  0.6780150E-06  0.2995819E+04  0.7818609E-02  0.8244926E-01
        2   -1    0    0  501    0  0.00000000000E+00  0.00000000000E+00  0.16913322754E+04  0.16913322754E+04  0.25500000920E-02 0. -1.
       -2   -1    0    0    0  501  0.00000000000E+00  0.00000000000E+00 -0.13266070365E+04  0.13266070365E+04  0.25500000920E-02 0.  1.
    10030    2    1    2    0    0  0.00000000000E+00  0.00000000000E+00  0.36472523885E+03  0.30179393119E+04  0.29958192854E+04 0.  0.
        5    1    3    3  502    0  0.25349890893E+02  0.34781612404E+03 -0.12851337951E+04  0.13316191777E+04  0.46999998093E+01 0.  1.
       -5    1    3    3    0  502 -0.25349890893E+02 -0.34781612404E+03  0.16498590340E+04  0.16863201342E+04  0.46999998093E+01 0. -1.
</event>
<event>
 5   0  0.2552990E-06  0.2932943E+04  0.7818609E-02  0.8263143E-01
        1   -1    0    0  501    0  0.00000000000E+00  0.00000000000E+00  0.21012011427E+04  0.21012011427E+04  0.50400001928E-02 0.  1.
       -1   -1    0    0    0  501  0.00000000000E+00  0.00000000000E+00 -0.10234804886E+04  0.10234804886E+04  0.50400001928E-02 0. -1.
    10030    2    1    2    0    0  0.00000000000E+00  0.00000000000E+00  0.10777206541E+04  0.31246816313E+04  0.29329428035E+04 0.  0.
        3    1    3    3  502    0 -0.79420230788E+03 -0.29222004348E+03 -0.73709532006E+03  0.11222563792E+04  0.10100000352E+00 0. -1.
       -3    1    3    3    0  502  0.79420230788E+03  0.29222004348E+03  0.18148159742E+04  0.20024252520E+04  0.10100000352E+00 0.  1.
</event>
<event>
 5   0  0.7193153E-06  0.2984492E+04  0.7818609E-02  0.8248173E-01
        2   -1    0    0  501    0  0.00000000000E+00  0.00000000000E+00  0.29437669312E+04  0.29437669312E+04  0.25500000920E-02 0.  1.
       -2   -1    0    0    0  501  0.00000000000E+00  0.00000000000E+00 -0.75644505704E+03  0.75644505704E+03  0.25500000920E-02 0. -1.
    10030    2    1    2    0    0  0.00000000000E+00  0.00000000000E+00  0.21873218742E+04  0.37002119883E+04  0.29844918792E+04 0.  0.
        4    1    3    3  502    0  0.14038535789E+04  0.50242978379E+03  0.10197305140E+04  0.18064031922E+04  0.12699999809E+01 0. -1.
       -4    1    3    3    0  502 -0.14038535789E+04 -0.50242978379E+03  0.11675913602E+04  0.18938087961E+04  0.12699999809E+01 0.  1.
</event>
<event>
 5   0  0.2504260E-06  0.2937996E+04  0.7818609E-02  0.8261662E-01
       -1   -1    0    0    0  501  0.00000000000E+00  0.00000000000E+00  0.14164700468E+04  0.14164700468E+04  0.50400001928E-02 0.  1.
        1   -1    0    0  501    0  0.00000000000E+00  0.00000000000E+00 -0.15234734930E+04  0.15234734930E+04  0.50400001928E-02 0. -1.
    10030    2    1    2    0    0  0.00000000000E+00  0.00000000000E+00 -0.10700344620E+03  0.29399435399E+04  0.29379956229E+04 0.  0.
        4    1    3    3  502    0  0.96058089864E+03  0.69332328740E+03 -0.92272032540E+03  0.15016082230E+04  0.12699999809E+01 0. -1.
       -4    1    3    3    0  502 -0.96058089864E+03 -0.69332328740E+03  0.81571687920E+03  0.14383353168E+04  0.12699999809E+01 0.  1.
</event>
<event>
 5   0  0.7193153E-06  0.2992891E+04  0.7818609E-02  0.8245764E-01
        2   -1    0    0  501    0  0.00000000000E+00  0.00000000000E+00  0.24758512710E+04  0.24758512710E+04  0.25500000920E-02 0.  1.
       -2   -1    0    0    0  501  0.00000000000E+00  0.00000000000E+00 -0.90447617926E+03  0.90447617927E+03  0.25500000920E-02 0. -1.
    10030    2    1    2    0    0  0.00000000000E+00  0.00000000000E+00  0.15713750917E+04  0.33803274502E+04  0.29928905747E+04 0.  0.
        4    1    3    3  502    0  0.11258365978E+04  0.60750128704E+03 -0.91207709834E+02  0.12825312152E+04  0.12699999809E+01 0.  1.
       -4    1    3    3    0  502 -0.11258365978E+04 -0.60750128704E+03  0.16625828015E+04  0.20977962350E+04  0.12699999809E+01 0. -1.
</event>
<event>
 5   0  0.6792811E-06  0.2999858E+04  0.7818609E-02  0.8243771E-01
       -2   -1    0    0    0  501  0.00000000000E+00  0.00000000000E+00  0.10497082870E+04  0.10497082870E+04  0.25500000920E-02 0.  1.
        2   -1    0    0  501    0  0.00000000000E+00  0.00000000000E+00 -0.21432494451E+04  0.21432494451E+04  0.25500000920E-02 0. -1.
    10030    2    1    2    0    0  0.00000000000E+00  0.00000000000E+00 -0.10935411581E+04  0.31929577321E+04  0.29998577991E+04 0.  0.
        2    1    3    3  502    0 -0.63161703228E+03 -0.27764902801E+03  0.87078351663E+03  0.11109873946E+04  0.25500000920E-02 0.  1.
       -2    1    3    3    0  502  0.63161703228E+03  0.27764902801E+03 -0.19643246748E+04  0.20819703375E+04  0.25500000920E-02 0. -1.
</event>
<event>
 5   0  0.2628425E-06  0.2893968E+04  0.7818609E-02  0.8274674E-01
       -1   -1    0    0    0  501  0.00000000000E+00  0.00000000000E+00  0.77156988940E+03  0.77156988942E+03  0.50400001928E-02 0.  1.
        1   -1    0    0  501    0  0.00000000000E+00  0.00000000000E+00 -0.27136404034E+04  0.27136404034E+04  0.50400001928E-02 0. -1.
    10030    2    1    2    0    0  0.00000000000E+00  0.00000000000E+00 -0.19420705140E+04  0.34852102928E+04  0.28939683661E+04 0.  0.
        1    1    3    3  502    0 -0.92150214773E+03 -0.11590458778E+03 -0.23073015435E+04  0.24872154097E+04  0.50400001928E-02 0. -1.
       -1    1    3    3    0  502  0.92150214773E+03  0.11590458778E+03  0.36523102950E+03  0.99799488309E+03  0.50400001928E-02 0.  1.
</event>
<event>
 5   0  0.2628425E-06  0.3003222E+04  0.7818609E-02  0.8242811E-01
        1   -1    0    0  501    0  0.00000000000E+00  0.00000000000E+00  0.17028603473E+04  0.17028603473E+04  0.50400001928E-02 0.  1.
       -1   -1    0    0    0  501  0.00000000000E+00  0.00000000000E+00 -0.13241461437E+04  0.13241461437E+04  0.50400001928E-02 0. -1.
    10030    2    1    2    0    0  0.00000000000E+00  0.00000000000E+00  0.37871420357E+03  0.30270064910E+04  0.30032222442E+04 0.  0.
        1    1    3    3  502    0 -0.13089804943E+04 -0.29552360461E+03  0.86854221543E+03  0.15984773115E+04  0.50400001928E-02 0.  1.
       -1    1    3    3    0  502  0.13089804943E+04  0.29552360461E+03 -0.48982801187E+03  0.14285291795E+04  0.50400001928E-02 0. -1.
</event>
<event>
 5   0  0.6780150E-06  0.2888038E+04  0.7818609E-02  0.8276446E-01
        2   -1    0    0  501    0  0.00000000000E+00  0.00000000000E+00  0.16514546729E+04  0.16514546730E+04  0.25500000920E-02 0. -1.
       -2   -1    0    0    0  501  0.00000000000E+00  0.00000000000E+00 -0.12626385479E+04  0.12626385479E+04  0.25500000920E-02 0.  1.
    10030    2    1    2    0    0  0.00000000000E+00  0.00000000000E+00  0.38881612509E+03  0.29140932208E+04  0.28880376245E+04 0.  0.
        5    1    3    3  502    0 -0.12065694853E+04 -0.55506376706E+03  0.76632193702E+03  0.15333548544E+04  0.46999998093E+01 0. -1.
       -5    1    3    3    0  502  0.12065694853E+04  0.55506376706E+03 -0.37750581193E+03  0.13807383664E+04  0.46999998093E+01 0.  1.
</event>
<event>
 5   0  0.7201538E-06  0.2953831E+04  0.7818609E-02  0.8257039E-01
        2   -1    0    0  501    0  0.00000000000E+00  0.00000000000E+00  0.11348665480E+04  0.11348665480E+04  0.25500000920E-02 0. -1.
       -2   -1    0    0    0  501  0.00000000000E+00  0.00000000000E+00 -0.19220585333E+04  0.19220585333E+04  0.25500000920E-02 0.  1.
    10030    2    1    2    0    0  0.00000000000E+00  0.00000000000E+00 -0.78719198533E+03  0.30569250813E+04  0.29538313647E+04 0.  0.
        3    1    3    3  502    0  0.11757274440E+04 -0.89136850709E+03 -0.32489313739E+03  0.15107707963E+04  0.10100000352E+00 0.  1.
       -3    1    3    3    0  502 -0.11757274440E+04  0.89136850709E+03 -0.46229884793E+03  0.15461542850E+04  0.10100000352E+00 0. -1.
</event>
<event>
 5   0  0.6780150E-06  0.2729202E+04  0.7818609E-02  0.8325592E-01
        2   -1    0    0  501    0  0.00000000000E+00  0.00000000000E+00  0.19437133889E+04  0.19437133889E+04  0.25500000920E-02 0.  1.
       -2   -1    0    0    0  501  0.00000000000E+00  0.00000000000E+00 -0.95803012135E+03  0.95803012135E+03  0.25500000920E-02 0. -1.
    10030    2    1    2    0    0  0.00000000000E+00  0.00000000000E+00  0.98568326758E+03  0.29017435103E+04  0.27292020621E+04 0.  0.
        5    1    3    3  502    0 -0.36928484383E+03 -0.67812970180E+03  0.16890864330E+04  0.18572200345E+04  0.46999998093E+01 0.  1.
       -5    1    3    3    0  502  0.36928484383E+03  0.67812970180E+03 -0.70340316543E+03  0.10445234758E+04  0.46999998093E+01 0. -1.
</event>
<event>
 5   0  0.2422083E-06  0.2925833E+04  0.7818609E-02  0.8265233E-01
       -1   -1    0    0    0  501  0.00000000000E+00  0.00000000000E+00  0.29355056373E+04  0.29355056373E+04  0.50400001928E-02 0. -1.
        1   -1    0    0  501    0  0.00000000000E+00  0.00000000000E+00 -0.72904813655E+03  0.72904813656E+03  0.50400001928E-02 0.  1.
    10030    2    1    2    0    0  0.00000000000E+00  0.00000000000E+00  0.22064575007E+04  0.36645537739E+04  0.29258331564E+04 0.  0.
        2    1    3    3  502    0  0.41613475191E+03  0.41470754712E+03  0.27812624380E+04  0.28426345581E+04  0.25500000920E-02 0. -1.
       -2    1    3    3    0  502 -0.41613475191E+03 -0.41470754712E+03 -0.57480493729E+03  0.82191921581E+03  0.25500000920E-02 0.  1.
</event>
<event>
 5   0  0.7193153E-06  0.2986344E+04  0.7818609E-02  0.8247641E-01
       -2   -1    0    0    0  501  0.00000000000E+00  0.00000000000E+00  0.10377487697E+04  0.10377487697E+04  0.25500000920E-02 0.  1.
        2   -1    0    0  501    0  0.00000000000E+00  0.00000000000E+00 -0.21484612760E+04  0.21484612760E+04  0.25500000920E-02 0. -1.
    10030    2    1    2    0    0  0.00000000000E+00  0.00000000000E+00 -0.11107125063E+04  0.31862100457E+04  0.29863442842E+04 0.  0.
        4    1    3    3  502    0  0.55556284590E+03  0.88501113624E+03  0.58264316754E+03  0.11963985375E+04  0.12699999809E+01 0.  1.
       -4    1    3    3    0  502 -0.55556284590E+03 -0.88501113624E+03 -0.16933556738E+04  0.19898115081E+04  0.12699999809E+01 0. -1.
</event>
<event>
 5   0  0.2628425E-06  0.2569637E+04  0.7818609E-02  0.8378589E-01
        1   -1    0    0  501    0  0.00000000000E+00  0.00000000000E+00  0.16915647617E+04  0.16915647618E+04  0.50400001928E-02 0.  1.
       -1   -1    0    0    0  501  0.00000000000E+00  0.00000000000E+00 -0.97587657977E+03  0.97587657978E+03  0.50400001928E-02 0. -1.
    10030    2    1    2    0    0  0.00000000000E+00  0.00000000000E+00  0.71568818198E+03  0.26674413415E+04  0.25696368881E+04 0.  0.
        1    1    3    3  502    0  0.51840180175E+03 -0.46710146041E+03  0.14777168569E+04  0.16341882730E+04  0.50400001928E-02 0.  1.
       -1    1    3    3    0  502 -0.51840180175E+03  0.46710146041E+03 -0.76202867488E+03  0.10332530686E+04  0.50400001928E-02 0. -1.
</event>
<event>
 5   0  0.7201538E-06  0.2968054E+04  0.7818609E-02  0.8252913E-01
       -2   -1    0    0    0  501  0.00000000000E+00  0.00000000000E+00  0.11863335328E+04  0.11863335328E+04  0.25500000920E-02 0. -1.
        2   -1    0    0  501    0  0.00000000000E+00  0.00000000000E+00 -0.18564219445E+04  0.18564219445E+04  0.25500000920E-02 0.  1.
    10030    2    1    2    0    0  0.00000000000E+00  0.00000000000E+00 -0.67008841170E+03  0.30427554774E+04  0.29680536409E+04 0.  0.
        3    1    3    3  502    0 -0.17545869252E+03 -0.80580480284E+03  0.92979472986E+03  0.12428295872E+04  0.10100000352E+00 0. -1.
       -3    1    3    3    0  502  0.17545869252E+03  0.80580480284E+03 -0.15998831416E+04  0.17999258901E+04  0.10100000352E+00 0.  1.
</event>
<event>
 5   0  0.2628425E-06  0.2966147E+04  0.7818609E-02  0.8253464E-01
        1   -1    0    0  501    0  0.00000000000E+00  0.00000000000E+00  0.99193805652E+03  0.99193805653E+03  0.50400001928E-02 0. -1.
       -1   -1    0    0    0  501  0.00000000000E+00  0.00000000000E+00 -0.22173838646E+04  0.22173838646E+04  0.50400001928E-02 0.  1.
    10030    2    1    2    0    0  0.00000000000E+00  0.00000000000E+00 -0.12254458081E+04  0.32093219211E+04  0.29661472932E+04 0.  0.
        1    1    3    3  502    0  0.57852261286E+03 -0.11330847430E+04  0.21195708974E+03  0.12897655820E+04  0.50400001928E-02 0.  1.
       -1    1    3    3    0  502 -0.57852261286E+03  0.11330847430E+04 -0.14374028978E+04  0.19195563391E+04  0.50400001928E-02 0. -1.
</event>
<event>
 5   0  0.6780150E-06  0.2990420E+04  0.7818609E-02  0.8246472E-01
       -2   -1    0    0    0  501  0.00000000000E+00  0.00000000000E+00  0.12888684595E+04  0.12888684595E+04  0.25500000920E-02 0. -1.
        2   -1    0    0  501    0  0.00000000000E+00  0.00000000000E+00 -0.17345855720E+04  0.17345855720E+04  0.25500000920E-02 0.  1.
    10030    2    1    2    0    0  0.00000000000E+00  0.00000000000E+00 -0.44571711250E+03  0.30234540315E+04  0.29904197926E+04 0.  0.
        5    1    3    3  502    0 -0.90251499621E+03  0.10484307763E+04 -0.79647955803E+03  0.15962901326E+04  0.46999998093E+01 0.  1.
       -5    1    3    3    0  502  0.90251499621E+03 -0.10484307763E+04  0.35076244552E+03  0.14271638989E+04  0.46999998093E+01 0. -1.
</event>
<event>
 5   0  0.2504260E-06  0.3056872E+04  0.7818609E-02  0.8227675E-01
        1   -1    0    0  501    0  0.00000000000E+00  0.00000000000E+00  0.23480654909E+04  0.23480654909E+04  0.50400001928E-02 0. -1.
       -1   -1    0    0    0  501  0.00000000000E+00  0.00000000000E+00 -0.99491142511E+03  0.99491142512E+03  0.50400001928E-02 0.  1.
    10030    2    1    2    0    0  0.00000000000E+00  0.00000000000E+00  0.13531540658E+04  0.33429769160E+04  0.30568723780E+04 0.  0.
        4    1    3    3  502    0  0.84046888848E+03 -0.63553033654E+03  0.18873730455E+04  0.21615886258E+04  0.12699999809E+01 0. -1.
       -4    1    3    3    0  502 -0.84046888848E+03  0.63553033654E+03 -0.53421897974E+03  0.11813882903E+04  0.12699999809E+01 0.  1.
</event>
<event>
 5   0  0.6792811E-06  0.2971599E+04  0.7818609E-02  0.8251888E-01
        2   -1    0    0  501    0  0.00000000000E+00  0.00000000000E+00  0.20652927819E+04  0.20652927819E+04  0.25500000920E-02 0. -1.
       -2   -1    0    0    0  501  0.00000000000E+00  0.00000000000E+00 -0.10689043345E+04  0.10689043345E+04  0.25500000920E-02 0.  1.
    10030    2    1    2    0    0  0.00000000000E+00  0.00000000000E+00  0.99638844741E+03  0.31341971163E+04  0.29715991698E+04 0.  0.
        2    1    3    3  502    0 -0.18700621153E+02  0.13641101104E+04  0.11190047274E+04  0.17644596018E+04  0.25500000920E-02 0.  1.
       -2    1    3    3    0  502  0.18700621153E+02 -0.13641101104E+04 -0.12261627999E+03  0.13697375145E+04  0.25500000920E-02 0. -1.
</event>
<event>
 5   0  0.7201538E-06  0.2977327E+04  0.7818609E-02  0.8250235E-01
        2   -1    0    0  501    0  0.00000000000E+00  0.00000000000E+00  0.16394403959E+04  0.16394403959E+04  0.25500000920E-02 0. -1.
       -2   -1    0    0    0  501  0.00000000000E+00  0.00000000000E+00 -0.13517535345E+04  0.13517535345E+04  0.25500000920E-02 0.  1.
    10030    2    1    2    0    0  0.00000000000E+00  0.00000000000E+00  0.28768686143E+03  0.29911939304E+04  0.29773272241E+04 0.  0.
        3    1    3    3  502    0  0.12289709218E+04  0.10955563365E+03  0.98063766493E+03  0.15760781084E+04  0.10100000352E+00 0. -1.
       -3    1    3    3    0  502 -0.12289709218E+04 -0.10955563365E+03 -0.69295080350E+03  0.14151158221E+04  0.10100000352E+00 0.  1.
</event>
<event>
 5   0  0.2672155E-06  0.2984867E+04  0.7818609E-02  0.8248066E-01
       -1   -1    0    0    0  501  0.00000000000E+00  0.00000000000E+00  0.89504565043E+03  0.89504565044E+03  0.50400001928E-02 0.  1.
        1   -1    0    0  501    0  0.00000000000E+00  0.00000000000E+00 -0.24885401876E+04  0.24885401876E+04  0.50400001928E-02 0. -1.
    10030    2    1    2    0    0  0.00000000000E+00  0.00000000000E+00 -0.15934945372E+04  0.33835858381E+04  0.29848665437E+04 0.  0.
        5    1    3    3  502    0 -0.94299520217E+03 -0.71080176693E+03  0.23776872183E+03  0.12045892073E+04  0.46999998093E+01 0.  1.
       -5    1    3    3    0  502  0.94299520217E+03  0.71080176693E+03 -0.18312632590E+04  0.21789966308E+04  0.46999998093E+01 0. -1.
</event>
<event>
 5   0  0.2422083E-06  0.2947010E+04  0.7818609E-02  0.8259026E-01
       -1   -1    0    0    0  501  0.00000000000E+00  0.00000000000E+00  0.20558216674E+04  0.20558216674E+04  0.50400001928E-02 0.  1.
        1   -1    0    0  501    0  0.00000000000E+00  0.00000000000E+00 -0.10561311055E+04  0.10561311056E+04  0.50400001928E-02 0. -1.
    10030    2    1    2    0    0  0.00000000000E+00  0.00000000000E+00  0.99969056182E+03  0.31119527729E+04  0.29470101529E+04 0.  0.
        2    1    3    3  502    0  0.32100134056E+03  0.17124449152E+03  0.20076464474E+04  0.20403457536E+04  0.25500000920E-02 0.  1.
       -2    1    3    3    0  502 -0.32100134056E+03 -0.17124449152E+03 -0.10079558856E+04  0.10716070193E+04  0.25500000920E-02 0. -1.
</event>
<event>
 5   0  0.7193153E-06  0.3087669E+04  0.7818609E-02  0.8219130E-01
        2   -1    0    0  501    0  0.00000000000E+00  0.00000000000E+00  0.16596391096E+04  0.16596391096E+04  0.25500000920E-02 0. -1.
       -2   -1    0    0    0  501  0.00000000000E+00  0.00000000000E+00 -0.14361104192E+04  0.14361104192E+04  0.25500000920E-02 0.  1.
    10030    2    1    2    0    0  0.00000000000E+00  0.00000000000E+00  0.22352869042E+03  0.30957495288E+04  0.30876690350E+04 0.  0.
        4    1    3    3  502    0  0.71649649534E+03 -0.12903370872E+04 -0.34228544649E+03  0.15150900851E+04  0.12699999809E+01 0.  1.
       -4    1    3    3    0  502 -0.71649649534E+03  0.12903370872E+04  0.56581413691E+03  0.15806594436E+04  0.12699999809E+01 0. -1.
</event>
<event>
 5   0  0.6792811E-06  0.2790878E+04  0.7818609E-02  0.8306106E-01
        2   -1    0    0  501    0  0.00000000000E+00  0.00000000000E+00  0.11802339479E+04  0.11802339479E+04  0.25500000920E-02 0.  1.
       -2   -1    0    0    0  501  0.00000000000E+00  0.00000000000E+00 -0.16498846228E+04  0.16498846228E+04  0.25500000920E-02 0. -1.
    10030    2    1    2    0    0  0.00000000000E+00  0.00000000000E+00 -0.46965067494E+03  0.28301185707E+04  0.27908778848E+04 0.  0.
        2    1    3    3  502    0  0.94885058914E+02  0.16724342598E+03  0.11667352973E+04  0.11824740132E+04  0.25500000920E-02 0.  1.
       -2    1    3    3    0  502 -0.94885058914E+02 -0.16724342598E+03 -0.16363859722E+04  0.16476445575E+04  0.25500000920E-02 0. -1.
</event>
<event>
 5   0  0.2422083E-06  0.3000515E+04  0.7818609E-02  0.8243584E-01
        1   -1    0    0  501    0  0.00000000000E+00  0.00000000000E+00  0.72671640251E+03  0.72671640253E+03  0.50400001928E-02 0. -1.
       -1   -1    0    0    0  501  0.00000000000E+00  0.00000000000E+00 -0.30971822589E+04  0.30971822589E+04  0.50400001928E-02 0.  1.
    10030    2    1    2    0    0  0.00000000000E+00  0.00000000000E+00 -0.23704658564E+04  0.38238986614E+04  0.30005153885E+04 0.  0.
        2    1    3    3  502    0 -0.14126420575E+04  0.43632052323E+03 -0.86072006930E+03  0.17107811722E+04  0.25500000920E-02 0. -1.
       -2    1    3    3    0  502  0.14126420575E+04 -0.43632052323E+03 -0.15097457871E+04  0.21131174892E+04  0.25500000920E-02 0.  1.
</event>
<event>
 5   0  0.6792811E-06  0.2962492E+04  0.7818609E-02  0.8254523E-01
       -2   -1    0    0    0  501  0.00000000000E+00  0.00000000000E+00  0.88981197620E+03  0.88981197620E+03  0.25500000920E-02 0. -1.
        2   -1    0    0  501    0  0.00000000000E+00  0.00000000000E+00 -0.24657910499E+04  0.24657910499E+04  0.25500000920E-02 0.  1.
    10030    2    1    2    0    0  0.00000000000E+00  0.00000000000E+00 -0.15759790737E+04  0.33556030261E+04  0.29624924689E+04 0.  0.
        2    1    3    3  502    0 -0.38271377513E+03 -0.45989784771E+03  0.74685081182E+03  0.95695454392E+03  0.25500000920E-02 0. -1.
       -2    1    3    3    0  502  0.38271377513E+03  0.45989784771E+03 -0.23228298855E+04  0.23986484822E+04  0.25500000920E-02 0.  1.
</event>
<event>
 5   0  0.6780150E-06  0.2973119E+04  0.7818609E-02  0.8251449E-01
        2   -1    0    0  501    0  0.00000000000E+00  0.00000000000E+00  0.21976748257E+04  0.21976748257E+04  0.25500000920E-02 0. -1.
       -2   -1    0    0    0  501  0.00000000000E+00  0.00000000000E+00 -0.10055440200E+04  0.10055440200E+04  0.25500000920E-02 0.  1.
    10030    2    1    2    0    0  0.00000000000E+00  0.00000000000E+00  0.11921308057E+04  0.32032188456E+04  0.29731187523E+04 0.  0.
        5    1    3    3  502    0  0.72525536466E+03 -0.44457567764E+03  0.19095109699E+04  0.20904298867E+04  0.46999998093E+01 0. -1.
       -5    1    3    3    0  502 -0.72525536466E+03  0.44457567764E+03 -0.71738016419E+03  0.11127889589E+04  0.46999998093E+01 0.  1.
</event>
<event>
 5   0  0.7193153E-06  0.2989674E+04  0.7818609E-02  0.8246686E-01
        2   -1    0    0  501    0  0.00000000000E+00  0.00000000000E+00  0.10716939032E+04  0.10716939032E+04  0.25500000920E-02 0.  1.
       -2   -1    0    0    0  501  0.00000000000E+00  0.00000000000E+00 -0.20850516532E+04  0.20850516532E+04  0.25500000920E-02 0. -1.
    10030    2    1    2    0    0  0.00000000000E+00  0.00000000000E+00 -0.10133577500E+04  0.31567455564E+04  0.29896736575E+04 0.  0.
        4    1    3    3  502    0  0.11047141212E+04 -0.17301840969E+03  0.54083308326E+03  0.12421073611E+04  0.12699999809E+01 0.  1.
       -4    1    3    3    0  502 -0.11047141212E+04  0.17301840969E+03 -0.15541908332E+04  0.19146381953E+04  0.12699999809E+01 0. -1.
</event>
<event>
 5   0  0.6792811E-06  0.3001338E+04  0.7818609E-02  0.8243349E-01
        2   -1    0    0  501    0  0.00000000000E+00  0.00000000000E+00  0.18339741124E+04  0.18339741124E+04  0.25500000920E-02 0. -1.
       -2   -1    0    0    0  501  0.00000000000E+00  0.00000000000E+00 -0.12279384832E+04  0.12279384832E+04  0.25500000920E-02 0.  1.
    10030    2    1    2    0    0  0.00000000000E+00  0.00000000000E+00  0.60603562916E+03  0.30619125956E+04  0.30013379615E+04 0.  0.
        2    1    3    3  502    0 -0.16639413842E+03  0.93673320329E+03  0.14869796702E+04  0.17652944919E+04  0.25500000920E-02 0. -1.
       -2    1    3    3    0  502  0.16639413842E+03 -0.93673320329E+03 -0.88094404103E+03  0.12966181037E+04  0.25500000920E-02 0.  1.
</event>
<event>
 5   0  0.6780150E-06  0.3016758E+04  0.7818609E-02  0.8238962E-01
       -2   -1    0    0    0  501  0.00000000000E+00  0.00000000000E+00  0.13313257547E+04  0.13313257547E+04  0.25500000920E-02 0. -1.
        2   -1    0    0  501    0  0.00000000000E+00  0.00000000000E+00 -0.17089784452E+04  0.17089784452E+04  0.25500000920E-02 0.  1.
    10030    2    1    2    0    0  0.00000000000E+00  0.00000000000E+00 -0.37765269055E+03  0.30403041999E+04  0.30167578745E+04 0.  0.
        5    1    3    3  502    0  0.55000807632E+03 -0.12207710440E+04 -0.88879336728E+03  0.16070988039E+04  0.46999998093E+01 0.  1.
       -5    1    3    3    0  502 -0.55000807632E+03  0.12207710440E+04  0.51114067673E+03  0.14332053960E+04  0.46999998093E+01 0. -1.
</event>
<event>
 5   0  0.2628425E-06  0.2992408E+04  0.7818609E-02  0.8245902E-01
       -1   -1    0    0    0  501  0.00000000000E+00  0.00000000000E+00  0.22525141913E+04  0.22525141913E+04  0.50400001928E-02 0.  1.
        1   -1    0    0  501    0  0.00000000000E+00  0.00000000000E+00 -0.99383436864E+03  0.99383436866E+03  0.50400001928E-02 0. -1.
    10030    2    1    2    0    0  0.00000000000E+00  0.00000000000E+00  0.12586798227E+04  0.32463485600E+04  0.29924077391E+04 0.  0.
        1    1    3    3  502    0  0.75687772678E+03  0.11471148567E+04 -0.12371726193E+02  0.13743687450E+04  0.50400001928E-02 0. -1.
       -1    1    3    3    0  502 -0.75687772678E+03 -0.11471148567E+04  0.12710515489E+04  0.18719798150E+04  0.50400001928E-02 0.  1.
</event>
<event>
 5   0  0.7201538E-06  0.3041774E+04  0.7818609E-02  0.8231902E-01
       -2   -1    0    0    0  501  0.00000000000E+00  0.00000000000E+00  0.12106815839E+04  0.12106815839E+04  0.25500000920E-02 0.  1.
        2   -1    0    0  501    0  0.00000000000E+00  0.00000000000E+00 -0.19105738186E+04  0.19105738186E+04  0.25500000920E-02 0. -1.
    10030    2    1    2    0    0  0.00000000000E+00  0.00000000000E+00 -0.69989223468E+03  0.31212554025E+04  0.30417735201E+04 0.  0.
        3    1    3    3  502    0 -0.51101223043E+03  0.13154821323E+04  0.23185227008E+03  0.14301686004E+04  0.10100000352E+00 0.  1.
       -3    1    3    3    0  502  0.51101223043E+03 -0.13154821323E+04 -0.93174450477E+03  0.16910868022E+04  0.10100000352E+00 0. -1.
</event>
<event>
 5   0  0.2628425E-06  0.2323843E+04  0.7818609E-02  0.8468579E-01
        1   -1    0    0  501    0  0.00000000000E+00  0.00000000000E+00  0.18308038968E+04  0.18308038968E+04  0.50400001928E-02 0. -1.
       -1   -1    0    0    0  501  0.00000000000E+00  0.00000000000E+00 -0.73741491241E+03  0.73741491242E+03  0.50400001928E-02 0.  1.
    10030    2    1    2    0    0  0.00000000000E+00  0.00000000000E+00  0.10933889844E+04  0.25682188093E+04  0.23238434502E+04 0.  0.
        1    1    3    3  502    0 -0.58729709427E+03  0.70705477253E+03  0.13322275425E+04  0.16185408717E+04  0.50400001928E-02 0. -1.
       -1    1    3    3    0  502  0.58729709427E+03 -0.70705477253E+03 -0.23883855807E+03  0.94967793759E+03  0.50400001928E-02 0.  1.
</event>
<event>
 5   0  0.6792811E-06  0.2228432E+04  0.7818609E-02  0.8506686E-01
        2   -1    0    0  501    0  0.00000000000E+00  0.00000000000E+00  0.22042587127E+04  0.22042587127E+04  0.25500000920E-02 0.  1.
       -2   -1    0    0    0  501  0.00000000000E+00  0.00000000000E+00 -0.56321776408E+03  0.56321776408E+03  0.25500000920E-02 0. -1.
    10030    2    1    2    0    0  0.00000000000E+00  0.00000000000E+00  0.16410409486E+04  0.27674764767E+04  0.22284323311E+04 0.  0.
        2    1    3    3  502    0 -0.11062732623E+04  0.48281159694E+02  0.97416469377E+03  0.14748452298E+04  0.25500000920E-02 0.  1.
       -2    1    3    3    0  502  0.11062732623E+04 -0.48281159694E+02  0.66687625480E+03  0.12926312469E+04  0.25500000920E-02 0. -1.
</event>
<event>
 5   0  0.6780150E-06  0.2964170E+04  0.7818609E-02  0.8254037E-01
       -2   -1    0    0    0  501  0.00000000000E+00  0.00000000000E+00  0.82674607794E+03  0.82674607795E+03  0.25500000920E-02 0. -1.
        2   -1    0    0  501    0  0.00000000000E+00  0.00000000000E+00 -0.26568923955E+04  0.26568923955E+04  0.25500000920E-02 0.  1.
    10030    2    1    2    0    0  0.00000000000E+00  0.00000000000E+00 -0.18301463176E+04  0.34836384735E+04  0.29641696089E+04 0.  0.
        5    1    3    3  502    0  0.18456090327E+03  0.65899562297E+03  0.62992851169E+03  0.93014513811E+03  0.46999998093E+01 0. -1.
       -5    1    3    3    0  502 -0.18456090327E+03 -0.65899562297E+03 -0.24600748293E+04  0.25534933354E+04  0.46999998093E+01 0.  1.
</event>
<event>
 5   0  0.2552990E-06  0.3032166E+04  0.7818609E-02  0.8234605E-01
        1   -1    0    0  501    0  0.00000000000E+00  0.00000000000E+00  0.15258948641E+04  0.15258948641E+04  0.50400001928E-02 0.  1.
       -1   -1    0    0    0  501  0.00000000000E+00  0.00000000000E+00 -0.15063340531E+04  0.15063340531E+04  0.50400001928E-02 0. -1.
    10030    2    1    2    0    0  0.00000000000E+00  0.00000000000E+00  0.19560810982E+02  0.30322289173E+04  0.30321658235E+04 0.  0.
        3    1    3    3  502    0 -0.11471289238E+04  0.21950417493E+03  0.97645481909E+03  0.15223504441E+04  0.10100000352E+00 0.  1.
       -3    1    3    3    0  502  0.11471289238E+04 -0.21950417493E+03 -0.95689400811E+03  0.15098784732E+04  0.10100000352E+00 0. -1.
</event>
<event>
 5   0  0.2504260E-06  0.2909941E+04  0.7818609E-02  0.8269926E-01
       -1   -1    0    0    0  501  0.00000000000E+00  0.00000000000E+00  0.12871689237E+04  0.12871689237E+04  0.50400001928E-02 0. -1.
        1   -1    0    0  501    0  0.00000000000E+00  0.00000000000E+00 -0.16446479119E+04  0.16446479119E+04  0.50400001928E-02 0.  1.
    10030    2    1    2    0    0  0.00000000000E+00  0.00000000000E+00 -0.35747898817E+03  0.29318168356E+04  0.29099413621E+04 0.  0.
        4    1    3    3  502    0 -0.27448510065E+03 -0.13427264634E+04 -0.67096272508E+03  0.15259256264E+04  0.12699999809E+01 0. -1.
       -4    1    3    3    0  502  0.27448510065E+03  0.13427264634E+04  0.31348373691E+03  0.14058912092E+04  0.12699999809E+01 0.  1.
</event>
<event>
 5   0  0.2672155E-06  0.3000985E+04  0.7818609E-02  0.8243450E-01
       -1   -1    0    0    0  501  0.00000000000E+00  0.00000000000E+00  0.21520473534E+04  0.21520473534E+04  0.50400001928E-02 0.  1.
        1   -1    0    0  501    0  0.00000000000E+00  0.00000000000E+00 -0.10462029858E+04  0.10462029859E+04  0.50400001928E-02 0. -1.
    10030    2    1    2    0    0  0.00000000000E+00  0.00000000000E+00  0.11058443676E+04  0.31982503393E+04  0.30009854161E+04 0.  0.
        5    1    3    3  502    0  0.47791626266E+03  0.12519723303E+04  0.12722863808E+04  0.18478564324E+04  0.46999998093E+01 0.  1.
       -5    1    3    3    0  502 -0.47791626266E+03 -0.12519723303E+04 -0.16644201322E+03  0.13503939069E+04  0.46999998093E+01 0. -1.
</event>
<event>
 5   0  0.2298500E-06  0.2596483E+04  0.7818609E-02  0.8369397E-01
        3   -1    0    0  501    0  0.00000000000E+00  0.00000000000E+00  0.90844620376E+03  0.90844620937E+03  0.10100000352E+00 0. -1.
       -3   -1    0    0    0  501  0.00000000000E+00  0.00000000000E+00 -0.18552895045E+04  0.18552895072E+04  0.10100000352E+00 0.  1.
    10030    2    1    2    0    0  0.00000000000E+00  0.00000000000E+00 -0.94684330073E+03  0.27637357166E+04  0.25964827893E+04 0.  0.
        3    1    3    3  502    0  0.66556928539E+03 -0.66263261503E+03  0.48062114206E+03  0.10550171319E+04  0.10100000352E+00 0. -1.
       -3    1    3    3    0  502 -0.66556928539E+03  0.66263261503E+03 -0.14274644428E+04  0.17087185847E+04  0.10100000352E+00 0.  1.
</event>
<event>
 5   0  0.2552990E-06  0.2602057E+04  0.7818609E-02  0.8367503E-01
        1   -1    0    0  501    0  0.00000000000E+00  0.00000000000E+00  0.10351690869E+04  0.10351690869E+04  0.50400001928E-02 0. -1.
       -1   -1    0    0    0  501  0.00000000000E+00  0.00000000000E+00 -0.16351682235E+04  0.16351682235E+04  0.50400001928E-02 0.  1.
    10030    2    1    2    0    0  0.00000000000E+00  0.00000000000E+00 -0.59999913659E+03  0.26703373104E+04  0.26020573375E+04 0.  0.
        3    1    3    3  502    0  0.27939187663E+03  0.12656119036E+04 -0.18370210232E+03  0.13090377320E+04  0.10100000352E+00 0.  1.
       -3    1    3    3    0  502 -0.27939187663E+03 -0.12656119036E+04 -0.41629703427E+03  0.13612995784E+04  0.10100000352E+00 0. -1.
</event>
<event>
 5   0  0.6780150E-06  0.3269742E+04  0.7818609E-02  0.8170638E-01
        2   -1    0    0  501    0  0.00000000000E+00  0.00000000000E+00  0.18942404969E+04  0.18942404969E+04  0.25500000920E-02 0.  1.
       -2   -1    0    0    0  501  0.00000000000E+00  0.00000000000E+00 -0.14110154406E+04  0.14110154406E+04  0.25500000920E-02 0. -1.
    10030    2    1    2    0    0  0.00000000000E+00  0.00000000000E+00  0.48322505629E+03  0.33052559374E+04  0.32697416346E+04 0.  0.
        5    1    3    3  502    0 -0.50130719335E+03 -0.15136497505E+04 -0.12332951632E+03  0.15992738130E+04  0.46999998093E+01 0.  1.
       -5    1    3    3    0  502  0.50130719335E+03  0.15136497505E+04  0.60655457262E+03  0.17059821244E+04  0.46999998093E+01 0. -1.
</event>
<event>
 5   0  0.2298500E-06  0.2638652E+04  0.7818609E-02  0.8355189E-01
       -3   -1    0    0    0  501  0.00000000000E+00  0.00000000000E+00  0.87880469634E+03  0.87880470215E+03  0.10100000352E+00 0. -1.
        3   -1    0    0  501    0  0.00000000000E+00  0.00000000000E+00 -0.19806693371E+04  0.19806693397E+04  0.10100000352E+00 0.  1.
    10030    2    1    2    0    0  0.00000000000E+00  0.00000000000E+00 -0.11018646408E+04  0.28594740418E+04  0.26386523282E+04 0.  0.
        3    1    3    3  502    0  0.34360385853E+01  0.13116558392E+04 -0.70483373835E+03  0.14890411195E+04  0.10100000352E+00 0. -1.
       -3    1    3    3    0  502 -0.34360385853E+01 -0.13116558392E+04 -0.39703090241E+03  0.13704329223E+04  0.10100000352E+00 0.  1.
</event>
<event>
 5   0  0.6780150E-06  0.2736439E+04  0.7818609E-02  0.8323278E-01
        2   -1    0    0  501    0  0.00000000000E+00  0.00000000000E+00  0.16396667929E+04  0.16396667929E+04  0.25500000920E-02 0. -1.
       -2   -1    0    0    0  501  0.00000000000E+00  0.00000000000E+00 -0.11417106062E+04  0.11417106062E+04  0.25500000920E-02 0.  1.
    10030    2    1    2    0    0  0.00000000000E+00  0.00000000000E+00  0.49795618665E+03  0.27813773991E+04  0.27364392689E+04 0.  0.
        5    1    3    3  502    0  0.78385494914E+03 -0.99905115802E+03 -0.26877009442E+03  0.12979950891E+04  0.46999998093E+01 0.  1.
       -5    1    3    3    0  502 -0.78385494914E+03  0.99905115802E+03  0.76672628107E+03  0.14833823100E+04  0.46999998093E+01 0. -1.
</event>
<event>
 5   0  0.2628425E-06  0.3042444E+04  0.7818609E-02  0.8231714E-01
        1   -1    0    0  501    0  0.00000000000E+00  0.00000000000E+00  0.12010537149E+04  0.12010537149E+04  0.50400001928E-02 0.  1.
       -1   -1    0    0    0  501  0.00000000000E+00  0.00000000000E+00 -0.19267381006E+04  0.19267381006E+04  0.50400001928E-02 0. -1.
    10030    2    1    2    0    0  0.00000000000E+00  0.00000000000E+00 -0.72568438565E+03  0.31277918155E+04  0.30424437240E+04 0.  0.
        1    1    3    3  502    0 -0.10359707943E+04 -0.47842514434E+03 -0.13970394055E+04  0.18038417907E+04  0.50400001928E-02 0. -1.
       -1    1    3    3    0  502  0.10359707943E+04  0.47842514434E+03  0.67135501986E+03  0.13239500248E+04  0.50400001928E-02 0.  1.
</event>
<event>
 5   0  0.2672155E-06  0.2953823E+04  0.7818609E-02  0.8257041E-01
        1   -1    0    0  501    0  0.00000000000E+00  0.00000000000E+00  0.14520778399E+04  0.14520778399E+04  0.50400001928E-02 0. -1.
       -1   -1    0    0    0  501  0.00000000000E+00  0.00000000000E+00 -0.15021695594E+04  0.15021695594E+04  0.50400001928E-02 0.  1.
    10030    2    1    2    0    0  0.00000000000E+00  0.00000000000E+00 -0.50091719508E+02  0.29542473993E+04  0.29538226954E+04 0.  0.
        5    1    3    3  502    0 -0.48350181995E+03  0.17165220172E+03  0.13600744009E+04  0.14536378347E+04  0.46999998093E+01 0. -1.
       -5    1    3    3    0  502  0.48350181995E+03 -0.17165220172E+03 -0.14101661204E+04  0.15006095646E+04  0.46999998093E+01 0.  1.
</event>
<event>
 5   0  0.7201538E-06  0.3003735E+04  0.7818609E-02  0.8242665E-01
        2   -1    0    0  501    0  0.00000000000E+00  0.00000000000E+00  0.15465263413E+04  0.15465263413E+04  0.25500000920E-02 0.  1.
       -2   -1    0    0    0  501  0.00000000000E+00  0.00000000000E+00 -0.14584983123E+04  0.14584983123E+04  0.25500000920E-02 0. -1.
    10030    2    1    2    0    0  0.00000000000E+00  0.00000000000E+00  0.88028028987E+02  0.30050246536E+04  0.30037350474E+04 0.  0.
        3    1    3    3  502    0 -0.14293621818E+04  0.18905874373E+03  0.46465451031E+03  0.15148344066E+04  0.10100000352E+00 0.  1.
       -3    1    3    3    0  502  0.14293621818E+04 -0.18905874373E+03 -0.37662648132E+03  0.14901902469E+04  0.10100000352E+00 0. -1.
</event>
<event>
 5   0  0.6780150E-06  0.3092792E+04  0.7818609E-02  0.8217719E-01
       -2   -1    0    0    0  501  0.00000000000E+00  0.00000000000E+00  0.13014354100E+04  0.13014354100E+04  0.25500000920E-02 0.  1.
        2   -1    0    0  501    0  0.00000000000E+00  0.00000000000E+00 -0.18374634815E+04  0.18374634815E+04  0.25500000920E-02 0. -1.
    10030    2    1    2    0    0  0.00000000000E+00  0.00000000000E+00 -0.53602807152E+03  0.31388988915E+04  0.30927916447E+04 0.  0.
        5    1    3    3  502    0 -0.10088155146E+04  0.47359005483E+03 -0.13560605458E+04  0.17552545617E+04  0.46999998093E+01 0. -1.
       -5    1    3    3    0  502  0.10088155146E+04 -0.47359005483E+03  0.82003247431E+03  0.13836443298E+04  0.46999998093E+01 0.  1.
</event>
<event>
 5   0  0.2298500E-06  0.3005073E+04  0.7818609E-02  0.8242284E-01
        3   -1    0    0  501    0  0.00000000000E+00  0.00000000000E+00  0.26144795182E+04  0.26144795202E+04  0.10100000352E+00 0.  1.
       -3   -1    0    0    0  501  0.00000000000E+00  0.00000000000E+00 -0.86350472720E+03  0.86350473310E+03  0.10100000352E+00 0. -1.
    10030    2    1    2    0    0  0.00000000000E+00  0.00000000000E+00  0.17509747910E+04  0.34779842533E+04  0.30050726692E+04 0.  0.
        5    1    3    3  502    0  0.13032582079E+04 -0.16388727742E+03  0.17198547362E+04  0.21640848873E+04  0.46999998093E+01 0.  1.
       -5    1    3    3    0  502 -0.13032582079E+04  0.16388727742E+03  0.31120054863E+02  0.13138993660E+04  0.46999998093E+01 0. -1.
</event>
<event>
 5   0  0.7193153E-06  0.2955160E+04  0.7818609E-02  0.8256652E-01
       -2   -1    0    0    0  501  0.00000000000E+00  0.00000000000E+00  0.13408381700E+04  0.13408381700E+04  0.25500000920E-02 0. -1.
        2   -1    0    0  501    0  0.00000000000E+00  0.00000000000E+00 -0.16282674082E+04  0.16282674082E+04  0.25500000920E-02 0.  1.
    10030    2    1    2    0    0  0.00000000000E+00  0.00000000000E+00 -0.28742923813E+03  0.29691055782E+04  0.29551602947E+04 0.  0.
        4    1    3    3  502    0 -0.32078603598E+03  0.70532286123E+03 -0.14077682532E+04  0.16069216182E+04  0.12699999809E+01 0.  1.
       -4    1    3    3    0  502  0.32078603598E+03 -0.70532286123E+03  0.11203390150E+04  0.13621839600E+04  0.12699999809E+01 0. -1.
</event>
<event>
 5   0  0.2552990E-06  0.2971615E+04  0.7818609E-02  0.8251883E-01
       -1   -1    0    0    0  501  0.00000000000E+00  0.00000000000E+00  0.16935768912E+04  0.16935768912E+04  0.50400001928E-02 0.  1.
        1   -1    0    0  501    0  0.00000000000E+00  0.00000000000E+00 -0.13035273394E+04  0.13035273394E+04  0.50400001928E-02 0. -1.
    10030    2    1    2    0    0  0.00000000000E+00  0.00000000000E+00  0.39004955183E+03  0.29971042306E+04  0.29716149004E+04 0.  0.
        3    1    3    3  502    0  0.82113998820E+03  0.35449146610E+03  0.13916623347E+04  0.16542850854E+04  0.10100000352E+00 0.  1.
       -3    1    3    3    0  502 -0.82113998820E+03 -0.35449146610E+03 -0.10016127829E+04  0.13428191452E+04  0.10100000352E+00 0. -1.
</event>
<event>
 5   0  0.2504260E-06  0.3001280E+04  0.7818609E-02  0.8243366E-01
       -1   -1    0    0    0  501  0.00000000000E+00  0.00000000000E+00  0.11115399177E+04  0.11115399177E+04  0.50400001928E-02 0.  1.
        1   -1    0    0  501    0  0.00000000000E+00  0.00000000000E+00 -0.20259460866E+04  0.20259460866E+04  0.50400001928E-02 0. -1.
    10030    2    1    2    0    0  0.00000000000E+00  0.00000000000E+00 -0.91440616886E+03  0.31374860043E+04  0.30012796913E+04 0.  0.
        4    1    3    3  502    0 -0.27767691024E+03  0.14746327326E+04 -0.47444939673E+03  0.15737693622E+04  0.12699999809E+01 0.  1.
       -4    1    3    3    0  502  0.27767691024E+03 -0.14746327326E+04 -0.43995677214E+03  0.15637166421E+04  0.12699999809E+01 0. -1.
</event>
<event>
 5   0  0.2504260E-06  0.2325562E+04  0.7818609E-02  0.8467910E-01
       -1   -1    0    0    0  501  0.00000000000E+00  0.00000000000E+00  0.95035250486E+03  0.95035250487E+03  0.50400001928E-02 0. -1.
        1   -1    0    0  501    0  0.00000000000E+00  0.00000000000E+00 -0.14226932572E+04  0.14226932572E+04  0.50400001928E-02 0.  1.
    10030    2    1    2    0    0  0.00000000000E+00  0.00000000000E+00 -0.47234075231E+03  0.23730457621E+04  0.23255623841E+04 0.  0.
        4    1    3    3  502    0  0.94249133598E+03 -0.27976154085E+03 -0.86973579530E+03  0.13126303382E+04  0.12699999809E+01 0.  1.
       -4    1    3    3    0  502 -0.94249133598E+03  0.27976154085E+03  0.39739504299E+03  0.10604154239E+04  0.12699999809E+01 0. -1.
</event>
<event>
 5   0  0.2504260E-06  0.2954155E+04  0.7818609E-02  0.8256945E-01
       -1   -1    0    0    0  501  0.00000000000E+00  0.00000000000E+00  0.95018403975E+03  0.95018403977E+03  0.50400001928E-02 0. -1.
        1   -1    0    0  501    0  0.00000000000E+00  0.00000000000E+00 -0.22961418387E+04  0.22961418387E+04  0.50400001928E-02 0.  1.
    10030    2    1    2    0    0  0.00000000000E+00  0.00000000000E+00 -0.13459577990E+04  0.32463258785E+04  0.29541545851E+04 0.  0.
        4    1    3    3  502    0  0.75163042426E+03 -0.43533791223E+03 -0.19858278242E+04  0.21674826765E+04  0.12699999809E+01 0.  1.
       -4    1    3    3    0  502 -0.75163042426E+03  0.43533791223E+03  0.63987002523E+03  0.10788432020E+04  0.12699999809E+01 0. -1.
</event>
<event>
 5   0  0.2628425E-06  0.3017663E+04  0.7818609E-02  0.8238705E-01
        1   -1    0    0  501    0  0.00000000000E+00  0.00000000000E+00  0.21260794207E+04  0.21260794207E+04  0.50400001928E-02 0.  1.
       -1   -1    0    0    0  501  0.00000000000E+00  0.00000000000E+00 -0.10707845414E+04  0.10707845414E+04  0.50400001928E-02 0. -1.
    10030    2    1    2    0    0  0.00000000000E+00  0.00000000000E+00  0.10552948792E+04  0.31968639621E+04  0.30176633195E+04 0.  0.
        1    1    3    3  502    0  0.12198709913E+04  0.32456934135E+03  0.14032540254E+04  0.18874724774E+04  0.50400001928E-02 0.  1.
       -1    1    3    3    0  502 -0.12198709913E+04 -0.32456934135E+03 -0.34795914622E+03  0.13093914847E+04  0.50400001928E-02 0. -1.
</event>
<event>
 5   0  0.2672155E-06  0.3037998E+04  0.7818609E-02  0.8232963E-01
       -1   -1    0    0    0  501  0.00000000000E+00  0.00000000000E+00  0.11049208528E+04  0.11049208528E+04  0.50400001928E-02 0.  1.
        1   -1    0    0  501    0  0.00000000000E+00  0.00000000000E+00 -0.20882564325E+04  0.20882564325E+04  0.50400001928E-02 0. -1.
    10030    2    1    2    0    0  0.00000000000E+00  0.00000000000E+00 -0.98333557966E+03  0.31931772853E+04  0.30379980765E+04 0.  0.
        5    1    3    3  502    0 -0.90327542275E+03  0.85593332083E+03  0.42392293978E+03  0.13146334424E+04  0.46999998093E+01 0.  1.
       -5    1    3    3    0  502  0.90327542275E+03 -0.85593332083E+03 -0.14072585194E+04  0.18785438429E+04  0.46999998093E+01 0. -1.
</event>
<event>
 5   0  0.7193153E-06  0.3001713E+04  0.7818609E-02  0.8243242E-01
       -2   -1    0    0    0  501  0.00000000000E+00  0.00000000000E+00  0.14940370367E+04  0.14940370367E+04  0.25500000920E-02 0. -1.
        2   -1    0    0  501    0  0.00000000000E+00  0.00000000000E+00 -0.15077071462E+04  0.15077071462E+04  0.25500000920E-02 0.  1.
    10030    2    1    2    0    0  0.00000000000E+00  0.00000000000E+00 -0.13670109577E+02  0.30017441829E+04  0.30017130555E+04 0.  0.
        4    1    3    3  502    0 -0.11446410193E+04  0.85533509220E+03  0.45226394570E+03  0.14987813291E+04  0.12699999809E+01 0. -1.
       -4    1    3    3    0  502  0.11446410193E+04 -0.85533509220E+03 -0.46593405528E+03  0.15029628538E+04  0.12699999809E+01 0.  1.
</event>
<event>
 5   0  0.2672155E-06  0.2194664E+04  0.7818609E-02  0.8520652E-01
        1   -1    0    0  501    0  0.00000000000E+00  0.00000000000E+00  0.26857493709E+04  0.26857493709E+04  0.50400001928E-02 0. -1.
       -1   -1    0    0    0  501  0.00000000000E+00  0.00000000000E+00 -0.44834315793E+03  0.44834315796E+03  0.50400001928E-02 0.  1.
    10030    2    1    2    0    0  0.00000000000E+00  0.00000000000E+00  0.22374062129E+04  0.31340925288E+04  0.21946638507E+04 0.  0.
        5    1    3    3  502    0  0.38447161700E+03 -0.84671374893E+03  0.28678182358E+03  0.97314361800E+03  0.46999998093E+01 0.  1.
       -5    1    3    3    0  502 -0.38447161700E+03  0.84671374893E+03  0.19506243893E+04  0.21609489108E+04  0.46999998093E+01 0. -1.
</event>
<event>
 5   0  0.7193153E-06  0.3006208E+04  0.7818609E-02  0.8241960E-01
        2   -1    0    0  501    0  0.00000000000E+00  0.00000000000E+00  0.23494908519E+04  0.23494908519E+04  0.25500000920E-02 0.  1.
       -2   -1    0    0    0  501  0.00000000000E+00  0.00000000000E+00 -0.96162173171E+03  0.96162173171E+03  0.25500000920E-02 0. -1.
    10030    2    1    2    0    0  0.00000000000E+00  0.00000000000E+00  0.13878691202E+04  0.33111125836E+04  0.30062078848E+04 0.  0.
        4    1    3    3  502    0 -0.28336305778E+03 -0.12647067062E+04  0.15324237364E+04  0.20070131529E+04  0.12699999809E+01 0.  1.
       -4    1    3    3    0  502  0.28336305778E+03  0.12647067062E+04 -0.14455461617E+03  0.13040994307E+04  0.12699999809E+01 0. -1.
</event>
<event>
 5   0  0.2628425E-06  0.3057859E+04  0.7818609E-02  0.8227399E-01
        1   -1    0    0  501    0  0.00000000000E+00  0.00000000000E+00  0.18465394736E+04  0.18465394736E+04  0.50400001928E-02 0. -1.
       -1   -1    0    0    0  501  0.00000000000E+00  0.00000000000E+00 -0.12659494842E+04  0.12659494842E+04  0.50400001928E-02 0.  1.
    10030    2    1    2    0    0  0.00000000000E+00  0.00000000000E+00  0.58058998944E+03  0.31124889578E+04  0.30578591819E+04 0.  0.
        1    1    3    3  502    0  0.14054418384E+04  0.16119212863E+03 -0.30004588535E+03  0.14461248897E+04  0.50400001928E-02 0.  1.
       -1    1    3    3    0  502 -0.14054418384E+04 -0.16119212863E+03  0.88063587479E+03  0.16663640681E+04  0.50400001928E-02 0. -1.
</event>
<event>
 5   0  0.7217255E-06  0.2913748E+04  0.7818609E-02  0.8268799E-01
       -2   -1    0    0    0  501  0.00000000000E+00  0.00000000000E+00  0.11765042892E+04  0.11765042892E+04  0.25500000920E-02 0.  1.
        2   -1    0    0  501    0  0.00000000000E+00  0.00000000000E+00 -0.18040576761E+04  0.18040576761E+04  0.25500000920E-02 0. -1.
    10030    2    1    2    0    0  0.00000000000E+00  0.00000000000E+00 -0.62755338692E+03  0.29805619653E+04  0.29137478229E+04 0.  0.
        1    1    3    3  502    0 -0.90348826603E+02  0.18356549433E+03  0.11617355831E+04  0.11796138208E+04  0.50400001928E-02 0.  1.
       -1    1    3    3    0  502  0.90348826603E+02 -0.18356549433E+03 -0.17892889700E+04  0.18009481445E+04  0.50400001928E-02 0. -1.
</event>
<event>
 5   0  0.2552990E-06  0.3046563E+04  0.7818609E-02  0.8230558E-01
       -1   -1    0    0    0  501  0.00000000000E+00  0.00000000000E+00  0.11692558071E+04  0.11692558071E+04  0.50400001928E-02 0.  1.
        1   -1    0    0  501    0  0.00000000000E+00  0.00000000000E+00 -0.19844990688E+04  0.19844990688E+04  0.50400001928E-02 0. -1.
    10030    2    1    2    0    0  0.00000000000E+00  0.00000000000E+00 -0.81524326171E+03  0.31537548759E+04  0.30465633493E+04 0.  0.
        3    1    3    3  502    0  0.98849342553E+03  0.10162563151E+04 -0.98444408750E+03  0.17259856088E+04  0.10100000352E+00 0. -1.
       -3    1    3    3    0  502 -0.98849342553E+03 -0.10162563151E+04  0.16920082580E+03  0.14277692671E+04  0.10100000352E+00 0.  1.
</event>
<event>
 5   0  0.6792811E-06  0.2588340E+04  0.7818609E-02  0.8372173E-01
        2   -1    0    0  501    0  0.00000000000E+00  0.00000000000E+00  0.16473035102E+04  0.16473035102E+04  0.25500000920E-02 0.  1.
       -2   -1    0    0    0  501  0.00000000000E+00  0.00000000000E+00 -0.10167382345E+04  0.10167382345E+04  0.25500000920E-02 0. -1.
    10030    2    1    2    0    0  0.00000000000E+00  0.00000000000E+00  0.63056527569E+03  0.26640417447E+04  0.25883403660E+04 0.  0.
        2    1    3    3  502    0 -0.32674239044E+03 -0.11394483271E+04 -0.21930534186E+03  0.12054865875E+04  0.25500000920E-02 0.  1.
       -2    1    3    3    0  502  0.32674239044E+03  0.11394483271E+04  0.84987061755E+03  0.14585551571E+04  0.25500000920E-02 0. -1.
</event>
<event>
 5   0  0.2628425E-06  0.2966448E+04  0.7818609E-02  0.8253377E-01
       -1   -1    0    0    0  501  0.00000000000E+00  0.00000000000E+00  0.90943420575E+03  0.90943420577E+03  0.50400001928E-02 0.  1.
        1   -1    0    0  501    0  0.00000000000E+00  0.00000000000E+00 -0.24190352637E+04  0.24190352637E+04  0.50400001928E-02 0. -1.
    10030    2    1    2    0    0  0.00000000000E+00  0.00000000000E+00 -0.15096010579E+04  0.33284694694E+04  0.29664479862E+04 0.  0.
        1    1    3    3  502    0  0.94470530363E+03  0.94389366703E+03 -0.30629019793E+02  0.13357924623E+04  0.50400001928E-02 0.  1.
       -1    1    3    3    0  502 -0.94470530363E+03 -0.94389366703E+03 -0.14789720381E+04  0.19926770072E+04  0.50400001928E-02 0. -1.
</event>
<event>
 5   0  0.2552990E-06  0.2872344E+04  0.7818609E-02  0.8281154E-01
       -1   -1    0    0    0  501  0.00000000000E+00  0.00000000000E+00  0.10611224475E+04  0.10611224475E+04  0.50400001928E-02 0.  1.
        1   -1    0    0  501    0  0.00000000000E+00  0.00000000000E+00 -0.19437815984E+04  0.19437815984E+04  0.50400001928E-02 0. -1.
    10030    2    1    2    0    0  0.00000000000E+00  0.00000000000E+00 -0.88265915092E+03  0.30049040459E+04  0.28723441904E+04 0.  0.
        3    1    3    3  502    0 -0.56720915816E+03 -0.74630890599E+03  0.69695084689E+03  0.11680940482E+04  0.10100000352E+00 0.  1.
       -3    1    3    3    0  502  0.56720915816E+03  0.74630890599E+03 -0.15796099978E+04  0.18368099977E+04  0.10100000352E+00 0. -1.
</event>
<event>
 5   0  0.2628425E-06  0.2720815E+04  0.7818609E-02  0.8328283E-01
       -1   -1    0    0    0  501  0.00000000000E+00  0.00000000000E+00  0.15378420846E+04  0.15378420846E+04  0.50400001928E-02 0.  1.
        1   -1    0    0  501    0  0.00000000000E+00  0.00000000000E+00 -0.12034453313E+04  0.12034453313E+04  0.50400001928E-02 0. -1.
    10030    2    1    2    0    0  0.00000000000E+00  0.00000000000E+00  0.33439675326E+03  0.27412874159E+04  0.27208152285E+04 0.  0.
        1    1    3    3  502    0  0.75253380700E+03  0.10241493547E+04  0.65615381021E+03  0.14302890806E+04  0.50400001928E-02 0.  1.
       -1    1    3    3    0  502 -0.75253380700E+03 -0.10241493547E+04 -0.32175705696E+03  0.13109983353E+04  0.50400001928E-02 0. -1.
</event>
<event>
 5   0  0.6780150E-06  0.2909685E+04  0.7818609E-02  0.8270002E-01
       -2   -1    0    0    0  501  0.00000000000E+00  0.00000000000E+00  0.16362948073E+04  0.16362948073E+04  0.25500000920E-02 0.  1.
        2   -1    0    0  501    0  0.00000000000E+00  0.00000000000E+00 -0.12935122697E+04  0.12935122697E+04  0.25500000920E-02 0. -1.
    10030    2    1    2    0    0  0.00000000000E+00  0.00000000000E+00  0.34278253765E+03  0.29298070770E+04  0.29096854882E+04 0.  0.
        5    1    3    3  502    0 -0.10452647964E+04 -0.51390111661E+02  0.11889866909E+04  0.15839605043E+04  0.46999998093E+01 0.  1.
       -5    1    3    3    0  502  0.10452647964E+04  0.51390111661E+02 -0.84620415328E+03  0.13458465726E+04  0.46999998093E+01 0. -1.
</event>
<event>
 5   0  0.7201538E-06  0.3013153E+04  0.7818609E-02  0.8239985E-01
        2   -1    0    0  501    0  0.00000000000E+00  0.00000000000E+00  0.12375371119E+04  0.12375371119E+04  0.25500000920E-02 0.  1.
       -2   -1    0    0    0  501  0.00000000000E+00  0.00000000000E+00 -0.18341044441E+04  0.18341044441E+04  0.25500000920E-02 0. -1.
    10030    2    1    2    0    0  0.00000000000E+00  0.00000000000E+00 -0.59656733225E+03  0.30716415560E+04  0.30131527122E+04 0.  0.
        3    1    3    3  502    0  0.82332729563E+03  0.13063476601E+03 -0.15775691620E+04  0.17842807372E+04  0.10100000352E+00 0. -1.
       -3    1    3    3    0  502 -0.82332729563E+03 -0.13063476601E+03  0.98100182977E+03  0.12873608189E+04  0.10100000352E+00 0.  1.
</event>
<event>
 5   0  0.7217255E-06  0.2979729E+04  0.7818609E-02  0.8249543E-01
        2   -1    0    0  501    0  0.00000000000E+00  0.00000000000E+00  0.14813390563E+04  0.14813390563E+04  0.25500000920E-02 0. -1.
       -2   -1    0    0    0  501  0.00000000000E+00  0.00000000000E+00 -0.14984390350E+04  0.14984390350E+04  0.25500000920E-02 0.  1.
    10030    2    1    2    0    0  0.00000000000E+00  0.00000000000E+00 -0.17099978737E+02  0.29797780913E+04  0.29797290253E+04 0.  0.
        1    1    3    3  502    0 -0.12024091540E+04 -0.30312732904E+03  0.81731003281E+03  0.14851497032E+04  0.50400001928E-02 0. -1.
       -1    1    3    3    0  502  0.12024091540E+04  0.30312732904E+03 -0.83441001155E+03  0.14946283881E+04  0.50400001928E-02 0.  1.
</event>
<event>
 5   0  0.2422083E-06  0.2996696E+04  0.7818609E-02  0.8244675E-01
       -1   -1    0    0    0  501  0.00000000000E+00  0.00000000000E+00  0.19794129453E+04  0.19794129453E+04  0.50400001928E-02 0. -1.
        1   -1    0    0  501    0  0.00000000000E+00  0.00000000000E+00 -0.11341981982E+04  0.11341981983E+04  0.50400001928E-02 0.  1.
    10030    2    1    2    0    0  0.00000000000E+00  0.00000000000E+00  0.84521474702E+03  0.31136111435E+04  0.29966959112E+04 0.  0.
        2    1    3    3  502    0  0.53424253585E+03  0.13782337945E+04  0.16788318093E+03  0.14876586443E+04  0.25500000920E-02 0.  1.
       -2    1    3    3    0  502 -0.53424253585E+03 -0.13782337945E+04  0.67733156608E+03  0.16259524993E+04  0.25500000920E-02 0. -1.
</event>
<event>
 5   0  0.2628425E-06  0.2969557E+04  0.7818609E-02  0.8252478E-01
       -1   -1    0    0    0  501  0.00000000000E+00  0.00000000000E+00  0.17836063613E+04  0.17836063613E+04  0.50400001928E-02 0. -1.
        1   -1    0    0  501    0  0.00000000000E+00  0.00000000000E+00 -0.12360170782E+04  0.12360170782E+04  0.50400001928E-02 0.  1.
    10030    2    1    2    0    0  0.00000000000E+00  0.00000000000E+00  0.54758928307E+03  0.30196234395E+04  0.29695574912E+04 0.  0.
        1    1    3    3  502    0 -0.86008547723E+03  0.87628090840E+03  0.11227066785E+04  0.16637564559E+04  0.50400001928E-02 0. -1.
       -1    1    3    3    0  502  0.86008547723E+03 -0.87628090840E+03 -0.57511739547E+03  0.13558669836E+04  0.50400001928E-02 0.  1.
</event>
<event>
 5   0  0.6780150E-06  0.2927029E+04  0.7818609E-02  0.8264881E-01
       -2   -1    0    0    0  501  0.00000000000E+00  0.00000000000E+00  0.13888801616E+04  0.13888801616E+04  0.25500000920E-02 0.  1.
        2   -1    0    0  501    0  0.00000000000E+00  0.00000000000E+00 -0.15421591192E+04  0.15421591192E+04  0.25500000920E-02 0. -1.
    10030    2    1    2    0    0  0.00000000000E+00  0.00000000000E+00 -0.15327895763E+03  0.29310392808E+04  0.29270286685E+04 0.  0.
        5    1    3    3  502    0 -0.10883556710E+04  0.92112282841E+03  0.25376228829E+03  0.14482412508E+04  0.46999998093E+01 0.  1.
       -5    1    3    3    0  502  0.10883556710E+04 -0.92112282841E+03 -0.40704124592E+03  0.14827980299E+04  0.46999998093E+01 0. -1.
</event>
<event>
 5   0  0.2672155E-06  0.3008492E+04  0.7818609E-02  0.8241310E-01
       -1   -1    0    0    0  501  0.00000000000E+00  0.00000000000E+00  0.90567311316E+03  0.90567311318E+03  0.50400001928E-02 0. -1.
        1   -1    0    0  501    0  0.00000000000E+00  0.00000000000E+00 -0.24984242646E+04  0.24984242646E+04  0.50400001928E-02 0.  1.
    10030    2    1    2    0    0  0.00000000000E+00  0.00000000000E+00 -0.15927511514E+04  0.34040973778E+04  0.30084917695E+04 0.  0.
        5    1    3    3  502    0 -0.71659179527E+03  0.11993323265E+04 -0.16554048696E+03  0.14068857712E+04  0.46999998093E+01 0. -1.
       -5    1    3    3    0  502  0.71659179527E+03 -0.11993323265E+04 -0.14272106645E+04  0.19972116065E+04  0.46999998093E+01 0.  1.
</event>
<event>
 5   0  0.2504260E-06  0.2998740E+04  0.7818609E-02  0.8244091E-01
        1   -1    0    0  501    0  0.00000000000E+00  0.00000000000E+00  0.18574058602E+04  0.18574058602E+04  0.50400001928E-02 0. -1.
       -1   -1    0    0    0  501  0.00000000000E+00  0.00000000000E+00 -0.12103495547E+04  0.12103495547E+04  0.50400001928E-02 0.  1.
    10030    2    1    2    0    0  0.00000000000E+00  0.00000000000E+00  0.64705630554E+03  0.30677554149E+04  0.29987399726E+04 0.  0.
        4    1    3    3  502    0 -0.55783121272E+03 -0.68734250448E+02 -0.10985024326E+04  0.12339405441E+04  0.12699999809E+01 0.  1.
       -4    1    3    3    0  502  0.55783121272E+03  0.68734250448E+02  0.17455587382E+04  0.18338148708E+04  0.12699999809E+01 0. -1.
</event>
<event>
 5   0  0.6780150E-06  0.3003040E+04  0.7818609E-02  0.8242863E-01
       -2   -1    0    0    0  501  0.00000000000E+00  0.00000000000E+00  0.14365192526E+04  0.14365192526E+04  0.25500000920E-02 0.  1.
        2   -1    0    0  501    0  0.00000000000E+00  0.00000000000E+00 -0.15694623290E+04  0.15694623290E+04  0.25500000920E-02 0. -1.
    10030    2    1    2    0    0  0.00000000000E+00  0.00000000000E+00 -0.13294307639E+03  0.30059815817E+04  0.30030403607E+04 0.  0.
        5    1    3    3  502    0  0.10792477038E+04  0.45066839856E+03  0.87607863144E+03  0.14613053993E+04  0.46999998093E+01 0.  1.
       -5    1    3    3    0  502 -0.10792477038E+04 -0.45066839856E+03 -0.10090217078E+04  0.15446761824E+04  0.46999998093E+01 0. -1.
</event>
<event>
 5   0  0.2298500E-06  0.3072028E+04  0.7818609E-02  0.8223457E-01
       -3   -1    0    0    0  501  0.00000000000E+00  0.00000000000E+00  0.11756322987E+04  0.11756323031E+04  0.10100000352E+00 0. -1.
        3   -1    0    0  501    0  0.00000000000E+00  0.00000000000E+00 -0.20068685435E+04  0.20068685460E+04  0.10100000352E+00 0.  1.
    10030    2    1    2    0    0  0.00000000000E+00  0.00000000000E+00 -0.83123624478E+03  0.31825008491E+04  0.30720283137E+04 0.  0.
        4    1    3    3  502    0 -0.66436375445E+03  0.61974891852E+03  0.86741416269E+03  0.12561356864E+04  0.12699999809E+01 0. -1.
       -4    1    3    3    0  502  0.66436375445E+03 -0.61974891852E+03 -0.16986504075E+04  0.19263651627E+04  0.12699999809E+01 0.  1.
</event>
<event>
 5   0  0.6780150E-06  0.2950691E+04  0.7818609E-02  0.8257953E-01
       -2   -1    0    0    0  501  0.00000000000E+00  0.00000000000E+00  0.95677330629E+03  0.95677330629E+03  0.25500000920E-02 0.  1.
        2   -1    0    0  501    0  0.00000000000E+00  0.00000000000E+00 -0.22749838961E+04  0.22749838961E+04  0.25500000920E-02 0. -1.
    10030    2    1    2    0    0  0.00000000000E+00  0.00000000000E+00 -0.13182105898E+04  0.32317572024E+04  0.29506906744E+04 0.  0.
        5    1    3    3  502    0  0.13354442935E+01 -0.48059206434E+03 -0.21868385803E+04  0.22390300538E+04  0.46999998093E+01 0. -1.
       -5    1    3    3    0  502 -0.13354442935E+01  0.48059206434E+03  0.86862799046E+03  0.99272714858E+03  0.46999998093E+01 0.  1.
</event>
<event>
 5   0  0.7193153E-06  0.2984935E+04  0.7818609E-02  0.8248046E-01
        2   -1    0    0  501    0  0.00000000000E+00  0.00000000000E+00  0.13800624063E+04  0.13800624063E+04  0.25500000920E-02 0. -1.
       -2   -1    0    0    0  501  0.00000000000E+00  0.00000000000E+00 -0.16140275666E+04  0.16140275666E+04  0.25500000920E-02 0.  1.
    10030    2    1    2    0    0  0.00000000000E+00  0.00000000000E+00 -0.23396516024E+03  0.29940899729E+04  0.29849346843E+04 0.  0.
        4    1    3    3  502    0 -0.11613924161E+04 -0.46779963070E+02  0.82207068865E+03  0.14236651781E+04  0.12699999809E+01 0. -1.
       -4    1    3    3    0  502  0.11613924161E+04  0.46779963070E+02 -0.10560358489E+04  0.15704247948E+04  0.12699999809E+01 0.  1.
</event>
<event>
 5   0  0.7217255E-06  0.2998950E+04  0.7818609E-02  0.8244031E-01
       -2   -1    0    0    0  501  0.00000000000E+00  0.00000000000E+00  0.81690247010E+03  0.81690247011E+03  0.25500000920E-02 0. -1.
        2   -1    0    0  501    0  0.00000000000E+00  0.00000000000E+00 -0.27523782022E+04  0.27523782022E+04  0.25500000920E-02 0.  1.
    10030    2    1    2    0    0  0.00000000000E+00  0.00000000000E+00 -0.19354757321E+04  0.35692806723E+04  0.29989495175E+04 0.  0.
        1    1    3    3  502    0 -0.12309995511E+03  0.40826907671E+03 -0.26786922255E+04  0.27124212941E+04  0.50400001928E-02 0.  1.
       -1    1    3    3    0  502  0.12309995511E+03 -0.40826907671E+03  0.74321649338E+03  0.85685937819E+03  0.50400001928E-02 0. -1.
</event>
<event>
 5   0  0.7217255E-06  0.2959953E+04  0.7818609E-02  0.8255260E-01
       -2   -1    0    0    0  501  0.00000000000E+00  0.00000000000E+00  0.10791478806E+04  0.10791478806E+04  0.25500000920E-02 0.  1.
        2   -1    0    0  501    0  0.00000000000E+00  0.00000000000E+00 -0.20296851494E+04  0.20296851494E+04  0.25500000920E-02 0. -1.
    10030    2    1    2    0    0  0.00000000000E+00  0.00000000000E+00 -0.95053726883E+03  0.31088330300E+04  0.29599529910E+04 0.  0.
        1    1    3    3  502    0 -0.10852397480E+04 -0.76770641094E+03 -0.11585373899E+04  0.17633284799E+04  0.50400001928E-02 0. -1.
       -1    1    3    3    0  502  0.10852397480E+04  0.76770641094E+03  0.20800012105E+03  0.13455045502E+04  0.50400001928E-02 0.  1.
</event>
<event>
 5   0  0.2422083E-06  0.3140985E+04  0.7818609E-02  0.8204579E-01
       -1   -1    0    0    0  501  0.00000000000E+00  0.00000000000E+00  0.10993296026E+04  0.10993296026E+04  0.50400001928E-02 0.  1.
        1   -1    0    0  501    0  0.00000000000E+00  0.00000000000E+00 -0.22435919958E+04  0.22435919958E+04  0.50400001928E-02 0. -1.
    10030    2    1    2    0    0  0.00000000000E+00  0.00000000000E+00 -0.11442623931E+04  0.33429215984E+04  0.31409852577E+04 0.  0.
        2    1    3    3  502    0  0.30040589706E+02 -0.14500618391E+04 -0.12132418987E+04  0.18909092202E+04  0.25500000920E-02 0.  1.
       -2    1    3    3    0  502 -0.30040589706E+02  0.14500618391E+04  0.68979505560E+02  0.14520123782E+04  0.25500000920E-02 0. -1.
</event>
<event>
 5   0  0.7217255E-06  0.2874360E+04  0.7818609E-02  0.8280547E-01
       -2   -1    0    0    0  501  0.00000000000E+00  0.00000000000E+00  0.97533503615E+03  0.97533503615E+03  0.25500000920E-02 0. -1.
        2   -1    0    0  501    0  0.00000000000E+00  0.00000000000E+00 -0.21177197366E+04  0.21177197366E+04  0.25500000920E-02 0.  1.
    10030    2    1    2    0    0  0.00000000000E+00  0.00000000000E+00 -0.11423847004E+04  0.30930547727E+04  0.28743599328E+04 0.  0.
        1    1    3    3  502    0  0.98441380307E+03  0.70290218414E+03 -0.14063507261E+04  0.18549836605E+04  0.50400001928E-02 0.  1.
       -1    1    3    3    0  502 -0.98441380307E+03 -0.70290218414E+03  0.26396602562E+03  0.12380711122E+04  0.50400001928E-02 0. -1.
</event>
<event>
 5   0  0.2672155E-06  0.2909711E+04  0.7818609E-02  0.8269994E-01
        1   -1    0    0  501    0  0.00000000000E+00  0.00000000000E+00  0.12953726895E+04  0.12953726896E+04  0.50400001928E-02 0.  1.
       -1   -1    0    0    0  501  0.00000000000E+00  0.00000000000E+00 -0.16339729139E+04  0.16339729139E+04  0.50400001928E-02 0. -1.
    10030    2    1    2    0    0  0.00000000000E+00  0.00000000000E+00 -0.33860022435E+03  0.29293456035E+04  0.29097105617E+04 0.  0.
        5    1    3    3  502    0 -0.10666766339E+04 -0.20256126793E+03  0.80561039226E+03  0.13519838397E+04  0.46999998093E+01 0.  1.
       -5    1    3    3    0  502  0.10666766339E+04  0.20256126793E+03 -0.11442106166E+04  0.15773617638E+04  0.46999998093E+01 0. -1.
</event>
<event>
 5   0  0.2552990E-06  0.2811319E+04  0.7818609E-02  0.8299763E-01
       -1   -1    0    0    0  501  0.00000000000E+00  0.00000000000E+00  0.12080297603E+04  0.12080297603E+04  0.50400001928E-02 0. -1.
        1   -1    0    0  501    0  0.00000000000E+00  0.00000000000E+00 -0.16356205359E+04  0.16356205359E+04  0.50400001928E-02 0.  1.
    10030    2    1    2    0    0  0.00000000000E+00  0.00000000000E+00 -0.42759077560E+03  0.28436502962E+04  0.28113187538E+04 0.  0.
        3    1    3    3  502    0  0.66355712935E+03  0.93158870540E+03 -0.10403297502E+04  0.15461085276E+04  0.10100000352E+00 0.  1.
       -3    1    3    3    0  502 -0.66355712935E+03 -0.93158870540E+03  0.61273897459E+03  0.12975417685E+04  0.10100000352E+00 0. -1.
</event>
<event>
 5   0  0.7193153E-06  0.3024647E+04  0.7818609E-02  0.8236728E-01
        2   -1    0    0  501    0  0.00000000000E+00  0.00000000000E+00  0.18587686210E+04  0.18587686210E+04  0.25500000920E-02 0. -1.
       -2   -1    0    0    0  501  0.00000000000E+00  0.00000000000E+00 -0.12304502936E+04  0.12304502936E+04  0.25500000920E-02 0.  1.
    10030    2    1    2    0    0  0.00000000000E+00  0.00000000000E+00  0.62831832742E+03  0.30892189145E+04  0.30246470176E+04 0.  0.
        4    1    3    3  502    0  0.13841023687E+04 -0.60082347183E+03  0.41827948246E+03  0.15657865594E+04  0.12699999809E+01 0. -1.
       -4    1    3    3    0  502 -0.13841023687E+04  0.60082347183E+03  0.21003884496E+03  0.15234323551E+04  0.12699999809E+01 0.  1.
</event>
<event>
 5   0  0.2504260E-06  0.2995026E+04  0.7818609E-02  0.8245153E-01
       -1   -1    0    0    0  501  0.00000000000E+00  0.00000000000E+00  0.23992364034E+04  0.23992364034E+04  0.50400001928E-02 0. -1.
        1   -1    0    0  501    0  0.00000000000E+00  0.00000000000E+00 -0.93469146357E+03  0.93469146358E+03  0.50400001928E-02 0.  1.
    10030    2    1    2    0    0  0.00000000000E+00  0.00000000000E+00  0.14645449398E+04  0.33339278670E+04  0.29950264008E+04 0.  0.
        4    1    3    3  502    0  0.11429472694E+04  0.40338511198E+03 -0.24673189045E+03  0.12369018748E+04  0.12699999809E+01 0.  1.
       -4    1    3    3    0  502 -0.11429472694E+04 -0.40338511198E+03  0.17112768303E+04  0.20970259922E+04  0.12699999809E+01 0. -1.
</event>
<event>
 5   0  0.7201538E-06  0.3007025E+04  0.7818609E-02  0.8241728E-01
        2   -1    0    0  501    0  0.00000000000E+00  0.00000000000E+00  0.15990846867E+04  0.15990846867E+04  0.25500000920E-02 0.  1.
       -2   -1    0    0    0  501  0.00000000000E+00  0.00000000000E+00 -0.14136523328E+04  0.14136523328E+04  0.25500000920E-02 0. -1.
    10030    2    1    2    0    0  0.00000000000E+00  0.00000000000E+00  0.18543235386E+03  0.30127370195E+04  0.30070249734E+04 0.  0.
        3    1    3    3  502    0 -0.64131117679E+03 -0.13183023154E+04  0.42703966980E+03  0.15269459421E+04  0.10100000352E+00 0.  1.
       -3    1    3    3    0  502  0.64131117679E+03  0.13183023154E+04 -0.24160731594E+03  0.14857910774E+04  0.10100000352E+00 0. -1.
</event>
<event>
 5   0  0.7201538E-06  0.2998057E+04  0.7818609E-02  0.8244286E-01
       -2   -1    0    0    0  501  0.00000000000E+00  0.00000000000E+00  0.15597711607E+04  0.15597711607E+04  0.25500000920E-02 0.  1.
        2   -1    0    0  501    0  0.00000000000E+00  0.00000000000E+00 -0.14406512154E+04  0.14406512154E+04  0.25500000920E-02 0. -1.
    10030    2    1    2    0    0  0.00000000000E+00  0.00000000000E+00  0.11911994532E+03  0.30004223760E+04  0.29980568496E+04 0.  0.
        3    1    3    3  502    0  0.14382457433E+04 -0.32481960203E+03  0.33000941744E+03  0.15109483173E+04  0.10100000352E+00 0.  1.
       -3    1    3    3    0  502 -0.14382457433E+04  0.32481960203E+03 -0.21088947212E+03  0.14894740587E+04  0.10100000352E+00 0. -1.
</event>
<event>
 5   0  0.7201538E-06  0.2730139E+04  0.7818609E-02  0.8325292E-01
        2   -1    0    0  501    0  0.00000000000E+00  0.00000000000E+00  0.21036411775E+04  0.21036411775E+04  0.25500000920E-02 0.  1.
       -2   -1    0    0    0  501  0.00000000000E+00  0.00000000000E+00 -0.88580447149E+03  0.88580447149E+03  0.25500000920E-02 0. -1.
    10030    2    1    2    0    0  0.00000000000E+00  0.00000000000E+00  0.12178367060E+04  0.29894456490E+04  0.27301390159E+04 0.  0.
        3    1    3    3  502    0 -0.67677773759E+03 -0.91469274524E+02  0.19031356952E+04  0.20219594998E+04  0.10100000352E+00 0.  1.
       -3    1    3    3    0  502  0.67677773759E+03  0.91469274524E+02 -0.68529898914E+03  0.96748614925E+03  0.10100000352E+00 0. -1.
</event>
<event>
 5   0  0.2422083E-06  0.3039125E+04  0.7818609E-02  0.8232646E-01
       -1   -1    0    0    0  501  0.00000000000E+00  0.00000000000E+00  0.10916738271E+04  0.10916738271E+04  0.50400001928E-02 0. -1.
        1   -1    0    0  501    0  0.00000000000E+00  0.00000000000E+00 -0.21151651707E+04  0.21151651707E+04  0.50400001928E-02 0.  1.
    10030    2    1    2    0    0  0.00000000000E+00  0.00000000000E+00 -0.10234913436E+04  0.32068389978E+04  0.30391251747E+04 0.  0.
        2    1    3    3  502    0  0.14991089474E+04  0.18213707002E+03 -0.33339473661E+03  0.15464972030E+04  0.25500000920E-02 0. -1.
       -2    1    3    3    0  502 -0.14991089474E+04 -0.18213707002E+03 -0.69009660698E+03  0.16603417948E+04  0.25500000920E-02 0.  1.
</event>
<event>
 5   0  0.6780150E-06  0.2978907E+04  0.7818609E-02  0.8249780E-01
        2   -1    0    0  501    0  0.00000000000E+00  0.00000000000E+00  0.16583725718E+04  0.16583725718E+04  0.25500000920E-02 0. -1.
       -2   -1    0    0    0  501  0.00000000000E+00  0.00000000000E+00 -0.13377401977E+04  0.13377401977E+04  0.25500000920E-02 0.  1.
    10030    2    1    2    0    0  0.00000000000E+00  0.00000000000E+00  0.32063237413E+03  0.29961127696E+04  0.29789069486E+04 0.  0.
        5    1    3    3  502    0 -0.16139363380E+02  0.23536819179E+03  0.16394534723E+04  0.16563479231E+04  0.46999998093E+01 0. -1.
       -5    1    3    3    0  502  0.16139363380E+02 -0.23536819179E+03 -0.13188210982E+04  0.13397648464E+04  0.46999998093E+01 0.  1.
</event>
<event>
 5   0  0.6780150E-06  0.3123294E+04  0.7818609E-02  0.8209374E-01
        2   -1    0    0  501    0  0.00000000000E+00  0.00000000000E+00  0.27001023121E+04  0.27001023121E+04  0.25500000920E-02 0. -1.
       -2   -1    0    0    0  501  0.00000000000E+00  0.00000000000E+00 -0.90320323151E+03  0.90320323152E+03  0.25500000920E-02 0.  1.
    10030    2    1    2    0    0  0.00000000000E+00  0.00000000000E+00  0.17968990806E+04  0.36033055436E+04  0.31232938598E+04 0.  0.
        5    1    3    3  502    0 -0.94750429535E+03 -0.53163445105E+03  0.21925968079E+04  0.24470190909E+04  0.46999998093E+01 0. -1.
       -5    1    3    3    0  502  0.94750429535E+03  0.53163445105E+03 -0.39569772734E+03  0.11562864527E+04  0.46999998093E+01 0.  1.
</event>
<event>
 5   0  0.7193153E-06  0.2987935E+04  0.7818609E-02  0.8247184E-01
        2   -1    0    0  501    0  0.00000000000E+00  0.00000000000E+00  0.19176161931E+04  0.19176161931E+04  0.25500000920E-02 0.  1.
       -2   -1    0    0    0  501  0.00000000000E+00  0.00000000000E+00 -0.11639135454E+04  0.11639135454E+04  0.25500000920E-02 0. -1.
    10030    2    1    2    0    0  0.00000000000E+00  0.00000000000E+00  0.75370264773E+03  0.30815297385E+04  0.29879353822E+04 0.  0.
        4    1    3    3  502    0 -0.93715585701E+03 -0.10932344238E+04 -0.33759769247E+02  0.14403346627E+04  0.12699999809E+01 0. -1.
       -4    1    3    3    0  502  0.93715585701E+03  0.10932344238E+04  0.78746241698E+03  0.16411950758E+04  0.12699999809E+01 0.  1.
</event>
<event>
 5   0  0.7193153E-06  0.2983975E+04  0.7818609E-02  0.8248322E-01
        2   -1    0    0  501    0  0.00000000000E+00  0.00000000000E+00  0.22621628609E+04  0.22621628609E+04  0.25500000920E-02 0.  1.
       -2   -1    0    0    0  501  0.00000000000E+00  0.00000000000E+00 -0.98402586702E+03  0.98402586702E+03  0.25500000920E-02 0. -1.
    10030    2    1    2    0    0  0.00000000000E+00  0.00000000000E+00  0.12781369939E+04  0.32461887279E+04  0.29839750472E+04 0.  0.
        4    1    3    3  502    0  0.13424347382E+04  0.63087532729E+03  0.46402402483E+03  0.15541732894E+04  0.12699999809E+01 0. -1.
       -4    1    3    3    0  502 -0.13424347382E+04 -0.63087532729E+03  0.81411296904E+03  0.16920154385E+04  0.12699999809E+01 0.  1.
</event>
<event>
 5   0  0.2422083E-06  0.2997874E+04  0.7818609E-02  0.8244338E-01
       -1   -1    0    0    0  501  0.00000000000E+00  0.00000000000E+00  0.10092205712E+04  0.10092205712E+04  0.50400001928E-02 0.  1.
        1   -1    0    0  501    0  0.00000000000E+00  0.00000000000E+00 -0.22262845071E+04  0.22262845071E+04  0.50400001928E-02 0. -1.
    10030    2    1    2    0    0  0.00000000000E+00  0.00000000000E+00 -0.12170639359E+04  0.32355050783E+04  0.29978739946E+04 0.  0.
        2    1    3    3  502    0 -0.23730312911E+03  0.82110987826E+03  0.72044702346E+03  0.11178453027E+04  0.25500000920E-02 0.  1.
       -2    1    3    3    0  502  0.23730312911E+03 -0.82110987826E+03 -0.19375109593E+04  0.21176597755E+04  0.25500000920E-02 0. -1.
</event>
<event>
 5   0  0.7201538E-06  0.3072126E+04  0.7818609E-02  0.8223430E-01
        2   -1    0    0  501    0  0.00000000000E+00  0.00000000000E+00  0.14158516026E+04  0.14158516026E+04  0.25500000920E-02 0.  1.
       -2   -1    0    0    0  501  0.00000000000E+00  0.00000000000E+00 -0.16664807441E+04  0.16664807441E+04  0.25500000920E-02 0. -1.
    10030    2    1    2    0    0  0.00000000000E+00  0.00000000000E+00 -0.25062914158E+03  0.30823323467E+04  0.30721259299E+04 0.  0.
        3    1    3    3  502    0  0.38068143923E+03  0.39882312722E+03 -0.15637831213E+04  0.16581302439E+04  0.10100000352E+00 0. -1.
       -3    1    3    3    0  502 -0.38068143923E+03 -0.39882312722E+03  0.13131539797E+04  0.14242021028E+04  0.10100000352E+00 0.  1.
</event>
<event>
 5   0  0.2504260E-06  0.2925049E+04  0.7818609E-02  0.8265463E-01
        1   -1    0    0  501    0  0.00000000000E+00  0.00000000000E+00  0.17186482638E+04  0.17186482638E+04  0.50400001928E-02 0. -1.
       -1   -1    0    0    0  501  0.00000000000E+00  0.00000000000E+00 -0.12445698816E+04  0.12445698816E+04  0.50400001928E-02 0.  1.
    10030    2    1    2    0    0  0.00000000000E+00  0.00000000000E+00  0.47407838218E+03  0.29632181455E+04  0.29250489680E+04 0.  0.
        4    1    3    3  502    0  0.23350994936E+03  0.11345667351E+04  0.11415551225E+04  0.16263204738E+04  0.12699999809E+01 0. -1.
       -4    1    3    3    0  502 -0.23350994936E+03 -0.11345667351E+04 -0.66747674034E+03  0.13368976717E+04  0.12699999809E+01 0.  1.
</event>
<event>
 5   0  0.7217255E-06  0.3038786E+04  0.7818609E-02  0.8232741E-01
       -2   -1    0    0    0  501  0.00000000000E+00  0.00000000000E+00  0.92447629329E+03  0.92447629330E+03  0.25500000920E-02 0.  1.
        2   -1    0    0  501    0  0.00000000000E+00  0.00000000000E+00 -0.24971495819E+04  0.24971495819E+04  0.25500000920E-02 0. -1.
    10030    2    1    2    0    0  0.00000000000E+00  0.00000000000E+00 -0.15726732886E+04  0.34216258752E+04  0.30387863296E+04 0.  0.
        1    1    3    3  502    0  0.72030200793E+03 -0.25807341540E+03  0.69171618696E+03  0.10314592351E+04  0.50400001928E-02 0.  1.
       -1    1    3    3    0  502 -0.72030200793E+03  0.25807341540E+03 -0.22643894755E+04  0.23901666401E+04  0.50400001928E-02 0. -1.
</event>
<event>
 5   0  0.6792811E-06  0.2888773E+04  0.7818609E-02  0.8276226E-01
       -2   -1    0    0    0  501  0.00000000000E+00  0.00000000000E+00  0.16446620216E+04  0.16446620216E+04  0.25500000920E-02 0. -1.
        2   -1    0    0  501    0  0.00000000000E+00  0.00000000000E+00 -0.12684995128E+04  0.12684995128E+04  0.25500000920E-02 0.  1.
    10030    2    1    2    0    0  0.00000000000E+00  0.00000000000E+00  0.37616250880E+03  0.29131615344E+04  0.28887734236E+04 0.  0.
        2    1    3    3  502    0  0.12006546630E+04 -0.71529232974E+03  0.55590463067E+03  0.15040760270E+04  0.25500000920E-02 0. -1.
       -2    1    3    3    0  502 -0.12006546630E+04  0.71529232974E+03 -0.17974212187E+03  0.14090855074E+04  0.25500000920E-02 0.  1.
</event>
<event>
 5   0  0.2504260E-06  0.3060287E+04  0.7818609E-02  0.8226722E-01
       -1   -1    0    0    0  501  0.00000000000E+00  0.00000000000E+00  0.15890238021E+04  0.15890238021E+04  0.50400001928E-02 0.  1.
        1   -1    0    0  501    0  0.00000000000E+00  0.00000000000E+00 -0.14734452710E+04  0.14734452710E+04  0.50400001928E-02 0. -1.
    10030    2    1    2    0    0  0.00000000000E+00  0.00000000000E+00  0.11557853113E+03  0.30624690732E+04  0.30602873112E+04 0.  0.
        4    1    3    3  502    0  0.23979862618E+03 -0.45465533876E+02 -0.14538396988E+04  0.14741851914E+04  0.12699999809E+01 0. -1.
       -4    1    3    3    0  502 -0.23979862618E+03  0.45465533876E+02  0.15694182299E+04  0.15882838818E+04  0.12699999809E+01 0.  1.
</event>
<event>
 5   0  0.2422083E-06  0.3028651E+04  0.7818609E-02  0.8235597E-01
        1   -1    0    0  501    0  0.00000000000E+00  0.00000000000E+00  0.14978370235E+04  0.14978370235E+04  0.50400001928E-02 0. -1.
       -1   -1    0    0    0  501  0.00000000000E+00  0.00000000000E+00 -0.15309950722E+04  0.15309950722E+04  0.50400001928E-02 0.  1.
    10030    2    1    2    0    0  0.00000000000E+00  0.00000000000E+00 -0.33158048685E+02  0.30288320956E+04  0.30286505918E+04 0.  0.
        2    1    3    3  502    0  0.64749887776E+03 -0.11578467353E+04  0.71375046769E+03  0.15064207876E+04  0.25500000920E-02 0. -1.
       -2    1    3    3    0  502 -0.64749887776E+03  0.11578467353E+04 -0.74690851637E+03  0.15224113081E+04  0.25500000920E-02 0.  1.
</event>
<event>
 5   0  0.7193153E-06  0.2982743E+04  0.7818609E-02  0.8248676E-01
       -2   -1    0    0    0  501  0.00000000000E+00  0.00000000000E+00  0.14312704462E+04  0.14312704462E+04  0.25500000920E-02 0.  1.
        2   -1    0    0  501    0  0.00000000000E+00  0.00000000000E+00 -0.15539963095E+04  0.15539963095E+04  0.25500000920E-02 0. -1.
    10030    2    1    2    0    0  0.00000000000E+00  0.00000000000E+00 -0.12272586333E+03  0.29852667557E+04  0.29827430270E+04 0.  0.
        4    1    3    3  502    0  0.88485360508E+02  0.69552528641E+03  0.12560343053E+04  0.14384744948E+04  0.12699999809E+01 0.  1.
       -4    1    3    3    0  502 -0.88485360508E+02 -0.69552528641E+03 -0.13787601686E+04  0.15467922610E+04  0.12699999809E+01 0. -1.
</event>
<event>
 5   0  0.7193153E-06  0.3014025E+04  0.7818609E-02  0.8239737E-01
        2   -1    0    0  501    0  0.00000000000E+00  0.00000000000E+00  0.14759011864E+04  0.14759011864E+04  0.25500000920E-02 0.  1.
       -2   -1    0    0    0  501  0.00000000000E+00  0.00000000000E+00 -0.15387794253E+04  0.15387794253E+04  0.25500000920E-02 0. -1.
    10030    2    1    2    0    0  0.00000000000E+00  0.00000000000E+00 -0.62878238922E+02  0.30146806117E+04  0.30140248038E+04 0.  0.
        4    1    3    3  502    0  0.26580210655E+03  0.31568095051E+03  0.14182828683E+04  0.14771029517E+04  0.12699999809E+01 0.  1.
       -4    1    3    3    0  502 -0.26580210655E+03 -0.31568095051E+03 -0.14811611072E+04  0.15375776601E+04  0.12699999809E+01 0. -1.
</event>
<event>
 5   0  0.2504260E-06  0.2971784E+04  0.7818609E-02  0.8251834E-01
       -1   -1    0    0    0  501  0.00000000000E+00  0.00000000000E+00  0.18176165389E+04  0.18176165389E+04  0.50400001928E-02 0. -1.
        1   -1    0    0  501    0  0.00000000000E+00  0.00000000000E+00 -0.12147089992E+04  0.12147089992E+04  0.50400001928E-02 0.  1.
    10030    2    1    2    0    0  0.00000000000E+00  0.00000000000E+00  0.60290753975E+03  0.30323255381E+04  0.29717840883E+04 0.  0.
        4    1    3    3  502    0 -0.77321421999E+03 -0.11412027633E+04 -0.26452592111E+03  0.14036308463E+04  0.12699999809E+01 0.  1.
       -4    1    3    3    0  502  0.77321421999E+03  0.11412027633E+04  0.86743346087E+03  0.16286946917E+04  0.12699999809E+01 0. -1.
</event>
<event>
 5   0  0.2422083E-06  0.3010421E+04  0.7818609E-02  0.8240761E-01
       -1   -1    0    0    0  501  0.00000000000E+00  0.00000000000E+00  0.19589039075E+04  0.19589039075E+04  0.50400001928E-02 0. -1.
        1   -1    0    0  501    0  0.00000000000E+00  0.00000000000E+00 -0.11565954043E+04  0.11565954043E+04  0.50400001928E-02 0.  1.
    10030    2    1    2    0    0  0.00000000000E+00  0.00000000000E+00  0.80230850316E+03  0.31154993118E+04  0.30104214036E+04 0.  0.
        2    1    3    3  502    0  0.38848254945E+02  0.20272961024E+03 -0.11418781923E+04  0.11603854049E+04  0.25500000920E-02 0.  1.
       -2    1    3    3    0  502 -0.38848254945E+02 -0.20272961024E+03  0.19441866955E+04  0.19551139068E+04  0.25500000920E-02 0. -1.
</event>
<event>
 5   0  0.6780150E-06  0.2792493E+04  0.7818609E-02  0.8305603E-01
        2   -1    0    0  501    0  0.00000000000E+00  0.00000000000E+00  0.31299276025E+04  0.31299276025E+04  0.25500000920E-02 0.  1.
       -2   -1    0    0    0  501  0.00000000000E+00  0.00000000000E+00 -0.62285937008E+03  0.62285937009E+03  0.25500000920E-02 0. -1.
    10030    2    1    2    0    0  0.00000000000E+00  0.00000000000E+00  0.25070682324E+04  0.37527869726E+04  0.27924933195E+04 0.  0.
        5    1    3    3  502    0 -0.48842700367E+03  0.11495227190E+04  0.41479631169E+03  0.13160704729E+04  0.46999998093E+01 0. -1.
       -5    1    3    3    0  502  0.48842700367E+03 -0.11495227190E+04  0.20922719207E+04  0.24367164997E+04  0.46999998093E+01 0.  1.
</event>
<event>
 5   0  0.6780150E-06  0.2970247E+04  0.7818609E-02  0.8252279E-01
        2   -1    0    0  501    0  0.00000000000E+00  0.00000000000E+00  0.29666597960E+04  0.29666597960E+04  0.25500000920E-02 0. -1.
       -2   -1    0    0    0  501  0.00000000000E+00  0.00000000000E+00 -0.74345944772E+03  0.74345944772E+03  0.25500000920E-02 0.  1.
    10030    2    1    2    0    0  0.00000000000E+00  0.00000000000E+00  0.22232003483E+04  0.37101192438E+04  0.29702466251E+04 0.  0.
        5    1    3    3  502    0  0.30773950082E+03  0.27824465177E+02 -0.70285392789E+03  0.76779133570E+03  0.46999998093E+01 0.  1.
       -5    1    3    3    0  502 -0.30773950082E+03 -0.27824465177E+02  0.29260542762E+04  0.29423279081E+04  0.46999998093E+01 0. -1.
</event>
<event>
 5   0  0.2672155E-06  0.2984535E+04  0.7818609E-02  0.8248161E-01
        1   -1    0    0  501    0  0.00000000000E+00  0.00000000000E+00  0.25590957314E+04  0.25590957315E+04  0.50400001928E-02 0. -1.
       -1   -1    0    0    0  501  0.00000000000E+00  0.00000000000E+00 -0.87017540853E+03  0.87017540854E+03  0.50400001928E-02 0.  1.
    10030    2    1    2    0    0  0.00000000000E+00  0.00000000000E+00  0.16889203229E+04  0.34292711400E+04  0.29845349210E+04 0.  0.
        5    1    3    3  502    0 -0.18068492160E+03  0.13819254326E+04  0.14573004674E+04  0.20164601867E+04  0.46999998093E+01 0. -1.
       -5    1    3    3    0  502  0.18068492160E+03 -0.13819254326E+04  0.23161985554E+03  0.14128109533E+04  0.46999998093E+01 0.  1.
</event>
<event>
 5   0  0.6792811E-06  0.2884958E+04  0.7818609E-02  0.8277367E-01
        2   -1    0    0  501    0  0.00000000000E+00  0.00000000000E+00  0.12964142188E+04  0.12964142188E+04  0.25500000920E-02 0. -1.
       -2   -1    0    0    0  501  0.00000000000E+00  0.00000000000E+00 -0.16050003646E+04  0.16050003646E+04  0.25500000920E-02 0.  1.
    10030    2    1    2    0    0  0.00000000000E+00  0.00000000000E+00 -0.30858614576E+03  0.29014145835E+04  0.28849577424E+04 0.  0.
        2    1    3    3  502    0 -0.83830806340E+03 -0.86600515337E+03  0.64270460596E+03  0.13659409011E+04  0.25500000920E-02 0. -1.
       -2    1    3    3    0  502  0.83830806340E+03  0.86600515337E+03 -0.95129075173E+03  0.15354736823E+04  0.25500000920E-02 0.  1.
</event>
<event>
 5   0  0.2504260E-06  0.2955935E+04  0.7818609E-02  0.8256427E-01
       -1   -1    0    0    0  501  0.00000000000E+00  0.00000000000E+00  0.29455087563E+04  0.29455087563E+04  0.50400001928E-02 0. -1.
        1   -1    0    0  501    0  0.00000000000E+00  0.00000000000E+00 -0.74159949297E+03  0.74159949299E+03  0.50400001928E-02 0.  1.
    10030    2    1    2    0    0  0.00000000000E+00  0.00000000000E+00  0.22039092633E+04  0.36871082493E+04  0.29559349115E+04 0.  0.
        4    1    3    3  502    0 -0.12821691610E+04 -0.57458420811E+03  0.52996063641E+03  0.15016539743E+04  0.12699999809E+01 0.  1.
       -4    1    3    3    0  502  0.12821691610E+04  0.57458420811E+03  0.16739486269E+04  0.21854542750E+04  0.12699999809E+01 0. -1.
</event>
<event>
 5   0  0.7201538E-06  0.2849052E+04  0.7818609E-02  0.8288200E-01
       -2   -1    0    0    0  501  0.00000000000E+00  0.00000000000E+00  0.10281782066E+04  0.10281782066E+04  0.25500000920E-02 0. -1.
        2   -1    0    0  501    0  0.00000000000E+00  0.00000000000E+00 -0.19736597693E+04  0.19736597693E+04  0.25500000920E-02 0.  1.
    10030    2    1    2    0    0  0.00000000000E+00  0.00000000000E+00 -0.94548156270E+03  0.30018379759E+04  0.28490517454E+04 0.  0.
        3    1    3    3  502    0 -0.14172466520E+04  0.83126437961E+02 -0.34907586759E+03  0.14619685526E+04  0.10100000352E+00 0. -1.
       -3    1    3    3    0  502  0.14172466520E+04 -0.83126437961E+02 -0.59640569511E+03  0.15398694233E+04  0.10100000352E+00 0.  1.
</event>
<event>
 5   0  0.2298500E-06  0.3009129E+04  0.7818609E-02  0.8241129E-01
       -4   -1    0    0    0  501  0.00000000000E+00  0.00000000000E+00  0.14951487647E+04  0.14951493041E+04  0.12699999809E+01 0. -1.
        4   -1    0    0  501    0  0.00000000000E+00  0.00000000000E+00 -0.15140380485E+04  0.15140385811E+04  0.12699999809E+01 0.  1.
    10030    2    1    2    0    0  0.00000000000E+00  0.00000000000E+00 -0.18889283764E+02  0.30091878852E+04  0.30091285987E+04 0.  0.
        5    1    3    3  502    0 -0.10073406556E+04  0.11081337313E+04  0.13545844744E+03  0.15036843565E+04  0.46999998093E+01 0.  1.
       -5    1    3    3    0  502  0.10073406556E+04 -0.11081337313E+04 -0.15434773121E+03  0.15055035287E+04  0.46999998093E+01 0. -1.
</event>
<event>
 5   0  0.6792811E-06  0.3009556E+04  0.7818609E-02  0.8241007E-01
       -2   -1    0    0    0  501  0.00000000000E+00  0.00000000000E+00  0.91680093487E+03  0.91680093487E+03  0.25500000920E-02 0.  1.
        2   -1    0    0  501    0  0.00000000000E+00  0.00000000000E+00 -0.24698449708E+04  0.24698449708E+04  0.25500000920E-02 0. -1.
    10030    2    1    2    0    0  0.00000000000E+00  0.00000000000E+00 -0.15530440360E+04  0.33866459057E+04  0.30095555673E+04 0.  0.
        2    1    3    3  502    0 -0.57740979109E+02 -0.12443821481E+03 -0.24627937513E+04  0.24666114310E+04  0.25500000920E-02 0. -1.
       -2    1    3    3    0  502  0.57740979109E+02  0.12443821481E+03  0.90974971538E+03  0.92003447469E+03  0.25500000920E-02 0.  1.
</event>
<event>
 5   0  0.2552990E-06  0.2974826E+04  0.7818609E-02  0.8250956E-01
        1   -1    0    0  501    0  0.00000000000E+00  0.00000000000E+00  0.12610690295E+04  0.12610690295E+04  0.50400001928E-02 0.  1.
       -1   -1    0    0    0  501  0.00000000000E+00  0.00000000000E+00 -0.17543828943E+04  0.17543828943E+04  0.50400001928E-02 0. -1.
    10030    2    1    2    0    0  0.00000000000E+00  0.00000000000E+00 -0.49331386483E+03  0.30154519238E+04  0.29748263371E+04 0.  0.
        3    1    3    3  502    0  0.52743436588E+03 -0.18204216473E+03  0.11509660188E+04  0.12790813683E+04  0.10100000352E+00 0.  1.
       -3    1    3    3    0  502 -0.52743436588E+03  0.18204216473E+03 -0.16442798837E+04  0.17363705555E+04  0.10100000352E+00 0. -1.
</event>
<event>
 5   0  0.6792811E-06  0.2930880E+04  0.7818609E-02  0.8263749E-01
        2   -1    0    0  501    0  0.00000000000E+00  0.00000000000E+00  0.21209067084E+04  0.21209067084E+04  0.25500000920E-02 0. -1.
       -2   -1    0    0    0  501  0.00000000000E+00  0.00000000000E+00 -0.10125451017E+04  0.10125451017E+04  0.25500000920E-02 0.  1.
    10030    2    1    2    0    0  0.00000000000E+00  0.00000000000E+00  0.11083616066E+04  0.31334518101E+04  0.29308795258E+04 0.  0.
        2    1    3    3  502    0  0.84918753085E+03 -0.91677255209E+03 -0.26418048144E+03  0.12772559264E+04  0.25500000920E-02 0.  1.
       -2    1    3    3    0  502 -0.84918753085E+03  0.91677255209E+03  0.13725420881E+04  0.18561958836E+04  0.25500000920E-02 0. -1.
</event>
<event>
 5   0  0.2672155E-06  0.3130084E+04  0.7818609E-02  0.8207530E-01
        1   -1    0    0  501    0  0.00000000000E+00  0.00000000000E+00  0.15228893351E+04  0.15228893351E+04  0.50400001928E-02 0.  1.
       -1   -1    0    0    0  501  0.00000000000E+00  0.00000000000E+00 -0.16083612214E+04  0.16083612215E+04  0.50400001928E-02 0. -1.
    10030    2    1    2    0    0  0.00000000000E+00  0.00000000000E+00 -0.85471886312E+02  0.31312505566E+04  0.31300838016E+04 0.  0.
        5    1    3    3  502    0  0.12108677072E+03 -0.15094159122E+03 -0.15963404985E+04  0.16080330989E+04  0.46999998093E+01 0. -1.
       -5    1    3    3    0  502 -0.12108677072E+03  0.15094159122E+03  0.15108686122E+04  0.15232174577E+04  0.46999998093E+01 0.  1.
</event>
<event>
 5   0  0.2504260E-06  0.2998738E+04  0.7818609E-02  0.8244091E-01
       -1   -1    0    0    0  501  0.00000000000E+00  0.00000000000E+00  0.12235877773E+04  0.12235877773E+04  0.50400001928E-02 0.  1.
        1   -1    0    0  501    0  0.00000000000E+00  0.00000000000E+00 -0.18373080384E+04  0.18373080384E+04  0.50400001928E-02 0. -1.
    10030    2    1    2    0    0  0.00000000000E+00  0.00000000000E+00 -0.61372026107E+03  0.30608958157E+04  0.29987381740E+04 0.  0.
        4    1    3    3  502    0 -0.32919744814E+03 -0.99770158145E+03 -0.13987655053E+04  0.17493787347E+04  0.12699999809E+01 0. -1.
       -4    1    3    3    0  502  0.32919744814E+03  0.99770158145E+03  0.78504524426E+03  0.13115170811E+04  0.12699999809E+01 0.  1.
</event>
<event>
 5   0  0.7201538E-06  0.2971724E+04  0.7818609E-02  0.8251852E-01
       -2   -1    0    0    0  501  0.00000000000E+00  0.00000000000E+00  0.88702630342E+03  0.88702630343E+03  0.25500000920E-02 0. -1.
        2   -1    0    0  501    0  0.00000000000E+00  0.00000000000E+00 -0.24889737852E+04  0.24889737852E+04  0.25500000920E-02 0.  1.
    10030    2    1    2    0    0  0.00000000000E+00  0.00000000000E+00 -0.16019474817E+04  0.33760000886E+04  0.29717235511E+04 0.  0.
        3    1    3    3  502    0 -0.53887600797E+03  0.89763052222E+03  0.39681301103E+03  0.11196376567E+04  0.10100000352E+00 0. -1.
       -3    1    3    3    0  502  0.53887600797E+03 -0.89763052222E+03 -0.19987604928E+04  0.22563624319E+04  0.10100000352E+00 0.  1.
</event>
<event>
 5   0  0.2552990E-06  0.2822423E+04  0.7818609E-02  0.8296340E-01
        1   -1    0    0  501    0  0.00000000000E+00  0.00000000000E+00  0.26481380040E+04  0.26481380040E+04  0.50400001928E-02 0.  1.
       -1   -1    0    0    0  501  0.00000000000E+00  0.00000000000E+00 -0.75204483895E+03  0.75204483897E+03  0.50400001928E-02 0. -1.
    10030    2    1    2    0    0  0.00000000000E+00  0.00000000000E+00  0.18960931651E+04  0.34001828430E+04  0.28224234401E+04 0.  0.
        3    1    3    3  502    0 -0.36632826145E+03  0.66348387164E+03 -0.48606213785E+03  0.90036862180E+03  0.10100000352E+00 0. -1.
       -3    1    3    3    0  502  0.36632826145E+03 -0.66348387164E+03  0.23821553029E+04  0.24998142212E+04  0.10100000352E+00 0.  1.
</event>
<event>
 5   0  0.2422083E-06  0.2629399E+04  0.7818609E-02  0.8358283E-01
       -1   -1    0    0    0  501  0.00000000000E+00  0.00000000000E+00  0.12684694361E+04  0.12684694361E+04  0.50400001928E-02 0. -1.
        1   -1    0    0  501    0  0.00000000000E+00  0.00000000000E+00 -0.13626149090E+04  0.13626149090E+04  0.50400001928E-02 0.  1.
    10030    2    1    2    0    0  0.00000000000E+00  0.00000000000E+00 -0.94145472914E+02  0.26310843451E+04  0.26293994488E+04 0.  0.
        2    1    3    3  502    0 -0.94739685340E+03 -0.25311115189E+02 -0.95882833375E+03  0.13481666158E+04  0.25500000920E-02 0.  1.
       -2    1    3    3    0  502  0.94739685340E+03  0.25311115189E+02  0.86468286084E+03  0.12829177293E+04  0.25500000920E-02 0. -1.
</event>
<event>
 5   0  0.2422083E-06  0.2591985E+04  0.7818609E-02  0.8370929E-01
        1   -1    0    0  501    0  0.00000000000E+00  0.00000000000E+00  0.70107862598E+03  0.70107862600E+03  0.50400001928E-02 0.  1.
       -1   -1    0    0    0  501  0.00000000000E+00  0.00000000000E+00 -0.23957326614E+04  0.23957326614E+04  0.50400001928E-02 0. -1.
    10030    2    1    2    0    0  0.00000000000E+00  0.00000000000E+00 -0.16946540354E+04  0.30968112874E+04  0.25919853105E+04 0.  0.
        2    1    3    3  502    0  0.75394766823E+03  0.67273108111E+03  0.12226868990E+03  0.10178181696E+04  0.25500000920E-02 0.  1.
       -2    1    3    3    0  502 -0.75394766823E+03 -0.67273108111E+03 -0.18169227253E+04  0.20789931177E+04  0.25500000920E-02 0. -1.
</event>
<event>
 5   0  0.7193153E-06  0.3070157E+04  0.7818609E-02  0.8223976E-01
       -2   -1    0    0    0  501  0.00000000000E+00  0.00000000000E+00  0.29073356679E+04  0.29073356679E+04  0.25500000920E-02 0. -1.
        2   -1    0    0  501    0  0.00000000000E+00  0.00000000000E+00 -0.81052410143E+03  0.81052410143E+03  0.25500000920E-02 0.  1.
    10030    2    1    2    0    0  0.00000000000E+00  0.00000000000E+00  0.20968115665E+04  0.37178597693E+04  0.30701567581E+04 0.  0.
        4    1    3    3  502    0  0.47668891732E+03 -0.12493797814E+04  0.13552440285E+03  0.13440798484E+04  0.12699999809E+01 0.  1.
       -4    1    3    3    0  502 -0.47668891732E+03  0.12493797814E+04  0.19612871636E+04  0.23737799210E+04  0.12699999809E+01 0. -1.
</event>
<event>
 5   0  0.2628425E-06  0.3017822E+04  0.7818609E-02  0.8238660E-01
        1   -1    0    0  501    0  0.00000000000E+00  0.00000000000E+00  0.87909562454E+03  0.87909562455E+03  0.50400001928E-02 0.  1.
       -1   -1    0    0    0  501  0.00000000000E+00  0.00000000000E+00 -0.25899482383E+04  0.25899482383E+04  0.50400001928E-02 0. -1.
    10030    2    1    2    0    0  0.00000000000E+00  0.00000000000E+00 -0.17108526138E+04  0.34690438629E+04  0.30178218397E+04 0.  0.
        1    1    3    3  502    0  0.13696232950E+04  0.62638674475E+03 -0.74892449440E+03  0.16819976880E+04  0.50400001928E-02 0. -1.
       -1    1    3    3    0  502 -0.13696232950E+04 -0.62638674475E+03 -0.96192811936E+03  0.17870461748E+04  0.50400001928E-02 0.  1.
</event>
<event>
 5   0  0.2628425E-06  0.2364066E+04  0.7818609E-02  0.8453081E-01
        1   -1    0    0  501    0  0.00000000000E+00  0.00000000000E+00  0.13919064777E+04  0.13919064777E+04  0.50400001928E-02 0.  1.
       -1   -1    0    0    0  501  0.00000000000E+00  0.00000000000E+00 -0.10038041020E+04  0.10038041020E+04  0.50400001928E-02 0. -1.
    10030    2    1    2    0    0  0.00000000000E+00  0.00000000000E+00  0.38810237575E+03  0.23957105797E+04  0.23640655083E+04 0.  0.
        1    1    3    3  502    0 -0.37476952203E+02  0.60622731469E+03 -0.83356673178E+03  0.10313823614E+04  0.50400001928E-02 0. -1.
       -1    1    3    3    0  502  0.37476952203E+02 -0.60622731469E+03  0.12216691075E+04  0.13643282183E+04  0.50400001928E-02 0.  1.
</event>
<event>
 5   0  0.6780150E-06  0.3010954E+04  0.7818609E-02  0.8240610E-01
        2   -1    0    0  501    0  0.00000000000E+00  0.00000000000E+00  0.22709325146E+04  0.22709325146E+04  0.25500000920E-02 0.  1.
       -2   -1    0    0    0  501  0.00000000000E+00  0.00000000000E+00 -0.99803091481E+03  0.99803091482E+03  0.25500000920E-02 0. -1.
    10030    2    1    2    0    0  0.00000000000E+00  0.00000000000E+00  0.12729015997E+04  0.32689634294E+04  0.30109539053E+04 0.  0.
        5    1    3    3  502    0  0.54977763535E+03 -0.54945636816E+03  0.20362256223E+04  0.21795400028E+04  0.46999998093E+01 0.  1.
       -5    1    3    3    0  502 -0.54977763535E+03  0.54945636816E+03 -0.76332402260E+03  0.10894234265E+04  0.46999998093E+01 0. -1.
</event>
<event>
 5   0  0.7217255E-06  0.2989033E+04  0.7818609E-02  0.8246869E-01
        2   -1    0    0  501    0  0.00000000000E+00  0.00000000000E+00  0.20156658910E+04  0.20156658910E+04  0.25500000920E-02 0. -1.
       -2   -1    0    0    0  501  0.00000000000E+00  0.00000000000E+00 -0.11081101594E+04  0.11081101594E+04  0.25500000920E-02 0.  1.
    10030    2    1    2    0    0  0.00000000000E+00  0.00000000000E+00  0.90755573163E+03  0.31237760504E+04  0.29890331893E+04 0.  0.
        1    1    3    3  502    0 -0.11822446123E+04 -0.79095751578E+03  0.93299390188E+03  0.17011154388E+04  0.50400001928E-02 0. -1.
       -1    1    3    3    0  502  0.11822446123E+04  0.79095751578E+03 -0.25438170248E+02  0.14226606116E+04  0.50400001928E-02 0.  1.
</event>
<event>
 5   0  0.7217255E-06  0.2944761E+04  0.7818609E-02  0.8259683E-01
       -2   -1    0    0    0  501  0.00000000000E+00  0.00000000000E+00  0.20896193896E+04  0.20896193896E+04  0.25500000920E-02 0. -1.
        2   -1    0    0  501    0  0.00000000000E+00  0.00000000000E+00 -0.10374634423E+04  0.10374634423E+04  0.25500000920E-02 0.  1.
    10030    2    1    2    0    0  0.00000000000E+00  0.00000000000E+00  0.10521559473E+04  0.31270828320E+04  0.29447605846E+04 0.  0.
        1    1    3    3  502    0  0.50230553757E+02 -0.14580903826E+04  0.31541965785E+03  0.14926621295E+04  0.50400001928E-02 0.  1.
       -1    1    3    3    0  502 -0.50230553757E+02  0.14580903826E+04  0.73673628948E+03  0.16344207024E+04  0.50400001928E-02 0. -1.
</event>
<event>
 5   0  0.2552990E-06  0.3351719E+04  0.7818609E-02  0.8149859E-01
       -1   -1    0    0    0  501  0.00000000000E+00  0.00000000000E+00  0.12235724663E+04  0.12235724663E+04  0.50400001928E-02 0. -1.
        1   -1    0    0  501    0  0.00000000000E+00  0.00000000000E+00 -0.22953321594E+04  0.22953321594E+04  0.50400001928E-02 0.  1.
    10030    2    1    2    0    0  0.00000000000E+00  0.00000000000E+00 -0.10717596931E+04  0.35189046257E+04  0.33517190999E+04 0.  0.
        3    1    3    3  502    0 -0.77380375639E+03  0.96939228788E+03 -0.17190405009E+04  0.21198098771E+04  0.10100000352E+00 0.  1.
       -3    1    3    3    0  502  0.77380375639E+03 -0.96939228788E+03  0.64728080777E+03  0.13990947486E+04  0.10100000352E+00 0. -1.
</event>
<event>
 5   0  0.6780150E-06  0.2998282E+04  0.7818609E-02  0.8244222E-01
        2   -1    0    0  501    0  0.00000000000E+00  0.00000000000E+00  0.29157158310E+04  0.29157158310E+04  0.25500000920E-02 0. -1.
       -2   -1    0    0    0  501  0.00000000000E+00  0.00000000000E+00 -0.77079631311E+03  0.77079631312E+03  0.25500000920E-02 0.  1.
    10030    2    1    2    0    0  0.00000000000E+00  0.00000000000E+00  0.21449195179E+04  0.36865121442E+04  0.29982815162E+04 0.  0.
        5    1    3    3  502    0  0.18183924455E+03  0.79538975759E+03 -0.47387678945E+03  0.94355269005E+03  0.46999998093E+01 0.  1.
       -5    1    3    3    0  502 -0.18183924455E+03 -0.79538975759E+03  0.26187963074E+04  0.27429594541E+04  0.46999998093E+01 0. -1.
</event>
<event>
 5   0  0.6792811E-06  0.2952780E+04  0.7818609E-02  0.8257345E-01
       -2   -1    0    0    0  501  0.00000000000E+00  0.00000000000E+00  0.10961333613E+04  0.10961333613E+04  0.25500000920E-02 0.  1.
        2   -1    0    0  501    0  0.00000000000E+00  0.00000000000E+00 -0.19885601722E+04  0.19885601722E+04  0.25500000920E-02 0. -1.
    10030    2    1    2    0    0  0.00000000000E+00  0.00000000000E+00 -0.89242681090E+03  0.30846935336E+04  0.29527798061E+04 0.  0.
        2    1    3    3  502    0  0.11652795226E+04  0.80201575706E+03 -0.88773081561E+03  0.16700813278E+04  0.25500000920E-02 0. -1.
       -2    1    3    3    0  502 -0.11652795226E+04 -0.80201575706E+03 -0.46959952836E+01  0.14146122058E+04  0.25500000920E-02 0.  1.
</event>
<event>
 5   0  0.2672155E-06  0.3007179E+04  0.7818609E-02  0.8241684E-01
        1   -1    0    0  501    0  0.00000000000E+00  0.00000000000E+00  0.18407032168E+04  0.18407032168E+04  0.50400001928E-02 0.  1.
       -1   -1    0    0    0  501  0.00000000000E+00  0.00000000000E+00 -0.12282158981E+04  0.12282158981E+04  0.50400001928E-02 0. -1.
    10030    2    1    2    0    0  0.00000000000E+00  0.00000000000E+00  0.61248731873E+03  0.30689191150E+04  0.30071787141E+04 0.  0.
        5    1    3    3  502    0  0.28905561200E+03 -0.11426852966E+04  0.12589387494E+04  0.17245960972E+04  0.46999998093E+01 0.  1.
       -5    1    3    3    0  502 -0.28905561200E+03  0.11426852966E+04 -0.64645143063E+03  0.13443230177E+04  0.46999998093E+01 0. -1.
</event>
<event>
 5   0  0.7217255E-06  0.3077030E+04  0.7818609E-02  0.8222070E-01
        2   -1    0    0  501    0  0.00000000000E+00  0.00000000000E+00  0.12581301347E+04  0.12581301347E+04  0.25500000920E-02 0.  1.
       -2   -1    0    0    0  501  0.00000000000E+00  0.00000000000E+00 -0.18813864040E+04  0.18813864040E+04  0.25500000920E-02 0. -1.
    10030    2    1    2    0    0  0.00000000000E+00  0.00000000000E+00 -0.62325626938E+03  0.31395165387E+04  0.30770303410E+04 0.  0.
        1    1    3    3  502    0  0.26113058336E+03 -0.15140138800E+04 -0.22872717972E+03  0.15533007864E+04  0.50400001928E-02 0. -1.
       -1    1    3    3    0  502 -0.26113058336E+03  0.15140138800E+04 -0.39452908967E+03  0.15862157523E+04  0.50400001928E-02 0.  1.
</event>
<event>
 5   0  0.7193153E-06  0.2964674E+04  0.7818609E-02  0.8253891E-01
        2   -1    0    0  501    0  0.00000000000E+00  0.00000000000E+00  0.11403359406E+04  0.11403359406E+04  0.25500000920E-02 0. -1.
       -2   -1    0    0    0  501  0.00000000000E+00  0.00000000000E+00 -0.19269083868E+04  0.19269083868E+04  0.25500000920E-02 0.  1.
    10030    2    1    2    0    0  0.00000000000E+00  0.00000000000E+00 -0.78657244624E+03  0.30672443274E+04  0.29646739366E+04 0.  0.
        4    1    3    3  502    0  0.11985351071E+04 -0.49577295867E+03 -0.11357813741E+04  0.17240296320E+04  0.12699999809E+01 0.  1.
       -4    1    3    3    0  502 -0.11985351071E+04  0.49577295867E+03  0.34920892782E+03  0.13432146953E+04  0.12699999809E+01 0. -1.
</event>
<event>
 5   0  0.7217255E-06  0.2997460E+04  0.7818609E-02  0.8244457E-01
       -2   -1    0    0    0  501  0.00000000000E+00  0.00000000000E+00  0.96297661945E+03  0.96297661946E+03  0.25500000920E-02 0. -1.
        2   -1    0    0  501    0  0.00000000000E+00  0.00000000000E+00 -0.23325498368E+04  0.23325498368E+04  0.25500000920E-02 0.  1.
    10030    2    1    2    0    0  0.00000000000E+00  0.00000000000E+00 -0.13695732174E+04  0.32955264563E+04  0.29974595621E+04 0.  0.
        1    1    3    3  502    0 -0.12963785027E+04 -0.88167984820E+02  0.13635595653E+03  0.13065082330E+04  0.50400001928E-02 0. -1.
       -1    1    3    3    0  502  0.12963785027E+04  0.88167984820E+02 -0.15059291739E+04  0.19890182233E+04  0.50400001928E-02 0.  1.
</event>
<event>
 5   0  0.6792811E-06  0.2978773E+04  0.7818609E-02  0.8249818E-01
       -2   -1    0    0    0  501  0.00000000000E+00  0.00000000000E+00  0.12203764777E+04  0.12203764777E+04  0.25500000920E-02 0.  1.
        2   -1    0    0  501    0  0.00000000000E+00  0.00000000000E+00 -0.18176948471E+04  0.18176948471E+04  0.25500000920E-02 0. -1.
    10030    2    1    2    0    0  0.00000000000E+00  0.00000000000E+00 -0.59731836947E+03  0.30380713248E+04  0.29787729252E+04 0.  0.
        2    1    3    3  502    0  0.24568516196E+03 -0.14192602500E+04 -0.68516380646E+03  0.15950267389E+04  0.25500000920E-02 0. -1.
       -2    1    3    3    0  502 -0.24568516196E+03  0.14192602500E+04  0.87845436989E+02  0.14430445859E+04  0.25500000920E-02 0.  1.
</event>
<event>
 5   0  0.2422083E-06  0.2981170E+04  0.7818609E-02  0.8249129E-01
        1   -1    0    0  501    0  0.00000000000E+00  0.00000000000E+00  0.98088287521E+03  0.98088287522E+03  0.50400001928E-02 0. -1.
       -1   -1    0    0    0  501  0.00000000000E+00  0.00000000000E+00 -0.22651462522E+04  0.22651462522E+04  0.50400001928E-02 0.  1.
    10030    2    1    2    0    0  0.00000000000E+00  0.00000000000E+00 -0.12842633770E+04  0.32460291275E+04  0.29811696823E+04 0.  0.
        2    1    3    3  502    0  0.35721635400E+03  0.65971106530E+02  0.93194963657E+03  0.10002428883E+04  0.25500000920E-02 0. -1.
       -2    1    3    3    0  502 -0.35721635400E+03 -0.65971106530E+02 -0.22162130136E+04  0.22457862392E+04  0.25500000920E-02 0.  1.
</event>
<event>
 5   0  0.2422083E-06  0.3013600E+04  0.7818609E-02  0.8239858E-01
        1   -1    0    0  501    0  0.00000000000E+00  0.00000000000E+00  0.10633500278E+04  0.10633500278E+04  0.50400001928E-02 0. -1.
       -1   -1    0    0    0  501  0.00000000000E+00  0.00000000000E+00 -0.21351825445E+04  0.21351825445E+04  0.50400001928E-02 0.  1.
    10030    2    1    2    0    0  0.00000000000E+00  0.00000000000E+00 -0.10718325167E+04  0.31985325723E+04  0.30136001182E+04 0.  0.
        2    1    3    3  502    0  0.11266429768E+04  0.36951681160E+03  0.45097109110E+03  0.12685590235E+04  0.25500000920E-02 0.  1.
       -2    1    3    3    0  502 -0.11266429768E+04 -0.36951681160E+03 -0.15228036078E+04  0.19299735488E+04  0.25500000920E-02 0. -1.
</event>
<event>
 5   0  0.7217255E-06  0.2973769E+04  0.7818609E-02  0.8251261E-01
        2   -1    0    0  501    0  0.00000000000E+00  0.00000000000E+00  0.13623045678E+04  0.13623045678E+04  0.25500000920E-02 0.  1.
       -2   -1    0    0    0  501  0.00000000000E+00  0.00000000000E+00 -0.16228566792E+04  0.16228566792E+04  0.25500000920E-02 0. -1.
    10030    2    1    2    0    0  0.00000000000E+00  0.00000000000E+00 -0.26055211139E+03  0.29851612471E+04  0.29737686978E+04 0.  0.
        1    1    3    3  502    0 -0.12358394089E+04  0.51259989363E+03  0.52087483174E+03  0.14357465953E+04  0.50400001928E-02 0. -1.
       -1    1    3    3    0  502  0.12358394089E+04 -0.51259989363E+03 -0.78142694313E+03  0.15494146517E+04  0.50400001928E-02 0.  1.
</event>
<event>
 5   0  0.2628425E-06  0.3001803E+04  0.7818609E-02  0.8243216E-01
       -1   -1    0    0    0  501  0.00000000000E+00  0.00000000000E+00  0.17184874401E+04  0.17184874401E+04  0.50400001928E-02 0. -1.
        1   -1    0    0  501    0  0.00000000000E+00  0.00000000000E+00 -0.13108653153E+04  0.13108653153E+04  0.50400001928E-02 0.  1.
    10030    2    1    2    0    0  0.00000000000E+00  0.00000000000E+00  0.40762212477E+03  0.30293527554E+04  0.30018031781E+04 0.  0.
        1    1    3    3  502    0  0.55692845824E+02  0.11544225268E+04 -0.76253256181E+03  0.13846475982E+04  0.50400001928E-02 0.  1.
       -1    1    3    3    0  502 -0.55692845824E+02 -0.11544225268E+04  0.11701546866E+04  0.16447051571E+04  0.50400001928E-02 0. -1.
</event>
<event>
 5   0  0.2672155E-06  0.3009150E+04  0.7818609E-02  0.8241123E-01
        1   -1    0    0  501    0  0.00000000000E+00  0.00000000000E+00  0.16629706039E+04  0.16629706039E+04  0.50400001928E-02 0. -1.
       -1   -1    0    0    0  501  0.00000000000E+00  0.00000000000E+00 -0.13612662602E+04  0.13612662602E+04  0.50400001928E-02 0.  1.
    10030    2    1    2    0    0  0.00000000000E+00  0.00000000000E+00  0.30170434373E+03  0.30242368641E+04  0.30091498964E+04 0.  0.
        5    1    3    3  502    0 -0.13299052019E+04  0.63007182532E+03 -0.16390382811E+03  0.14807176997E+04  0.46999998093E+01 0.  1.
       -5    1    3    3    0  502  0.13299052019E+04 -0.63007182532E+03  0.46560817183E+03  0.15435191644E+04  0.46999998093E+01 0. -1.
</event>
<event>
 5   0  0.7201538E-06  0.3012855E+04  0.7818609E-02  0.8240070E-01
        2   -1    0    0  501    0  0.00000000000E+00  0.00000000000E+00  0.17589931449E+04  0.17589931449E+04  0.25500000920E-02 0. -1.
       -2   -1    0    0    0  501  0.00000000000E+00  0.00000000000E+00 -0.12901264806E+04  0.12901264806E+04  0.25500000920E-02 0.  1.
    10030    2    1    2    0    0  0.00000000000E+00  0.00000000000E+00  0.46886666429E+03  0.30491196255E+04  0.30128548823E+04 0.  0.
        3    1    3    3  502    0 -0.39820275483E+03  0.16808784044E+03  0.16948919015E+04  0.17491362223E+04  0.10100000352E+00 0. -1.
       -3    1    3    3    0  502  0.39820275483E+03 -0.16808784044E+03 -0.12260252373E+04  0.12999834032E+04  0.10100000352E+00 0.  1.
</event>
<event>
 5   0  0.2504260E-06  0.3036027E+04  0.7818609E-02  0.8233517E-01
        1   -1    0    0  501    0  0.00000000000E+00  0.00000000000E+00  0.23758440603E+04  0.23758440603E+04  0.50400001928E-02 0. -1.
       -1   -1    0    0    0  501  0.00000000000E+00  0.00000000000E+00 -0.96991435056E+03  0.96991435058E+03  0.50400001928E-02 0.  1.
    10030    2    1    2    0    0  0.00000000000E+00  0.00000000000E+00  0.14059297097E+04  0.33457584108E+04  0.30360271730E+04 0.  0.
        4    1    3    3  502    0  0.83128655636E+03 -0.17052173703E+03 -0.68411222299E+03  0.10900119945E+04  0.12699999809E+01 0.  1.
       -4    1    3    3    0  502 -0.83128655636E+03  0.17052173703E+03  0.20900419327E+04  0.22557464163E+04  0.12699999809E+01 0. -1.
</event>
<event>
 5   0  0.6792811E-06  0.2980633E+04  0.7818609E-02  0.8249283E-01
        2   -1    0    0  501    0  0.00000000000E+00  0.00000000000E+00  0.14713763054E+04  0.14713763054E+04  0.25500000920E-02 0. -1.
       -2   -1    0    0    0  501  0.00000000000E+00  0.00000000000E+00 -0.15095009320E+04  0.15095009320E+04  0.25500000920E-02 0.  1.
    10030    2    1    2    0    0  0.00000000000E+00  0.00000000000E+00 -0.38124626618E+02  0.29808772375E+04  0.29806334256E+04 0.  0.
        2    1    3    3  502    0 -0.92438087385E+03 -0.73132776949E+03 -0.93112572746E+03  0.15021036671E+04  0.25500000920E-02 0.  1.
       -2    1    3    3    0  502  0.92438087385E+03  0.73132776949E+03  0.89300110084E+03  0.14787735704E+04  0.25500000920E-02 0. -1.
</event>
<event>
 5   0  0.2504260E-06  0.2979939E+04  0.7818609E-02  0.8249483E-01
       -1   -1    0    0    0  501  0.00000000000E+00  0.00000000000E+00  0.10630832692E+04  0.10630832692E+04  0.50400001928E-02 0.  1.
        1   -1    0    0  501    0  0.00000000000E+00  0.00000000000E+00 -0.20882733253E+04  0.20882733253E+04  0.50400001928E-02 0. -1.
    10030    2    1    2    0    0  0.00000000000E+00  0.00000000000E+00 -0.10251900561E+04  0.31513565945E+04  0.29799385455E+04 0.  0.
        4    1    3    3  502    0 -0.16295822331E+03 -0.84851708118E+03 -0.17962872795E+04  0.19932852839E+04  0.12699999809E+01 0. -1.
       -4    1    3    3    0  502  0.16295822331E+03  0.84851708118E+03  0.77109722343E+03  0.11580713106E+04  0.12699999809E+01 0.  1.
</event>
<event>
 5   0  0.2628425E-06  0.3019602E+04  0.7818609E-02  0.8238155E-01
        1   -1    0    0  501    0  0.00000000000E+00  0.00000000000E+00  0.22724418508E+04  0.22724418508E+04  0.50400001928E-02 0.  1.
       -1   -1    0    0    0  501  0.00000000000E+00  0.00000000000E+00 -0.10031058404E+04  0.10031058404E+04  0.50400001928E-02 0. -1.
    10030    2    1    2    0    0  0.00000000000E+00  0.00000000000E+00  0.12693360103E+04  0.32755476912E+04  0.30196024192E+04 0.  0.
        1    1    3    3  502    0 -0.12535056886E+04  0.78055934607E+03  0.29344155005E+03  0.15055422105E+04  0.50400001928E-02 0. -1.
       -1    1    3    3    0  502  0.12535056886E+04 -0.78055934607E+03  0.97589446029E+03  0.17700054807E+04  0.50400001928E-02 0.  1.
</event>
<event>
 5   0  0.6780150E-06  0.3002298E+04  0.7818609E-02  0.8243075E-01
       -2   -1    0    0    0  501  0.00000000000E+00  0.00000000000E+00  0.20115034349E+04  0.20115034349E+04  0.25500000920E-02 0. -1.
        2   -1    0    0  501    0  0.00000000000E+00  0.00000000000E+00 -0.11202805193E+04  0.11202805193E+04  0.25500000920E-02 0.  1.
    10030    2    1    2    0    0  0.00000000000E+00  0.00000000000E+00  0.89122291555E+03  0.31317839542E+04  0.30022978618E+04 0.  0.
        5    1    3    3  502    0  0.13165127889E+04  0.40279726425E+03 -0.17850270929E+03  0.13882855854E+04  0.46999998093E+01 0.  1.
       -5    1    3    3    0  502 -0.13165127889E+04 -0.40279726425E+03  0.10697256248E+04  0.17434983688E+04  0.46999998093E+01 0. -1.
</event>
<event>
 5   0  0.2552990E-06  0.2975923E+04  0.7818609E-02  0.8250640E-01
       -1   -1    0    0    0  501  0.00000000000E+00  0.00000000000E+00  0.20634278842E+04  0.20634278842E+04  0.50400001928E-02 0. -1.
        1   -1    0    0  501    0  0.00000000000E+00  0.00000000000E+00 -0.10729859052E+04  0.10729859052E+04  0.50400001928E-02 0.  1.
    10030    2    1    2    0    0  0.00000000000E+00  0.00000000000E+00  0.99044197894E+03  0.31364137894E+04  0.29759227384E+04 0.  0.
        3    1    3    3  502    0 -0.62478634945E+03  0.10469180458E+04  0.13942383744E+04  0.18521058371E+04  0.10100000352E+00 0. -1.
       -3    1    3    3    0  502  0.62478634945E+03 -0.10469180458E+04 -0.40379639546E+03  0.12843079523E+04  0.10100000352E+00 0.  1.
</event>
<event>
 5   0  0.2552990E-06  0.2971447E+04  0.7818609E-02  0.8251932E-01
        1   -1    0    0  501    0  0.00000000000E+00  0.00000000000E+00  0.16344817246E+04  0.16344817246E+04  0.50400001928E-02 0. -1.
       -1   -1    0    0    0  501  0.00000000000E+00  0.00000000000E+00 -0.13505045156E+04  0.13505045156E+04  0.50400001928E-02 0.  1.
    10030    2    1    2    0    0  0.00000000000E+00  0.00000000000E+00  0.28397720902E+03  0.29849862403E+04  0.29714474250E+04 0.  0.
        3    1    3    3  502    0 -0.85286428836E+03 -0.64008531166E+03 -0.89727246641E+03  0.13936228291E+04  0.10100000352E+00 0.  1.
       -3    1    3    3    0  502  0.85286428836E+03  0.64008531166E+03  0.11812496754E+04  0.15913634112E+04  0.10100000352E+00 0. -1.
</event>
<event>
 5   0  0.6792811E-06  0.3011336E+04  0.7818609E-02  0.8240501E-01
       -2   -1    0    0    0  501  0.00000000000E+00  0.00000000000E+00  0.13971537581E+04  0.13971537581E+04  0.25500000920E-02 0. -1.
        2   -1    0    0  501    0  0.00000000000E+00  0.00000000000E+00 -0.16226108181E+04  0.16226108181E+04  0.25500000920E-02 0.  1.
    10030    2    1    2    0    0  0.00000000000E+00  0.00000000000E+00 -0.22545706000E+03  0.30197645761E+04  0.30113364491E+04 0.  0.
        2    1    3    3  502    0  0.86460650523E+03 -0.12304032650E+04 -0.37684606175E+02  0.15042794730E+04  0.25500000920E-02 0. -1.
       -2    1    3    3    0  502 -0.86460650523E+03  0.12304032650E+04 -0.18777245382E+03  0.15154851031E+04  0.25500000920E-02 0.  1.
</event>
<event>
 5   0  0.7193153E-06  0.3056857E+04  0.7818609E-02  0.8227679E-01
       -2   -1    0    0    0  501  0.00000000000E+00  0.00000000000E+00  0.20599837930E+04  0.20599837930E+04  0.25500000920E-02 0. -1.
        2   -1    0    0  501    0  0.00000000000E+00  0.00000000000E+00 -0.11340346610E+04  0.11340346610E+04  0.25500000920E-02 0.  1.
    10030    2    1    2    0    0  0.00000000000E+00  0.00000000000E+00  0.92594913205E+03  0.31940184540E+04  0.30568565700E+04 0.  0.
        4    1    3    3  502    0 -0.81017022113E+03  0.94543992025E+03 -0.46328918664E+03  0.13284844423E+04  0.12699999809E+01 0.  1.
       -4    1    3    3    0  502  0.81017022113E+03 -0.94543992025E+03  0.13892383187E+04  0.18655340118E+04  0.12699999809E+01 0. -1.
</event>
<event>
 5   0  0.2552990E-06  0.3053231E+04  0.7818609E-02  0.8228692E-01
       -1   -1    0    0    0  501  0.00000000000E+00  0.00000000000E+00  0.11321142898E+04  0.11321142898E+04  0.50400001928E-02 0. -1.
        1   -1    0    0  501    0  0.00000000000E+00  0.00000000000E+00 -0.20585866765E+04  0.20585866765E+04  0.50400001928E-02 0.  1.
    10030    2    1    2    0    0  0.00000000000E+00  0.00000000000E+00 -0.92647238670E+03  0.31907009664E+04  0.30532313331E+04 0.  0.
        3    1    3    3  502    0  0.80295107733E+03 -0.61325182785E+03 -0.16592057469E+04  0.19426198696E+04  0.10100000352E+00 0.  1.
       -3    1    3    3    0  502 -0.80295107733E+03  0.61325182785E+03  0.73273336018E+03  0.12480810968E+04  0.10100000352E+00 0. -1.
</event>
<event>
 5   0  0.6792811E-06  0.2976864E+04  0.7818609E-02  0.8250368E-01
       -2   -1    0    0    0  501  0.00000000000E+00  0.00000000000E+00  0.13377788791E+04  0.13377788791E+04  0.25500000920E-02 0.  1.
        2   -1    0    0  501    0  0.00000000000E+00  0.00000000000E+00 -0.16560513022E+04  0.16560513022E+04  0.25500000920E-02 0. -1.
    10030    2    1    2    0    0  0.00000000000E+00  0.00000000000E+00 -0.31827242311E+03  0.29938301813E+04  0.29768644274E+04 0.  0.
        2    1    3    3  502    0  0.98505558011E+03 -0.11063412031E+04 -0.13032306095E+02  0.14813828656E+04  0.25500000920E-02 0. -1.
       -2    1    3    3    0  502 -0.98505558011E+03  0.11063412031E+04 -0.30524011701E+03  0.15124473156E+04  0.25500000920E-02 0.  1.
</event>
<event>
 5   0  0.7193153E-06  0.3056213E+04  0.7818609E-02  0.8227859E-01
        2   -1    0    0  501    0  0.00000000000E+00  0.00000000000E+00  0.18751505084E+04  0.18751505084E+04  0.25500000920E-02 0.  1.
       -2   -1    0    0    0  501  0.00000000000E+00  0.00000000000E+00 -0.12452919755E+04  0.12452919755E+04  0.25500000920E-02 0. -1.
    10030    2    1    2    0    0  0.00000000000E+00  0.00000000000E+00  0.62985853291E+03  0.31204424838E+04  0.30562132654E+04 0.  0.
        4    1    3    3  502    0 -0.62526033859E+03 -0.13942723286E+04  0.30191579284E+03  0.15575944839E+04  0.12699999809E+01 0. -1.
       -4    1    3    3    0  502  0.62526033859E+03  0.13942723286E+04  0.32794274006E+03  0.15628480000E+04  0.12699999809E+01 0.  1.
</event>
<event>
 5   0  0.7201538E-06  0.3032114E+04  0.7818609E-02  0.8234619E-01
        2   -1    0    0  501    0  0.00000000000E+00  0.00000000000E+00  0.21434546060E+04  0.21434546060E+04  0.25500000920E-02 0.  1.
       -2   -1    0    0    0  501  0.00000000000E+00  0.00000000000E+00 -0.10723013779E+04  0.10723013779E+04  0.25500000920E-02 0. -1.
    10030    2    1    2    0    0  0.00000000000E+00  0.00000000000E+00  0.10711532281E+04  0.32157559839E+04  0.30321143299E+04 0.  0.
        3    1    3    3  502    0 -0.12639263258E+04  0.65079301070E+03  0.10941514437E+04  0.17939366465E+04  0.10100000352E+00 0.  1.
       -3    1    3    3    0  502  0.12639263258E+04 -0.65079301070E+03 -0.22998215508E+02  0.14218193373E+04  0.10100000352E+00 0. -1.
</event>
<event>
 5   0  0.2552990E-06  0.2998564E+04  0.7818609E-02  0.8244141E-01
       -1   -1    0    0    0  501  0.00000000000E+00  0.00000000000E+00  0.12183491073E+04  0.12183491073E+04  0.50400001928E-02 0. -1.
        1   -1    0    0  501    0  0.00000000000E+00  0.00000000000E+00 -0.18449932609E+04  0.18449932609E+04  0.50400001928E-02 0.  1.
    10030    2    1    2    0    0  0.00000000000E+00  0.00000000000E+00 -0.62664415360E+03  0.30633423682E+04  0.29985635843E+04 0.  0.
        3    1    3    3  502    0 -0.82650775358E+03  0.85904226533E+03  0.61559408995E+03  0.13416500193E+04  0.10100000352E+00 0. -1.
       -3    1    3    3    0  502  0.82650775358E+03 -0.85904226533E+03 -0.12422382436E+04  0.17216923489E+04  0.10100000352E+00 0.  1.
</event>
<event>
 5   0  0.6792811E-06  0.3010249E+04  0.7818609E-02  0.8240810E-01
       -2   -1    0    0    0  501  0.00000000000E+00  0.00000000000E+00  0.94816674913E+03  0.94816674913E+03  0.25500000920E-02 0.  1.
        2   -1    0    0  501    0  0.00000000000E+00  0.00000000000E+00 -0.23892414849E+04  0.23892414849E+04  0.25500000920E-02 0. -1.
    10030    2    1    2    0    0  0.00000000000E+00  0.00000000000E+00 -0.14410747358E+04  0.33374082341E+04  0.30102487151E+04 0.  0.
        2    1    3    3  502    0  0.48882624299E+03 -0.89716194798E+03 -0.19458935378E+04  0.21978062511E+04  0.25500000920E-02 0. -1.
       -2    1    3    3    0  502 -0.48882624299E+03  0.89716194798E+03  0.50481880201E+03  0.11396019830E+04  0.25500000920E-02 0.  1.
</event>
<event>
 5   0  0.2298500E-06  0.3014176E+04  0.7818609E-02  0.8239694E-01
       -3   -1    0    0    0  501  0.00000000000E+00  0.00000000000E+00  0.17151029289E+04  0.17151029318E+04  0.10100000352E+00 0.  1.
        3   -1    0    0  501    0  0.00000000000E+00  0.00000000000E+00 -0.13243024308E+04  0.13243024346E+04  0.10100000352E+00 0. -1.
    10030    2    1    2    0    0  0.00000000000E+00  0.00000000000E+00  0.39080049808E+03  0.30394053665E+04  0.30141764965E+04 0.  0.
        1    1    3    3  502    0  0.62989439204E+03  0.28561644414E+02 -0.11849004748E+04  0.13422264518E+04  0.50400001928E-02 0. -1.
       -1    1    3    3    0  502 -0.62989439204E+03 -0.28561644414E+02  0.15757009728E+04  0.16971789147E+04  0.50400001928E-02 0.  1.
</event>
<event>
 5   0  0.2504260E-06  0.2989926E+04  0.7818609E-02  0.8246613E-01
        1   -1    0    0  501    0  0.00000000000E+00  0.00000000000E+00  0.85979258695E+03  0.85979258697E+03  0.50400001928E-02 0. -1.
       -1   -1    0    0    0  501  0.00000000000E+00  0.00000000000E+00 -0.25993650966E+04  0.25993650966E+04  0.50400001928E-02 0.  1.
    10030    2    1    2    0    0  0.00000000000E+00  0.00000000000E+00 -0.17395725097E+04  0.34591576836E+04  0.29899263141E+04 0.  0.
        4    1    3    3  502    0 -0.10827285154E+03  0.31754585651E+03  0.81567538562E+03  0.88197864429E+03  0.12699999809E+01 0. -1.
       -4    1    3    3    0  502  0.10827285154E+03 -0.31754585651E+03 -0.25552478953E+04  0.25771790393E+04  0.12699999809E+01 0.  1.
</event>
<event>
 5   0  0.6792811E-06  0.3044355E+04  0.7818609E-02  0.8231177E-01
       -2   -1    0    0    0  501  0.00000000000E+00  0.00000000000E+00  0.14655704239E+04  0.14655704239E+04  0.25500000920E-02 0. -1.
        2   -1    0    0  501    0  0.00000000000E+00  0.00000000000E+00 -0.15809710468E+04  0.15809710468E+04  0.25500000920E-02 0.  1.
    10030    2    1    2    0    0  0.00000000000E+00  0.00000000000E+00 -0.11540062292E+03  0.30465414707E+04  0.30443550432E+04 0.  0.
        2    1    3    3  502    0 -0.44181292423E+03  0.14548681845E+04 -0.12975419563E+03  0.15260000805E+04  0.25500000920E-02 0.  1.
       -2    1    3    3    0  502  0.44181292423E+03 -0.14548681845E+04  0.14353572707E+02  0.15205413902E+04  0.25500000920E-02 0. -1.
</event>
<event>
 5   0  0.2672155E-06  0.2872515E+04  0.7818609E-02  0.8281102E-01
       -1   -1    0    0    0  501  0.00000000000E+00  0.00000000000E+00  0.11648168743E+04  0.11648168743E+04  0.50400001928E-02 0. -1.
        1   -1    0    0  501    0  0.00000000000E+00  0.00000000000E+00 -0.17709527186E+04  0.17709527186E+04  0.50400001928E-02 0.  1.
    10030    2    1    2    0    0  0.00000000000E+00  0.00000000000E+00 -0.60613584429E+03  0.29357695930E+04  0.28725150028E+04 0.  0.
        5    1    3    3  502    0 -0.69927671618E+03 -0.83960100766E+03  0.64960428825E+03  0.12711906227E+04  0.46999998093E+01 0. -1.
       -5    1    3    3    0  502  0.69927671618E+03  0.83960100766E+03 -0.12557401325E+04  0.16645789703E+04  0.46999998093E+01 0.  1.
</event>
<event>
 5   0  0.2672155E-06  0.3008711E+04  0.7818609E-02  0.8241248E-01
       -1   -1    0    0    0  501  0.00000000000E+00  0.00000000000E+00  0.22556261556E+04  0.22556261556E+04  0.50400001928E-02 0. -1.
        1   -1    0    0  501    0  0.00000000000E+00  0.00000000000E+00 -0.10033071748E+04  0.10033071748E+04  0.50400001928E-02 0.  1.
    10030    2    1    2    0    0  0.00000000000E+00  0.00000000000E+00  0.12523189808E+04  0.32589333304E+04  0.30087112893E+04 0.  0.
        5    1    3    3  502    0  0.65829735886E+03 -0.11257908350E+04  0.14383919000E+04  0.19415853740E+04  0.46999998093E+01 0. -1.
       -5    1    3    3    0  502 -0.65829735886E+03  0.11257908350E+04 -0.18607291920E+03  0.13173479563E+04  0.46999998093E+01 0.  1.
</event>
<event>
 5   0  0.2552990E-06  0.2961665E+04  0.7818609E-02  0.8254763E-01
        1   -1    0    0  501    0  0.00000000000E+00  0.00000000000E+00  0.17721075738E+04  0.17721075738E+04  0.50400001928E-02 0. -1.
       -1   -1    0    0    0  501  0.00000000000E+00  0.00000000000E+00 -0.12374332211E+04  0.12374332211E+04  0.50400001928E-02 0.  1.
    10030    2    1    2    0    0  0.00000000000E+00  0.00000000000E+00  0.53467435270E+03  0.30095407950E+04  0.29616649259E+04 0.  0.
        3    1    3    3  502    0  0.12188946063E+04  0.36772829342E+03 -0.50115289777E+03  0.13682406207E+04  0.10100000352E+00 0.  1.
       -3    1    3    3    0  502 -0.12188946063E+04 -0.36772829342E+03  0.10358272505E+04  0.16413001743E+04  0.10100000352E+00 0. -1.
</event>
<event>
 5   0  0.2422083E-06  0.3053221E+04  0.7818609E-02  0.8228694E-01
       -1   -1    0    0    0  501  0.00000000000E+00  0.00000000000E+00  0.17534686525E+04  0.17534686525E+04  0.50400001928E-02 0. -1.
        1   -1    0    0  501    0  0.00000000000E+00  0.00000000000E+00 -0.13291028918E+04  0.13291028918E+04  0.50400001928E-02 0.  1.
    10030    2    1    2    0    0  0.00000000000E+00  0.00000000000E+00  0.42436576072E+03  0.30825715442E+04  0.30532214179E+04 0.  0.
        2    1    3    3  502    0  0.25046799791E+03  0.14779912026E+04  0.50365872544E+03  0.15814121299E+04  0.25500000920E-02 0.  1.
       -2    1    3    3    0  502 -0.25046799791E+03 -0.14779912026E+04 -0.79292964720E+02  0.15011594143E+04  0.25500000920E-02 0. -1.
</event>
<event>
 5   0  0.6780150E-06  0.3027100E+04  0.7818609E-02  0.8236034E-01
       -2   -1    0    0    0  501  0.00000000000E+00  0.00000000000E+00  0.90851248299E+03  0.90851248300E+03  0.25500000920E-02 0.  1.
        2   -1    0    0  501    0  0.00000000000E+00  0.00000000000E+00 -0.25215214564E+04  0.25215214564E+04  0.25500000920E-02 0. -1.
    10030    2    1    2    0    0  0.00000000000E+00  0.00000000000E+00 -0.16130089734E+04  0.34300339394E+04  0.30271000771E+04 0.  0.
        5    1    3    3  502    0  0.41860938258E+03  0.95379739464E+03 -0.20507840950E+04  0.23001523383E+04  0.46999998093E+01 0. -1.
       -5    1    3    3    0  502 -0.41860938258E+03 -0.95379739464E+03  0.43777512165E+03  0.11298816010E+04  0.46999998093E+01 0.  1.
</event>
<event>
 5   0  0.2504260E-06  0.3062113E+04  0.7818609E-02  0.8226213E-01
       -1   -1    0    0    0  501  0.00000000000E+00  0.00000000000E+00  0.14990830522E+04  0.14990830522E+04  0.50400001928E-02 0.  1.
        1   -1    0    0  501    0  0.00000000000E+00  0.00000000000E+00 -0.15637121519E+04  0.15637121519E+04  0.50400001928E-02 0. -1.
    10030    2    1    2    0    0  0.00000000000E+00  0.00000000000E+00 -0.64629099705E+02  0.30627952042E+04  0.30621132478E+04 0.  0.
        4    1    3    3  502    0  0.10585424135E+04 -0.86777957361E+03  0.65382608428E+03  0.15169191115E+04  0.12699999809E+01 0.  1.
       -4    1    3    3    0  502 -0.10585424135E+04  0.86777957361E+03 -0.71845518399E+03  0.15458760926E+04  0.12699999809E+01 0. -1.
</event>
<event>
 5   0  0.2672155E-06  0.2969284E+04  0.7818609E-02  0.8252557E-01
       -1   -1    0    0    0  501  0.00000000000E+00  0.00000000000E+00  0.12026135384E+04  0.12026135384E+04  0.50400001928E-02 0.  1.
        1   -1    0    0  501    0  0.00000000000E+00  0.00000000000E+00 -0.18328092830E+04  0.18328092830E+04  0.50400001928E-02 0. -1.
    10030    2    1    2    0    0  0.00000000000E+00  0.00000000000E+00 -0.63019574454E+03  0.30354228214E+04  0.29692835884E+04 0.  0.
        5    1    3    3  502    0  0.64020316009E+03  0.26898653762E+03 -0.16565484400E+04  0.17962150950E+04  0.46999998093E+01 0. -1.
       -5    1    3    3    0  502 -0.64020316009E+03 -0.26898653762E+03  0.10263526955E+04  0.12392077264E+04  0.46999998093E+01 0.  1.
</event>
<event>
 5   0  0.6792811E-06  0.2992337E+04  0.7818609E-02  0.8245922E-01
       -2   -1    0    0    0  501  0.00000000000E+00  0.00000000000E+00  0.13758090783E+04  0.13758090783E+04  0.25500000920E-02 0. -1.
        2   -1    0    0  501    0  0.00000000000E+00  0.00000000000E+00 -0.16270575555E+04  0.16270575555E+04  0.25500000920E-02 0.  1.
    10030    2    1    2    0    0  0.00000000000E+00  0.00000000000E+00 -0.25124847721E+03  0.30028666338E+04  0.29923372509E+04 0.  0.
        2    1    3    3  502    0  0.79220622647E+03 -0.13131328065E+03 -0.13924794308E+04  0.16074305112E+04  0.25500000920E-02 0.  1.
       -2    1    3    3    0  502 -0.79220622647E+03  0.13131328065E+03  0.11412309536E+04  0.13954361227E+04  0.25500000920E-02 0. -1.
</event>
<event>
 5   0  0.2422083E-06  0.2401122E+04  0.7818609E-02  0.8439084E-01
       -1   -1    0    0    0  501  0.00000000000E+00  0.00000000000E+00  0.84733682911E+03  0.84733682912E+03  0.50400001928E-02 0.  1.
        1   -1    0    0  501    0  0.00000000000E+00  0.00000000000E+00 -0.17010311179E+04  0.17010311179E+04  0.50400001928E-02 0. -1.
    10030    2    1    2    0    0  0.00000000000E+00  0.00000000000E+00 -0.85369428883E+03  0.25483679471E+04  0.24011216660E+04 0.  0.
        2    1    3    3  502    0 -0.74286811759E+03  0.78368910082E+03  0.13004427794E+03  0.10876273080E+04  0.25500000920E-02 0.  1.
       -2    1    3    3    0  502  0.74286811759E+03 -0.78368910082E+03 -0.98373856677E+03  0.14607406391E+04  0.25500000920E-02 0. -1.
</event>
<event>
 5   0  0.6780150E-06  0.2974705E+04  0.7818609E-02  0.8250991E-01
        2   -1    0    0  501    0  0.00000000000E+00  0.00000000000E+00  0.23197345451E+04  0.23197345451E+04  0.25500000920E-02 0.  1.
       -2   -1    0    0    0  501  0.00000000000E+00  0.00000000000E+00 -0.95365098193E+03  0.95365098193E+03  0.25500000920E-02 0. -1.
    10030    2    1    2    0    0  0.00000000000E+00  0.00000000000E+00  0.13660835632E+04  0.32733855271E+04  0.29747047765E+04 0.  0.
        5    1    3    3  502    0  0.36021234595E+03  0.14358264747E+04  0.52416941214E+03  0.15703904808E+04  0.46999998093E+01 0. -1.
       -5    1    3    3    0  502 -0.36021234595E+03 -0.14358264747E+04  0.84191415107E+03  0.17029950462E+04  0.46999998093E+01 0.  1.
</event>
<event>
 5   0  0.2628425E-06  0.3034071E+04  0.7818609E-02  0.8234068E-01
       -1   -1    0    0    0  501  0.00000000000E+00  0.00000000000E+00  0.14125155135E+04  0.14125155135E+04  0.50400001928E-02 0. -1.
        1   -1    0    0  501    0  0.00000000000E+00  0.00000000000E+00 -0.16292893374E+04  0.16292893374E+04  0.50400001928E-02 0.  1.
    10030    2    1    2    0    0  0.00000000000E+00  0.00000000000E+00 -0.21677382394E+03  0.30418048510E+04  0.30340708397E+04 0.  0.
        1    1    3    3  502    0  0.87880718565E+03  0.34377988646E+02 -0.13476253641E+04  0.16092165913E+04  0.50400001928E-02 0.  1.
       -1    1    3    3    0  502 -0.87880718565E+03 -0.34377988646E+02  0.11308515402E+04  0.14325882596E+04  0.50400001928E-02 0. -1.
</event>
<event>
 5   0  0.7201538E-06  0.2995188E+04  0.7818609E-02  0.8245106E-01
       -2   -1    0    0    0  501  0.00000000000E+00  0.00000000000E+00  0.11425524073E+04  0.11425524073E+04  0.25500000920E-02 0. -1.
        2   -1    0    0  501    0  0.00000000000E+00  0.00000000000E+00 -0.19629624477E+04  0.19629624477E+04  0.25500000920E-02 0.  1.
    10030    2    1    2    0    0  0.00000000000E+00  0.00000000000E+00 -0.82041004033E+03  0.31055148550E+04  0.29951877872E+04 0.  0.
        3    1    3    3  502    0 -0.13116706391E+04  0.71292360947E+03 -0.28731703992E+03  0.15202930738E+04  0.10100000352E+00 0. -1.
       -3    1    3    3    0  502  0.13116706391E+04 -0.71292360947E+03 -0.53309300041E+03  0.15852217813E+04  0.10100000352E+00 0.  1.
</event>
<event>
 5   0  0.6780150E-06  0.2972632E+04  0.7818609E-02  0.8251589E-01
        2   -1    0    0  501    0  0.00000000000E+00  0.00000000000E+00  0.14247419732E+04  0.14247419732E+04  0.25500000920E-02 0. -1.
       -2   -1    0    0    0  501  0.00000000000E+00  0.00000000000E+00 -0.15505509530E+04  0.15505509530E+04  0.25500000920E-02 0.  1.
    10030    2    1    2    0    0  0.00000000000E+00  0.00000000000E+00 -0.12580897977E+03  0.29752929263E+04  0.29726318470E+04 0.  0.
        5    1    3    3  502    0  0.14369592963E+04 -0.37978155771E+03 -0.57714904434E+02  0.14874270237E+04  0.46999998093E+01 0. -1.
       -5    1    3    3    0  502 -0.14369592963E+04  0.37978155771E+03 -0.68094075334E+02  0.14878659025E+04  0.46999998093E+01 0.  1.
</event>
<event>
 5   0  0.2628425E-06  0.3009420E+04  0.7818609E-02  0.8241046E-01
       -1   -1    0    0    0  501  0.00000000000E+00  0.00000000000E+00  0.21749752873E+04  0.21749752873E+04  0.50400001928E-02 0.  1.
        1   -1    0    0  501    0  0.00000000000E+00  0.00000000000E+00 -0.10410014658E+04  0.10410014658E+04  0.50400001928E-02 0. -1.
    10030    2    1    2    0    0  0.00000000000E+00  0.00000000000E+00  0.11339738214E+04  0.32159767531E+04  0.30094201848E+04 0.  0.
        1    1    3    3  502    0  0.11788337006E+04  0.28687625434E+03  0.15181369291E+04  0.19433699119E+04  0.50400001928E-02 0.  1.
       -1    1    3    3    0  502 -0.11788337006E+04 -0.28687625434E+03 -0.38416310769E+03  0.12726068412E+04  0.50400001928E-02 0. -1.
</event>
<event>
 5   0  0.6792811E-06  0.3006594E+04  0.7818609E-02  0.8241850E-01
       -2   -1    0    0    0  501  0.00000000000E+00  0.00000000000E+00  0.11729609645E+04  0.11729609645E+04  0.25500000920E-02 0. -1.
        2   -1    0    0  501    0  0.00000000000E+00  0.00000000000E+00 -0.19266647712E+04  0.19266647712E+04  0.25500000920E-02 0.  1.
    10030    2    1    2    0    0  0.00000000000E+00  0.00000000000E+00 -0.75370380665E+03  0.30996257357E+04  0.30065944643E+04 0.  0.
        2    1    3    3  502    0  0.80464544948E+03  0.65278186329E+03 -0.14997389775E+04  0.18228536587E+04  0.25500000920E-02 0.  1.
       -2    1    3    3    0  502 -0.80464544948E+03 -0.65278186329E+03  0.74603517084E+03  0.12767720770E+04  0.25500000920E-02 0. -1.
</event>
<event>
 5   0  0.6780150E-06  0.3010158E+04  0.7818609E-02  0.8240836E-01
       -2   -1    0    0    0  501  0.00000000000E+00  0.00000000000E+00  0.94328438417E+03  0.94328438417E+03  0.25500000920E-02 0.  1.
        2   -1    0    0  501    0  0.00000000000E+00  0.00000000000E+00 -0.24014630271E+04  0.24014630271E+04  0.25500000920E-02 0. -1.
    10030    2    1    2    0    0  0.00000000000E+00  0.00000000000E+00 -0.14581786430E+04  0.33447474113E+04  0.30101578515E+04 0.  0.
        5    1    3    3  502    0  0.30061935515E+03 -0.58206256978E+03 -0.22347214322E+04  0.23287702337E+04  0.46999998093E+01 0. -1.
       -5    1    3    3    0  502 -0.30061935515E+03  0.58206256978E+03  0.77654278925E+03  0.10159771776E+04  0.46999998093E+01 0.  1.
</event>
<event>
 5   0  0.2422083E-06  0.2985470E+04  0.7818609E-02  0.8247892E-01
       -1   -1    0    0    0  501  0.00000000000E+00  0.00000000000E+00  0.15506129596E+04  0.15506129597E+04  0.50400001928E-02 0.  1.
        1   -1    0    0  501    0  0.00000000000E+00  0.00000000000E+00 -0.14370173604E+04  0.14370173604E+04  0.50400001928E-02 0. -1.
    10030    2    1    2    0    0  0.00000000000E+00  0.00000000000E+00  0.11359559924E+03  0.29876303201E+04  0.29854699746E+04 0.  0.
        2    1    3    3  502    0 -0.65412684801E+03 -0.94027671603E+03  0.10147028197E+04  0.15302365988E+04  0.25500000920E-02 0.  1.
       -2    1    3    3    0  502  0.65412684801E+03  0.94027671603E+03 -0.90110722047E+03  0.14573937213E+04  0.25500000920E-02 0. -1.
</event>
<event>
 5   0  0.6780150E-06  0.3009735E+04  0.7818609E-02  0.8240956E-01
        2   -1    0    0  501    0  0.00000000000E+00  0.00000000000E+00  0.14390127865E+04  0.14390127865E+04  0.25500000920E-02 0.  1.
       -2   -1    0    0    0  501  0.00000000000E+00  0.00000000000E+00 -0.15737358728E+04  0.15737358728E+04  0.25500000920E-02 0. -1.
    10030    2    1    2    0    0  0.00000000000E+00  0.00000000000E+00 -0.13472308634E+03  0.30127486594E+04  0.30097349010E+04 0.  0.
        5    1    3    3  502    0  0.23509644928E+03  0.13259163630E+04  0.60508446165E+03  0.14763041143E+04  0.46999998093E+01 0.  1.
       -5    1    3    3    0  502 -0.23509644928E+03 -0.13259163630E+04 -0.73980754799E+03  0.15364445451E+04  0.46999998093E+01 0. -1.
</event>
<event>
 5   0  0.2504260E-06  0.2372189E+04  0.7818609E-02  0.8449990E-01
        1   -1    0    0  501    0  0.00000000000E+00  0.00000000000E+00  0.27419141058E+04  0.27419141058E+04  0.50400001928E-02 0. -1.
       -1   -1    0    0    0  501  0.00000000000E+00  0.00000000000E+00 -0.51307957743E+03  0.51307957746E+03  0.50400001928E-02 0.  1.
    10030    2    1    2    0    0  0.00000000000E+00  0.00000000000E+00  0.22288345283E+04  0.32549936832E+04  0.23721889729E+04 0.  0.
        4    1    3    3  502    0  0.38719454686E+03  0.22722923694E+02  0.26524366822E+04  0.26806450556E+04  0.12699999809E+01 0. -1.
       -4    1    3    3    0  502 -0.38719454686E+03 -0.22722923694E+02 -0.42360215385E+03  0.57434862760E+03  0.12699999809E+01 0.  1.
</event>
<event>
 5   0  0.2672155E-06  0.2843088E+04  0.7818609E-02  0.8290015E-01
       -1   -1    0    0    0  501  0.00000000000E+00  0.00000000000E+00  0.18764734396E+04  0.18764734396E+04  0.50400001928E-02 0. -1.
        1   -1    0    0  501    0  0.00000000000E+00  0.00000000000E+00 -0.10769066047E+04  0.10769066047E+04  0.50400001928E-02 0.  1.
    10030    2    1    2    0    0  0.00000000000E+00  0.00000000000E+00  0.79956683485E+03  0.29533800443E+04  0.28430875053E+04 0.  0.
        5    1    3    3  502    0  0.83506921402E+03  0.92811243750E+03  0.11058811066E+04  0.16678514325E+04  0.46999998093E+01 0. -1.
       -5    1    3    3    0  502 -0.83506921402E+03 -0.92811243750E+03 -0.30631427175E+03  0.12855286119E+04  0.46999998093E+01 0.  1.
</event>
<event>
 5   0  0.2672155E-06  0.3046094E+04  0.7818609E-02  0.8230690E-01
       -1   -1    0    0    0  501  0.00000000000E+00  0.00000000000E+00  0.13338456495E+04  0.13338456495E+04  0.50400001928E-02 0. -1.
        1   -1    0    0  501    0  0.00000000000E+00  0.00000000000E+00 -0.17390860414E+04  0.17390860414E+04  0.50400001928E-02 0.  1.
    10030    2    1    2    0    0  0.00000000000E+00  0.00000000000E+00 -0.40524039190E+03  0.30729316908E+04  0.30460941222E+04 0.  0.
        5    1    3    3  502    0  0.10235084934E+04  0.82464610278E+03  0.57359993783E+03  0.14341024404E+04  0.46999998093E+01 0. -1.
       -5    1    3    3    0  502 -0.10235084934E+04 -0.82464610278E+03 -0.97884032972E+03  0.16388292504E+04  0.46999998093E+01 0.  1.
</event>
<event>
 5   0  0.2298500E-06  0.3277539E+04  0.7818609E-02  0.8168634E-01
        3   -1    0    0  501    0  0.00000000000E+00  0.00000000000E+00  0.20955166232E+04  0.20955166256E+04  0.10100000352E+00 0. -1.
       -3   -1    0    0    0  501  0.00000000000E+00  0.00000000000E+00 -0.12815767956E+04  0.12815767996E+04  0.10100000352E+00 0.  1.
    10030    2    1    2    0    0  0.00000000000E+00  0.00000000000E+00  0.81393982756E+03  0.33770934252E+04  0.32775390097E+04 0.  0.
        3    1    3    3  502    0 -0.66726483153E+03 -0.67360784981E+03 -0.97025827679E+03  0.13566101225E+04  0.10100000352E+00 0.  1.
       -3    1    3    3    0  502  0.66726483153E+03  0.67360784981E+03  0.17841981043E+04  0.20204833027E+04  0.10100000352E+00 0. -1.
</event>
<event>
 5   0  0.7201538E-06  0.2977568E+04  0.7818609E-02  0.8250165E-01
        2   -1    0    0  501    0  0.00000000000E+00  0.00000000000E+00  0.18271296212E+04  0.18271296212E+04  0.25500000920E-02 0.  1.
       -2   -1    0    0    0  501  0.00000000000E+00  0.00000000000E+00 -0.12130931949E+04  0.12130931949E+04  0.25500000920E-02 0. -1.
    10030    2    1    2    0    0  0.00000000000E+00  0.00000000000E+00  0.61403642628E+03  0.30402228162E+04  0.29775684777E+04 0.  0.
        3    1    3    3  502    0  0.71029531499E+03 -0.10087498767E+03  0.16389923276E+04  0.17891313697E+04  0.10100000352E+00 0.  1.
       -3    1    3    3    0  502 -0.71029531499E+03  0.10087498767E+03 -0.10249559013E+04  0.12510914465E+04  0.10100000352E+00 0. -1.
</event>
<event>
 5   0  0.2672155E-06  0.3031182E+04  0.7818609E-02  0.8234882E-01
       -1   -1    0    0    0  501  0.00000000000E+00  0.00000000000E+00  0.12381878509E+04  0.12381878509E+04  0.50400001928E-02 0. -1.
        1   -1    0    0  501    0  0.00000000000E+00  0.00000000000E+00 -0.18551432308E+04  0.18551432308E+04  0.50400001928E-02 0.  1.
    10030    2    1    2    0    0  0.00000000000E+00  0.00000000000E+00 -0.61695537994E+03  0.30933310817E+04  0.30311818223E+04 0.  0.
        5    1    3    3  502    0  0.51501547458E+03 -0.12318603109E+04  0.42335408272E+03  0.14007039423E+04  0.46999998093E+01 0. -1.
       -5    1    3    3    0  502 -0.51501547458E+03  0.12318603109E+04 -0.10403094627E+04  0.16926271393E+04  0.46999998093E+01 0.  1.
</event>
<event>
 5   0  0.2672155E-06  0.2979868E+04  0.7818609E-02  0.8249503E-01
       -1   -1    0    0    0  501  0.00000000000E+00  0.00000000000E+00  0.11374639747E+04  0.11374639747E+04  0.50400001928E-02 0.  1.
        1   -1    0    0  501    0  0.00000000000E+00  0.00000000000E+00 -0.19516249739E+04  0.19516249739E+04  0.50400001928E-02 0. -1.
    10030    2    1    2    0    0  0.00000000000E+00  0.00000000000E+00 -0.81416099916E+03  0.30890889486E+04  0.29798678494E+04 0.  0.
        5    1    3    3  502    0  0.37150698368E+03 -0.12860162491E+03  0.10827183363E+04  0.11518927479E+04  0.46999998093E+01 0.  1.
       -5    1    3    3    0  502 -0.37150698368E+03  0.12860162491E+03 -0.18968793355E+04  0.19371962007E+04  0.46999998093E+01 0. -1.
</event>
<event>
 5   0  0.7201538E-06  0.2924339E+04  0.7818609E-02  0.8265673E-01
        2   -1    0    0  501    0  0.00000000000E+00  0.00000000000E+00  0.26589516736E+04  0.26589516736E+04  0.25500000920E-02 0. -1.
       -2   -1    0    0    0  501  0.00000000000E+00  0.00000000000E+00 -0.80405358449E+03  0.80405358449E+03  0.25500000920E-02 0.  1.
    10030    2    1    2    0    0  0.00000000000E+00  0.00000000000E+00  0.18548980891E+04  0.34630052581E+04  0.29243389846E+04 0.  0.
        3    1    3    3  502    0 -0.14182149900E+03 -0.14304330401E+04  0.12445134138E+04  0.19013326030E+04  0.10100000352E+00 0. -1.
       -3    1    3    3    0  502  0.14182149900E+03  0.14304330401E+04  0.61038467530E+03  0.15616726551E+04  0.10100000352E+00 0.  1.
</event>
<event>
 5   0  0.7217255E-06  0.3188876E+04  0.7818609E-02  0.8191761E-01
        2   -1    0    0  501    0  0.00000000000E+00  0.00000000000E+00  0.23001324805E+04  0.23001324805E+04  0.25500000920E-02 0. -1.
       -2   -1    0    0    0  501  0.00000000000E+00  0.00000000000E+00 -0.11052550883E+04  0.11052550883E+04  0.25500000920E-02 0.  1.
    10030    2    1    2    0    0  0.00000000000E+00  0.00000000000E+00  0.11948773922E+04  0.34053875688E+04  0.31888763713E+04 0.  0.
        1    1    3    3  502    0 -0.40058761836E+03  0.15396906942E+04  0.71002577691E+03  0.17421981741E+04  0.50400001928E-02 0.  1.
       -1    1    3    3    0  502  0.40058761836E+03 -0.15396906942E+04  0.48485161528E+03  0.16631893947E+04  0.50400001928E-02 0. -1.
</event>
<event>
 5   0  0.7193153E-06  0.2975325E+04  0.7818609E-02  0.8250812E-01
        2   -1    0    0  501    0  0.00000000000E+00  0.00000000000E+00  0.15374194458E+04  0.15374194458E+04  0.25500000920E-02 0.  1.
       -2   -1    0    0    0  501  0.00000000000E+00  0.00000000000E+00 -0.14395159227E+04  0.14395159227E+04  0.25500000920E-02 0. -1.
    10030    2    1    2    0    0  0.00000000000E+00  0.00000000000E+00  0.97903523106E+02  0.29769353685E+04  0.29753250391E+04 0.  0.
        4    1    3    3  502    0 -0.90570530428E+03 -0.15021532507E+03 -0.11222677214E+04  0.14499493762E+04  0.12699999809E+01 0. -1.
       -4    1    3    3    0  502  0.90570530428E+03  0.15021532507E+03  0.12201712445E+04  0.15269859923E+04  0.12699999809E+01 0.  1.
</event>
<event>
 5   0  0.2422083E-06  0.3036377E+04  0.7818609E-02  0.8233419E-01
        1   -1    0    0  501    0  0.00000000000E+00  0.00000000000E+00  0.16819425531E+04  0.16819425531E+04  0.50400001928E-02 0. -1.
       -1   -1    0    0    0  501  0.00000000000E+00  0.00000000000E+00 -0.13703777095E+04  0.13703777095E+04  0.50400001928E-02 0.  1.
    10030    2    1    2    0    0  0.00000000000E+00  0.00000000000E+00  0.31156484357E+03  0.30523202627E+04  0.30363771726E+04 0.  0.
        2    1    3    3  502    0  0.26140712871E+03 -0.96492324493E+03 -0.99279558496E+03  0.14089193125E+04  0.25500000920E-02 0.  1.
       -2    1    3    3    0  502 -0.26140712871E+03  0.96492324493E+03  0.13043604285E+04  0.16434009502E+04  0.25500000920E-02 0. -1.
</event>
<event>
 5   0  0.6780150E-06  0.2997532E+04  0.7818609E-02  0.8244436E-01
        2   -1    0    0  501    0  0.00000000000E+00  0.00000000000E+00  0.23506795818E+04  0.23506795818E+04  0.25500000920E-02 0.  1.
       -2   -1    0    0    0  501  0.00000000000E+00  0.00000000000E+00 -0.95559557355E+03  0.95559557355E+03  0.25500000920E-02 0. -1.
    10030    2    1    2    0    0  0.00000000000E+00  0.00000000000E+00  0.13950840083E+04  0.33062751554E+04  0.29975316533E+04 0.  0.
        5    1    3    3  502    0  0.65433006527E+03  0.12129780347E+03  0.21787742762E+04  0.22781440754E+04  0.46999998093E+01 0.  1.
       -5    1    3    3    0  502 -0.65433006527E+03 -0.12129780347E+03 -0.78369026799E+03  0.10281310800E+04  0.46999998093E+01 0. -1.
</event>
<event>
 5   0  0.2504260E-06  0.3005785E+04  0.7818609E-02  0.8242081E-01
       -1   -1    0    0    0  501  0.00000000000E+00  0.00000000000E+00  0.10749704645E+04  0.10749704645E+04  0.50400001928E-02 0. -1.
        1   -1    0    0  501    0  0.00000000000E+00  0.00000000000E+00 -0.21011604781E+04  0.21011604781E+04  0.50400001928E-02 0.  1.
    10030    2    1    2    0    0  0.00000000000E+00  0.00000000000E+00 -0.10261900136E+04  0.31761309426E+04  0.30057847263E+04 0.  0.
        4    1    3    3  502    0  0.14171643928E+04  0.31333629208E+03 -0.92526416985E+03  0.17212350058E+04  0.12699999809E+01 0.  1.
       -4    1    3    3    0  502 -0.14171643928E+04 -0.31333629208E+03 -0.10092584378E+03  0.14548959369E+04  0.12699999809E+01 0. -1.
</event>
<event>
 5   0  0.7217255E-06  0.3091613E+04  0.7818609E-02  0.8218043E-01
        2   -1    0    0  501    0  0.00000000000E+00  0.00000000000E+00  0.18749339250E+04  0.18749339250E+04  0.25500000920E-02 0.  1.
       -2   -1    0    0    0  501  0.00000000000E+00  0.00000000000E+00 -0.12744545082E+04  0.12744545082E+04  0.25500000920E-02 0. -1.
    10030    2    1    2    0    0  0.00000000000E+00  0.00000000000E+00  0.60047941679E+03  0.31493884332E+04  0.30916131668E+04 0.  0.
        1    1    3    3  502    0  0.13863824539E+04  0.37351908665E+02  0.99568830166E+03  0.17072922033E+04  0.50400001928E-02 0.  1.
       -1    1    3    3    0  502 -0.13863824539E+04 -0.37351908665E+02 -0.39520888487E+03  0.14420962299E+04  0.50400001928E-02 0. -1.
</event>
<event>
 5   0  0.6780150E-06  0.3005595E+04  0.7818609E-02  0.8242135E-01
        2   -1    0    0  501    0  0.00000000000E+00  0.00000000000E+00  0.16720746985E+04  0.16720746985E+04  0.25500000920E-02 0. -1.
       -2   -1    0    0    0  501  0.00000000000E+00  0.00000000000E+00 -0.13506574650E+04  0.13506574650E+04  0.25500000920E-02 0.  1.
    10030    2    1    2    0    0  0.00000000000E+00  0.00000000000E+00  0.32141723354E+03  0.30227321635E+04  0.30055948986E+04 0.  0.
        5    1    3    3  502    0 -0.81247606287E+03 -0.91830242150E+03  0.10345595343E+04  0.16042855762E+04  0.46999998093E+01 0. -1.
       -5    1    3    3    0  502  0.81247606287E+03  0.91830242150E+03 -0.71314230073E+03  0.14184465873E+04  0.46999998093E+01 0.  1.
</event>
<event>
 5   0  0.6792811E-06  0.3019860E+04  0.7818609E-02  0.8238082E-01
        2   -1    0    0  501    0  0.00000000000E+00  0.00000000000E+00  0.22603278384E+04  0.22603278384E+04  0.25500000920E-02 0. -1.
       -2   -1    0    0    0  501  0.00000000000E+00  0.00000000000E+00 -0.10086542671E+04  0.10086542671E+04  0.25500000920E-02 0.  1.
    10030    2    1    2    0    0  0.00000000000E+00  0.00000000000E+00  0.12516735712E+04  0.32689821055E+04  0.30198604732E+04 0.  0.
        2    1    3    3  502    0  0.50728838025E+03 -0.30788174598E+02  0.21649595797E+04  0.22238119062E+04  0.25500000920E-02 0. -1.
       -2    1    3    3    0  502 -0.50728838025E+03  0.30788174598E+02 -0.91328600843E+03  0.10451701994E+04  0.25500000920E-02 0.  1.
</event>
<event>
 5   0  0.2628425E-06  0.3028080E+04  0.7818609E-02  0.8235758E-01
       -1   -1    0    0    0  501  0.00000000000E+00  0.00000000000E+00  0.10536474502E+04  0.10536474502E+04  0.50400001928E-02 0. -1.
        1   -1    0    0  501    0  0.00000000000E+00  0.00000000000E+00 -0.21756021581E+04  0.21756021581E+04  0.50400001928E-02 0.  1.
    10030    2    1    2    0    0  0.00000000000E+00  0.00000000000E+00 -0.11219547079E+04  0.32292496083E+04  0.30280803599E+04 0.  0.
        1    1    3    3  502    0  0.11573930724E+04 -0.69208657992E+03 -0.12950183892E+04  0.18696564354E+04  0.50400001928E-02 0.  1.
       -1    1    3    3    0  502 -0.11573930724E+04  0.69208657992E+03  0.17306368125E+03  0.13595931729E+04  0.50400001928E-02 0. -1.
</event>
<event>
 5   0  0.2504260E-06  0.2996456E+04  0.7818609E-02  0.8244744E-01
        1   -1    0    0  501    0  0.00000000000E+00  0.00000000000E+00  0.12107877926E+04  0.12107877927E+04  0.50400001928E-02 0.  1.
       -1   -1    0    0    0  501  0.00000000000E+00  0.00000000000E+00 -0.18539058357E+04  0.18539058357E+04  0.50400001928E-02 0. -1.
    10030    2    1    2    0    0  0.00000000000E+00  0.00000000000E+00 -0.64311804304E+03  0.30646936284E+04  0.29964556093E+04 0.  0.
        4    1    3    3  502    0 -0.43315338829E+03  0.19680653573E+03  0.11314734980E+04  0.12274316926E+04  0.12699999809E+01 0.  1.
       -4    1    3    3    0  502  0.43315338829E+03 -0.19680653573E+03 -0.17745915410E+04  0.18372619358E+04  0.12699999809E+01 0. -1.
</event>
<event>
 5   0  0.6792811E-06  0.3018000E+04  0.7818609E-02  0.8238609E-01
       -2   -1    0    0    0  501  0.00000000000E+00  0.00000000000E+00  0.15091766187E+04  0.15091766187E+04  0.25500000920E-02 0.  1.
        2   -1    0    0  501    0  0.00000000000E+00  0.00000000000E+00 -0.15088237698E+04  0.15088237698E+04  0.25500000920E-02 0. -1.
    10030    2    1    2    0    0  0.00000000000E+00  0.00000000000E+00  0.35284887971E+00  0.30180003885E+04  0.30180003679E+04 0.  0.
        2    1    3    3  502    0 -0.99119788985E+02 -0.84549050359E+03 -0.12457780900E+04  0.15088545237E+04  0.25500000920E-02 0. -1.
       -2    1    3    3    0  502  0.99119788985E+02  0.84549050359E+03  0.12461309389E+04  0.15091458647E+04  0.25500000920E-02 0.  1.
</event>
<event>
 5   0  0.6780150E-06  0.3001488E+04  0.7818609E-02  0.8243306E-01
       -2   -1    0    0    0  501  0.00000000000E+00  0.00000000000E+00  0.13325832477E+04  0.13325832477E+04  0.25500000920E-02 0. -1.
        2   -1    0    0  501    0  0.00000000000E+00  0.00000000000E+00 -0.16901257088E+04  0.16901257088E+04  0.25500000920E-02 0.  1.
    10030    2    1    2    0    0  0.00000000000E+00  0.00000000000E+00 -0.35754246104E+03  0.30227089565E+04  0.30014884348E+04 0.  0.
        5    1    3    3  502    0 -0.67951585188E+03 -0.11298075437E+04  0.54323842954E+03  0.14259512474E+04  0.46999998093E+01 0. -1.
       -5    1    3    3    0  502  0.67951585188E+03  0.11298075437E+04 -0.90078089058E+03  0.15967577091E+04  0.46999998093E+01 0.  1.
</event>
<event>
 5   0  0.2504260E-06  0.3008990E+04  0.7818609E-02  0.8241169E-01
        1   -1    0    0  501    0  0.00000000000E+00  0.00000000000E+00  0.21094407809E+04  0.21094407809E+04  0.50400001928E-02 0. -1.
       -1   -1    0    0    0  501  0.00000000000E+00  0.00000000000E+00 -0.10730353270E+04  0.10730353270E+04  0.50400001928E-02 0.  1.
    10030    2    1    2    0    0  0.00000000000E+00  0.00000000000E+00  0.10364054539E+04  0.31824761078E+04  0.30089895168E+04 0.  0.
        4    1    3    3  502    0 -0.11830958424E+04 -0.42227973608E+03 -0.35746173958E+03  0.13060690854E+04  0.12699999809E+01 0.  1.
       -4    1    3    3    0  502  0.11830958424E+04  0.42227973608E+03  0.13938671935E+04  0.18764070224E+04  0.12699999809E+01 0. -1.
</event>
<event>
 5   0  0.2422083E-06  0.2964213E+04  0.7818609E-02  0.8254025E-01
       -1   -1    0    0    0  501  0.00000000000E+00  0.00000000000E+00  0.14107241864E+04  0.14107241864E+04  0.50400001928E-02 0.  1.
        1   -1    0    0  501    0  0.00000000000E+00  0.00000000000E+00 -0.15571003657E+04  0.15571003657E+04  0.50400001928E-02 0. -1.
    10030    2    1    2    0    0  0.00000000000E+00  0.00000000000E+00 -0.14637617935E+03  0.29678245521E+04  0.29642126418E+04 0.  0.
        2    1    3    3  502    0 -0.11433246172E+04 -0.35184723478E+02 -0.10167854075E+04  0.15304514726E+04  0.25500000920E-02 0. -1.
       -2    1    3    3    0  502  0.11433246172E+04  0.35184723478E+02  0.87040922813E+03  0.14373730795E+04  0.25500000920E-02 0.  1.
</event>
<event>
 5   0  0.7193153E-06  0.2999431E+04  0.7818609E-02  0.8243893E-01
        2   -1    0    0  501    0  0.00000000000E+00  0.00000000000E+00  0.22950367487E+04  0.22950367487E+04  0.25500000920E-02 0. -1.
       -2   -1    0    0    0  501  0.00000000000E+00  0.00000000000E+00 -0.98000465522E+03  0.98000465522E+03  0.25500000920E-02 0.  1.
    10030    2    1    2    0    0  0.00000000000E+00  0.00000000000E+00  0.13150320935E+04  0.32750414039E+04  0.29994310778E+04 0.  0.
        4    1    3    3  502    0 -0.29724139626E+03  0.52048002161E+03  0.21585708108E+04  0.22402413841E+04  0.12699999809E+01 0. -1.
       -4    1    3    3    0  502  0.29724139626E+03 -0.52048002161E+03 -0.84353871736E+03  0.10348000199E+04  0.12699999809E+01 0.  1.
</event>
<event>
 5   0  0.2298500E-06  0.3077714E+04  0.7818609E-02  0.8221881E-01
        3   -1    0    0  501    0  0.00000000000E+00  0.00000000000E+00  0.11033027831E+04  0.11033027877E+04  0.10100000352E+00 0.  1.
       -3   -1    0    0    0  501  0.00000000000E+00  0.00000000000E+00 -0.21463568937E+04  0.21463568961E+04  0.10100000352E+00 0. -1.
    10030    2    1    2    0    0  0.00000000000E+00  0.00000000000E+00 -0.10430541106E+04  0.32496596838E+04  0.30777144415E+04 0.  0.
        4    1    3    3  502    0  0.21388445220E+03 -0.10622297999E+04 -0.16752776729E+04  0.19951530269E+04  0.12699999809E+01 0. -1.
       -4    1    3    3    0  502 -0.21388445220E+03  0.10622297999E+04  0.63222356227E+03  0.12545066569E+04  0.12699999809E+01 0.  1.
</event>
<event>
 5   0  0.7193153E-06  0.3017100E+04  0.7818609E-02  0.8238865E-01
        2   -1    0    0  501    0  0.00000000000E+00  0.00000000000E+00  0.19321905590E+04  0.19321905590E+04  0.25500000920E-02 0. -1.
       -2   -1    0    0    0  501  0.00000000000E+00  0.00000000000E+00 -0.11777942787E+04  0.11777942787E+04  0.25500000920E-02 0.  1.
    10030    2    1    2    0    0  0.00000000000E+00  0.00000000000E+00  0.75439628032E+03  0.31099848378E+04  0.30170999227E+04 0.  0.
        4    1    3    3  502    0 -0.13210044475E+04  0.57015872447E+03 -0.90178595391E+02  0.14416197534E+04  0.12699999809E+01 0.  1.
       -4    1    3    3    0  502  0.13210044475E+04 -0.57015872447E+03  0.84457487571E+03  0.16683650844E+04  0.12699999809E+01 0. -1.
</event>
<event>
 5   0  0.7193153E-06  0.2994260E+04  0.7818609E-02  0.8245372E-01
        2   -1    0    0  501    0  0.00000000000E+00  0.00000000000E+00  0.18625352745E+04  0.18625352745E+04  0.25500000920E-02 0.  1.
       -2   -1    0    0    0  501  0.00000000000E+00  0.00000000000E+00 -0.12034124429E+04  0.12034124429E+04  0.25500000920E-02 0. -1.
    10030    2    1    2    0    0  0.00000000000E+00  0.00000000000E+00  0.65912283161E+03  0.30659477174E+04  0.29942599250E+04 0.  0.
        4    1    3    3  502    0 -0.80584743693E+03  0.39047307926E+03 -0.89897120378E+03  0.12688617558E+04  0.12699999809E+01 0. -1.
       -4    1    3    3    0  502  0.80584743693E+03 -0.39047307926E+03  0.15580940354E+04  0.17970859616E+04  0.12699999809E+01 0.  1.
</event>
<event>
 5   0  0.6780150E-06  0.2259728E+04  0.7818609E-02  0.8493971E-01
       -2   -1    0    0    0  501  0.00000000000E+00  0.00000000000E+00  0.57872178133E+03  0.57872178134E+03  0.25500000920E-02 0.  1.
        2   -1    0    0  501    0  0.00000000000E+00  0.00000000000E+00 -0.22058825710E+04  0.22058825710E+04  0.25500000920E-02 0. -1.
    10030    2    1    2    0    0  0.00000000000E+00  0.00000000000E+00 -0.16271607897E+04  0.27846043524E+04  0.22597276747E+04 0.  0.
        5    1    3    3  502    0 -0.93560216002E+03  0.34421243234E+03 -0.14688173887E+04  0.17751845571E+04  0.46999998093E+01 0.  1.
       -5    1    3    3    0  502  0.93560216002E+03 -0.34421243234E+03 -0.15834340096E+03  0.10094197952E+04  0.46999998093E+01 0. -1.
</event>
<event>
 5   0  0.2422083E-06  0.2675732E+04  0.7818609E-02  0.8342922E-01
       -1   -1    0    0    0  501  0.00000000000E+00  0.00000000000E+00  0.10893473003E+04  0.10893473003E+04  0.50400001928E-02 0.  1.
        1   -1    0    0  501    0  0.00000000000E+00  0.00000000000E+00 -0.16430804803E+04  0.16430804803E+04  0.50400001928E-02 0. -1.
    10030    2    1    2    0    0  0.00000000000E+00  0.00000000000E+00 -0.55373317995E+03  0.27324277806E+04  0.26757318890E+04 0.  0.
        2    1    3    3  502    0 -0.21157842022E+03 -0.25029009100E+03 -0.16014532361E+04  0.16346446173E+04  0.25500000920E-02 0. -1.
       -2    1    3    3    0  502  0.21157842022E+03  0.25029009100E+03  0.10477200561E+04  0.10977831633E+04  0.25500000920E-02 0.  1.
</event>
<event>
 5   0  0.2628425E-06  0.2962641E+04  0.7818609E-02  0.8254480E-01
        1   -1    0    0  501    0  0.00000000000E+00  0.00000000000E+00  0.20821730149E+04  0.20821730149E+04  0.50400001928E-02 0.  1.
       -1   -1    0    0    0  501  0.00000000000E+00  0.00000000000E+00 -0.10538562941E+04  0.10538562941E+04  0.50400001928E-02 0. -1.
    10030    2    1    2    0    0  0.00000000000E+00  0.00000000000E+00  0.10283167208E+04  0.31360293091E+04  0.29626414817E+04 0.  0.
        1    1    3    3  502    0 -0.37478948761E+03 -0.48759004494E+03 -0.91233870916E+03  0.11002604838E+04  0.50400001928E-02 0. -1.
       -1    1    3    3    0  502  0.37478948761E+03  0.48759004494E+03  0.19406554300E+04  0.20357688253E+04  0.50400001928E-02 0.  1.
</event>
<event>
 5   0  0.2672155E-06  0.3181233E+04  0.7818609E-02  0.8193791E-01
        1   -1    0    0  501    0  0.00000000000E+00  0.00000000000E+00  0.96559216276E+03  0.96559216278E+03  0.50400001928E-02 0. -1.
       -1   -1    0    0    0  501  0.00000000000E+00  0.00000000000E+00 -0.26202161829E+04  0.26202161830E+04  0.50400001928E-02 0.  1.
    10030    2    1    2    0    0  0.00000000000E+00  0.00000000000E+00 -0.16546240202E+04  0.35858083457E+04  0.31812325982E+04 0.  0.
        5    1    3    3  502    0 -0.24655030633E+01 -0.14816712438E+04 -0.14794027995E+04  0.20938028767E+04  0.46999998093E+01 0.  1.
       -5    1    3    3    0  502  0.24655030633E+01  0.14816712438E+04 -0.17522122072E+03  0.14920054690E+04  0.46999998093E+01 0. -1.
</event>
<event>
 5   0  0.7217255E-06  0.2982383E+04  0.7818609E-02  0.8248780E-01
        2   -1    0    0  501    0  0.00000000000E+00  0.00000000000E+00  0.17531303776E+04  0.17531303776E+04  0.25500000920E-02 0.  1.
       -2   -1    0    0    0  501  0.00000000000E+00  0.00000000000E+00 -0.12683891893E+04  0.12683891893E+04  0.25500000920E-02 0. -1.
    10030    2    1    2    0    0  0.00000000000E+00  0.00000000000E+00  0.48474118828E+03  0.30215195670E+04  0.29823826840E+04 0.  0.
        1    1    3    3  502    0  0.98711897276E+02  0.68380436123E+03  0.15811957172E+04  0.17255469681E+04  0.50400001928E-02 0.  1.
       -1    1    3    3    0  502 -0.98711897276E+02 -0.68380436123E+03 -0.10964545289E+04  0.12959725989E+04  0.50400001928E-02 0. -1.
</event>
<event>
 5   0  0.6780150E-06  0.2990287E+04  0.7818609E-02  0.8246510E-01
       -2   -1    0    0    0  501  0.00000000000E+00  0.00000000000E+00  0.20729174800E+04  0.20729174800E+04  0.25500000920E-02 0.  1.
        2   -1    0    0  501    0  0.00000000000E+00  0.00000000000E+00 -0.10784096165E+04  0.10784096165E+04  0.25500000920E-02 0. -1.
    10030    2    1    2    0    0  0.00000000000E+00  0.00000000000E+00  0.99450786350E+03  0.31513270964E+04  0.29902870394E+04 0.  0.
        5    1    3    3  502    0 -0.43551389094E+02 -0.26623234983E+03  0.20470490694E+04  0.20647538280E+04  0.46999998093E+01 0.  1.
       -5    1    3    3    0  502  0.43551389094E+02  0.26623234983E+03 -0.10525412059E+04  0.10865732684E+04  0.46999998093E+01 0. -1.
</event>
<event>
 5   0  0.7193153E-06  0.3020924E+04  0.7818609E-02  0.8237781E-01
        2   -1    0    0  501    0  0.00000000000E+00  0.00000000000E+00  0.22547215727E+04  0.22547215727E+04  0.25500000920E-02 0.  1.
       -2   -1    0    0    0  501  0.00000000000E+00  0.00000000000E+00 -0.10118745175E+04  0.10118745175E+04  0.25500000920E-02 0. -1.
    10030    2    1    2    0    0  0.00000000000E+00  0.00000000000E+00  0.12428470552E+04  0.32665960902E+04  0.30209239007E+04 0.  0.
        4    1    3    3  502    0 -0.14775779674E+04 -0.30447218145E+03  0.70200739246E+03  0.16639579174E+04  0.12699999809E+01 0. -1.
       -4    1    3    3    0  502  0.14775779674E+04  0.30447218145E+03  0.54083966273E+03  0.16026381727E+04  0.12699999809E+01 0.  1.
</event>
<event>
 5   0  0.2672155E-06  0.3135461E+04  0.7818609E-02  0.8206073E-01
        1   -1    0    0  501    0  0.00000000000E+00  0.00000000000E+00  0.77677608670E+03  0.77677608672E+03  0.50400001928E-02 0.  1.
       -1   -1    0    0    0  501  0.00000000000E+00  0.00000000000E+00 -0.31640772483E+04  0.31640772483E+04  0.50400001928E-02 0. -1.
    10030    2    1    2    0    0  0.00000000000E+00  0.00000000000E+00 -0.23873011616E+04  0.39408533350E+04  0.31354613970E+04 0.  0.
        5    1    3    3  502    0 -0.10697578135E+03  0.12974470500E+04 -0.95819886214E+02  0.13053797171E+04  0.46999998093E+01 0.  1.
       -5    1    3    3    0  502  0.10697578135E+03 -0.12974470500E+04 -0.22914812754E+04  0.26354736179E+04  0.46999998093E+01 0. -1.
</event>
<event>
 5   0  0.2628425E-06  0.2986598E+04  0.7818609E-02  0.8247568E-01
        1   -1    0    0  501    0  0.00000000000E+00  0.00000000000E+00  0.11692091615E+04  0.11692091615E+04  0.50400001928E-02 0. -1.
       -1   -1    0    0    0  501  0.00000000000E+00  0.00000000000E+00 -0.19072229802E+04  0.19072229802E+04  0.50400001928E-02 0.  1.
    10030    2    1    2    0    0  0.00000000000E+00  0.00000000000E+00 -0.73801381872E+03  0.30764321417E+04  0.29865984541E+04 0.  0.
        1    1    3    3  502    0  0.65741347656E+03  0.10929384304E+04 -0.11690511776E+04  0.17301409040E+04  0.50400001928E-02 0.  1.
       -1    1    3    3    0  502 -0.65741347656E+03 -0.10929384304E+04  0.43103735888E+03  0.13462912377E+04  0.50400001928E-02 0. -1.
</event>
<event>
 5   0  0.2422083E-06  0.2965888E+04  0.7818609E-02  0.8253539E-01
        1   -1    0    0  501    0  0.00000000000E+00  0.00000000000E+00  0.16934572001E+04  0.16934572001E+04  0.50400001928E-02 0.  1.
       -1   -1    0    0    0  501  0.00000000000E+00  0.00000000000E+00 -0.12985993487E+04  0.12985993487E+04  0.50400001928E-02 0. -1.
    10030    2    1    2    0    0  0.00000000000E+00  0.00000000000E+00  0.39485785143E+03  0.29920565489E+04  0.29658876696E+04 0.  0.
        2    1    3    3  502    0 -0.10381523164E+04  0.10026044632E+03 -0.86605937209E+03  0.13556810927E+04  0.25500000920E-02 0. -1.
       -2    1    3    3    0  502  0.10381523164E+04 -0.10026044632E+03  0.12609172235E+04  0.16363754562E+04  0.25500000920E-02 0.  1.
</event>
<event>
 5   0  0.2422083E-06  0.2959526E+04  0.7818609E-02  0.8255384E-01
        1   -1    0    0  501    0  0.00000000000E+00  0.00000000000E+00  0.17839323904E+04  0.17839323905E+04  0.50400001928E-02 0. -1.
       -1   -1    0    0    0  501  0.00000000000E+00  0.00000000000E+00 -0.12274559812E+04  0.12274559812E+04  0.50400001928E-02 0.  1.
    10030    2    1    2    0    0  0.00000000000E+00  0.00000000000E+00  0.55647640928E+03  0.30113883716E+04  0.29595259638E+04 0.  0.
        2    1    3    3  502    0  0.38701970224E+03 -0.10109142169E+04 -0.74838575534E+03  0.13159836788E+04  0.25500000920E-02 0.  1.
       -2    1    3    3    0  502 -0.38701970224E+03  0.10109142169E+04  0.13048621646E+04  0.16954046929E+04  0.25500000920E-02 0. -1.
</event>
<event>
 5   0  0.2672155E-06  0.3021590E+04  0.7818609E-02  0.8237592E-01
        1   -1    0    0  501    0  0.00000000000E+00  0.00000000000E+00  0.15675520090E+04  0.15675520091E+04  0.50400001928E-02 0.  1.
       -1   -1    0    0    0  501  0.00000000000E+00  0.00000000000E+00 -0.14560931035E+04  0.14560931035E+04  0.50400001928E-02 0. -1.
    10030    2    1    2    0    0  0.00000000000E+00  0.00000000000E+00  0.11145890559E+03  0.30236451125E+04  0.30215900911E+04 0.  0.
        5    1    3    3  502    0 -0.63035048969E+03  0.41601929008E+03  0.13650786717E+04  0.15600883499E+04  0.46999998093E+01 0.  1.
       -5    1    3    3    0  502  0.63035048969E+03 -0.41601929008E+03 -0.12536197661E+04  0.14635567626E+04  0.46999998093E+01 0. -1.
</event>
<event>
 5   0  0.7217255E-06  0.2915963E+04  0.7818609E-02  0.8268144E-01
       -2   -1    0    0    0  501  0.00000000000E+00  0.00000000000E+00  0.16525720749E+04  0.16525720749E+04  0.25500000920E-02 0.  1.
        2   -1    0    0  501    0  0.00000000000E+00  0.00000000000E+00 -0.12863037991E+04  0.12863037991E+04  0.25500000920E-02 0. -1.
    10030    2    1    2    0    0  0.00000000000E+00  0.00000000000E+00  0.36626827587E+03  0.29388758740E+04  0.29159627832E+04 0.  0.
        1    1    3    3  502    0 -0.33315313993E+03  0.74078037953E+03  0.14034177928E+04  0.16215203010E+04  0.50400001928E-02 0.  1.
       -1    1    3    3    0  502  0.33315313993E+03 -0.74078037953E+03 -0.10371495169E+04  0.13173555730E+04  0.50400001928E-02 0. -1.
</event>
<event>
 5   0  0.2504260E-06  0.2940945E+04  0.7818609E-02  0.8260798E-01
       -1   -1    0    0    0  501  0.00000000000E+00  0.00000000000E+00  0.15254461078E+04  0.15254461078E+04  0.50400001928E-02 0. -1.
        1   -1    0    0  501    0  0.00000000000E+00  0.00000000000E+00 -0.14174803543E+04  0.14174803543E+04  0.50400001928E-02 0.  1.
    10030    2    1    2    0    0  0.00000000000E+00  0.00000000000E+00  0.10796575348E+03  0.29429264621E+04  0.29409453509E+04 0.  0.
        4    1    3    3  502    0 -0.48162886464E+03  0.97645854363E+03 -0.93504045068E+03  0.14351793992E+04  0.12699999809E+01 0.  1.
       -4    1    3    3    0  502  0.48162886464E+03 -0.97645854363E+03  0.10430062042E+04  0.15077470628E+04  0.12699999809E+01 0. -1.
</event>
<event>
 5   0  0.2628425E-06  0.2982802E+04  0.7818609E-02  0.8248659E-01
       -1   -1    0    0    0  501  0.00000000000E+00  0.00000000000E+00  0.12585792296E+04  0.12585792296E+04  0.50400001928E-02 0.  1.
        1   -1    0    0  501    0  0.00000000000E+00  0.00000000000E+00 -0.17672917067E+04  0.17672917067E+04  0.50400001928E-02 0. -1.
    10030    2    1    2    0    0  0.00000000000E+00  0.00000000000E+00 -0.50871247712E+03  0.30258709363E+04  0.29828017934E+04 0.  0.
        1    1    3    3  502    0 -0.81764354314E+03  0.73519934947E+03 -0.12764849102E+04  0.16847767725E+04  0.50400001928E-02 0. -1.
       -1    1    3    3    0  502  0.81764354314E+03 -0.73519934947E+03  0.76777243313E+03  0.13410941638E+04  0.50400001928E-02 0.  1.
</event>
<event>
 5   0  0.7193153E-06  0.2324511E+04  0.7818609E-02  0.8468319E-01
       -2   -1    0    0    0  501  0.00000000000E+00  0.00000000000E+00  0.15786245187E+04  0.15786245187E+04  0.25500000920E-02 0. -1.
        2   -1    0    0  501    0  0.00000000000E+00  0.00000000000E+00 -0.85570528768E+03  0.85570528768E+03  0.25500000920E-02 0.  1.
    10030    2    1    2    0    0  0.00000000000E+00  0.00000000000E+00  0.72291923101E+03  0.24343298064E+04  0.23245105703E+04 0.  0.
        4    1    3    3  502    0 -0.82009769261E+03 -0.40860344804E+03 -0.38738850282E+03  0.99478061310E+03  0.12699999809E+01 0.  1.
       -4    1    3    3    0  502  0.82009769261E+03  0.40860344804E+03  0.11103077338E+04  0.14395491933E+04  0.12699999809E+01 0. -1.
</event>
<event>
 5   0  0.2672155E-06  0.2957635E+04  0.7818609E-02  0.8255933E-01
       -1   -1    0    0    0  501  0.00000000000E+00  0.00000000000E+00  0.11207717372E+04  0.11207717372E+04  0.50400001928E-02 0. -1.
        1   -1    0    0  501    0  0.00000000000E+00  0.00000000000E+00 -0.19512452897E+04  0.19512452897E+04  0.50400001928E-02 0.  1.
    10030    2    1    2    0    0  0.00000000000E+00  0.00000000000E+00 -0.83047355251E+03  0.30720170270E+04  0.29576345773E+04 0.  0.
        5    1    3    3  502    0  0.11822049066E+04  0.27633252813E+03 -0.12922306738E+04  0.17730906101E+04  0.46999998093E+01 0.  1.
       -5    1    3    3    0  502 -0.11822049066E+04 -0.27633252813E+03  0.46175712131E+03  0.12989264169E+04  0.46999998093E+01 0. -1.
</event>
<event>
 5   0  0.2672155E-06  0.2660328E+04  0.7818609E-02  0.8347993E-01
        1   -1    0    0  501    0  0.00000000000E+00  0.00000000000E+00  0.10672262522E+04  0.10672262522E+04  0.50400001928E-02 0.  1.
       -1   -1    0    0    0  501  0.00000000000E+00  0.00000000000E+00 -0.16578827359E+04  0.16578827359E+04  0.50400001928E-02 0. -1.
    10030    2    1    2    0    0  0.00000000000E+00  0.00000000000E+00 -0.59065648369E+03  0.27251089881E+04  0.26603277835E+04 0.  0.
        5    1    3    3  502    0  0.13271409409E+04 -0.83894449632E+02 -0.32727309755E+03  0.13694784139E+04  0.46999998093E+01 0. -1.
       -5    1    3    3    0  502 -0.13271409409E+04  0.83894449632E+02 -0.26338338614E+03  0.13556305742E+04  0.46999998093E+01 0.  1.
</event>
<event>
 5   0  0.2422083E-06  0.2917098E+04  0.7818609E-02  0.8267808E-01
       -1   -1    0    0    0  501  0.00000000000E+00  0.00000000000E+00  0.17811742979E+04  0.17811742979E+04  0.50400001928E-02 0.  1.
        1   -1    0    0  501    0  0.00000000000E+00  0.00000000000E+00 -0.11943613038E+04  0.11943613038E+04  0.50400001928E-02 0. -1.
    10030    2    1    2    0    0  0.00000000000E+00  0.00000000000E+00  0.58681299408E+03  0.29755356016E+04  0.29170983231E+04 0.  0.
        2    1    3    3  502    0 -0.52073804106E+03  0.13501532061E+04  0.10731309024E+03  0.14510678436E+04  0.25500000920E-02 0.  1.
       -2    1    3    3    0  502  0.52073804106E+03 -0.13501532061E+04  0.47949990385E+03  0.15244677580E+04  0.25500000920E-02 0. -1.
</event>
<event>
 5   0  0.7217255E-06  0.2734216E+04  0.7818609E-02  0.8323988E-01
       -2   -1    0    0    0  501  0.00000000000E+00  0.00000000000E+00  0.89862817894E+03  0.89862817894E+03  0.25500000920E-02 0. -1.
        2   -1    0    0  501    0  0.00000000000E+00  0.00000000000E+00 -0.20798198262E+04  0.20798198262E+04  0.25500000920E-02 0.  1.
    10030    2    1    2    0    0  0.00000000000E+00  0.00000000000E+00 -0.11811916472E+04  0.29784480051E+04  0.27342163067E+04 0.  0.
        1    1    3    3  502    0 -0.87644344047E+03 -0.99684596336E+03 -0.23405263286E+03  0.13478262551E+04  0.50400001928E-02 0. -1.
       -1    1    3    3    0  502  0.87644344047E+03  0.99684596336E+03 -0.94713901439E+03  0.16306217500E+04  0.50400001928E-02 0.  1.
</event>
<event>
 5   0  0.2504260E-06  0.2948545E+04  0.7818609E-02  0.8258579E-01
       -1   -1    0    0    0  501  0.00000000000E+00  0.00000000000E+00  0.11543614573E+04  0.11543614574E+04  0.50400001928E-02 0.  1.
        1   -1    0    0  501    0  0.00000000000E+00  0.00000000000E+00 -0.18828414994E+04  0.18828414994E+04  0.50400001928E-02 0. -1.
    10030    2    1    2    0    0  0.00000000000E+00  0.00000000000E+00 -0.72848004207E+03  0.30372029568E+04  0.29485451716E+04 0.  0.
        4    1    3    3  502    0 -0.55593400632E+03  0.12627123042E+04  0.17097247458E+03  0.13902295431E+04  0.12699999809E+01 0.  1.
       -4    1    3    3    0  502  0.55593400632E+03 -0.12627123042E+04 -0.89945251666E+03  0.16469734136E+04  0.12699999809E+01 0. -1.
</event>
<event>
 5   0  0.7217255E-06  0.2962935E+04  0.7818609E-02  0.8254395E-01
       -2   -1    0    0    0  501  0.00000000000E+00  0.00000000000E+00  0.10794020861E+04  0.10794020861E+04  0.25500000920E-02 0. -1.
        2   -1    0    0  501    0  0.00000000000E+00  0.00000000000E+00 -0.20332974051E+04  0.20332974051E+04  0.25500000920E-02 0.  1.
    10030    2    1    2    0    0  0.00000000000E+00  0.00000000000E+00 -0.95389531900E+03  0.31126994912E+04  0.29629346674E+04 0.  0.
        1    1    3    3  502    0  0.30669903144E+03  0.89529775418E+03 -0.16743504646E+04  0.19232971281E+04  0.50400001928E-02 0.  1.
       -1    1    3    3    0  502 -0.30669903144E+03 -0.89529775418E+03  0.72045514562E+03  0.11894023631E+04  0.50400001928E-02 0. -1.
</event>
<event>
 5   0  0.7201538E-06  0.3014270E+04  0.7818609E-02  0.8239668E-01
        2   -1    0    0  501    0  0.00000000000E+00  0.00000000000E+00  0.24397493702E+04  0.24397493702E+04  0.25500000920E-02 0.  1.
       -2   -1    0    0    0  501  0.00000000000E+00  0.00000000000E+00 -0.93102001242E+03  0.93102001242E+03  0.25500000920E-02 0. -1.
    10030    2    1    2    0    0  0.00000000000E+00  0.00000000000E+00  0.15087293577E+04  0.33707693826E+04  0.30142697218E+04 0.  0.
        3    1    3    3  502    0 -0.87574104614E+03  0.10597453454E+04  0.63681664393E+02  0.13762405101E+04  0.10100000352E+00 0. -1.
       -3    1    3    3    0  502  0.87574104614E+03 -0.10597453454E+04  0.14450476933E+04  0.19945288725E+04  0.10100000352E+00 0.  1.
</event>
<event>
 5   0  0.7201538E-06  0.2970861E+04  0.7818609E-02  0.8252101E-01
        2   -1    0    0  501    0  0.00000000000E+00  0.00000000000E+00  0.17522510081E+04  0.17522510081E+04  0.25500000920E-02 0. -1.
       -2   -1    0    0    0  501  0.00000000000E+00  0.00000000000E+00 -0.12592399293E+04  0.12592399293E+04  0.25500000920E-02 0.  1.
    10030    2    1    2    0    0  0.00000000000E+00  0.00000000000E+00  0.49301107873E+03  0.30114909374E+04  0.29708614479E+04 0.  0.
        3    1    3    3  502    0 -0.19919938652E+03  0.13737905075E+04  0.78243602053E+03  0.15934826295E+04  0.10100000352E+00 0. -1.
       -3    1    3    3    0  502  0.19919938652E+03 -0.13737905075E+04 -0.28942494180E+03  0.14180083079E+04  0.10100000352E+00 0.  1.
</event>
<event>
 5   0  0.2628425E-06  0.2978876E+04  0.7818609E-02  0.8249789E-01
        1   -1    0    0  501    0  0.00000000000E+00  0.00000000000E+00  0.25303603973E+04  0.25303603973E+04  0.50400001928E-02 0.  1.
       -1   -1    0    0    0  501  0.00000000000E+00  0.00000000000E+00 -0.87672337056E+03  0.87672337057E+03  0.50400001928E-02 0. -1.
    10030    2    1    2    0    0  0.00000000000E+00  0.00000000000E+00  0.16536370267E+04  0.34070837679E+04  0.29788763628E+04 0.  0.
        1    1    3    3  502    0 -0.70212605820E+03  0.57340450631E+03 -0.52486337291E+03  0.10474995416E+04  0.50400001928E-02 0. -1.
       -1    1    3    3    0  502  0.70212605820E+03 -0.57340450631E+03  0.21785003996E+04  0.23595842262E+04  0.50400001928E-02 0.  1.
</event>
<event>
 5   0  0.2672155E-06  0.2996468E+04  0.7818609E-02  0.8244740E-01
       -1   -1    0    0    0  501  0.00000000000E+00  0.00000000000E+00  0.13060115071E+04  0.13060115071E+04  0.50400001928E-02 0.  1.
        1   -1    0    0  501    0  0.00000000000E+00  0.00000000000E+00 -0.17187479926E+04  0.17187479926E+04  0.50400001928E-02 0. -1.
    10030    2    1    2    0    0  0.00000000000E+00  0.00000000000E+00 -0.41273648548E+03  0.30247594997E+04  0.29964676912E+04 0.  0.
        5    1    3    3  502    0  0.54259310526E+03 -0.10948872939E+04  0.66870600843E+03  0.13929735389E+04  0.46999998093E+01 0.  1.
       -5    1    3    3    0  502 -0.54259310526E+03  0.10948872939E+04 -0.10814424939E+04  0.16317859608E+04  0.46999998093E+01 0. -1.
</event>
<event>
 5   0  0.7201538E-06  0.2940405E+04  0.7818609E-02  0.8260956E-01
        2   -1    0    0  501    0  0.00000000000E+00  0.00000000000E+00  0.13247879648E+04  0.13247879648E+04  0.25500000920E-02 0.  1.
       -2   -1    0    0    0  501  0.00000000000E+00  0.00000000000E+00 -0.16315784966E+04  0.16315784966E+04  0.25500000920E-02 0. -1.
    10030    2    1    2    0    0  0.00000000000E+00  0.00000000000E+00 -0.30679053185E+03  0.29563664614E+04  0.29404051122E+04 0.  0.
        3    1    3    3  502    0 -0.10900834559E+04  0.20856299963E+03  0.81605611870E+03  0.13775805112E+04  0.10100000352E+00 0.  1.
       -3    1    3    3    0  502  0.10900834559E+04 -0.20856299963E+03 -0.11228466505E+04  0.15787859502E+04  0.10100000352E+00 0. -1.
</event>
<event>
 5   0  0.2672155E-06  0.3356582E+04  0.7818609E-02  0.8148646E-01
        1   -1    0    0  501    0  0.00000000000E+00  0.00000000000E+00  0.20557315475E+04  0.20557315476E+04  0.50400001928E-02 0.  1.
       -1   -1    0    0    0  501  0.00000000000E+00  0.00000000000E+00 -0.13701497046E+04  0.13701497046E+04  0.50400001928E-02 0. -1.
    10030    2    1    2    0    0  0.00000000000E+00  0.00000000000E+00  0.68558184293E+03  0.34258812522E+04  0.33565815781E+04 0.  0.
        5    1    3    3  502    0 -0.10400625798E+04  0.44248398252E+03  0.16090154556E+04  0.19663354421E+04  0.46999998093E+01 0.  1.
       -5    1    3    3    0  502  0.10400625798E+04 -0.44248398252E+03 -0.92343361268E+03  0.14595458100E+04  0.46999998093E+01 0. -1.
</event>
<event>
 5   0  0.6792811E-06  0.3033053E+04  0.7818609E-02  0.8234355E-01
       -2   -1    0    0    0  501  0.00000000000E+00  0.00000000000E+00  0.18293271034E+04  0.18293271034E+04  0.25500000920E-02 0.  1.
        2   -1    0    0  501    0  0.00000000000E+00  0.00000000000E+00 -0.12572126497E+04  0.12572126497E+04  0.25500000920E-02 0. -1.
    10030    2    1    2    0    0  0.00000000000E+00  0.00000000000E+00  0.57211445369E+03  0.30865397531E+04  0.30330533624E+04 0.  0.
        2    1    3    3  502    0  0.12945187323E+04 -0.50026226545E+03  0.90824073684E+03  0.16585964906E+04  0.25500000920E-02 0.  1.
       -2    1    3    3    0  502 -0.12945187323E+04  0.50026226545E+03 -0.33612628314E+03  0.14279432625E+04  0.25500000920E-02 0. -1.
</event>
<event>
 5   0  0.2552990E-06  0.2950543E+04  0.7818609E-02  0.8257996E-01
        1   -1    0    0  501    0  0.00000000000E+00  0.00000000000E+00  0.20712494879E+04  0.20712494879E+04  0.50400001928E-02 0. -1.
       -1   -1    0    0    0  501  0.00000000000E+00  0.00000000000E+00 -0.10507791224E+04  0.10507791224E+04  0.50400001928E-02 0.  1.
    10030    2    1    2    0    0  0.00000000000E+00  0.00000000000E+00  0.10204703655E+04  0.31220286102E+04  0.29505428104E+04 0.  0.
        3    1    3    3  502    0  0.13920366949E+04 -0.18900542287E+03  0.98690213181E+03  0.17168182891E+04  0.10100000352E+00 0. -1.
       -3    1    3    3    0  502 -0.13920366949E+04  0.18900542287E+03  0.33568233691E+02  0.14052103211E+04  0.10100000352E+00 0.  1.
</event>
<event>
 5   0  0.2628425E-06  0.2938149E+04  0.7818609E-02  0.8261617E-01
       -1   -1    0    0    0  501  0.00000000000E+00  0.00000000000E+00  0.19067844580E+04  0.19067844581E+04  0.50400001928E-02 0.  1.
        1   -1    0    0  501    0  0.00000000000E+00  0.00000000000E+00 -0.11318425860E+04  0.11318425860E+04  0.50400001928E-02 0. -1.
    10030    2    1    2    0    0  0.00000000000E+00  0.00000000000E+00  0.77494187209E+03  0.30386270440E+04  0.29381489764E+04 0.  0.
        1    1    3    3  502    0  0.21089006292E+03 -0.14527417995E+04  0.32854437362E+03  0.15042854649E+04  0.50400001928E-02 0.  1.
       -1    1    3    3    0  502 -0.21089006292E+03  0.14527417995E+04  0.44639749847E+03  0.15343415791E+04  0.50400001928E-02 0. -1.
</event>
<event>
 5   0  0.2504260E-06  0.2998728E+04  0.7818609E-02  0.8244094E-01
       -1   -1    0    0    0  501  0.00000000000E+00  0.00000000000E+00  0.11703228693E+04  0.11703228693E+04  0.50400001928E-02 0.  1.
        1   -1    0    0  501    0  0.00000000000E+00  0.00000000000E+00 -0.19209163470E+04  0.19209163470E+04  0.50400001928E-02 0. -1.
    10030    2    1    2    0    0  0.00000000000E+00  0.00000000000E+00 -0.75059347770E+03  0.30912392163E+04  0.29987279509E+04 0.  0.
        4    1    3    3  502    0 -0.12619221899E+04 -0.14760284352E+03 -0.11960091907E+04  0.17448993695E+04  0.12699999809E+01 0. -1.
       -4    1    3    3    0  502  0.12619221899E+04  0.14760284352E+03  0.44541571296E+03  0.13463398468E+04  0.12699999809E+01 0.  1.
</event>
<event>
 5   0  0.7193153E-06  0.3016616E+04  0.7818609E-02  0.8239002E-01
        2   -1    0    0  501    0  0.00000000000E+00  0.00000000000E+00  0.31976450051E+04  0.31976450051E+04  0.25500000920E-02 0. -1.
       -2   -1    0    0    0  501  0.00000000000E+00  0.00000000000E+00 -0.71145878960E+03  0.71145878960E+03  0.25500000920E-02 0.  1.
    10030    2    1    2    0    0  0.00000000000E+00  0.00000000000E+00  0.24861862155E+04  0.39091037947E+04  0.30166157494E+04 0.  0.
        4    1    3    3  502    0 -0.11475824919E+04 -0.97329948081E+03  0.13773477913E+04  0.20399377457E+04  0.12699999809E+01 0. -1.
       -4    1    3    3    0  502  0.11475824919E+04  0.97329948081E+03  0.11088384242E+04  0.18691660491E+04  0.12699999809E+01 0.  1.
</event>
<event>
 5   0  0.2552990E-06  0.3019623E+04  0.7818609E-02  0.8238149E-01
       -1   -1    0    0    0  501  0.00000000000E+00  0.00000000000E+00  0.26302109487E+04  0.26302109487E+04  0.50400001928E-02 0.  1.
        1   -1    0    0  501    0  0.00000000000E+00  0.00000000000E+00 -0.86667233356E+03  0.86667233357E+03  0.50400001928E-02 0. -1.
    10030    2    1    2    0    0  0.00000000000E+00  0.00000000000E+00  0.17635386152E+04  0.34968832823E+04  0.30196231955E+04 0.  0.
        3    1    3    3  502    0  0.13863582592E+04  0.59779222313E+03  0.86596345090E+03  0.17404704747E+04  0.10100000352E+00 0. -1.
       -3    1    3    3    0  502 -0.13863582592E+04 -0.59779222313E+03  0.89757516427E+03  0.17564128076E+04  0.10100000352E+00 0.  1.
</event>
<event>
 5   0  0.2672155E-06  0.2898920E+04  0.7818609E-02  0.8273199E-01
        1   -1    0    0  501    0  0.00000000000E+00  0.00000000000E+00  0.14721399660E+04  0.14721399660E+04  0.50400001928E-02 0.  1.
       -1   -1    0    0    0  501  0.00000000000E+00  0.00000000000E+00 -0.14271294897E+04  0.14271294897E+04  0.50400001928E-02 0. -1.
    10030    2    1    2    0    0  0.00000000000E+00  0.00000000000E+00  0.45010476303E+02  0.28992694557E+04  0.28989200462E+04 0.  0.
        5    1    3    3  502    0  0.66022321654E+02 -0.12329988544E+04  0.78171935215E+03  0.14614213484E+04  0.46999998093E+01 0.  1.
       -5    1    3    3    0  502 -0.66022321654E+02  0.12329988544E+04 -0.73670887584E+03  0.14378481073E+04  0.46999998093E+01 0. -1.
</event>
<event>
 5   0  0.2504260E-06  0.3012067E+04  0.7818609E-02  0.8240293E-01
        1   -1    0    0  501    0  0.00000000000E+00  0.00000000000E+00  0.76407282818E+03  0.76407282819E+03  0.50400001928E-02 0.  1.
       -1   -1    0    0    0  501  0.00000000000E+00  0.00000000000E+00 -0.29684827783E+04  0.29684827783E+04  0.50400001928E-02 0. -1.
    10030    2    1    2    0    0  0.00000000000E+00  0.00000000000E+00 -0.22044099501E+04  0.37325556065E+04  0.30120670855E+04 0.  0.
        4    1    3    3  502    0  0.13048323402E+04 -0.63286615951E+03 -0.16056140031E+04  0.21635861323E+04  0.12699999809E+01 0. -1.
       -4    1    3    3    0  502 -0.13048323402E+04  0.63286615951E+03 -0.59879594701E+03  0.15689694742E+04  0.12699999809E+01 0.  1.
</event>
<event>
 5   0  0.6792811E-06  0.3020044E+04  0.7818609E-02  0.8238030E-01
        2   -1    0    0  501    0  0.00000000000E+00  0.00000000000E+00  0.17028102442E+04  0.17028102442E+04  0.25500000920E-02 0. -1.
       -2   -1    0    0    0  501  0.00000000000E+00  0.00000000000E+00 -0.13390605307E+04  0.13390605307E+04  0.25500000920E-02 0.  1.
    10030    2    1    2    0    0  0.00000000000E+00  0.00000000000E+00  0.36374971350E+03  0.30418707748E+04  0.30200437011E+04 0.  0.
        2    1    3    3  502    0 -0.37495704112E+03 -0.30420184567E+03 -0.12592118367E+04  0.13486089112E+04  0.25500000920E-02 0.  1.
       -2    1    3    3    0  502  0.37495704112E+03  0.30420184567E+03  0.16229615502E+04  0.16932618637E+04  0.25500000920E-02 0. -1.
</event>
<event>
 5   0  0.7193153E-06  0.2375521E+04  0.7818609E-02  0.8448725E-01
        2   -1    0    0  501    0  0.00000000000E+00  0.00000000000E+00  0.17014606326E+04  0.17014606326E+04  0.25500000920E-02 0.  1.
       -2   -1    0    0    0  501  0.00000000000E+00  0.00000000000E+00 -0.82915535938E+03  0.82915535939E+03  0.25500000920E-02 0. -1.
    10030    2    1    2    0    0  0.00000000000E+00  0.00000000000E+00  0.87230527324E+03  0.25306159920E+04  0.23755211658E+04 0.  0.
        4    1    3    3  502    0 -0.46692817152E+03  0.14373237555E+03  0.15894686445E+04  0.16628569084E+04  0.12699999809E+01 0.  1.
       -4    1    3    3    0  502  0.46692817152E+03 -0.14373237555E+03 -0.71716337127E+03  0.86775908358E+03  0.12699999809E+01 0. -1.
</event>
<event>
 5   0  0.7193153E-06  0.3036505E+04  0.7818609E-02  0.8233383E-01
       -2   -1    0    0    0  501  0.00000000000E+00  0.00000000000E+00  0.17927485163E+04  0.17927485163E+04  0.25500000920E-02 0.  1.
        2   -1    0    0  501    0  0.00000000000E+00  0.00000000000E+00 -0.12857854387E+04  0.12857854387E+04  0.25500000920E-02 0. -1.
    10030    2    1    2    0    0  0.00000000000E+00  0.00000000000E+00  0.50696307760E+03  0.30785339549E+04  0.30365045282E+04 0.  0.
        4    1    3    3  502    0 -0.43622116592E+03  0.56619913519E+03 -0.11045429908E+04  0.13156318625E+04  0.12699999809E+01 0. -1.
       -4    1    3    3    0  502  0.43622116592E+03 -0.56619913519E+03  0.16115060684E+04  0.17629020924E+04  0.12699999809E+01 0.  1.
</event>
<event>
 5   0  0.2504260E-06  0.3026249E+04  0.7818609E-02  0.8236275E-01
       -1   -1    0    0    0  501  0.00000000000E+00  0.00000000000E+00  0.12570533942E+04  0.12570533942E+04  0.50400001928E-02 0. -1.
        1   -1    0    0  501    0  0.00000000000E+00  0.00000000000E+00 -0.18213594251E+04  0.18213594251E+04  0.50400001928E-02 0.  1.
    10030    2    1    2    0    0  0.00000000000E+00  0.00000000000E+00 -0.56430603092E+03  0.30784128193E+04  0.30262491949E+04 0.  0.
        4    1    3    3  502    0  0.12232379663E+04  0.43988972177E+03 -0.10699243685E+04  0.16836133335E+04  0.12699999809E+01 0.  1.
       -4    1    3    3    0  502 -0.12232379663E+04 -0.43988972177E+03  0.50561833758E+03  0.13947994858E+04  0.12699999809E+01 0. -1.
</event>
<event>
 5   0  0.6792811E-06  0.3097711E+04  0.7818609E-02  0.8216366E-01
       -2   -1    0    0    0  501  0.00000000000E+00  0.00000000000E+00  0.16301750708E+04  0.16301750708E+04  0.25500000920E-02 0. -1.
        2   -1    0    0  501    0  0.00000000000E+00  0.00000000000E+00 -0.14715925925E+04  0.14715925925E+04  0.25500000920E-02 0.  1.
    10030    2    1    2    0    0  0.00000000000E+00  0.00000000000E+00  0.15858247838E+03  0.31017676633E+04  0.30977111283E+04 0.  0.
        2    1    3    3  502    0 -0.99439934922E+03  0.30488633742E+03 -0.10698909941E+04  0.14921301833E+04  0.25500000920E-02 0.  1.
       -2    1    3    3    0  502  0.99439934922E+03 -0.30488633742E+03  0.12284734725E+04  0.16096374800E+04  0.25500000920E-02 0. -1.
</event>
<event>
 5   0  0.7193153E-06  0.3073197E+04  0.7818609E-02  0.8223133E-01
        2   -1    0    0  501    0  0.00000000000E+00  0.00000000000E+00  0.25411864897E+04  0.25411864897E+04  0.25500000920E-02 0. -1.
       -2   -1    0    0    0  501  0.00000000000E+00  0.00000000000E+00 -0.92914658188E+03  0.92914658189E+03  0.25500000920E-02 0.  1.
    10030    2    1    2    0    0  0.00000000000E+00  0.00000000000E+00  0.16120399078E+04  0.34703330716E+04  0.30731968638E+04 0.  0.
        4    1    3    3  502    0  0.65917719652E+03  0.50429946620E+03 -0.65426614324E+03  0.10568341058E+04  0.12699999809E+01 0.  1.
       -4    1    3    3    0  502 -0.65917719652E+03 -0.50429946620E+03  0.22663060511E+04  0.24134989658E+04  0.12699999809E+01 0. -1.
</event>
<event>
 5   0  0.6780150E-06  0.3259153E+04  0.7818609E-02  0.8173367E-01
       -2   -1    0    0    0  501  0.00000000000E+00  0.00000000000E+00  0.10448069178E+04  0.10448069178E+04  0.25500000920E-02 0.  1.
        2   -1    0    0  501    0  0.00000000000E+00  0.00000000000E+00 -0.25416359556E+04  0.25416359556E+04  0.25500000920E-02 0. -1.
    10030    2    1    2    0    0  0.00000000000E+00  0.00000000000E+00 -0.14968290379E+04  0.35864428734E+04  0.32591525456E+04 0.  0.
        5    1    3    3  502    0  0.77899745630E+03 -0.70358798317E+03  0.62320021426E+03  0.12207676618E+04  0.46999998093E+01 0.  1.
       -5    1    3    3    0  502 -0.77899745630E+03  0.70358798317E+03 -0.21200292521E+04  0.23656752116E+04  0.46999998093E+01 0. -1.
</event>
<event>
 5   0  0.2422083E-06  0.3003715E+04  0.7818609E-02  0.8242671E-01
       -1   -1    0    0    0  501  0.00000000000E+00  0.00000000000E+00  0.12841599693E+04  0.12841599693E+04  0.50400001928E-02 0. -1.
        1   -1    0    0  501    0  0.00000000000E+00  0.00000000000E+00 -0.17564606647E+04  0.17564606647E+04  0.50400001928E-02 0.  1.
    10030    2    1    2    0    0  0.00000000000E+00  0.00000000000E+00 -0.47230069543E+03  0.30406206340E+04  0.30037153482E+04 0.  0.
        2    1    3    3  502    0  0.47416021825E+02  0.11438722848E+04  0.74784444875E+03  0.13674660518E+04  0.25500000920E-02 0. -1.
       -2    1    3    3    0  502 -0.47416021825E+02 -0.11438722848E+04 -0.12201451442E+04  0.16731545822E+04  0.25500000920E-02 0.  1.
</event>
<event>
 5   0  0.6780150E-06  0.3036827E+04  0.7818609E-02  0.8233292E-01
       -2   -1    0    0    0  501  0.00000000000E+00  0.00000000000E+00  0.17433498460E+04  0.17433498460E+04  0.25500000920E-02 0. -1.
        2   -1    0    0  501    0  0.00000000000E+00  0.00000000000E+00 -0.13224993239E+04  0.13224993239E+04  0.25500000920E-02 0.  1.
    10030    2    1    2    0    0  0.00000000000E+00  0.00000000000E+00  0.42085052211E+03  0.30658491699E+04  0.30368266284E+04 0.  0.
        5    1    3    3  502    0  0.74448039334E+03 -0.30152764956E+03 -0.10904493521E+04  0.13543529300E+04  0.46999998093E+01 0.  1.
       -5    1    3    3    0  502 -0.74448039334E+03  0.30152764956E+03  0.15112998742E+04  0.17114962399E+04  0.46999998093E+01 0. -1.
</event>
<event>
 5   0  0.2298500E-06  0.3037678E+04  0.7818609E-02  0.8233053E-01
       -3   -1    0    0    0  501  0.00000000000E+00  0.00000000000E+00  0.88570626088E+03  0.88570626664E+03  0.10100000352E+00 0. -1.
        3   -1    0    0  501    0  0.00000000000E+00  0.00000000000E+00 -0.26045556713E+04  0.26045556732E+04  0.10100000352E+00 0.  1.
    10030    2    1    2    0    0  0.00000000000E+00  0.00000000000E+00 -0.17188494104E+04  0.34902619399E+04  0.30376775855E+04 0.  0.
        2    1    3    3  502    0  0.12722727403E+03 -0.12238506049E+04 -0.18825256526E+04  0.22489775266E+04  0.25500000920E-02 0.  1.
       -2    1    3    3    0  502 -0.12722727403E+03  0.12238506049E+04  0.16367624225E+03  0.12412844133E+04  0.25500000920E-02 0. -1.
</event>
<event>
 5   0  0.2422083E-06  0.3097160E+04  0.7818609E-02  0.8216518E-01
       -1   -1    0    0    0  501  0.00000000000E+00  0.00000000000E+00  0.13193534254E+04  0.13193534254E+04  0.50400001928E-02 0.  1.
        1   -1    0    0  501    0  0.00000000000E+00  0.00000000000E+00 -0.18176322792E+04  0.18176322793E+04  0.50400001928E-02 0. -1.
    10030    2    1    2    0    0  0.00000000000E+00  0.00000000000E+00 -0.49827885383E+03  0.31369857047E+04  0.30971595850E+04 0.  0.
        2    1    3    3  502    0 -0.18071316251E+03  0.55461312596E+03  0.12038265156E+04  0.13377037214E+04  0.25500000920E-02 0.  1.
       -2    1    3    3    0  502  0.18071316251E+03 -0.55461312596E+03 -0.17021053694E+04  0.17992819833E+04  0.25500000920E-02 0. -1.
</event>
<event>
 5   0  0.7217255E-06  0.2939749E+04  0.7818609E-02  0.8261148E-01
        2   -1    0    0  501    0  0.00000000000E+00  0.00000000000E+00  0.14816425195E+04  0.14816425195E+04  0.25500000920E-02 0.  1.
       -2   -1    0    0    0  501  0.00000000000E+00  0.00000000000E+00 -0.14581996246E+04  0.14581996246E+04  0.25500000920E-02 0. -1.
    10030    2    1    2    0    0  0.00000000000E+00  0.00000000000E+00  0.23442894918E+02  0.29398421442E+04  0.29397486735E+04 0.  0.
        1    1    3    3  502    0 -0.84316697141E+03  0.11381116377E+04  0.40454677323E+03  0.14730535406E+04  0.50400001928E-02 0.  1.
       -1    1    3    3    0  502  0.84316697141E+03 -0.11381116377E+04 -0.38110387832E+03  0.14667886036E+04  0.50400001928E-02 0. -1.
</event>
<event>
 5   0  0.2504260E-06  0.2973546E+04  0.7818609E-02  0.8251325E-01
        1   -1    0    0  501    0  0.00000000000E+00  0.00000000000E+00  0.10961076006E+04  0.10961076006E+04  0.50400001928E-02 0. -1.
       -1   -1    0    0    0  501  0.00000000000E+00  0.00000000000E+00 -0.20166765379E+04  0.20166765379E+04  0.50400001928E-02 0.  1.
    10030    2    1    2    0    0  0.00000000000E+00  0.00000000000E+00 -0.92056893730E+03  0.31127841385E+04  0.29735463549E+04 0.  0.
        4    1    3    3  502    0 -0.85242674707E+03 -0.11947216332E+04 -0.70911585429E+03  0.16299809961E+04  0.12699999809E+01 0.  1.
       -4    1    3    3    0  502  0.85242674707E+03  0.11947216332E+04 -0.21145308301E+03  0.14828031424E+04  0.12699999809E+01 0. -1.
</event>
<event>
 5   0  0.7201538E-06  0.3016497E+04  0.7818609E-02  0.8239036E-01
       -2   -1    0    0    0  501  0.00000000000E+00  0.00000000000E+00  0.11307001578E+04  0.11307001578E+04  0.25500000920E-02 0. -1.
        2   -1    0    0  501    0  0.00000000000E+00  0.00000000000E+00 -0.20118632899E+04  0.20118632899E+04  0.25500000920E-02 0.  1.
    10030    2    1    2    0    0  0.00000000000E+00  0.00000000000E+00 -0.88116313202E+03  0.31425634477E+04  0.30164973989E+04 0.  0.
        3    1    3    3  502    0  0.83485708439E+03 -0.63041868098E+03  0.69128625180E+03  0.12539101869E+04  0.10100000352E+00 0. -1.
       -3    1    3    3    0  502 -0.83485708439E+03  0.63041868098E+03 -0.15724493838E+04  0.18886532608E+04  0.10100000352E+00 0.  1.
</event>
<event>
 5   0  0.2672155E-06  0.2998242E+04  0.7818609E-02  0.8244233E-01
       -1   -1    0    0    0  501  0.00000000000E+00  0.00000000000E+00  0.79938619899E+03  0.79938619900E+03  0.50400001928E-02 0.  1.
        1   -1    0    0  501    0  0.00000000000E+00  0.00000000000E+00 -0.28113621614E+04  0.28113621614E+04  0.50400001928E-02 0. -1.
    10030    2    1    2    0    0  0.00000000000E+00  0.00000000000E+00 -0.20119759624E+04  0.36107483604E+04  0.29982422265E+04 0.  0.
        5    1    3    3  502    0  0.44614051631E+03 -0.13101257675E+04 -0.31221841154E+03  0.14187929072E+04  0.46999998093E+01 0. -1.
       -5    1    3    3    0  502 -0.44614051631E+03  0.13101257675E+04 -0.16997575509E+04  0.21919554532E+04  0.46999998093E+01 0.  1.
</event>
<event>
 5   0  0.2552990E-06  0.3113041E+04  0.7818609E-02  0.8212168E-01
        1   -1    0    0  501    0  0.00000000000E+00  0.00000000000E+00  0.84866328809E+03  0.84866328810E+03  0.50400001928E-02 0. -1.
       -1   -1    0    0    0  501  0.00000000000E+00  0.00000000000E+00 -0.28547909098E+04  0.28547909098E+04  0.50400001928E-02 0.  1.
    10030    2    1    2    0    0  0.00000000000E+00  0.00000000000E+00 -0.20061276217E+04  0.37034541979E+04  0.31130411114E+04 0.  0.
        3    1    3    3  502    0  0.99895439478E+03 -0.11522848792E+04 -0.63238290785E+03  0.16509326086E+04  0.10100000352E+00 0. -1.
       -3    1    3    3    0  502 -0.99895439478E+03  0.11522848792E+04 -0.13737447139E+04  0.20525215893E+04  0.10100000352E+00 0.  1.
</event>
<event>
 5   0  0.2298500E-06  0.2989495E+04  0.7818609E-02  0.8246737E-01
        3   -1    0    0  501    0  0.00000000000E+00  0.00000000000E+00  0.14523596403E+04  0.14523596438E+04  0.10100000352E+00 0. -1.
       -3   -1    0    0    0  501  0.00000000000E+00  0.00000000000E+00 -0.15383724406E+04  0.15383724439E+04  0.10100000352E+00 0.  1.
    10030    2    1    2    0    0  0.00000000000E+00  0.00000000000E+00 -0.86012800295E+02  0.29907320877E+04  0.29894949771E+04 0.  0.
        5    1    3    3  502    0 -0.25232582505E+03 -0.95814646486E+03 -0.11626366316E+04  0.15275663642E+04  0.46999998093E+01 0.  1.
       -5    1    3    3    0  502  0.25232582505E+03  0.95814646486E+03  0.10766238313E+04  0.14631657234E+04  0.46999998093E+01 0. -1.
</event>
<event>
 5   0  0.6792811E-06  0.2685920E+04  0.7818609E-02  0.8339588E-01
       -2   -1    0    0    0  501  0.00000000000E+00  0.00000000000E+00  0.89256813628E+03  0.89256813628E+03  0.25500000920E-02 0. -1.
        2   -1    0    0  501    0  0.00000000000E+00  0.00000000000E+00 -0.20206211016E+04  0.20206211016E+04  0.25500000920E-02 0.  1.
    10030    2    1    2    0    0  0.00000000000E+00  0.00000000000E+00 -0.11280529653E+04  0.29131892379E+04  0.26859203345E+04 0.  0.
        2    1    3    3  502    0 -0.48405731449E+03  0.12284643361E+04 -0.82993615134E+03  0.15595608754E+04  0.25500000920E-02 0.  1.
       -2    1    3    3    0  502  0.48405731449E+03 -0.12284643361E+04 -0.29811681395E+03  0.13536283624E+04  0.25500000920E-02 0. -1.
</event>
<event>
 5   0  0.6780150E-06  0.3024871E+04  0.7818609E-02  0.8236664E-01
       -2   -1    0    0    0  501  0.00000000000E+00  0.00000000000E+00  0.14809193078E+04  0.14809193078E+04  0.25500000920E-02 0. -1.
        2   -1    0    0  501    0  0.00000000000E+00  0.00000000000E+00 -0.15446228545E+04  0.15446228545E+04  0.25500000920E-02 0.  1.
    10030    2    1    2    0    0  0.00000000000E+00  0.00000000000E+00 -0.63703546781E+02  0.30255421623E+04  0.30248714409E+04 0.  0.
        5    1    3    3  502    0  0.77748408863E+03 -0.91133058194E+03  0.89162689604E+03  0.14933270068E+04  0.46999998093E+01 0. -1.
       -5    1    3    3    0  502 -0.77748408863E+03  0.91133058194E+03 -0.95533044282E+03  0.15322151555E+04  0.46999998093E+01 0.  1.
</event>
<event>
 5   0  0.2504260E-06  0.2977631E+04  0.7818609E-02  0.8250147E-01
        1   -1    0    0  501    0  0.00000000000E+00  0.00000000000E+00  0.18578342193E+04  0.18578342193E+04  0.50400001928E-02 0. -1.
       -1   -1    0    0    0  501  0.00000000000E+00  0.00000000000E+00 -0.11930946703E+04  0.11930946703E+04  0.50400001928E-02 0.  1.
    10030    2    1    2    0    0  0.00000000000E+00  0.00000000000E+00  0.66473954902E+03  0.30509288896E+04  0.29776313441E+04 0.  0.
        4    1    3    3  502    0  0.13906184947E+04 -0.44499942669E+03  0.34126928553E+02  0.14604829844E+04  0.12699999809E+01 0.  1.
       -4    1    3    3    0  502 -0.13906184947E+04  0.44499942669E+03  0.63061262047E+03  0.15904459052E+04  0.12699999809E+01 0. -1.
</event>
<event>
 5   0  0.7193153E-06  0.2946090E+04  0.7818609E-02  0.8259295E-01
        2   -1    0    0  501    0  0.00000000000E+00  0.00000000000E+00  0.16293275600E+04  0.16293275600E+04  0.25500000920E-02 0. -1.
       -2   -1    0    0    0  501  0.00000000000E+00  0.00000000000E+00 -0.13317526934E+04  0.13317526934E+04  0.25500000920E-02 0.  1.
    10030    2    1    2    0    0  0.00000000000E+00  0.00000000000E+00  0.29757486653E+03  0.29610802534E+04  0.29460898605E+04 0.  0.
        4    1    3    3  502    0  0.93730606797E+03 -0.82960051141E+03  0.92932117264E+03  0.15589801565E+04  0.12699999809E+01 0. -1.
       -4    1    3    3    0  502 -0.93730606797E+03  0.82960051141E+03 -0.63174630611E+03  0.14021000969E+04  0.12699999809E+01 0.  1.
</event>
<event>
 5   0  0.2672155E-06  0.2961317E+04  0.7818609E-02  0.8254864E-01
        1   -1    0    0  501    0  0.00000000000E+00  0.00000000000E+00  0.84716045834E+03  0.84716045835E+03  0.50400001928E-02 0. -1.
       -1   -1    0    0    0  501  0.00000000000E+00  0.00000000000E+00 -0.25878805839E+04  0.25878805839E+04  0.50400001928E-02 0.  1.
    10030    2    1    2    0    0  0.00000000000E+00  0.00000000000E+00 -0.17407201255E+04  0.34350410422E+04  0.29613173431E+04 0.  0.
        5    1    3    3  502    0 -0.56093266077E+03  0.13486125621E+04 -0.11519409097E+04  0.18602126873E+04  0.46999998093E+01 0. -1.
       -5    1    3    3    0  502  0.56093266077E+03 -0.13486125621E+04 -0.58877921584E+03  0.15748283549E+04  0.46999998093E+01 0.  1.
</event>
<event>
 5   0  0.6792811E-06  0.2350089E+04  0.7818609E-02  0.8458430E-01
       -2   -1    0    0    0  501  0.00000000000E+00  0.00000000000E+00  0.11332225139E+04  0.11332225139E+04  0.25500000920E-02 0. -1.
        2   -1    0    0  501    0  0.00000000000E+00  0.00000000000E+00 -0.12184096947E+04  0.12184096947E+04  0.25500000920E-02 0.  1.
    10030    2    1    2    0    0  0.00000000000E+00  0.00000000000E+00 -0.85187180843E+02  0.23516322086E+04  0.23500887619E+04 0.  0.
        2    1    3    3  502    0  0.25336127400E+03  0.10741266666E+04 -0.44633009326E+03  0.11904413396E+04  0.25500000920E-02 0. -1.
       -2    1    3    3    0  502 -0.25336127400E+03 -0.10741266666E+04  0.36114291242E+03  0.11611908690E+04  0.25500000920E-02 0.  1.
</event>
<event>
 5   0  0.7201538E-06  0.3172786E+04  0.7818609E-02  0.8196041E-01
        2   -1    0    0  501    0  0.00000000000E+00  0.00000000000E+00  0.21004024720E+04  0.21004024720E+04  0.25500000920E-02 0. -1.
       -2   -1    0    0    0  501  0.00000000000E+00  0.00000000000E+00 -0.11981720330E+04  0.11981720330E+04  0.25500000920E-02 0.  1.
    10030    2    1    2    0    0  0.00000000000E+00  0.00000000000E+00  0.90223043896E+03  0.32985745050E+04  0.31727864725E+04 0.  0.
        3    1    3    3  502    0 -0.12825667005E+04 -0.82543508869E+03  0.90467147572E+03  0.17733445565E+04  0.10100000352E+00 0. -1.
       -3    1    3    3    0  502  0.12825667005E+04  0.82543508869E+03 -0.24410367606E+01  0.15252299485E+04  0.10100000352E+00 0.  1.
</event>
<event>
 5   0  0.2422083E-06  0.3013628E+04  0.7818609E-02  0.8239850E-01
       -1   -1    0    0    0  501  0.00000000000E+00  0.00000000000E+00  0.18675435078E+04  0.18675435078E+04  0.50400001928E-02 0.  1.
        1   -1    0    0  501    0  0.00000000000E+00  0.00000000000E+00 -0.12157619735E+04  0.12157619735E+04  0.50400001928E-02 0. -1.
    10030    2    1    2    0    0  0.00000000000E+00  0.00000000000E+00  0.65178153424E+03  0.30833054813E+04  0.30136279669E+04 0.  0.
        2    1    3    3  502    0  0.11573080245E+04  0.30201032016E+02 -0.66088494168E+03  0.13330577152E+04  0.25500000920E-02 0. -1.
       -2    1    3    3    0  502 -0.11573080245E+04 -0.30201032016E+02  0.13126664759E+04  0.17502477661E+04  0.25500000920E-02 0.  1.
</event>
<event>
 5   0  0.2672155E-06  0.2961603E+04  0.7818609E-02  0.8254781E-01
        1   -1    0    0  501    0  0.00000000000E+00  0.00000000000E+00  0.17043491768E+04  0.17043491768E+04  0.50400001928E-02 0.  1.
       -1   -1    0    0    0  501  0.00000000000E+00  0.00000000000E+00 -0.12865746877E+04  0.12865746877E+04  0.50400001928E-02 0. -1.
    10030    2    1    2    0    0  0.00000000000E+00  0.00000000000E+00  0.41777448918E+03  0.29909238645E+04  0.29616026134E+04 0.  0.
        5    1    3    3  502    0  0.17896569603E+03  0.10879930967E+04 -0.78932809039E+03  0.13560304654E+04  0.46999998093E+01 0. -1.
       -5    1    3    3    0  502 -0.17896569603E+03 -0.10879930967E+04  0.12071025796E+04  0.16348933991E+04  0.46999998093E+01 0.  1.
</event>
<event>
 5   0  0.7201538E-06  0.3008098E+04  0.7818609E-02  0.8241422E-01
       -2   -1    0    0    0  501  0.00000000000E+00  0.00000000000E+00  0.16797089518E+04  0.16797089518E+04  0.25500000920E-02 0.  1.
        2   -1    0    0  501    0  0.00000000000E+00  0.00000000000E+00 -0.13467589564E+04  0.13467589564E+04  0.25500000920E-02 0. -1.
    10030    2    1    2    0    0  0.00000000000E+00  0.00000000000E+00  0.33294999537E+03  0.30264679082E+04  0.30080977876E+04 0.  0.
        3    1    3    3  502    0 -0.15113360982E+03  0.61732011871E+03  0.15379716152E+04  0.16641160405E+04  0.10100000352E+00 0.  1.
       -3    1    3    3    0  502  0.15113360982E+03 -0.61732011871E+03 -0.12050216198E+04  0.13623518677E+04  0.10100000352E+00 0. -1.
</event>
<event>
 5   0  0.7201538E-06  0.2684497E+04  0.7818609E-02  0.8340053E-01
        2   -1    0    0  501    0  0.00000000000E+00  0.00000000000E+00  0.21915487937E+04  0.21915487937E+04  0.25500000920E-02 0. -1.
       -2   -1    0    0    0  501  0.00000000000E+00  0.00000000000E+00 -0.82208147137E+03  0.82208147137E+03  0.25500000920E-02 0.  1.
    10030    2    1    2    0    0  0.00000000000E+00  0.00000000000E+00  0.13694673224E+04  0.30136302651E+04  0.26844974628E+04 0.  0.
        3    1    3    3  502    0  0.30640748620E+02 -0.97645933789E+03  0.17180303995E+04  0.19763704505E+04  0.10100000352E+00 0. -1.
       -3    1    3    3    0  502 -0.30640748620E+02  0.97645933789E+03 -0.34856307710E+03  0.10372598146E+04  0.10100000352E+00 0.  1.
</event>
<event>
 5   0  0.6792811E-06  0.3129085E+04  0.7818609E-02  0.8207801E-01
        2   -1    0    0  501    0  0.00000000000E+00  0.00000000000E+00  0.18114307917E+04  0.18114307917E+04  0.25500000920E-02 0.  1.
       -2   -1    0    0    0  501  0.00000000000E+00  0.00000000000E+00 -0.13513040212E+04  0.13513040212E+04  0.25500000920E-02 0. -1.
    10030    2    1    2    0    0  0.00000000000E+00  0.00000000000E+00  0.46012677047E+03  0.31627348128E+04  0.31290853059E+04 0.  0.
        2    1    3    3  502    0  0.79869025421E+02 -0.13316853601E+03 -0.13434958145E+04  0.13524399890E+04  0.25500000920E-02 0. -1.
       -2    1    3    3    0  502 -0.79869025421E+02  0.13316853601E+03  0.18036225850E+04  0.18102948239E+04  0.25500000920E-02 0.  1.
</event>
<event>
 5   0  0.2628425E-06  0.2995442E+04  0.7818609E-02  0.8245034E-01
        1   -1    0    0  501    0  0.00000000000E+00  0.00000000000E+00  0.17297503436E+04  0.17297503436E+04  0.50400001928E-02 0. -1.
       -1   -1    0    0    0  501  0.00000000000E+00  0.00000000000E+00 -0.12968163770E+04  0.12968163770E+04  0.50400001928E-02 0.  1.
    10030    2    1    2    0    0  0.00000000000E+00  0.00000000000E+00  0.43293396657E+03  0.30265667206E+04  0.29954422537E+04 0.  0.
        1    1    3    3  502    0 -0.70422553403E+03 -0.19583445731E+03  0.15372928690E+04  0.17022203449E+04  0.50400001928E-02 0. -1.
       -1    1    3    3    0  502  0.70422553403E+03  0.19583445731E+03 -0.11043589024E+04  0.13243463757E+04  0.50400001928E-02 0.  1.
</event>
<event>
 5   0  0.7193153E-06  0.3068658E+04  0.7818609E-02  0.8224392E-01
        2   -1    0    0  501    0  0.00000000000E+00  0.00000000000E+00  0.16532709489E+04  0.16532709489E+04  0.25500000920E-02 0.  1.
       -2   -1    0    0    0  501  0.00000000000E+00  0.00000000000E+00 -0.14239445607E+04  0.14239445607E+04  0.25500000920E-02 0. -1.
    10030    2    1    2    0    0  0.00000000000E+00  0.00000000000E+00  0.22932638824E+03  0.30772155096E+04  0.30686584529E+04 0.  0.
        4    1    3    3  502    0 -0.37993392477E+03 -0.97272260323E+03 -0.10125824144E+04  0.14546009105E+04  0.12699999809E+01 0. -1.
       -4    1    3    3    0  502  0.37993392477E+03  0.97272260323E+03  0.12419088027E+04  0.16226145991E+04  0.12699999809E+01 0.  1.
</event>
<event>
 5   0  0.7201538E-06  0.3020229E+04  0.7818609E-02  0.8237978E-01
        2   -1    0    0  501    0  0.00000000000E+00  0.00000000000E+00  0.15698420991E+04  0.15698420991E+04  0.25500000920E-02 0.  1.
       -2   -1    0    0    0  501  0.00000000000E+00  0.00000000000E+00 -0.14526588781E+04  0.14526588781E+04  0.25500000920E-02 0. -1.
    10030    2    1    2    0    0  0.00000000000E+00  0.00000000000E+00  0.11718322103E+03  0.30225009772E+04  0.30202285095E+04 0.  0.
        3    1    3    3  502    0  0.10394714984E+04 -0.17405612832E+03  0.11409082493E+04  0.15532122120E+04  0.10100000352E+00 0.  1.
       -3    1    3    3    0  502 -0.10394714984E+04  0.17405612832E+03 -0.10237250283E+04  0.14692887652E+04  0.10100000352E+00 0. -1.
</event>
<event>
 5   0  0.2422083E-06  0.2992985E+04  0.7818609E-02  0.8245737E-01
       -1   -1    0    0    0  501  0.00000000000E+00  0.00000000000E+00  0.12823027831E+04  0.12823027831E+04  0.50400001928E-02 0. -1.
        1   -1    0    0  501    0  0.00000000000E+00  0.00000000000E+00 -0.17464600246E+04  0.17464600246E+04  0.50400001928E-02 0.  1.
    10030    2    1    2    0    0  0.00000000000E+00  0.00000000000E+00 -0.46415724153E+03  0.30287628077E+04  0.29929854996E+04 0.  0.
        2    1    3    3  502    0  0.66731342976E+03 -0.76708445656E+02  0.11211797933E+04  0.13069948462E+04  0.25500000920E-02 0. -1.
       -2    1    3    3    0  502 -0.66731342976E+03  0.76708445656E+02 -0.15853370348E+04  0.17217679615E+04  0.25500000920E-02 0.  1.
</event>
<event>
 5   0  0.2628425E-06  0.3045575E+04  0.7818609E-02  0.8230835E-01
        1   -1    0    0  501    0  0.00000000000E+00  0.00000000000E+00  0.11363344925E+04  0.11363344925E+04  0.50400001928E-02 0.  1.
       -1   -1    0    0    0  501  0.00000000000E+00  0.00000000000E+00 -0.20406682720E+04  0.20406682720E+04  0.50400001928E-02 0. -1.
    10030    2    1    2    0    0  0.00000000000E+00  0.00000000000E+00 -0.90433377952E+03  0.31770027645E+04  0.30455749836E+04 0.  0.
        1    1    3    3  502    0  0.13462368859E+04  0.64490644820E+03 -0.13813835849E+03  0.14991131665E+04  0.50400001928E-02 0. -1.
       -1    1    3    3    0  502 -0.13462368859E+04 -0.64490644820E+03 -0.76619542103E+03  0.16778895980E+04  0.50400001928E-02 0.  1.
</event>
<event>
 5   0  0.7217255E-06  0.2457532E+04  0.7818609E-02  0.8418273E-01
       -2   -1    0    0    0  501  0.00000000000E+00  0.00000000000E+00  0.13779982688E+04  0.13779982688E+04  0.25500000920E-02 0. -1.
        2   -1    0    0  501    0  0.00000000000E+00  0.00000000000E+00 -0.10956948059E+04  0.10956948059E+04  0.25500000920E-02 0.  1.
    10030    2    1    2    0    0  0.00000000000E+00  0.00000000000E+00  0.28230346292E+03  0.24736930748E+04  0.24575317257E+04 0.  0.
        1    1    3    3  502    0  0.40560925070E+03 -0.16904715171E+03  0.12962038986E+04  0.13686637098E+04  0.50400001928E-02 0. -1.
       -1    1    3    3    0  502 -0.40560925070E+03  0.16904715171E+03 -0.10139004357E+04  0.11050293649E+04  0.50400001928E-02 0.  1.
</event>
<event>
 5   0  0.2672155E-06  0.2801600E+04  0.7818609E-02  0.8302772E-01
        1   -1    0    0  501    0  0.00000000000E+00  0.00000000000E+00  0.15740259395E+04  0.15740259395E+04  0.50400001928E-02 0.  1.
       -1   -1    0    0    0  501  0.00000000000E+00  0.00000000000E+00 -0.12466377198E+04  0.12466377198E+04  0.50400001928E-02 0. -1.
    10030    2    1    2    0    0  0.00000000000E+00  0.00000000000E+00  0.32738821970E+03  0.28206636592E+04  0.28015996202E+04 0.  0.
        5    1    3    3  502    0 -0.83683587232E+03 -0.84669499754E+03  0.90698012883E+03  0.14966034011E+04  0.46999998093E+01 0.  1.
       -5    1    3    3    0  502  0.83683587232E+03  0.84669499754E+03 -0.57959190913E+03  0.13240602581E+04  0.46999998093E+01 0. -1.
</event>
<event>
 5   0  0.2628425E-06  0.2989946E+04  0.7818609E-02  0.8246608E-01
        1   -1    0    0  501    0  0.00000000000E+00  0.00000000000E+00  0.14771932799E+04  0.14771932799E+04  0.50400001928E-02 0. -1.
       -1   -1    0    0    0  501  0.00000000000E+00  0.00000000000E+00 -0.15129662528E+04  0.15129662528E+04  0.50400001928E-02 0.  1.
    10030    2    1    2    0    0  0.00000000000E+00  0.00000000000E+00 -0.35772972842E+02  0.29901595327E+04  0.29899455389E+04 0.  0.
        1    1    3    3  502    0  0.74735227592E+03  0.12939423190E+04 -0.63948788710E+02  0.14956308358E+04  0.50400001928E-02 0.  1.
       -1    1    3    3    0  502 -0.74735227592E+03 -0.12939423190E+04  0.28175815868E+02  0.14945286969E+04  0.50400001928E-02 0. -1.
</event>
<event>
 5   0  0.7201538E-06  0.2974902E+04  0.7818609E-02  0.8250934E-01
       -2   -1    0    0    0  501  0.00000000000E+00  0.00000000000E+00  0.22058611402E+04  0.22058611402E+04  0.25500000920E-02 0.  1.
        2   -1    0    0  501    0  0.00000000000E+00  0.00000000000E+00 -0.10030140641E+04  0.10030140641E+04  0.25500000920E-02 0. -1.
    10030    2    1    2    0    0  0.00000000000E+00  0.00000000000E+00  0.12028470761E+04  0.32088752043E+04  0.29749015090E+04 0.  0.
        3    1    3    3  502    0 -0.26903874824E+02  0.14608329453E+04  0.30065051494E+03  0.14916928152E+04  0.10100000352E+00 0. -1.
       -3    1    3    3    0  502  0.26903874824E+02 -0.14608329453E+04  0.90219656113E+03  0.17171823892E+04  0.10100000352E+00 0.  1.
</event>
<event>
 5   0  0.2628425E-06  0.2992228E+04  0.7818609E-02  0.8245954E-01
        1   -1    0    0  501    0  0.00000000000E+00  0.00000000000E+00  0.12900978463E+04  0.12900978463E+04  0.50400001928E-02 0. -1.
       -1   -1    0    0    0  501  0.00000000000E+00  0.00000000000E+00 -0.17350293253E+04  0.17350293253E+04  0.50400001928E-02 0.  1.
    10030    2    1    2    0    0  0.00000000000E+00  0.00000000000E+00 -0.44493147899E+03  0.30251271716E+04  0.29922283308E+04 0.  0.
        1    1    3    3  502    0 -0.40726788586E+03  0.12950189008E+04 -0.85820100906E+03  0.16060666413E+04  0.50400001928E-02 0.  1.
       -1    1    3    3    0  502  0.40726788586E+03 -0.12950189008E+04  0.41326953007E+03  0.14190605303E+04  0.50400001928E-02 0. -1.
</event>
<event>
 5   0  0.2628425E-06  0.2963127E+04  0.7818609E-02  0.8254339E-01
       -1   -1    0    0    0  501  0.00000000000E+00  0.00000000000E+00  0.79411144200E+03  0.79411144201E+03  0.50400001928E-02 0.  1.
        1   -1    0    0  501    0  0.00000000000E+00  0.00000000000E+00 -0.27641330333E+04  0.27641330333E+04  0.50400001928E-02 0. -1.
    10030    2    1    2    0    0  0.00000000000E+00  0.00000000000E+00 -0.19700215913E+04  0.35582444753E+04  0.29631265035E+04 0.  0.
        1    1    3    3  502    0 -0.13905894643E+04  0.46105918196E+03 -0.12500542779E+04  0.19258635271E+04  0.50400001928E-02 0.  1.
       -1    1    3    3    0  502  0.13905894643E+04 -0.46105918196E+03 -0.71996731338E+03  0.16323809481E+04  0.50400001928E-02 0. -1.
</event>
<event>
 5   0  0.2422083E-06  0.2839941E+04  0.7818609E-02  0.8290975E-01
       -1   -1    0    0    0  501  0.00000000000E+00  0.00000000000E+00  0.14763065545E+04  0.14763065545E+04  0.50400001928E-02 0.  1.
        1   -1    0    0  501    0  0.00000000000E+00  0.00000000000E+00 -0.13657839244E+04  0.13657839244E+04  0.50400001928E-02 0. -1.
    10030    2    1    2    0    0  0.00000000000E+00  0.00000000000E+00  0.11052263019E+03  0.28420904789E+04  0.28399406752E+04 0.  0.
        2    1    3    3  502    0  0.11960184103E+04  0.69445447432E+03  0.37735694568E+03  0.14335708281E+04  0.25500000920E-02 0. -1.
       -2    1    3    3    0  502 -0.11960184103E+04 -0.69445447432E+03 -0.26683431549E+03  0.14085196508E+04  0.25500000920E-02 0.  1.
</event>
<event>
 5   0  0.7217255E-06  0.2966145E+04  0.7818609E-02  0.8253465E-01
       -2   -1    0    0    0  501  0.00000000000E+00  0.00000000000E+00  0.12997749280E+04  0.12997749280E+04  0.25500000920E-02 0. -1.
        2   -1    0    0  501    0  0.00000000000E+00  0.00000000000E+00 -0.16922187761E+04  0.16922187761E+04  0.25500000920E-02 0.  1.
    10030    2    1    2    0    0  0.00000000000E+00  0.00000000000E+00 -0.39244384806E+03  0.29919937041E+04  0.29661446613E+04 0.  0.
        1    1    3    3  502    0  0.83294493202E+03  0.89035426077E+03  0.65551538503E+03  0.13842790143E+04  0.50400001928E-02 0. -1.
       -1    1    3    3    0  502 -0.83294493202E+03 -0.89035426077E+03 -0.10479592331E+04  0.16077146898E+04  0.50400001928E-02 0.  1.
</event>
<event>
 5   0  0.2298500E-06  0.3022133E+04  0.7818609E-02  0.8237439E-01
        3   -1    0    0  501    0  0.00000000000E+00  0.00000000000E+00  0.14557448602E+04  0.14557448637E+04  0.10100000352E+00 0.  1.
       -3   -1    0    0    0  501  0.00000000000E+00  0.00000000000E+00 -0.15684905901E+04  0.15684905934E+04  0.10100000352E+00 0. -1.
    10030    2    1    2    0    0  0.00000000000E+00  0.00000000000E+00 -0.11274572991E+03  0.30242354571E+04  0.30221331043E+04 0.  0.
        3    1    3    3  502    0  0.73373542862E+03  0.26876884808E+03 -0.13506084734E+04  0.15603677873E+04  0.10100000352E+00 0. -1.
       -3    1    3    3    0  502 -0.73373542862E+03 -0.26876884808E+03  0.12378627435E+04  0.14638676698E+04  0.10100000352E+00 0.  1.
</event>
<event>
 5   0  0.7201538E-06  0.3104918E+04  0.7818609E-02  0.8214389E-01
       -2   -1    0    0    0  501  0.00000000000E+00  0.00000000000E+00  0.10820686163E+04  0.10820686163E+04  0.25500000920E-02 0. -1.
        2   -1    0    0  501    0  0.00000000000E+00  0.00000000000E+00 -0.22273347327E+04  0.22273347327E+04  0.25500000920E-02 0.  1.
    10030    2    1    2    0    0  0.00000000000E+00  0.00000000000E+00 -0.11452661164E+04  0.33094033490E+04  0.31049180423E+04 0.  0.
        3    1    3    3  502    0  0.71613152866E+03 -0.78336980716E+03  0.63495048662E+03  0.12368002069E+04  0.10100000352E+00 0. -1.
       -3    1    3    3    0  502 -0.71613152866E+03  0.78336980716E+03 -0.17802166030E+04  0.20726031422E+04  0.10100000352E+00 0.  1.
</event>
<event>
 5   0  0.6792811E-06  0.2809341E+04  0.7818609E-02  0.8300374E-01
        2   -1    0    0  501    0  0.00000000000E+00  0.00000000000E+00  0.10094724720E+04  0.10094724720E+04  0.25500000920E-02 0.  1.
       -2   -1    0    0    0  501  0.00000000000E+00  0.00000000000E+00 -0.19545845394E+04  0.19545845394E+04  0.25500000920E-02 0. -1.
    10030    2    1    2    0    0  0.00000000000E+00  0.00000000000E+00 -0.94511206744E+03  0.29640570114E+04  0.28093410520E+04 0.  0.
        2    1    3    3  502    0  0.12589838510E+04 -0.62292812383E+03 -0.46789669725E+03  0.14805428409E+04  0.25500000920E-02 0. -1.
       -2    1    3    3    0  502 -0.12589838510E+04  0.62292812383E+03 -0.47721537019E+03  0.14835141705E+04  0.25500000920E-02 0.  1.
</event>
<event>
 5   0  0.7217255E-06  0.3018075E+04  0.7818609E-02  0.8238588E-01
        2   -1    0    0  501    0  0.00000000000E+00  0.00000000000E+00  0.14440068320E+04  0.14440068320E+04  0.25500000920E-02 0.  1.
       -2   -1    0    0    0  501  0.00000000000E+00  0.00000000000E+00 -0.15769963602E+04  0.15769963602E+04  0.25500000920E-02 0. -1.
    10030    2    1    2    0    0  0.00000000000E+00  0.00000000000E+00 -0.13298952815E+03  0.30210031922E+04  0.30180745638E+04 0.  0.
        1    1    3    3  502    0  0.23071363134E+03  0.89773391915E+03 -0.12584645241E+04  0.15629740650E+04  0.50400001928E-02 0. -1.
       -1    1    3    3    0  502 -0.23071363134E+03 -0.89773391915E+03  0.11254749960E+04  0.14580291272E+04  0.50400001928E-02 0.  1.
</event>
<event>
 5   0  0.7201538E-06  0.2959435E+04  0.7818609E-02  0.8255410E-01
        2   -1    0    0  501    0  0.00000000000E+00  0.00000000000E+00  0.16883123030E+04  0.16883123030E+04  0.25500000920E-02 0.  1.
       -2   -1    0    0    0  501  0.00000000000E+00  0.00000000000E+00 -0.12968948699E+04  0.12968948699E+04  0.25500000920E-02 0. -1.
    10030    2    1    2    0    0  0.00000000000E+00  0.00000000000E+00  0.39141743309E+03  0.29852071730E+04  0.29594347870E+04 0.  0.
        3    1    3    3  502    0 -0.91226487397E+03 -0.49999099177E+03  0.12571775513E+04  0.16317823377E+04  0.10100000352E+00 0.  1.
       -3    1    3    3    0  502  0.91226487397E+03  0.49999099177E+03 -0.86576011820E+03  0.13534248352E+04  0.10100000352E+00 0. -1.
</event>
<event>
 5   0  0.2628425E-06  0.3035905E+04  0.7818609E-02  0.8233552E-01
       -1   -1    0    0    0  501  0.00000000000E+00  0.00000000000E+00  0.15889356208E+04  0.15889356208E+04  0.50400001928E-02 0.  1.
        1   -1    0    0  501    0  0.00000000000E+00  0.00000000000E+00 -0.14501400616E+04  0.14501400616E+04  0.50400001928E-02 0. -1.
    10030    2    1    2    0    0  0.00000000000E+00  0.00000000000E+00  0.13879555917E+03  0.30390756824E+04  0.30359046092E+04 0.  0.
        1    1    3    3  502    0  0.81411574847E+03  0.51764635428E+03 -0.11037636208E+04  0.14659591845E+04  0.50400001928E-02 0. -1.
       -1    1    3    3    0  502 -0.81411574847E+03 -0.51764635428E+03  0.12425591800E+04  0.15731164979E+04  0.50400001928E-02 0.  1.
</event>
<event>
 5   0  0.2298500E-06  0.3051142E+04  0.7818609E-02  0.8229276E-01
        3   -1    0    0  501    0  0.00000000000E+00  0.00000000000E+00  0.11958369147E+04  0.11958369190E+04  0.10100000352E+00 0.  1.
       -3   -1    0    0    0  501  0.00000000000E+00  0.00000000000E+00 -0.19462242198E+04  0.19462242224E+04  0.10100000352E+00 0. -1.
    10030    2    1    2    0    0  0.00000000000E+00  0.00000000000E+00 -0.75038730507E+03  0.31420611413E+04  0.30511419351E+04 0.  0.
        1    1    3    3  502    0  0.38598988782E+03 -0.14150124026E+04 -0.80736372622E+03  0.16742414639E+04  0.50400001928E-02 0. -1.
       -1    1    3    3    0  502 -0.38598988782E+03  0.14150124026E+04  0.56976421147E+02  0.14678196775E+04  0.50400001928E-02 0.  1.
</event>
<event>
 5   0  0.7193153E-06  0.3037040E+04  0.7818609E-02  0.8233232E-01
       -2   -1    0    0    0  501  0.00000000000E+00  0.00000000000E+00  0.16734074836E+04  0.16734074836E+04  0.25500000920E-02 0. -1.
        2   -1    0    0  501    0  0.00000000000E+00  0.00000000000E+00 -0.13779689388E+04  0.13779689388E+04  0.25500000920E-02 0.  1.
    10030    2    1    2    0    0  0.00000000000E+00  0.00000000000E+00  0.29543854479E+03  0.30513764224E+04  0.30370403583E+04 0.  0.
        4    1    3    3  502    0 -0.41692801765E+03 -0.43863004927E+03 -0.12515776843E+04  0.13902063173E+04  0.12699999809E+01 0.  1.
       -4    1    3    3    0  502  0.41692801765E+03  0.43863004927E+03  0.15470162291E+04  0.16611701051E+04  0.12699999809E+01 0. -1.
</event>
<event>
 5   0  0.6792811E-06  0.2991371E+04  0.7818609E-02  0.8246199E-01
        2   -1    0    0  501    0  0.00000000000E+00  0.00000000000E+00  0.13069916225E+04  0.13069916225E+04  0.25500000920E-02 0. -1.
       -2   -1    0    0    0  501  0.00000000000E+00  0.00000000000E+00 -0.17116221159E+04  0.17116221159E+04  0.25500000920E-02 0.  1.
    10030    2    1    2    0    0  0.00000000000E+00  0.00000000000E+00 -0.40463049340E+03  0.30186137385E+04  0.29913714356E+04 0.  0.
        2    1    3    3  502    0 -0.40803713526E+03 -0.39019725020E+01  0.12497354050E+04  0.13146665401E+04  0.25500000920E-02 0. -1.
       -2    1    3    3    0  502  0.40803713526E+03  0.39019725020E+01 -0.16543658984E+04  0.17039471984E+04  0.25500000920E-02 0.  1.
</event>
<event>
 5   0  0.2422083E-06  0.2943665E+04  0.7818609E-02  0.8260003E-01
        1   -1    0    0  501    0  0.00000000000E+00  0.00000000000E+00  0.18282587318E+04  0.18282587318E+04  0.50400001928E-02 0. -1.
       -1   -1    0    0    0  501  0.00000000000E+00  0.00000000000E+00 -0.11848932014E+04  0.11848932014E+04  0.50400001928E-02 0.  1.
    10030    2    1    2    0    0  0.00000000000E+00  0.00000000000E+00  0.64336553048E+03  0.30131519332E+04  0.29436652946E+04 0.  0.
        2    1    3    3  502    0 -0.14371215811E+04 -0.80120717338E+02  0.69285343692E+01  0.14393699222E+04  0.25500000920E-02 0.  1.
       -2    1    3    3    0  502  0.14371215811E+04  0.80120717338E+02  0.63643699611E+03  0.15737820110E+04  0.25500000920E-02 0. -1.
</event>
<event>
 5   0  0.2422083E-06  0.2967059E+04  0.7818609E-02  0.8253200E-01
       -1   -1    0    0    0  501  0.00000000000E+00  0.00000000000E+00  0.84221639572E+03  0.84221639574E+03  0.50400001928E-02 0. -1.
        1   -1    0    0  501    0  0.00000000000E+00  0.00000000000E+00 -0.26131762999E+04  0.26131762999E+04  0.50400001928E-02 0.  1.
    10030    2    1    2    0    0  0.00000000000E+00  0.00000000000E+00 -0.17709599042E+04  0.34553926957E+04  0.29670590994E+04 0.  0.
        2    1    3    3  502    0 -0.91617535257E+03  0.10562916743E+04 -0.14627789288E+04  0.20235739602E+04  0.25500000920E-02 0. -1.
       -2    1    3    3    0  502  0.91617535257E+03 -0.10562916743E+04 -0.30818097545E+03  0.14318187355E+04  0.25500000920E-02 0.  1.
</event>
<event>
 5   0  0.7217255E-06  0.2997254E+04  0.7818609E-02  0.8244515E-01
        2   -1    0    0  501    0  0.00000000000E+00  0.00000000000E+00  0.13150740417E+04  0.13150740417E+04  0.25500000920E-02 0.  1.
       -2   -1    0    0    0  501  0.00000000000E+00  0.00000000000E+00 -0.17078000029E+04  0.17078000029E+04  0.25500000920E-02 0. -1.
    10030    2    1    2    0    0  0.00000000000E+00  0.00000000000E+00 -0.39272596120E+03  0.30228740445E+04  0.29972543783E+04 0.  0.
        1    1    3    3  502    0 -0.10548019481E+04  0.10588744332E+04 -0.85600576313E+02  0.14970469845E+04  0.50400001928E-02 0. -1.
       -1    1    3    3    0  502  0.10548019481E+04 -0.10588744332E+04 -0.30712538488E+03  0.15258270600E+04  0.50400001928E-02 0.  1.
</event>
<event>
 5   0  0.2628425E-06  0.3212167E+04  0.7818609E-02  0.8185611E-01
       -1   -1    0    0    0  501  0.00000000000E+00  0.00000000000E+00  0.15470346319E+04  0.15470346319E+04  0.50400001928E-02 0. -1.
        1   -1    0    0  501    0  0.00000000000E+00  0.00000000000E+00 -0.16673866453E+04  0.16673866453E+04  0.50400001928E-02 0.  1.
    10030    2    1    2    0    0  0.00000000000E+00  0.00000000000E+00 -0.12035201340E+03  0.32144212771E+04  0.32121674209E+04 0.  0.
        1    1    3    3  502    0 -0.10799112325E+04  0.57299071057E+03  0.98217775807E+03  0.15681835903E+04  0.50400001928E-02 0. -1.
       -1    1    3    3    0  502  0.10799112325E+04 -0.57299071057E+03 -0.11025297715E+04  0.16462376868E+04  0.50400001928E-02 0.  1.
</event>
<event>
 5   0  0.2672155E-06  0.2944462E+04  0.7818609E-02  0.8259770E-01
       -1   -1    0    0    0  501  0.00000000000E+00  0.00000000000E+00  0.10240312833E+04  0.10240312834E+04  0.50400001928E-02 0. -1.
        1   -1    0    0  501    0  0.00000000000E+00  0.00000000000E+00 -0.21165996883E+04  0.21165996883E+04  0.50400001928E-02 0.  1.
    10030    2    1    2    0    0  0.00000000000E+00  0.00000000000E+00 -0.10925684050E+04  0.31406309717E+04  0.29444621208E+04 0.  0.
        5    1    3    3  502    0 -0.86140550063E+03  0.94472767518E+03 -0.13249280308E+04  0.18411915147E+04  0.46999998093E+01 0. -1.
       -5    1    3    3    0  502  0.86140550063E+03 -0.94472767518E+03  0.23235962584E+03  0.12994394570E+04  0.46999998093E+01 0.  1.
</event>
<event>
 5   0  0.2628425E-06  0.3016651E+04  0.7818609E-02  0.8238992E-01
       -1   -1    0    0    0  501  0.00000000000E+00  0.00000000000E+00  0.12239949428E+04  0.12239949428E+04  0.50400001928E-02 0.  1.
        1   -1    0    0  501    0  0.00000000000E+00  0.00000000000E+00 -0.18587053951E+04  0.18587053951E+04  0.50400001928E-02 0. -1.
    10030    2    1    2    0    0  0.00000000000E+00  0.00000000000E+00 -0.63471045229E+03  0.30827003380E+04  0.30166511259E+04 0.  0.
        1    1    3    3  502    0  0.99576477661E+03  0.86553980677E+03 -0.10643452545E+04  0.16951511638E+04  0.50400001928E-02 0.  1.
       -1    1    3    3    0  502 -0.99576477661E+03 -0.86553980677E+03  0.42963480216E+03  0.13875491742E+04  0.50400001928E-02 0. -1.
</event>
<event>
 5   0  0.2552990E-06  0.3016467E+04  0.7818609E-02  0.8239044E-01
        1   -1    0    0  501    0  0.00000000000E+00  0.00000000000E+00  0.11410024580E+04  0.11410024581E+04  0.50400001928E-02 0. -1.
       -1   -1    0    0    0  501  0.00000000000E+00  0.00000000000E+00 -0.19936574419E+04  0.19936574419E+04  0.50400001928E-02 0.  1.
    10030    2    1    2    0    0  0.00000000000E+00  0.00000000000E+00 -0.85265498381E+03  0.31346598999E+04  0.30164668350E+04 0.  0.
        3    1    3    3  502    0  0.10680009099E+04  0.50212816995E+03 -0.14022795349E+04  0.18327974648E+04  0.10100000352E+00 0.  1.
       -3    1    3    3    0  502 -0.10680009099E+04 -0.50212816995E+03  0.54962455110E+03  0.13018624351E+04  0.10100000352E+00 0. -1.
</event>
<event>
 5   0  0.7201538E-06  0.3008592E+04  0.7818609E-02  0.8241282E-01
       -2   -1    0    0    0  501  0.00000000000E+00  0.00000000000E+00  0.97336345957E+03  0.97336345957E+03  0.25500000920E-02 0. -1.
        2   -1    0    0  501    0  0.00000000000E+00  0.00000000000E+00 -0.23248323065E+04  0.23248323065E+04  0.25500000920E-02 0.  1.
    10030    2    1    2    0    0  0.00000000000E+00  0.00000000000E+00 -0.13514688470E+04  0.32981957661E+04  0.30085922401E+04 0.  0.
        3    1    3    3  502    0  0.77625460489E+03 -0.93574022899E+03 -0.16468525706E+04  0.20470232991E+04  0.10100000352E+00 0.  1.
       -3    1    3    3    0  502 -0.77625460489E+03  0.93574022899E+03  0.29538372361E+03  0.12511724670E+04  0.10100000352E+00 0. -1.
</event>
<event>
 5   0  0.7217255E-06  0.2840095E+04  0.7818609E-02  0.8290928E-01
        2   -1    0    0  501    0  0.00000000000E+00  0.00000000000E+00  0.18715285053E+04  0.18715285053E+04  0.25500000920E-02 0.  1.
       -2   -1    0    0    0  501  0.00000000000E+00  0.00000000000E+00 -0.10774800133E+04  0.10774800133E+04  0.25500000920E-02 0. -1.
    10030    2    1    2    0    0  0.00000000000E+00  0.00000000000E+00  0.79404849201E+03  0.29490085187E+04  0.28400947582E+04 0.  0.
        1    1    3    3  502    0  0.89872317226E+02  0.14161200471E+04  0.33957120626E+03  0.14590344839E+04  0.50400001928E-02 0. -1.
       -1    1    3    3    0  502 -0.89872317226E+02 -0.14161200471E+04  0.45447728575E+03  0.14899740348E+04  0.50400001928E-02 0.  1.
</event>
<event>
 5   0  0.2298500E-06  0.2986540E+04  0.7818609E-02  0.8247585E-01
        3   -1    0    0  501    0  0.00000000000E+00  0.00000000000E+00  0.13158461673E+04  0.13158461711E+04  0.10100000352E+00 0. -1.
       -3   -1    0    0    0  501  0.00000000000E+00  0.00000000000E+00 -0.16946169566E+04  0.16946169596E+04  0.10100000352E+00 0.  1.
    10030    2    1    2    0    0  0.00000000000E+00  0.00000000000E+00 -0.37877078930E+03  0.30104631307E+04  0.29865399630E+04 0.  0.
        5    1    3    3  502    0  0.37369404462E+03 -0.14281966148E+04  0.37002904675E+02  0.14767478168E+04  0.46999998093E+01 0. -1.
       -5    1    3    3    0  502 -0.37369404462E+03  0.14281966148E+04 -0.41577369397E+03  0.15337153139E+04  0.46999998093E+01 0.  1.
</event>
<event>
 5   0  0.7193153E-06  0.2950853E+04  0.7818609E-02  0.8257906E-01
       -2   -1    0    0    0  501  0.00000000000E+00  0.00000000000E+00  0.22030699500E+04  0.22030699500E+04  0.25500000920E-02 0. -1.
        2   -1    0    0  501    0  0.00000000000E+00  0.00000000000E+00 -0.98811355825E+03  0.98811355825E+03  0.25500000920E-02 0.  1.
    10030    2    1    2    0    0  0.00000000000E+00  0.00000000000E+00  0.12149563917E+04  0.31911835082E+04  0.29508529529E+04 0.  0.
        4    1    3    3  502    0  0.67044399891E+03 -0.11807074082E+04  0.12318346994E+04  0.18332985243E+04  0.12699999809E+01 0. -1.
       -4    1    3    3    0  502 -0.67044399891E+03  0.11807074082E+04 -0.16878307720E+02  0.13578849839E+04  0.12699999809E+01 0.  1.
</event>
<event>
 5   0  0.2422083E-06  0.2589657E+04  0.7818609E-02  0.8371723E-01
        1   -1    0    0  501    0  0.00000000000E+00  0.00000000000E+00  0.25641217494E+04  0.25641217494E+04  0.50400001928E-02 0.  1.
       -1   -1    0    0    0  501  0.00000000000E+00  0.00000000000E+00 -0.65386172579E+03  0.65386172581E+03  0.50400001928E-02 0. -1.
    10030    2    1    2    0    0  0.00000000000E+00  0.00000000000E+00  0.19102600236E+04  0.32179834752E+04  0.25896571760E+04 0.  0.
        2    1    3    3  502    0 -0.10629291826E+04 -0.58292092695E+03  0.38981457249E+03  0.12734090683E+04  0.25500000920E-02 0. -1.
       -2    1    3    3    0  502  0.10629291826E+04  0.58292092695E+03  0.15204454511E+04  0.19445744070E+04  0.25500000920E-02 0.  1.
</event>
<event>
 5   0  0.6780150E-06  0.3022169E+04  0.7818609E-02  0.8237429E-01
        2   -1    0    0  501    0  0.00000000000E+00  0.00000000000E+00  0.97370416496E+03  0.97370416496E+03  0.25500000920E-02 0. -1.
       -2   -1    0    0    0  501  0.00000000000E+00  0.00000000000E+00 -0.23450406905E+04  0.23450406905E+04  0.25500000920E-02 0.  1.
    10030    2    1    2    0    0  0.00000000000E+00  0.00000000000E+00 -0.13713365256E+04  0.33187448555E+04  0.30221686832E+04 0.  0.
        5    1    3    3  502    0  0.82222057367E+03  0.12675905514E+04 -0.71074131492E+03  0.16697328482E+04  0.46999998093E+01 0. -1.
       -5    1    3    3    0  502 -0.82222057367E+03 -0.12675905514E+04 -0.66059521067E+03  0.16490120073E+04  0.46999998093E+01 0.  1.
</event>
<event>
 5   0  0.6780150E-06  0.2857665E+04  0.7818609E-02  0.8285586E-01
        2   -1    0    0  501    0  0.00000000000E+00  0.00000000000E+00  0.15809238402E+04  0.15809238402E+04  0.25500000920E-02 0.  1.
       -2   -1    0    0    0  501  0.00000000000E+00  0.00000000000E+00 -0.12913734115E+04  0.12913734115E+04  0.25500000920E-02 0. -1.
    10030    2    1    2    0    0  0.00000000000E+00  0.00000000000E+00  0.28955042869E+03  0.28722972517E+04  0.28576654897E+04 0.  0.
        5    1    3    3  502    0  0.21035459356E+03 -0.11534231361E+04  0.96560027967E+03  0.15188943268E+04  0.46999998093E+01 0.  1.
       -5    1    3    3    0  502 -0.21035459356E+03  0.11534231361E+04 -0.67604985098E+03  0.13534029249E+04  0.46999998093E+01 0. -1.
</event>
<event>
 5   0  0.7201538E-06  0.3065537E+04  0.7818609E-02  0.8225260E-01
       -2   -1    0    0    0  501  0.00000000000E+00  0.00000000000E+00  0.18695792173E+04  0.18695792173E+04  0.25500000920E-02 0. -1.
        2   -1    0    0  501    0  0.00000000000E+00  0.00000000000E+00 -0.12566353069E+04  0.12566353069E+04  0.25500000920E-02 0.  1.
    10030    2    1    2    0    0  0.00000000000E+00  0.00000000000E+00  0.61294391042E+03  0.31262145241E+04  0.30655369862E+04 0.  0.
        3    1    3    3  502    0 -0.83366374834E+02 -0.14665812200E+04  0.75282101421E+03  0.16506210701E+04  0.10100000352E+00 0. -1.
       -3    1    3    3    0  502  0.83366374834E+02  0.14665812200E+04 -0.13987710380E+03  0.14755934541E+04  0.10100000352E+00 0.  1.
</event>
<event>
 5   0  0.6780150E-06  0.2267427E+04  0.7818609E-02  0.8490876E-01
       -2   -1    0    0    0  501  0.00000000000E+00  0.00000000000E+00  0.75120438498E+03  0.75120438498E+03  0.25500000920E-02 0. -1.
        2   -1    0    0  501    0  0.00000000000E+00  0.00000000000E+00 -0.17109940750E+04  0.17109940750E+04  0.25500000920E-02 0.  1.
    10030    2    1    2    0    0  0.00000000000E+00  0.00000000000E+00 -0.95978969001E+03  0.24621984600E+04  0.22674269574E+04 0.  0.
        5    1    3    3  502    0  0.69144616609E+03  0.69059177341E+03  0.14416163130E+03  0.98783574750E+03  0.46999998093E+01 0. -1.
       -5    1    3    3    0  502 -0.69144616609E+03 -0.69059177341E+03 -0.11039513213E+04  0.14743627125E+04  0.46999998093E+01 0.  1.
</event>
<event>
 5   0  0.6792811E-06  0.2998948E+04  0.7818609E-02  0.8244031E-01
       -2   -1    0    0    0  501  0.00000000000E+00  0.00000000000E+00  0.16250686423E+04  0.16250686423E+04  0.25500000920E-02 0. -1.
        2   -1    0    0  501    0  0.00000000000E+00  0.00000000000E+00 -0.13835864508E+04  0.13835864508E+04  0.25500000920E-02 0.  1.
    10030    2    1    2    0    0  0.00000000000E+00  0.00000000000E+00  0.24148219154E+03  0.30086550931E+04  0.29989484525E+04 0.  0.
        2    1    3    3  502    0 -0.74182703949E+03  0.64100852104E+03  0.12589721028E+04  0.15956848174E+04  0.25500000920E-02 0. -1.
       -2    1    3    3    0  502  0.74182703949E+03 -0.64100852104E+03 -0.10174899113E+04  0.14129702758E+04  0.25500000920E-02 0.  1.
</event>
<event>
 5   0  0.6780150E-06  0.2969734E+04  0.7818609E-02  0.8252427E-01
       -2   -1    0    0    0  501  0.00000000000E+00  0.00000000000E+00  0.13189109591E+04  0.13189109591E+04  0.25500000920E-02 0. -1.
        2   -1    0    0  501    0  0.00000000000E+00  0.00000000000E+00 -0.16717049082E+04  0.16717049082E+04  0.25500000920E-02 0.  1.
    10030    2    1    2    0    0  0.00000000000E+00  0.00000000000E+00 -0.35279394909E+03  0.29906158673E+04  0.29697339435E+04 0.  0.
        5    1    3    3  502    0  0.13623989893E+03 -0.22036563562E+03  0.12959663707E+04  0.13216176631E+04  0.46999998093E+01 0. -1.
       -5    1    3    3    0  502 -0.13623989893E+03  0.22036563562E+03 -0.16487603198E+04  0.16689982042E+04  0.46999998093E+01 0.  1.
</event>
<event>
 5   0  0.6792811E-06  0.2991204E+04  0.7818609E-02  0.8246247E-01
        2   -1    0    0  501    0  0.00000000000E+00  0.00000000000E+00  0.12338140478E+04  0.12338140478E+04  0.25500000920E-02 0.  1.
       -2   -1    0    0    0  501  0.00000000000E+00  0.00000000000E+00 -0.18129352883E+04  0.18129352883E+04  0.25500000920E-02 0. -1.
    10030    2    1    2    0    0  0.00000000000E+00  0.00000000000E+00 -0.57912124055E+03  0.30467493361E+04  0.29912037888E+04 0.  0.
        2    1    3    3  502    0  0.11373389045E+04  0.34746854266E+03  0.63422692330E+03  0.13477826094E+04  0.25500000920E-02 0. -1.
       -2    1    3    3    0  502 -0.11373389045E+04 -0.34746854266E+03 -0.12133481639E+04  0.16989667268E+04  0.25500000920E-02 0.  1.
</event>
<event>
 5   0  0.7193153E-06  0.3010855E+04  0.7818609E-02  0.8240638E-01
       -2   -1    0    0    0  501  0.00000000000E+00  0.00000000000E+00  0.12954897193E+04  0.12954897193E+04  0.25500000920E-02 0. -1.
        2   -1    0    0  501    0  0.00000000000E+00  0.00000000000E+00 -0.17493866286E+04  0.17493866286E+04  0.25500000920E-02 0.  1.
    10030    2    1    2    0    0  0.00000000000E+00  0.00000000000E+00 -0.45389690930E+03  0.30448763478E+04  0.30108552887E+04 0.  0.
        4    1    3    3  502    0  0.10120829504E+03  0.12386746065E+04 -0.10861084379E+04  0.16505123603E+04  0.12699999809E+01 0.  1.
       -4    1    3    3    0  502 -0.10120829504E+03 -0.12386746065E+04  0.63221152863E+03  0.13943639875E+04  0.12699999809E+01 0. -1.
</event>
<event>
 5   0  0.7217255E-06  0.2707531E+04  0.7818609E-02  0.8332566E-01
       -2   -1    0    0    0  501  0.00000000000E+00  0.00000000000E+00  0.21553655112E+04  0.21553655112E+04  0.25500000920E-02 0. -1.
        2   -1    0    0  501    0  0.00000000000E+00  0.00000000000E+00 -0.85028777232E+03  0.85028777232E+03  0.25500000920E-02 0.  1.
    10030    2    1    2    0    0  0.00000000000E+00  0.00000000000E+00  0.13050777389E+04  0.30056532836E+04  0.27075309336E+04 0.  0.
        1    1    3    3  502    0  0.11230771094E+04  0.35833496598E+03  0.13913866332E+04  0.18236400151E+04  0.50400001928E-02 0. -1.
       -1    1    3    3    0  502 -0.11230771094E+04 -0.35833496598E+03 -0.86308894274E+02  0.11820132685E+04  0.50400001928E-02 0.  1.
</event>
<event>
 5   0  0.2628425E-06  0.2851842E+04  0.7818609E-02  0.8287352E-01
        1   -1    0    0  501    0  0.00000000000E+00  0.00000000000E+00  0.14025163030E+04  0.14025163030E+04  0.50400001928E-02 0.  1.
       -1   -1    0    0    0  501  0.00000000000E+00  0.00000000000E+00 -0.14497159400E+04  0.14497159400E+04  0.50400001928E-02 0. -1.
    10030    2    1    2    0    0  0.00000000000E+00  0.00000000000E+00 -0.47199637058E+02  0.28522322430E+04  0.28518416791E+04 0.  0.
        1    1    3    3  502    0  0.13348852205E+04 -0.49556282790E+03  0.52233861652E+02  0.14248612019E+04  0.50400001928E-02 0. -1.
       -1    1    3    3    0  502 -0.13348852205E+04  0.49556282790E+03 -0.99433498710E+02  0.14273710411E+04  0.50400001928E-02 0.  1.
</event>
<event>
 5   0  0.2672155E-06  0.2966566E+04  0.7818609E-02  0.8253343E-01
        1   -1    0    0  501    0  0.00000000000E+00  0.00000000000E+00  0.18370794462E+04  0.18370794462E+04  0.50400001928E-02 0.  1.
       -1   -1    0    0    0  501  0.00000000000E+00  0.00000000000E+00 -0.11976229823E+04  0.11976229823E+04  0.50400001928E-02 0. -1.
    10030    2    1    2    0    0  0.00000000000E+00  0.00000000000E+00  0.63945646392E+03  0.30347024285E+04  0.29665660722E+04 0.  0.
        5    1    3    3  502    0 -0.47616608546E+03  0.64762646588E+03 -0.95547947205E+03  0.12486461836E+04  0.46999998093E+01 0. -1.
       -5    1    3    3    0  502  0.47616608546E+03 -0.64762646588E+03  0.15949359360E+04  0.17860562449E+04  0.46999998093E+01 0.  1.
</event>
<event>
 5   0  0.2422083E-06  0.3066794E+04  0.7818609E-02  0.8224911E-01
       -1   -1    0    0    0  501  0.00000000000E+00  0.00000000000E+00  0.26042118097E+04  0.26042118097E+04  0.50400001928E-02 0.  1.
        1   -1    0    0  501    0  0.00000000000E+00  0.00000000000E+00 -0.90288596671E+03  0.90288596673E+03  0.50400001928E-02 0. -1.
    10030    2    1    2    0    0  0.00000000000E+00  0.00000000000E+00  0.17013258430E+04  0.35070977765E+04  0.30667939594E+04 0.  0.
        2    1    3    3  502    0  0.70565173747E+03 -0.52315070396E+03 -0.58663627770E+03  0.10563016406E+04  0.25500000920E-02 0. -1.
       -2    1    3    3    0  502 -0.70565173747E+03  0.52315070396E+03  0.22879621207E+04  0.24507961358E+04  0.25500000920E-02 0.  1.
</event>
<event>
 5   0  0.2672155E-06  0.2978294E+04  0.7818609E-02  0.8249956E-01
       -1   -1    0    0    0  501  0.00000000000E+00  0.00000000000E+00  0.16382006055E+04  0.16382006055E+04  0.50400001928E-02 0. -1.
        1   -1    0    0  501    0  0.00000000000E+00  0.00000000000E+00 -0.13536556408E+04  0.13536556408E+04  0.50400001928E-02 0.  1.
    10030    2    1    2    0    0  0.00000000000E+00  0.00000000000E+00  0.28454496470E+03  0.29918562464E+04  0.29782944720E+04 0.  0.
        5    1    3    3  502    0 -0.14410154855E+04  0.56586612388E+02  0.51519020421E+03  0.15313950211E+04  0.46999998093E+01 0.  1.
       -5    1    3    3    0  502  0.14410154855E+04 -0.56586612388E+02 -0.23064523951E+03  0.14604612253E+04  0.46999998093E+01 0. -1.
</event>
<event>
 5   0  0.7217255E-06  0.2918496E+04  0.7818609E-02  0.8267396E-01
       -2   -1    0    0    0  501  0.00000000000E+00  0.00000000000E+00  0.79833556031E+03  0.79833556031E+03  0.25500000920E-02 0. -1.
        2   -1    0    0  501    0  0.00000000000E+00  0.00000000000E+00 -0.26673051831E+04  0.26673051831E+04  0.25500000920E-02 0.  1.
    10030    2    1    2    0    0  0.00000000000E+00  0.00000000000E+00 -0.18689696228E+04  0.34656407434E+04  0.29184958988E+04 0.  0.
        1    1    3    3  502    0 -0.52489618497E+03 -0.10121718887E+04  0.14696305791E+03  0.11496112724E+04  0.50400001928E-02 0. -1.
       -1    1    3    3    0  502  0.52489618497E+03  0.10121718887E+04 -0.20159326807E+04  0.23160294709E+04  0.50400001928E-02 0.  1.
</event>
<event>
 5   0  0.7193153E-06  0.3029773E+04  0.7818609E-02  0.8235280E-01
       -2   -1    0    0    0  501  0.00000000000E+00  0.00000000000E+00  0.15961919607E+04  0.15961919607E+04  0.25500000920E-02 0.  1.
        2   -1    0    0  501    0  0.00000000000E+00  0.00000000000E+00 -0.14377226686E+04  0.14377226686E+04  0.25500000920E-02 0. -1.
    10030    2    1    2    0    0  0.00000000000E+00  0.00000000000E+00  0.15846929213E+03  0.30339146292E+04  0.30297731699E+04 0.  0.
        4    1    3    3  502    0 -0.13871889753E+04 -0.28344026340E+03  0.61871787168E+03  0.15451359338E+04  0.12699999809E+01 0. -1.
       -4    1    3    3    0  502  0.13871889753E+04  0.28344026340E+03 -0.46024857954E+03  0.14887786955E+04  0.12699999809E+01 0.  1.
</event>
<event>
 5   0  0.2504260E-06  0.2955555E+04  0.7818609E-02  0.8256537E-01
       -1   -1    0    0    0  501  0.00000000000E+00  0.00000000000E+00  0.14371827459E+04  0.14371827459E+04  0.50400001928E-02 0.  1.
        1   -1    0    0  501    0  0.00000000000E+00  0.00000000000E+00 -0.15195190359E+04  0.15195190359E+04  0.50400001928E-02 0. -1.
    10030    2    1    2    0    0  0.00000000000E+00  0.00000000000E+00 -0.82336289999E+02  0.29567017818E+04  0.29555551359E+04 0.  0.
        4    1    3    3  502    0 -0.11445960434E+04  0.90575984237E+03 -0.27217748764E+03  0.14847838874E+04  0.12699999809E+01 0. -1.
       -4    1    3    3    0  502  0.11445960434E+04 -0.90575984237E+03  0.18984119764E+03  0.14719178944E+04  0.12699999809E+01 0.  1.
</event>
<event>
 5   0  0.2422083E-06  0.2982692E+04  0.7818609E-02  0.8248691E-01
       -1   -1    0    0    0  501  0.00000000000E+00  0.00000000000E+00  0.11979303652E+04  0.11979303653E+04  0.50400001928E-02 0. -1.
        1   -1    0    0  501    0  0.00000000000E+00  0.00000000000E+00 -0.18566295036E+04  0.18566295037E+04  0.50400001928E-02 0.  1.
    10030    2    1    2    0    0  0.00000000000E+00  0.00000000000E+00 -0.65869913841E+03  0.30545598689E+04  0.29826919784E+04 0.  0.
        2    1    3    3  502    0  0.94159984221E+03 -0.11092108232E+04 -0.66458068336E+03  0.15995706917E+04  0.25500000920E-02 0.  1.
       -2    1    3    3    0  502 -0.94159984221E+03  0.11092108232E+04  0.58815449525E+01  0.14549891772E+04  0.25500000920E-02 0. -1.
</event>
<event>
 5   0  0.2422083E-06  0.2639637E+04  0.7818609E-02  0.8354861E-01
        1   -1    0    0  501    0  0.00000000000E+00  0.00000000000E+00  0.11461801147E+04  0.11461801147E+04  0.50400001928E-02 0. -1.
       -1   -1    0    0    0  501  0.00000000000E+00  0.00000000000E+00 -0.15197616932E+04  0.15197616932E+04  0.50400001928E-02 0.  1.
    10030    2    1    2    0    0  0.00000000000E+00  0.00000000000E+00 -0.37358157850E+03  0.26659418078E+04  0.26396368172E+04 0.  0.
        2    1    3    3  502    0 -0.61244628390E+03 -0.86142203094E+03  0.61151786072E+03  0.12211029686E+04  0.25500000920E-02 0. -1.
       -2    1    3    3    0  502  0.61244628390E+03  0.86142203094E+03 -0.98509943922E+03  0.14448388392E+04  0.25500000920E-02 0.  1.
</event>
<event>
 5   0  0.6792811E-06  0.2979912E+04  0.7818609E-02  0.8249490E-01
        2   -1    0    0  501    0  0.00000000000E+00  0.00000000000E+00  0.13959912904E+04  0.13959912904E+04  0.25500000920E-02 0.  1.
       -2   -1    0    0    0  501  0.00000000000E+00  0.00000000000E+00 -0.15902455032E+04  0.15902455032E+04  0.25500000920E-02 0. -1.
    10030    2    1    2    0    0  0.00000000000E+00  0.00000000000E+00 -0.19425421289E+03  0.29862367936E+04  0.29799119934E+04 0.  0.
        2    1    3    3  502    0 -0.10298269174E+04  0.12109202614E+03  0.97507937429E+03  0.14233715414E+04  0.25500000920E-02 0.  1.
       -2    1    3    3    0  502  0.10298269174E+04 -0.12109202614E+03 -0.11693335872E+04  0.15628652522E+04  0.25500000920E-02 0. -1.
</event>
<event>
 5   0  0.2628425E-06  0.3001835E+04  0.7818609E-02  0.8243207E-01
        1   -1    0    0  501    0  0.00000000000E+00  0.00000000000E+00  0.16008173951E+04  0.16008173951E+04  0.50400001928E-02 0.  1.
       -1   -1    0    0    0  501  0.00000000000E+00  0.00000000000E+00 -0.14072515137E+04  0.14072515137E+04  0.50400001928E-02 0. -1.
    10030    2    1    2    0    0  0.00000000000E+00  0.00000000000E+00  0.19356588141E+03  0.30080689088E+04  0.30018345740E+04 0.  0.
        1    1    3    3  502    0 -0.12632811125E+04  0.80331455791E+03  0.20452020191E+03  0.15109672271E+04  0.50400001928E-02 0.  1.
       -1    1    3    3    0  502  0.12632811125E+04 -0.80331455791E+03 -0.10954320503E+02  0.14971016817E+04  0.50400001928E-02 0. -1.
</event>
<event>
 5   0  0.2504260E-06  0.3055800E+04  0.7818609E-02  0.8227974E-01
        1   -1    0    0  501    0  0.00000000000E+00  0.00000000000E+00  0.17545806927E+04  0.17545806927E+04  0.50400001928E-02 0. -1.
       -1   -1    0    0    0  501  0.00000000000E+00  0.00000000000E+00 -0.13305053887E+04  0.13305053887E+04  0.50400001928E-02 0.  1.
    10030    2    1    2    0    0  0.00000000000E+00  0.00000000000E+00  0.42407530404E+03  0.30850860815E+04  0.30558004298E+04 0.  0.
        4    1    3    3  502    0  0.15040055709E+04  0.20815971625E+03  0.38430181741E+03  0.15662224378E+04  0.12699999809E+01 0.  1.
       -4    1    3    3    0  502 -0.15040055709E+04 -0.20815971625E+03  0.39773486625E+02  0.15188636437E+04  0.12699999809E+01 0. -1.
</event>
<event>
 5   0  0.2552990E-06  0.2925258E+04  0.7818609E-02  0.8265402E-01
       -1   -1    0    0    0  501  0.00000000000E+00  0.00000000000E+00  0.26303862874E+04  0.26303862874E+04  0.50400001928E-02 0. -1.
        1   -1    0    0  501    0  0.00000000000E+00  0.00000000000E+00 -0.81329644286E+03  0.81329644288E+03  0.50400001928E-02 0.  1.
    10030    2    1    2    0    0  0.00000000000E+00  0.00000000000E+00  0.18170898445E+04  0.34436827302E+04  0.29252581499E+04 0.  0.
        3    1    3    3  502    0  0.11738340803E+04  0.87238500563E+03  0.93030778689E+03  0.17333247344E+04  0.10100000352E+00 0.  1.
       -3    1    3    3    0  502 -0.11738340803E+04 -0.87238500563E+03  0.88678205760E+03  0.17103579959E+04  0.10100000352E+00 0. -1.
</event>
<event>
 5   0  0.2504260E-06  0.2655552E+04  0.7818609E-02  0.8349572E-01
       -1   -1    0    0    0  501  0.00000000000E+00  0.00000000000E+00  0.12419653034E+04  0.12419653034E+04  0.50400001928E-02 0.  1.
        1   -1    0    0  501    0  0.00000000000E+00  0.00000000000E+00 -0.14195158002E+04  0.14195158002E+04  0.50400001928E-02 0. -1.
    10030    2    1    2    0    0  0.00000000000E+00  0.00000000000E+00 -0.17755049677E+03  0.26614811036E+04  0.26555521998E+04 0.  0.
        4    1    3    3  502    0 -0.65638508810E+03 -0.11024021638E+03  0.10626995456E+04  0.12539243304E+04  0.12699999809E+01 0.  1.
       -4    1    3    3    0  502  0.65638508810E+03  0.11024021638E+03 -0.12402500424E+04  0.14075567732E+04  0.12699999809E+01 0. -1.
</event>
<event>
 5   0  0.7193153E-06  0.3091840E+04  0.7818609E-02  0.8217981E-01
        2   -1    0    0  501    0  0.00000000000E+00  0.00000000000E+00  0.15772343527E+04  0.15772343527E+04  0.25500000920E-02 0. -1.
       -2   -1    0    0    0  501  0.00000000000E+00  0.00000000000E+00 -0.15152275038E+04  0.15152275038E+04  0.25500000920E-02 0.  1.
    10030    2    1    2    0    0  0.00000000000E+00  0.00000000000E+00  0.62006848976E+02  0.30924618565E+04  0.30918401454E+04 0.  0.
        4    1    3    3  502    0 -0.72466666008E+03  0.14580742935E+02  0.13967496691E+04  0.15736154604E+04  0.12699999809E+01 0. -1.
       -4    1    3    3    0  502  0.72466666008E+03 -0.14580742935E+02 -0.13347428201E+04  0.15188463961E+04  0.12699999809E+01 0.  1.
</event>
<event>
 5   0  0.6792811E-06  0.2939792E+04  0.7818609E-02  0.8261136E-01
        2   -1    0    0  501    0  0.00000000000E+00  0.00000000000E+00  0.12889179552E+04  0.12889179552E+04  0.25500000920E-02 0.  1.
       -2   -1    0    0    0  501  0.00000000000E+00  0.00000000000E+00 -0.16762848175E+04  0.16762848175E+04  0.25500000920E-02 0. -1.
    10030    2    1    2    0    0  0.00000000000E+00  0.00000000000E+00 -0.38736686234E+03  0.29652027727E+04  0.29397915568E+04 0.  0.
        2    1    3    3  502    0  0.17875253514E+03 -0.66589566190E+03  0.11156995434E+04  0.13115467863E+04  0.25500000920E-02 0.  1.
       -2    1    3    3    0  502 -0.17875253514E+03  0.66589566190E+03 -0.15030664058E+04  0.16536559864E+04  0.25500000920E-02 0. -1.
</event>
<event>
 5   0  0.6780150E-06  0.3025805E+04  0.7818609E-02  0.8236400E-01
        2   -1    0    0  501    0  0.00000000000E+00  0.00000000000E+00  0.18107413137E+04  0.18107413137E+04  0.25500000920E-02 0. -1.
       -2   -1    0    0    0  501  0.00000000000E+00  0.00000000000E+00 -0.12640537956E+04  0.12640537956E+04  0.25500000920E-02 0.  1.
    10030    2    1    2    0    0  0.00000000000E+00  0.00000000000E+00  0.54668751812E+03  0.30747951094E+04  0.30258053014E+04 0.  0.
        5    1    3    3  502    0 -0.68498949113E+01 -0.10102107741E+04  0.14177565616E+04  0.17408700374E+04  0.46999998093E+01 0. -1.
       -5    1    3    3    0  502  0.68498949113E+01  0.10102107741E+04 -0.87106904345E+03  0.13339250720E+04  0.46999998093E+01 0.  1.
</event>
<event>
 5   0  0.7201538E-06  0.2995688E+04  0.7818609E-02  0.8244963E-01
       -2   -1    0    0    0  501  0.00000000000E+00  0.00000000000E+00  0.85673371804E+03  0.85673371804E+03  0.25500000920E-02 0.  1.
        2   -1    0    0  501    0  0.00000000000E+00  0.00000000000E+00 -0.26187086489E+04  0.26187086489E+04  0.25500000920E-02 0. -1.
    10030    2    1    2    0    0  0.00000000000E+00  0.00000000000E+00 -0.17619749308E+04  0.34754423669E+04  0.29956875653E+04 0.  0.
        3    1    3    3  502    0 -0.82050140089E+03 -0.10811194035E+04 -0.14587590602E+03  0.13650353489E+04  0.10100000352E+00 0.  1.
       -3    1    3    3    0  502  0.82050140089E+03  0.10811194035E+04 -0.16160990248E+04  0.21104070180E+04  0.10100000352E+00 0. -1.
</event>
<event>
 5   0  0.7217255E-06  0.2942180E+04  0.7818609E-02  0.8260437E-01
       -2   -1    0    0    0  501  0.00000000000E+00  0.00000000000E+00  0.18680440460E+04  0.18680440460E+04  0.25500000920E-02 0. -1.
        2   -1    0    0  501    0  0.00000000000E+00  0.00000000000E+00 -0.11584875166E+04  0.11584875166E+04  0.25500000920E-02 0.  1.
    10030    2    1    2    0    0  0.00000000000E+00  0.00000000000E+00  0.70955652938E+03  0.30265315625E+04  0.29421799453E+04 0.  0.
        1    1    3    3  502    0 -0.10939994917E+03  0.14481785821E+04  0.59583875199E+03  0.15697813137E+04  0.50400001928E-02 0.  1.
       -1    1    3    3    0  502  0.10939994917E+03 -0.14481785821E+04  0.11371777739E+03  0.14567502488E+04  0.50400001928E-02 0. -1.
</event>
<event>
 5   0  0.2552990E-06  0.2971660E+04  0.7818609E-02  0.8251870E-01
        1   -1    0    0  501    0  0.00000000000E+00  0.00000000000E+00  0.17247930661E+04  0.17247930661E+04  0.50400001928E-02 0. -1.
       -1   -1    0    0    0  501  0.00000000000E+00  0.00000000000E+00 -0.12799740657E+04  0.12799740657E+04  0.50400001928E-02 0.  1.
    10030    2    1    2    0    0  0.00000000000E+00  0.00000000000E+00  0.44481900044E+03  0.30047671318E+04  0.29716597338E+04 0.  0.
        3    1    3    3  502    0 -0.71550374236E+03  0.57339652347E+03 -0.95978745097E+03  0.13273737754E+04  0.10100000352E+00 0.  1.
       -3    1    3    3    0  502  0.71550374236E+03 -0.57339652347E+03  0.14046064514E+04  0.16773933564E+04  0.10100000352E+00 0. -1.
</event>
<event>
 5   0  0.2552990E-06  0.2413147E+04  0.7818609E-02  0.8434598E-01
        1   -1    0    0  501    0  0.00000000000E+00  0.00000000000E+00  0.10793896294E+04  0.10793896294E+04  0.50400001928E-02 0.  1.
       -1   -1    0    0    0  501  0.00000000000E+00  0.00000000000E+00 -0.13487429013E+04  0.13487429013E+04  0.50400001928E-02 0. -1.
    10030    2    1    2    0    0  0.00000000000E+00  0.00000000000E+00 -0.26935327194E+03  0.24281325307E+04  0.24131465769E+04 0.  0.
        3    1    3    3  502    0 -0.33596164948E+03 -0.98654098161E+03  0.47711712189E+03  0.11461998502E+04  0.10100000352E+00 0. -1.
       -3    1    3    3    0  502  0.33596164948E+03  0.98654098161E+03 -0.74647039383E+03  0.12819326805E+04  0.10100000352E+00 0.  1.
</event>
<event>
 5   0  0.6780150E-06  0.2993249E+04  0.7818609E-02  0.8245661E-01
        2   -1    0    0  501    0  0.00000000000E+00  0.00000000000E+00  0.96471364985E+03  0.96471364986E+03  0.25500000920E-02 0. -1.
       -2   -1    0    0    0  501  0.00000000000E+00  0.00000000000E+00 -0.23218137934E+04  0.23218137934E+04  0.25500000920E-02 0.  1.
    10030    2    1    2    0    0  0.00000000000E+00  0.00000000000E+00 -0.13571001436E+04  0.32865274433E+04  0.29932493775E+04 0.  0.
        5    1    3    3  502    0  0.65122662951E+03  0.80521900866E+03 -0.18648712162E+04  0.21331292783E+04  0.46999998093E+01 0.  1.
       -5    1    3    3    0  502 -0.65122662951E+03 -0.80521900866E+03  0.50777107260E+03  0.11533981650E+04  0.46999998093E+01 0. -1.
</event>
<event>
 5   0  0.2504260E-06  0.2964128E+04  0.7818609E-02  0.8254049E-01
       -1   -1    0    0    0  501  0.00000000000E+00  0.00000000000E+00  0.16830738933E+04  0.16830738933E+04  0.50400001928E-02 0.  1.
        1   -1    0    0  501    0  0.00000000000E+00  0.00000000000E+00 -0.13050607771E+04  0.13050607771E+04  0.50400001928E-02 0. -1.
    10030    2    1    2    0    0  0.00000000000E+00  0.00000000000E+00  0.37801311623E+03  0.29881346704E+04  0.29641280155E+04 0.  0.
        4    1    3    3  502    0 -0.82869087179E+03  0.12215697545E+04  0.55453846852E+02  0.14771722879E+04  0.12699999809E+01 0.  1.
       -4    1    3    3    0  502  0.82869087179E+03 -0.12215697545E+04  0.32255926938E+03  0.15109623825E+04  0.12699999809E+01 0. -1.
</event>
<event>
 5   0  0.7217255E-06  0.2997688E+04  0.7818609E-02  0.8244392E-01
        2   -1    0    0  501    0  0.00000000000E+00  0.00000000000E+00  0.89206112604E+03  0.89206112605E+03  0.25500000920E-02 0. -1.
       -2   -1    0    0    0  501  0.00000000000E+00  0.00000000000E+00 -0.25183618478E+04  0.25183618478E+04  0.25500000920E-02 0.  1.
    10030    2    1    2    0    0  0.00000000000E+00  0.00000000000E+00 -0.16263007218E+04  0.34104229739E+04  0.29976875793E+04 0.  0.
        1    1    3    3  502    0  0.87104077806E+01  0.36310529700E+03  0.84123683069E+03  0.91629729524E+03  0.50400001928E-02 0. -1.
       -1    1    3    3    0  502 -0.87104077806E+01 -0.36310529700E+03 -0.24675375525E+04  0.24941256786E+04  0.50400001928E-02 0.  1.
</event>
<event>
 5   0  0.7201538E-06  0.3020385E+04  0.7818609E-02  0.8237934E-01
       -2   -1    0    0    0  501  0.00000000000E+00  0.00000000000E+00  0.17796700920E+04  0.17796700920E+04  0.25500000920E-02 0.  1.
        2   -1    0    0  501    0  0.00000000000E+00  0.00000000000E+00 -0.12815191871E+04  0.12815191871E+04  0.25500000920E-02 0. -1.
    10030    2    1    2    0    0  0.00000000000E+00  0.00000000000E+00  0.49815090490E+03  0.30611892791E+04  0.30203849885E+04 0.  0.
        3    1    3    3  502    0  0.19375851372E+03  0.13520577378E+04 -0.40389449582E+03  0.14243360776E+04  0.10100000352E+00 0.  1.
       -3    1    3    3    0  502 -0.19375851372E+03 -0.13520577378E+04  0.90204540073E+03  0.16368532015E+04  0.10100000352E+00 0. -1.
</event>
<event>
 5   0  0.2552990E-06  0.2667232E+04  0.7818609E-02  0.8345716E-01
        1   -1    0    0  501    0  0.00000000000E+00  0.00000000000E+00  0.19317563123E+04  0.19317563123E+04  0.50400001928E-02 0. -1.
       -1   -1    0    0    0  501  0.00000000000E+00  0.00000000000E+00 -0.92068102804E+03  0.92068102805E+03  0.50400001928E-02 0.  1.
    10030    2    1    2    0    0  0.00000000000E+00  0.00000000000E+00  0.10110752843E+04  0.28524373404E+04  0.26672318141E+04 0.  0.
        3    1    3    3  502    0  0.29272227721E+03 -0.11574995882E+04  0.11409668204E+04  0.16514529735E+04  0.10100000352E+00 0. -1.
       -3    1    3    3    0  502 -0.29272227721E+03  0.11574995882E+04 -0.12989153612E+03  0.12009843669E+04  0.10100000352E+00 0.  1.
</event>
<event>
 5   0  0.7201538E-06  0.2998715E+04  0.7818609E-02  0.8244098E-01
        2   -1    0    0  501    0  0.00000000000E+00  0.00000000000E+00  0.19340640453E+04  0.19340640454E+04  0.25500000920E-02 0.  1.
       -2   -1    0    0    0  501  0.00000000000E+00  0.00000000000E+00 -0.11623566555E+04  0.11623566556E+04  0.25500000920E-02 0. -1.
    10030    2    1    2    0    0  0.00000000000E+00  0.00000000000E+00  0.77170738980E+03  0.30964207009E+04  0.29987145348E+04 0.  0.
        3    1    3    3  502    0 -0.12060996587E+04 -0.38403840793E+01  0.13055951349E+04  0.17774334873E+04  0.10100000352E+00 0.  1.
       -3    1    3    3    0  502  0.12060996587E+04  0.38403840793E+01 -0.53388774508E+03  0.13189872136E+04  0.10100000352E+00 0. -1.
</event>
<event>
 5   0  0.7217255E-06  0.3002014E+04  0.7818609E-02  0.8243156E-01
        2   -1    0    0  501    0  0.00000000000E+00  0.00000000000E+00  0.17485923927E+04  0.17485923927E+04  0.25500000920E-02 0.  1.
       -2   -1    0    0    0  501  0.00000000000E+00  0.00000000000E+00 -0.12884777016E+04  0.12884777016E+04  0.25500000920E-02 0. -1.
    10030    2    1    2    0    0  0.00000000000E+00  0.00000000000E+00  0.46011469112E+03  0.30370700943E+04  0.30020141953E+04 0.  0.
        1    1    3    3  502    0 -0.25985618234E+03 -0.74923619228E+02  0.17237413086E+04  0.17448274651E+04  0.50400001928E-02 0.  1.
       -1    1    3    3    0  502  0.25985618234E+03  0.74923619228E+02 -0.12636266174E+04  0.12922426291E+04  0.50400001928E-02 0. -1.
</event>
<event>
 5   0  0.2422083E-06  0.3035491E+04  0.7818609E-02  0.8233668E-01
       -1   -1    0    0    0  501  0.00000000000E+00  0.00000000000E+00  0.18738324954E+04  0.18738324955E+04  0.50400001928E-02 0. -1.
        1   -1    0    0  501    0  0.00000000000E+00  0.00000000000E+00 -0.12293261408E+04  0.12293261408E+04  0.50400001928E-02 0.  1.
    10030    2    1    2    0    0  0.00000000000E+00  0.00000000000E+00  0.64450635462E+03  0.31031586363E+04  0.30354909127E+04 0.  0.
        2    1    3    3  502    0  0.75570763099E+01  0.12648959873E+04 -0.53521312547E+03  0.13734890090E+04  0.25500000920E-02 0.  1.
       -2    1    3    3    0  502 -0.75570763099E+01 -0.12648959873E+04  0.11797194801E+04  0.17296696273E+04  0.25500000920E-02 0. -1.
</event>
<event>
 5   0  0.7193153E-06  0.2908574E+04  0.7818609E-02  0.8270331E-01
        2   -1    0    0  501    0  0.00000000000E+00  0.00000000000E+00  0.16587110033E+04  0.16587110033E+04  0.25500000920E-02 0.  1.
       -2   -1    0    0    0  501  0.00000000000E+00  0.00000000000E+00 -0.12750564109E+04  0.12750564109E+04  0.25500000920E-02 0. -1.
    10030    2    1    2    0    0  0.00000000000E+00  0.00000000000E+00  0.38365459236E+03  0.29337674141E+04  0.29085736013E+04 0.  0.
        4    1    3    3  502    0  0.13801484767E+03 -0.90133080650E+03 -0.95090392814E+03  0.13174464750E+04  0.12699999809E+01 0. -1.
       -4    1    3    3    0  502 -0.13801484767E+03  0.90133080650E+03  0.13345585205E+04  0.16163209392E+04  0.12699999809E+01 0.  1.
</event>
<event>
 5   0  0.6792811E-06  0.2982372E+04  0.7818609E-02  0.8248783E-01
        2   -1    0    0  501    0  0.00000000000E+00  0.00000000000E+00  0.19114953095E+04  0.19114953095E+04  0.25500000920E-02 0. -1.
       -2   -1    0    0    0  501  0.00000000000E+00  0.00000000000E+00 -0.11632964703E+04  0.11632964703E+04  0.25500000920E-02 0.  1.
    10030    2    1    2    0    0  0.00000000000E+00  0.00000000000E+00  0.74819883918E+03  0.30747917799E+04  0.29823720403E+04 0.  0.
        2    1    3    3  502    0  0.10170571888E+03 -0.18069869972E+03 -0.11483604248E+04  0.11669309057E+04  0.25500000920E-02 0.  1.
       -2    1    3    3    0  502 -0.10170571888E+03  0.18069869972E+03  0.18965592640E+04  0.19078608742E+04  0.25500000920E-02 0. -1.
</event>
<event>
 5   0  0.2552990E-06  0.2919757E+04  0.7818609E-02  0.8267023E-01
        1   -1    0    0  501    0  0.00000000000E+00  0.00000000000E+00  0.21975338246E+04  0.21975338246E+04  0.50400001928E-02 0. -1.
       -1   -1    0    0    0  501  0.00000000000E+00  0.00000000000E+00 -0.96983533472E+03  0.96983533473E+03  0.50400001928E-02 0.  1.
    10030    2    1    2    0    0  0.00000000000E+00  0.00000000000E+00  0.12276984898E+04  0.31673691593E+04  0.29197574915E+04 0.  0.
        3    1    3    3  502    0  0.34822680577E+03  0.28198280421E+03  0.21210926788E+04  0.21679046041E+04  0.10100000352E+00 0. -1.
       -3    1    3    3    0  502 -0.34822680577E+03 -0.28198280421E+03 -0.89339418894E+03  0.99946455523E+03  0.10100000352E+00 0.  1.
</event>
<event>
 5   0  0.2504260E-06  0.2982197E+04  0.7818609E-02  0.8248833E-01
        1   -1    0    0  501    0  0.00000000000E+00  0.00000000000E+00  0.69356015805E+03  0.69356015807E+03  0.50400001928E-02 0.  1.
       -1   -1    0    0    0  501  0.00000000000E+00  0.00000000000E+00 -0.32057410434E+04  0.32057410434E+04  0.50400001928E-02 0. -1.
    10030    2    1    2    0    0  0.00000000000E+00  0.00000000000E+00 -0.25121808853E+04  0.38993012015E+04  0.29821966835E+04 0.  0.
        4    1    3    3  502    0  0.88443578866E+03 -0.30652588582E+03  0.26153494268E+03  0.97189861718E+03  0.12699999809E+01 0.  1.
       -4    1    3    3    0  502 -0.88443578866E+03  0.30652588582E+03 -0.27737158280E+04  0.29274025843E+04  0.12699999809E+01 0. -1.
</event>
<event>
 5   0  0.2672155E-06  0.3019876E+04  0.7818609E-02  0.8238078E-01
       -1   -1    0    0    0  501  0.00000000000E+00  0.00000000000E+00  0.10720476326E+04  0.10720476326E+04  0.50400001928E-02 0. -1.
        1   -1    0    0  501    0  0.00000000000E+00  0.00000000000E+00 -0.21266896432E+04  0.21266896432E+04  0.50400001928E-02 0.  1.
    10030    2    1    2    0    0  0.00000000000E+00  0.00000000000E+00 -0.10546420106E+04  0.31987372758E+04  0.30198758897E+04 0.  0.
        5    1    3    3  502    0 -0.38294603298E+03  0.12461724109E+04  0.27956967847E+03  0.13333321555E+04  0.46999998093E+01 0. -1.
       -5    1    3    3    0  502  0.38294603298E+03 -0.12461724109E+04 -0.13342116891E+04  0.18654051203E+04  0.46999998093E+01 0.  1.
</event>
<event>
 5   0  0.2504260E-06  0.2970487E+04  0.7818609E-02  0.8252209E-01
       -1   -1    0    0    0  501  0.00000000000E+00  0.00000000000E+00  0.91897206934E+03  0.91897206936E+03  0.50400001928E-02 0. -1.
        1   -1    0    0  501    0  0.00000000000E+00  0.00000000000E+00 -0.24004524715E+04  0.24004524715E+04  0.50400001928E-02 0.  1.
    10030    2    1    2    0    0  0.00000000000E+00  0.00000000000E+00 -0.14814804021E+04  0.33194245408E+04  0.29704873507E+04 0.  0.
        4    1    3    3  502    0 -0.72893405193E+03 -0.53197738380E+03  0.57749429875E+03  0.10713757823E+04  0.12699999809E+01 0. -1.
       -4    1    3    3    0  502  0.72893405193E+03  0.53197738380E+03 -0.20589747009E+04  0.22480487585E+04  0.12699999809E+01 0.  1.
</event>
<event>
 5   0  0.2628425E-06  0.2965525E+04  0.7818609E-02  0.8253644E-01
        1   -1    0    0  501    0  0.00000000000E+00  0.00000000000E+00  0.23807040635E+04  0.23807040635E+04  0.50400001928E-02 0. -1.
       -1   -1    0    0    0  501  0.00000000000E+00  0.00000000000E+00 -0.92350188227E+03  0.92350188229E+03  0.50400001928E-02 0.  1.
    10030    2    1    2    0    0  0.00000000000E+00  0.00000000000E+00  0.14572021813E+04  0.33042059458E+04  0.29655250354E+04 0.  0.
        1    1    3    3  502    0 -0.26649596422E+03  0.66190486808E+02 -0.89492498797E+03  0.93610470226E+03  0.50400001928E-02 0.  1.
       -1    1    3    3    0  502  0.26649596422E+03 -0.66190486808E+02  0.23521271692E+04  0.23681012436E+04  0.50400001928E-02 0. -1.
</event>
<event>
 5   0  0.6780150E-06  0.3018844E+04  0.7818609E-02  0.8238370E-01
       -2   -1    0    0    0  501  0.00000000000E+00  0.00000000000E+00  0.89614297876E+03  0.89614297877E+03  0.25500000920E-02 0.  1.
        2   -1    0    0  501    0  0.00000000000E+00  0.00000000000E+00 -0.25424003478E+04  0.25424003478E+04  0.25500000920E-02 0. -1.
    10030    2    1    2    0    0  0.00000000000E+00  0.00000000000E+00 -0.16462573690E+04  0.34385433265E+04  0.30188436335E+04 0.  0.
        5    1    3    3  502    0 -0.19813329305E+03  0.15434489775E+03 -0.25184247234E+04  0.25309216359E+04  0.46999998093E+01 0. -1.
       -5    1    3    3    0  502  0.19813329305E+03 -0.15434489775E+03  0.87216735442E+03  0.90762169068E+03  0.46999998093E+01 0.  1.
</event>
<event>
 5   0  0.2504260E-06  0.3005988E+04  0.7818609E-02  0.8242023E-01
       -1   -1    0    0    0  501  0.00000000000E+00  0.00000000000E+00  0.11932576696E+04  0.11932576696E+04  0.50400001928E-02 0.  1.
        1   -1    0    0  501    0  0.00000000000E+00  0.00000000000E+00 -0.18931289638E+04  0.18931289638E+04  0.50400001928E-02 0. -1.
    10030    2    1    2    0    0  0.00000000000E+00  0.00000000000E+00 -0.69987129421E+03  0.30863866334E+04  0.30059877948E+04 0.  0.
        4    1    3    3  502    0 -0.13576104883E+04 -0.60104216517E+03 -0.10995115916E+03  0.14887742584E+04  0.12699999809E+01 0. -1.
       -4    1    3    3    0  502  0.13576104883E+04  0.60104216517E+03 -0.58992013505E+03  0.15976123750E+04  0.12699999809E+01 0.  1.
</event>
<event>
 5   0  0.2298500E-06  0.3016773E+04  0.7818609E-02  0.8238958E-01
       -4   -1    0    0    0  501  0.00000000000E+00  0.00000000000E+00  0.18275636151E+04  0.18275640564E+04  0.12699999809E+01 0. -1.
        4   -1    0    0  501    0  0.00000000000E+00  0.00000000000E+00 -0.12449511770E+04  0.12449518248E+04  0.12699999809E+01 0.  1.
    10030    2    1    2    0    0  0.00000000000E+00  0.00000000000E+00  0.58261243807E+03  0.30725158812E+04  0.30167725448E+04 0.  0.
        5    1    3    3  502    0 -0.86010352023E+03 -0.55521067290E+03 -0.83694016927E+03  0.13223191346E+04  0.46999998093E+01 0.  1.
       -5    1    3    3    0  502  0.86010352023E+03  0.55521067290E+03  0.14195526073E+04  0.17501967466E+04  0.46999998093E+01 0. -1.
</event>
<event>
 5   0  0.7201538E-06  0.3054951E+04  0.7818609E-02  0.8228211E-01
        2   -1    0    0  501    0  0.00000000000E+00  0.00000000000E+00  0.12556014534E+04  0.12556014534E+04  0.25500000920E-02 0.  1.
       -2   -1    0    0    0  501  0.00000000000E+00  0.00000000000E+00 -0.18582183495E+04  0.18582183495E+04  0.25500000920E-02 0. -1.
    10030    2    1    2    0    0  0.00000000000E+00  0.00000000000E+00 -0.60261689615E+03  0.31138198029E+04  0.30549511684E+04 0.  0.
        3    1    3    3  502    0  0.94565458281E+03  0.11995488577E+04 -0.30001985425E+03  0.15566605202E+04  0.10100000352E+00 0.  1.
       -3    1    3    3    0  502 -0.94565458281E+03 -0.11995488577E+04 -0.30259704190E+03  0.15571592827E+04  0.10100000352E+00 0. -1.
</event>
<event>
 5   0  0.7201538E-06  0.2866869E+04  0.7818609E-02  0.8282804E-01
       -2   -1    0    0    0  501  0.00000000000E+00  0.00000000000E+00  0.20555853021E+04  0.20555853021E+04  0.25500000920E-02 0.  1.
        2   -1    0    0  501    0  0.00000000000E+00  0.00000000000E+00 -0.99958602469E+03  0.99958602469E+03  0.25500000920E-02 0. -1.
    10030    2    1    2    0    0  0.00000000000E+00  0.00000000000E+00  0.10559992774E+04  0.30551713268E+04  0.28668689126E+04 0.  0.
        3    1    3    3  502    0 -0.11558283877E+04  0.72819924136E+03  0.99070818904E+03  0.16875177400E+04  0.10100000352E+00 0.  1.
       -3    1    3    3    0  502  0.11558283877E+04 -0.72819924136E+03  0.65291088368E+02  0.13676535868E+04  0.10100000352E+00 0. -1.
</event>
<event>
 5   0  0.2672155E-06  0.2985308E+04  0.7818609E-02  0.8247939E-01
        1   -1    0    0  501    0  0.00000000000E+00  0.00000000000E+00  0.15110394686E+04  0.15110394686E+04  0.50400001928E-02 0. -1.
       -1   -1    0    0    0  501  0.00000000000E+00  0.00000000000E+00 -0.14744922332E+04  0.14744922332E+04  0.50400001928E-02 0.  1.
    10030    2    1    2    0    0  0.00000000000E+00  0.00000000000E+00  0.36547235402E+02  0.29855317019E+04  0.29853079979E+04 0.  0.
        5    1    3    3  502    0 -0.49463793527E+03  0.11463387371E+04  0.83640257161E+03  0.15027809352E+04  0.46999998093E+01 0. -1.
       -5    1    3    3    0  502  0.49463793527E+03 -0.11463387371E+04 -0.79985533621E+03  0.14827507667E+04  0.46999998093E+01 0.  1.
</event>
<event>
 5   0  0.6780150E-06  0.3139593E+04  0.7818609E-02  0.8204955E-01
       -2   -1    0    0    0  501  0.00000000000E+00  0.00000000000E+00  0.71503308037E+03  0.71503308037E+03  0.25500000920E-02 0. -1.
        2   -1    0    0  501    0  0.00000000000E+00  0.00000000000E+00 -0.34463595404E+04  0.34463595404E+04  0.25500000920E-02 0.  1.
    10030    2    1    2    0    0  0.00000000000E+00  0.00000000000E+00 -0.27313264600E+04  0.41613926208E+04  0.31395930171E+04 0.  0.
        5    1    3    3  502    0 -0.13726868101E+04  0.21767150527E+03 -0.39836265763E+03  0.14458094134E+04  0.46999998093E+01 0.  1.
       -5    1    3    3    0  502  0.13726868101E+04 -0.21767150527E+03 -0.23329638024E+04  0.27155832074E+04  0.46999998093E+01 0. -1.
</event>
<event>
 5   0  0.7201538E-06  0.3149129E+04  0.7818609E-02  0.8202383E-01
        2   -1    0    0  501    0  0.00000000000E+00  0.00000000000E+00  0.19869921683E+04  0.19869921683E+04  0.25500000920E-02 0.  1.
       -2   -1    0    0    0  501  0.00000000000E+00  0.00000000000E+00 -0.12477418638E+04  0.12477418638E+04  0.25500000920E-02 0. -1.
    10030    2    1    2    0    0  0.00000000000E+00  0.00000000000E+00  0.73925030451E+03  0.32347340320E+04  0.31491289661E+04 0.  0.
        3    1    3    3  502    0  0.13578673802E+04  0.11618103932E+03 -0.44045197815E+03  0.14322359482E+04  0.10100000352E+00 0. -1.
       -3    1    3    3    0  502 -0.13578673802E+04 -0.11618103932E+03  0.11797022827E+04  0.18024980838E+04  0.10100000352E+00 0.  1.
</event>
<event>
 5   0  0.2552990E-06  0.2998720E+04  0.7818609E-02  0.8244097E-01
        1   -1    0    0  501    0  0.00000000000E+00  0.00000000000E+00  0.18930606180E+04  0.18930606180E+04  0.50400001928E-02 0. -1.
       -1   -1    0    0    0  501  0.00000000000E+00  0.00000000000E+00 -0.11875373896E+04  0.11875373896E+04  0.50400001928E-02 0.  1.
    10030    2    1    2    0    0  0.00000000000E+00  0.00000000000E+00  0.70552322842E+03  0.30805980076E+04  0.29987199033E+04 0.  0.
        3    1    3    3  502    0  0.11842807498E+04 -0.72664452104E+03  0.93166115301E+03  0.16728794542E+04  0.10100000352E+00 0.  1.
       -3    1    3    3    0  502 -0.11842807498E+04  0.72664452104E+03 -0.22613792459E+03  0.14077185533E+04  0.10100000352E+00 0. -1.
</event>
<event>
 5   0  0.2552990E-06  0.2936006E+04  0.7818609E-02  0.8262245E-01
       -1   -1    0    0    0  501  0.00000000000E+00  0.00000000000E+00  0.14206097057E+04  0.14206097057E+04  0.50400001928E-02 0. -1.
        1   -1    0    0  501    0  0.00000000000E+00  0.00000000000E+00 -0.15169769992E+04  0.15169769992E+04  0.50400001928E-02 0.  1.
    10030    2    1    2    0    0  0.00000000000E+00  0.00000000000E+00 -0.96367293476E+02  0.29375867048E+04  0.29360056187E+04 0.  0.
        3    1    3    3  502    0  0.19851819515E+03 -0.17471947137E+03  0.13965800677E+04  0.14213979960E+04  0.10100000352E+00 0. -1.
       -3    1    3    3    0  502 -0.19851819515E+03  0.17471947137E+03 -0.14929473611E+04  0.15161887088E+04  0.10100000352E+00 0.  1.
</event>
<event>
 5   0  0.2504260E-06  0.3006053E+04  0.7818609E-02  0.8242004E-01
        1   -1    0    0  501    0  0.00000000000E+00  0.00000000000E+00  0.11905500540E+04  0.11905500541E+04  0.50400001928E-02 0. -1.
       -1   -1    0    0    0  501  0.00000000000E+00  0.00000000000E+00 -0.18975173143E+04  0.18975173143E+04  0.50400001928E-02 0.  1.
    10030    2    1    2    0    0  0.00000000000E+00  0.00000000000E+00 -0.70696726028E+03  0.30880673684E+04  0.30060534534E+04 0.  0.
        4    1    3    3  502    0 -0.14097871730E+03 -0.14939634050E+04 -0.26579629835E+03  0.15239589691E+04  0.12699999809E+01 0.  1.
       -4    1    3    3    0  502  0.14097871730E+03  0.14939634050E+04 -0.44117096193E+03  0.15641083993E+04  0.12699999809E+01 0. -1.
</event>
<event>
 5   0  0.7217255E-06  0.2988417E+04  0.7818609E-02  0.8247046E-01
        2   -1    0    0  501    0  0.00000000000E+00  0.00000000000E+00  0.15241623494E+04  0.15241623494E+04  0.25500000920E-02 0.  1.
       -2   -1    0    0    0  501  0.00000000000E+00  0.00000000000E+00 -0.14648430661E+04  0.14648430661E+04  0.25500000920E-02 0. -1.
    10030    2    1    2    0    0  0.00000000000E+00  0.00000000000E+00  0.59319283314E+02  0.29890054154E+04  0.29884167374E+04 0.  0.
        1    1    3    3  502    0  0.10577320586E+04  0.31940665551E+03 -0.97644154965E+03  0.14745357979E+04  0.50400001928E-02 0. -1.
       -1    1    3    3    0  502 -0.10577320586E+04 -0.31940665551E+03  0.10357608330E+04  0.15144696175E+04  0.50400001928E-02 0.  1.
</event>
<event>
 5   0  0.2298500E-06  0.2980473E+04  0.7818609E-02  0.8249329E-01
        4   -1    0    0  501    0  0.00000000000E+00  0.00000000000E+00  0.16519268866E+04  0.16519273748E+04  0.12699999809E+01 0.  1.
       -4   -1    0    0    0  501  0.00000000000E+00  0.00000000000E+00 -0.13443716784E+04  0.13443722782E+04  0.12699999809E+01 0. -1.
    10030    2    1    2    0    0  0.00000000000E+00  0.00000000000E+00  0.30755520826E+03  0.29962996531E+04  0.29804733525E+04 0.  0.
        1    1    3    3  502    0 -0.11163967066E+03  0.96133679186E+03  0.12930087606E+04  0.16150862201E+04  0.50400001928E-02 0.  1.
       -1    1    3    3    0  502  0.11163967066E+03 -0.96133679186E+03 -0.98545355235E+03  0.13812134329E+04  0.50400001928E-02 0. -1.
</event>
<event>
 5   0  0.6792811E-06  0.2817071E+04  0.7818609E-02  0.8297988E-01
        2   -1    0    0  501    0  0.00000000000E+00  0.00000000000E+00  0.12814233103E+04  0.12814233103E+04  0.25500000920E-02 0. -1.
       -2   -1    0    0    0  501  0.00000000000E+00  0.00000000000E+00 -0.15482562535E+04  0.15482562535E+04  0.25500000920E-02 0.  1.
    10030    2    1    2    0    0  0.00000000000E+00  0.00000000000E+00 -0.26683294323E+03  0.28296795639E+04  0.28170705732E+04 0.  0.
        2    1    3    3  502    0 -0.48701126595E+03 -0.47698675558E+03 -0.13715223115E+04  0.15315906075E+04  0.25500000920E-02 0.  1.
       -2    1    3    3    0  502  0.48701126595E+03  0.47698675558E+03  0.11046893683E+04  0.12980889563E+04  0.25500000920E-02 0. -1.
</event>
<event>
 5   0  0.7201538E-06  0.2903292E+04  0.7818609E-02  0.8271899E-01
       -2   -1    0    0    0  501  0.00000000000E+00  0.00000000000E+00  0.12573840038E+04  0.12573840038E+04  0.25500000920E-02 0.  1.
        2   -1    0    0  501    0  0.00000000000E+00  0.00000000000E+00 -0.16759204850E+04  0.16759204850E+04  0.25500000920E-02 0. -1.
    10030    2    1    2    0    0  0.00000000000E+00  0.00000000000E+00 -0.41853648113E+03  0.29333044888E+04  0.29032916557E+04 0.  0.
        3    1    3    3  502    0  0.86428143930E+03  0.10690547365E+04  0.26182990649E+03  0.13994339377E+04  0.10100000352E+00 0.  1.
       -3    1    3    3    0  502 -0.86428143930E+03 -0.10690547365E+04 -0.68036638761E+03  0.15338705511E+04  0.10100000352E+00 0. -1.
</event>
<event>
 5   0  0.2422083E-06  0.2909525E+04  0.7818609E-02  0.8270049E-01
        1   -1    0    0  501    0  0.00000000000E+00  0.00000000000E+00  0.19229849238E+04  0.19229849238E+04  0.50400001928E-02 0.  1.
       -1   -1    0    0    0  501  0.00000000000E+00  0.00000000000E+00 -0.11005460481E+04  0.11005460481E+04  0.50400001928E-02 0. -1.
    10030    2    1    2    0    0  0.00000000000E+00  0.00000000000E+00  0.82243887570E+03  0.30235309719E+04  0.29095246748E+04 0.  0.
        2    1    3    3  502    0 -0.24725083283E+03  0.14322102108E+04  0.34570636692E+03  0.14939450975E+04  0.25500000920E-02 0. -1.
       -2    1    3    3    0  502  0.24725083283E+03 -0.14322102108E+04  0.47673250878E+03  0.15295858744E+04  0.25500000920E-02 0.  1.
</event>
<event>
 5   0  0.2628425E-06  0.2705475E+04  0.7818609E-02  0.8333231E-01
        1   -1    0    0  501    0  0.00000000000E+00  0.00000000000E+00  0.12421118641E+04  0.12421118641E+04  0.50400001928E-02 0.  1.
       -1   -1    0    0    0  501  0.00000000000E+00  0.00000000000E+00 -0.14732153979E+04  0.14732153979E+04  0.50400001928E-02 0. -1.
    10030    2    1    2    0    0  0.00000000000E+00  0.00000000000E+00 -0.23110353377E+03  0.27153272620E+04  0.27054746896E+04 0.  0.
        1    1    3    3  502    0  0.89587630978E+03 -0.89853947904E+03 -0.58622738132E+03  0.13977231845E+04  0.50400001928E-02 0. -1.
       -1    1    3    3    0  502 -0.89587630978E+03  0.89853947904E+03  0.35512384755E+03  0.13176040775E+04  0.50400001928E-02 0.  1.
</event>
<event>
 5   0  0.7201538E-06  0.2983687E+04  0.7818609E-02  0.8248404E-01
       -2   -1    0    0    0  501  0.00000000000E+00  0.00000000000E+00  0.16059081587E+04  0.16059081587E+04  0.25500000920E-02 0.  1.
        2   -1    0    0  501    0  0.00000000000E+00  0.00000000000E+00 -0.13858809483E+04  0.13858809483E+04  0.25500000920E-02 0. -1.
    10030    2    1    2    0    0  0.00000000000E+00  0.00000000000E+00  0.22002721041E+03  0.29917891070E+04  0.29836873307E+04 0.  0.
        3    1    3    3  502    0 -0.44920126564E+02  0.24770604540E+03 -0.13644285800E+04  0.13874586346E+04  0.10100000352E+00 0. -1.
       -3    1    3    3    0  502  0.44920126564E+02 -0.24770604540E+03  0.15844557904E+04  0.16043304724E+04  0.10100000352E+00 0.  1.
</event>
<event>
 5   0  0.6780150E-06  0.2325010E+04  0.7818609E-02  0.8468125E-01
        2   -1    0    0  501    0  0.00000000000E+00  0.00000000000E+00  0.14615224248E+04  0.14615224248E+04  0.25500000920E-02 0. -1.
       -2   -1    0    0    0  501  0.00000000000E+00  0.00000000000E+00 -0.92466428861E+03  0.92466428861E+03  0.25500000920E-02 0.  1.
    10030    2    1    2    0    0  0.00000000000E+00  0.00000000000E+00  0.53685813620E+03  0.23861867134E+04  0.23250097576E+04 0.  0.
        5    1    3    3  502    0  0.42022565364E+03  0.61842745648E+03  0.11819933301E+04  0.13986323467E+04  0.46999998093E+01 0. -1.
       -5    1    3    3    0  502 -0.42022565364E+03 -0.61842745648E+03 -0.64513519385E+03  0.98755436673E+03  0.46999998093E+01 0.  1.
</event>
<event>
 5   0  0.2552990E-06  0.3041802E+04  0.7818609E-02  0.8231894E-01
        1   -1    0    0  501    0  0.00000000000E+00  0.00000000000E+00  0.75007246159E+03  0.75007246161E+03  0.50400001928E-02 0.  1.
       -1   -1    0    0    0  501  0.00000000000E+00  0.00000000000E+00 -0.30838889857E+04  0.30838889857E+04  0.50400001928E-02 0. -1.
    10030    2    1    2    0    0  0.00000000000E+00  0.00000000000E+00 -0.23338165241E+04  0.38339614473E+04  0.30418022308E+04 0.  0.
        3    1    3    3  502    0 -0.63058307158E+03  0.10593810982E+04 -0.44340053230E+02  0.12336488041E+04  0.10100000352E+00 0.  1.
       -3    1    3    3    0  502  0.63058307158E+03 -0.10593810982E+04 -0.22894764709E+04  0.26003126432E+04  0.10100000352E+00 0. -1.
</event>
<event>
 5   0  0.2504260E-06  0.2903227E+04  0.7818609E-02  0.8271918E-01
        1   -1    0    0  501    0  0.00000000000E+00  0.00000000000E+00  0.26285644801E+04  0.26285644801E+04  0.50400001928E-02 0. -1.
       -1   -1    0    0    0  501  0.00000000000E+00  0.00000000000E+00 -0.80164758893E+03  0.80164758895E+03  0.50400001928E-02 0.  1.
    10030    2    1    2    0    0  0.00000000000E+00  0.00000000000E+00  0.18269168912E+04  0.34302120690E+04  0.29032274302E+04 0.  0.
        4    1    3    3  502    0 -0.12242210419E+03  0.27380571876E+02 -0.79523054727E+03  0.80506527904E+03  0.12699999809E+01 0.  1.
       -4    1    3    3    0  502  0.12242210419E+03 -0.27380571876E+02  0.26221474384E+04  0.26251467900E+04  0.12699999809E+01 0. -1.
</event>
<event>
 5   0  0.2422083E-06  0.2960617E+04  0.7818609E-02  0.8255067E-01
        1   -1    0    0  501    0  0.00000000000E+00  0.00000000000E+00  0.15878065945E+04  0.15878065945E+04  0.50400001928E-02 0. -1.
       -1   -1    0    0    0  501  0.00000000000E+00  0.00000000000E+00 -0.13800881947E+04  0.13800881947E+04  0.50400001928E-02 0.  1.
    10030    2    1    2    0    0  0.00000000000E+00  0.00000000000E+00  0.20771839980E+03  0.29678947892E+04  0.29606169199E+04 0.  0.
        2    1    3    3  502    0  0.12375753065E+04  0.67634967821E+03  0.55471094001E+03  0.15155018157E+04  0.25500000920E-02 0.  1.
       -2    1    3    3    0  502 -0.12375753065E+04 -0.67634967821E+03 -0.34699254021E+03  0.14523929735E+04  0.25500000920E-02 0. -1.
</event>
<event>
 5   0  0.7193153E-06  0.2937967E+04  0.7818609E-02  0.8261670E-01
       -2   -1    0    0    0  501  0.00000000000E+00  0.00000000000E+00  0.15733950609E+04  0.15733950609E+04  0.25500000920E-02 0.  1.
        2   -1    0    0  501    0  0.00000000000E+00  0.00000000000E+00 -0.13715003221E+04  0.13715003221E+04  0.25500000920E-02 0. -1.
    10030    2    1    2    0    0  0.00000000000E+00  0.00000000000E+00  0.20189473882E+03  0.29448953831E+04  0.29379665300E+04 0.  0.
        4    1    3    3  502    0  0.79838464731E+03  0.10895828880E+04  0.67963144894E+03  0.15121208398E+04  0.12699999809E+01 0.  1.
       -4    1    3    3    0  502 -0.79838464731E+03 -0.10895828880E+04 -0.47773671012E+03  0.14327745433E+04  0.12699999809E+01 0. -1.
</event>
<event>
 5   0  0.2672155E-06  0.3013924E+04  0.7818609E-02  0.8239766E-01
        1   -1    0    0  501    0  0.00000000000E+00  0.00000000000E+00  0.19910850670E+04  0.19910850670E+04  0.50400001928E-02 0.  1.
       -1   -1    0    0    0  501  0.00000000000E+00  0.00000000000E+00 -0.11405513968E+04  0.11405513968E+04  0.50400001928E-02 0. -1.
    10030    2    1    2    0    0  0.00000000000E+00  0.00000000000E+00  0.85053367020E+03  0.31316364638E+04  0.30139242554E+04 0.  0.
        5    1    3    3  502    0 -0.96635684568E+03 -0.66879843859E+03  0.14053869832E+04  0.18320129823E+04  0.46999998093E+01 0.  1.
       -5    1    3    3    0  502  0.96635684568E+03  0.66879843859E+03 -0.55485331305E+03  0.12996234815E+04  0.46999998093E+01 0. -1.
</event>
<event>
 5   0  0.6780150E-06  0.3003656E+04  0.7818609E-02  0.8242688E-01
       -2   -1    0    0    0  501  0.00000000000E+00  0.00000000000E+00  0.17548911441E+04  0.17548911441E+04  0.25500000920E-02 0. -1.
        2   -1    0    0  501    0  0.00000000000E+00  0.00000000000E+00 -0.12852576984E+04  0.12852576984E+04  0.25500000920E-02 0.  1.
    10030    2    1    2    0    0  0.00000000000E+00  0.00000000000E+00  0.46963344570E+03  0.30401488426E+04  0.30036560075E+04 0.  0.
        5    1    3    3  502    0  0.36262044468E+03  0.11245433717E+04  0.11731037851E+04  0.16650183069E+04  0.46999998093E+01 0. -1.
       -5    1    3    3    0  502 -0.36262044468E+03 -0.11245433717E+04 -0.70347033936E+03  0.13751305357E+04  0.46999998093E+01 0.  1.
</event>
<event>
 5   0  0.2422083E-06  0.2978173E+04  0.7818609E-02  0.8249991E-01
       -1   -1    0    0    0  501  0.00000000000E+00  0.00000000000E+00  0.88565188888E+03  0.88565188889E+03  0.50400001928E-02 0. -1.
        1   -1    0    0  501    0  0.00000000000E+00  0.00000000000E+00 -0.25036684493E+04  0.25036684493E+04  0.50400001928E-02 0.  1.
    10030    2    1    2    0    0  0.00000000000E+00  0.00000000000E+00 -0.16180165604E+04  0.33893203382E+04  0.29781730583E+04 0.  0.
        2    1    3    3  502    0  0.31755165917E+03 -0.43056153478E+03  0.77249978495E+03  0.93966920202E+03  0.25500000920E-02 0. -1.
       -2    1    3    3    0  502 -0.31755165917E+03  0.43056153478E+03 -0.23905163454E+04  0.24496511362E+04  0.25500000920E-02 0.  1.
</event>
<event>
 5   0  0.7217255E-06  0.2990277E+04  0.7818609E-02  0.8246513E-01
        2   -1    0    0  501    0  0.00000000000E+00  0.00000000000E+00  0.10441568948E+04  0.10441568948E+04  0.25500000920E-02 0.  1.
       -2   -1    0    0    0  501  0.00000000000E+00  0.00000000000E+00 -0.21409030744E+04  0.21409030744E+04  0.25500000920E-02 0. -1.
    10030    2    1    2    0    0  0.00000000000E+00  0.00000000000E+00 -0.10967461796E+04  0.31850599693E+04  0.29902767139E+04 0.  0.
        1    1    3    3  502    0  0.80623644056E+02  0.31750202173E+03  0.10054637503E+04  0.10574805242E+04  0.50400001928E-02 0.  1.
       -1    1    3    3    0  502 -0.80623644056E+02 -0.31750202173E+03 -0.21022099299E+04  0.21275794451E+04  0.50400001928E-02 0. -1.
</event>
<event>
 5   0  0.2672155E-06  0.2952460E+04  0.7818609E-02  0.8257438E-01
        1   -1    0    0  501    0  0.00000000000E+00  0.00000000000E+00  0.14426886313E+04  0.14426886313E+04  0.50400001928E-02 0.  1.
       -1   -1    0    0    0  501  0.00000000000E+00  0.00000000000E+00 -0.15105508381E+04  0.15105508381E+04  0.50400001928E-02 0. -1.
    10030    2    1    2    0    0  0.00000000000E+00  0.00000000000E+00 -0.67862206832E+02  0.29532394694E+04  0.29524596668E+04 0.  0.
        5    1    3    3  502    0  0.31220797641E+03 -0.13218336803E+04  0.54459379582E+03  0.14633258665E+04  0.46999998093E+01 0.  1.
       -5    1    3    3    0  502 -0.31220797641E+03  0.13218336803E+04 -0.61245600265E+03  0.14899136029E+04  0.46999998093E+01 0. -1.
</event>
<event>
 5   0  0.2422083E-06  0.2984829E+04  0.7818609E-02  0.8248076E-01
        1   -1    0    0  501    0  0.00000000000E+00  0.00000000000E+00  0.18554757044E+04  0.18554757044E+04  0.50400001928E-02 0. -1.
       -1   -1    0    0    0  501  0.00000000000E+00  0.00000000000E+00 -0.12003932610E+04  0.12003932610E+04  0.50400001928E-02 0.  1.
    10030    2    1    2    0    0  0.00000000000E+00  0.00000000000E+00  0.65508244335E+03  0.30558689654E+04  0.29848286594E+04 0.  0.
        2    1    3    3  502    0 -0.70509957368E+03  0.66397936847E+03 -0.83494194957E+03  0.12787345580E+04  0.25500000920E-02 0.  1.
       -2    1    3    3    0  502  0.70509957368E+03 -0.66397936847E+03  0.14900243929E+04  0.17771344074E+04  0.25500000920E-02 0. -1.
</event>
<event>
 5   0  0.6792811E-06  0.3019121E+04  0.7818609E-02  0.8238292E-01
        2   -1    0    0  501    0  0.00000000000E+00  0.00000000000E+00  0.19701886556E+04  0.19701886556E+04  0.25500000920E-02 0. -1.
       -2   -1    0    0    0  501  0.00000000000E+00  0.00000000000E+00 -0.11566270641E+04  0.11566270641E+04  0.25500000920E-02 0.  1.
    10030    2    1    2    0    0  0.00000000000E+00  0.00000000000E+00  0.81356159146E+03  0.31268157197E+04  0.30191214089E+04 0.  0.
        2    1    3    3  502    0 -0.71167443092E+03 -0.13221866702E+04  0.24594998572E+03  0.15215615275E+04  0.25500000920E-02 0. -1.
       -2    1    3    3    0  502  0.71167443092E+03  0.13221866702E+04  0.56761160574E+03  0.16052541922E+04  0.25500000920E-02 0.  1.
</event>
<event>
 5   0  0.6792811E-06  0.3034468E+04  0.7818609E-02  0.8233956E-01
        2   -1    0    0  501    0  0.00000000000E+00  0.00000000000E+00  0.12589332382E+04  0.12589332382E+04  0.25500000920E-02 0.  1.
       -2   -1    0    0    0  501  0.00000000000E+00  0.00000000000E+00 -0.18285317681E+04  0.18285317681E+04  0.25500000920E-02 0. -1.
    10030    2    1    2    0    0  0.00000000000E+00  0.00000000000E+00 -0.56959852989E+03  0.30874650063E+04  0.30344682697E+04 0.  0.
        2    1    3    3  502    0 -0.10411377593E+04  0.99275507661E+03 -0.77537031389E+03  0.16342367025E+04  0.25500000920E-02 0.  1.
       -2    1    3    3    0  502  0.10411377593E+04 -0.99275507661E+03  0.20577178400E+03  0.14532283039E+04  0.25500000920E-02 0. -1.
</event>
<event>
 5   0  0.7193153E-06  0.3155286E+04  0.7818609E-02  0.8200727E-01
       -2   -1    0    0    0  501  0.00000000000E+00  0.00000000000E+00  0.22315288179E+04  0.22315288179E+04  0.25500000920E-02 0.  1.
        2   -1    0    0  501    0  0.00000000000E+00  0.00000000000E+00 -0.11153594442E+04  0.11153594442E+04  0.25500000920E-02 0. -1.
    10030    2    1    2    0    0  0.00000000000E+00  0.00000000000E+00  0.11161693738E+04  0.33468882621E+04  0.31552855604E+04 0.  0.
        4    1    3    3  502    0 -0.72802679878E+03  0.10045742339E+04 -0.47565241132E+03  0.13286983256E+04  0.12699999809E+01 0. -1.
       -4    1    3    3    0  502  0.72802679878E+03 -0.10045742339E+04  0.15918217851E+04  0.20181899364E+04  0.12699999809E+01 0.  1.
</event>
<event>
 5   0  0.6792811E-06  0.2902016E+04  0.7818609E-02  0.8272278E-01
        2   -1    0    0  501    0  0.00000000000E+00  0.00000000000E+00  0.11101693940E+04  0.11101693940E+04  0.25500000920E-02 0.  1.
       -2   -1    0    0    0  501  0.00000000000E+00  0.00000000000E+00 -0.18964896734E+04  0.18964896734E+04  0.25500000920E-02 0. -1.
    10030    2    1    2    0    0  0.00000000000E+00  0.00000000000E+00 -0.78632027938E+03  0.30066590673E+04  0.29020163965E+04 0.  0.
        2    1    3    3  502    0 -0.95287225115E+03  0.39735259962E+03  0.66319811181E+03  0.12270641185E+04  0.25500000920E-02 0.  1.
       -2    1    3    3    0  502  0.95287225115E+03 -0.39735259962E+03 -0.14495183912E+04  0.17795949488E+04  0.25500000920E-02 0. -1.
</event>
<event>
 5   0  0.6792811E-06  0.3021055E+04  0.7818609E-02  0.8237744E-01
       -2   -1    0    0    0  501  0.00000000000E+00  0.00000000000E+00  0.29168138580E+04  0.29168138580E+04  0.25500000920E-02 0. -1.
        2   -1    0    0  501    0  0.00000000000E+00  0.00000000000E+00 -0.78225528889E+03  0.78225528890E+03  0.25500000920E-02 0.  1.
    10030    2    1    2    0    0  0.00000000000E+00  0.00000000000E+00  0.21345585691E+04  0.36990691469E+04  0.30210548271E+04 0.  0.
        2    1    3    3  502    0  0.86544793403E+03 -0.72131453564E+02 -0.44601373794E+03  0.97628445012E+03  0.25500000920E-02 0.  1.
       -2    1    3    3    0  502 -0.86544793403E+03  0.72131453564E+02  0.25805723070E+04  0.27227846968E+04  0.25500000920E-02 0. -1.
</event>
<event>
 5   0  0.7201538E-06  0.2255944E+04  0.7818609E-02  0.8495497E-01
        2   -1    0    0  501    0  0.00000000000E+00  0.00000000000E+00  0.20188825175E+04  0.20188825175E+04  0.25500000920E-02 0. -1.
       -2   -1    0    0    0  501  0.00000000000E+00  0.00000000000E+00 -0.63021049580E+03  0.63021049581E+03  0.25500000920E-02 0.  1.
    10030    2    1    2    0    0  0.00000000000E+00  0.00000000000E+00  0.13886720217E+04  0.26490930134E+04  0.22559441060E+04 0.  0.
        3    1    3    3  502    0  0.75953726942E+03  0.19353010134E+02 -0.28465059952E+03  0.81135527154E+03  0.10100000352E+00 0.  1.
       -3    1    3    3    0  502 -0.75953726942E+03 -0.19353010134E+02  0.16733226213E+04  0.18377377418E+04  0.10100000352E+00 0. -1.
</event>
<event>
 5   0  0.2504260E-06  0.3050475E+04  0.7818609E-02  0.8229463E-01
        1   -1    0    0  501    0  0.00000000000E+00  0.00000000000E+00  0.78914309565E+03  0.78914309567E+03  0.50400001928E-02 0. -1.
       -1   -1    0    0    0  501  0.00000000000E+00  0.00000000000E+00 -0.29479432039E+04  0.29479432039E+04  0.50400001928E-02 0.  1.
    10030    2    1    2    0    0  0.00000000000E+00  0.00000000000E+00 -0.21588001082E+04  0.37370862996E+04  0.30504747341E+04 0.  0.
        4    1    3    3  502    0 -0.46786210662E+03  0.44175218354E+03 -0.27735215599E+04  0.28471851711E+04  0.12699999809E+01 0.  1.
       -4    1    3    3    0  502  0.46786210662E+03 -0.44175218354E+03  0.61472145163E+03  0.88990112848E+03  0.12699999809E+01 0. -1.
</event>
<event>
 5   0  0.2628425E-06  0.2902845E+04  0.7818609E-02  0.8272031E-01
       -1   -1    0    0    0  501  0.00000000000E+00  0.00000000000E+00  0.16679498420E+04  0.16679498420E+04  0.50400001928E-02 0. -1.
        1   -1    0    0  501    0  0.00000000000E+00  0.00000000000E+00 -0.12630041393E+04  0.12630041393E+04  0.50400001928E-02 0.  1.
    10030    2    1    2    0    0  0.00000000000E+00  0.00000000000E+00  0.40494570271E+03  0.29309539813E+04  0.29028451936E+04 0.  0.
        1    1    3    3  502    0  0.52841615117E+02  0.13904790674E+04 -0.21432368430E+03  0.14078916559E+04  0.50400001928E-02 0. -1.
       -1    1    3    3    0  502 -0.52841615117E+02 -0.13904790674E+04  0.61926938701E+03  0.15230623253E+04  0.50400001928E-02 0.  1.
</event>
<event>
 5   0  0.2552990E-06  0.2934473E+04  0.7818609E-02  0.8262694E-01
       -1   -1    0    0    0  501  0.00000000000E+00  0.00000000000E+00  0.15046825529E+04  0.15046825529E+04  0.50400001928E-02 0.  1.
        1   -1    0    0  501    0  0.00000000000E+00  0.00000000000E+00 -0.14307226329E+04  0.14307226329E+04  0.50400001928E-02 0. -1.
    10030    2    1    2    0    0  0.00000000000E+00  0.00000000000E+00  0.73959919988E+02  0.29354051858E+04  0.29344732978E+04 0.  0.
        3    1    3    3  502    0 -0.74951451933E+03  0.59611821443E+03 -0.10749729891E+04  0.14396860344E+04  0.10100000352E+00 0. -1.
       -3    1    3    3    0  502  0.74951451933E+03 -0.59611821443E+03  0.11489329090E+04  0.14957191514E+04  0.10100000352E+00 0.  1.
</event>
<event>
 5   0  0.2422083E-06  0.3138170E+04  0.7818609E-02  0.8205340E-01
       -1   -1    0    0    0  501  0.00000000000E+00  0.00000000000E+00  0.11362189859E+04  0.11362189859E+04  0.50400001928E-02 0. -1.
        1   -1    0    0  501    0  0.00000000000E+00  0.00000000000E+00 -0.21668597342E+04  0.21668597342E+04  0.50400001928E-02 0.  1.
    10030    2    1    2    0    0  0.00000000000E+00  0.00000000000E+00 -0.10306407484E+04  0.33030787201E+04  0.31381696383E+04 0.  0.
        2    1    3    3  502    0  0.93567874051E+03 -0.11109789055E+04  0.10938198670E+03  0.14566170578E+04  0.25500000920E-02 0. -1.
       -2    1    3    3    0  502 -0.93567874051E+03  0.11109789055E+04 -0.11400227351E+04  0.18464616623E+04  0.25500000920E-02 0.  1.
</event>
<event>
 5   0  0.2552990E-06  0.2319883E+04  0.7818609E-02  0.8470123E-01
        1   -1    0    0  501    0  0.00000000000E+00  0.00000000000E+00  0.12594919587E+04  0.12594919588E+04  0.50400001928E-02 0.  1.
       -1   -1    0    0    0  501  0.00000000000E+00  0.00000000000E+00 -0.10682593560E+04  0.10682593560E+04  0.50400001928E-02 0. -1.
    10030    2    1    2    0    0  0.00000000000E+00  0.00000000000E+00  0.19123260275E+03  0.23277513148E+04  0.23198828149E+04 0.  0.
        3    1    3    3  502    0 -0.10511862187E+04  0.47631164352E+03  0.21262576618E+03  0.11734883786E+04  0.10100000352E+00 0.  1.
       -3    1    3    3    0  502  0.10511862187E+04 -0.47631164352E+03 -0.21393163439E+02  0.11542629361E+04  0.10100000352E+00 0. -1.
</event>
<event>
 5   0  0.7193153E-06  0.2856551E+04  0.7818609E-02  0.8285924E-01
        2   -1    0    0  501    0  0.00000000000E+00  0.00000000000E+00  0.72181000051E+03  0.72181000051E+03  0.25500000920E-02 0. -1.
       -2   -1    0    0    0  501  0.00000000000E+00  0.00000000000E+00 -0.28261876386E+04  0.28261876386E+04  0.25500000920E-02 0.  1.
    10030    2    1    2    0    0  0.00000000000E+00  0.00000000000E+00 -0.21043776381E+04  0.35479976391E+04  0.28565507178E+04 0.  0.
        4    1    3    3  502    0  0.52631726682E+03 -0.66497449774E+03 -0.24796182342E+04  0.26206314408E+04  0.12699999809E+01 0.  1.
       -4    1    3    3    0  502 -0.52631726682E+03  0.66497449774E+03  0.37524059610E+03  0.92736619836E+03  0.12699999809E+01 0. -1.
</event>
<event>
 5   0  0.7193153E-06  0.3017476E+04  0.7818609E-02  0.8238758E-01
       -2   -1    0    0    0  501  0.00000000000E+00  0.00000000000E+00  0.13666375678E+04  0.13666375678E+04  0.25500000920E-02 0. -1.
        2   -1    0    0  501    0  0.00000000000E+00  0.00000000000E+00 -0.16656132707E+04  0.16656132707E+04  0.25500000920E-02 0.  1.
    10030    2    1    2    0    0  0.00000000000E+00  0.00000000000E+00 -0.29897570294E+03  0.30322508385E+04  0.30174755469E+04 0.  0.
        4    1    3    3  502    0  0.19216957833E+03  0.12605590916E+04  0.66090356592E+03  0.14362219559E+04  0.12699999809E+01 0. -1.
       -4    1    3    3    0  502 -0.19216957833E+03 -0.12605590916E+04 -0.95987926886E+03  0.15960288826E+04  0.12699999809E+01 0.  1.
</event>
<event>
 5   0  0.6792811E-06  0.3050912E+04  0.7818609E-02  0.8229340E-01
       -2   -1    0    0    0  501  0.00000000000E+00  0.00000000000E+00  0.81188506235E+03  0.81188506236E+03  0.25500000920E-02 0. -1.
        2   -1    0    0  501    0  0.00000000000E+00  0.00000000000E+00 -0.28661894653E+04  0.28661894653E+04  0.25500000920E-02 0.  1.
    10030    2    1    2    0    0  0.00000000000E+00  0.00000000000E+00 -0.20543044029E+04  0.36780745276E+04  0.30509122654E+04 0.  0.
        2    1    3    3  502    0  0.98873888626E+03 -0.83995984129E+03 -0.19945231375E+04  0.23793401746E+04  0.25500000920E-02 0.  1.
       -2    1    3    3    0  502 -0.98873888626E+03  0.83995984129E+03 -0.59781265426E+02  0.12987343531E+04  0.25500000920E-02 0. -1.
</event>
<event>
 5   0  0.2298500E-06  0.2986015E+04  0.7818609E-02  0.8247736E-01
       -3   -1    0    0    0  501  0.00000000000E+00  0.00000000000E+00  0.11722679548E+04  0.11722679591E+04  0.10100000352E+00 0.  1.
        3   -1    0    0  501    0  0.00000000000E+00  0.00000000000E+00 -0.19015027634E+04  0.19015027661E+04  0.10100000352E+00 0. -1.
    10030    2    1    2    0    0  0.00000000000E+00  0.00000000000E+00 -0.72923480867E+03  0.30737707252E+04  0.29860145789E+04 0.  0.
        1    1    3    3  502    0  0.73579303682E+03  0.97884285694E+03 -0.12438542851E+04  0.17454793652E+04  0.50400001928E-02 0. -1.
       -1    1    3    3    0  502 -0.73579303682E+03 -0.97884285694E+03  0.51461947646E+03  0.13282913601E+04  0.50400001928E-02 0.  1.
</event>
<event>
 5   0  0.2504260E-06  0.2727280E+04  0.7818609E-02  0.8326208E-01
       -1   -1    0    0    0  501  0.00000000000E+00  0.00000000000E+00  0.17228672495E+04  0.17228672495E+04  0.50400001928E-02 0. -1.
        1   -1    0    0  501    0  0.00000000000E+00  0.00000000000E+00 -0.10793133786E+04  0.10793133786E+04  0.50400001928E-02 0.  1.
    10030    2    1    2    0    0  0.00000000000E+00  0.00000000000E+00  0.64355387095E+03  0.28021806281E+04  0.27272797231E+04 0.  0.
        4    1    3    3  502    0 -0.63250696509E+03 -0.90638390434E+03  0.11424079445E+04  0.15895579158E+04  0.12699999809E+01 0. -1.
       -4    1    3    3    0  502  0.63250696509E+03  0.90638390434E+03 -0.49885407357E+03  0.12126227124E+04  0.12699999809E+01 0.  1.
</event>
<event>
 5   0  0.2552990E-06  0.2934534E+04  0.7818609E-02  0.8262676E-01
       -1   -1    0    0    0  501  0.00000000000E+00  0.00000000000E+00  0.11291629145E+04  0.11291629145E+04  0.50400001928E-02 0. -1.
        1   -1    0    0  501    0  0.00000000000E+00  0.00000000000E+00 -0.19066089986E+04  0.19066089986E+04  0.50400001928E-02 0.  1.
    10030    2    1    2    0    0  0.00000000000E+00  0.00000000000E+00 -0.77744608417E+03  0.30357719131E+04  0.29345338122E+04 0.  0.
        3    1    3    3  502    0 -0.28316885672E+03  0.41889077422E+03  0.10361909405E+04  0.11529725745E+04  0.10100000352E+00 0. -1.
       -3    1    3    3    0  502  0.28316885672E+03 -0.41889077422E+03 -0.18136370247E+04  0.18827993386E+04  0.10100000352E+00 0.  1.
</event>
<event>
 5   0  0.2504260E-06  0.2992717E+04  0.7818609E-02  0.8245814E-01
       -1   -1    0    0    0  501  0.00000000000E+00  0.00000000000E+00  0.19488639414E+04  0.19488639414E+04  0.50400001928E-02 0.  1.
        1   -1    0    0  501    0  0.00000000000E+00  0.00000000000E+00 -0.11489202304E+04  0.11489202304E+04  0.50400001928E-02 0. -1.
    10030    2    1    2    0    0  0.00000000000E+00  0.00000000000E+00  0.79994371096E+03  0.30977841718E+04  0.29927172995E+04 0.  0.
        4    1    3    3  502    0  0.43664343144E+02  0.14363586269E+04 -0.31873854008E+02  0.14373761635E+04  0.12699999809E+01 0.  1.
       -4    1    3    3    0  502 -0.43664343144E+02 -0.14363586269E+04  0.83181756497E+03  0.16604080083E+04  0.12699999809E+01 0. -1.
</event>
<event>
 5   0  0.2504260E-06  0.3013605E+04  0.7818609E-02  0.8239857E-01
        1   -1    0    0  501    0  0.00000000000E+00  0.00000000000E+00  0.19075265803E+04  0.19075265803E+04  0.50400001928E-02 0.  1.
       -1   -1    0    0    0  501  0.00000000000E+00  0.00000000000E+00 -0.11902602326E+04  0.11902602327E+04  0.50400001928E-02 0. -1.
    10030    2    1    2    0    0  0.00000000000E+00  0.00000000000E+00  0.71726634761E+03  0.30977868129E+04  0.30136045070E+04 0.  0.
        4    1    3    3  502    0 -0.10612749870E+04 -0.46411671923E+03 -0.63200013784E+03  0.13195206380E+04  0.12699999809E+01 0. -1.
       -4    1    3    3    0  502  0.10612749870E+04  0.46411671923E+03  0.13492664854E+04  0.17782661749E+04  0.12699999809E+01 0.  1.
</event>
<event>
 5   0  0.7217255E-06  0.3021509E+04  0.7818609E-02  0.8237615E-01
        2   -1    0    0  501    0  0.00000000000E+00  0.00000000000E+00  0.28100762881E+04  0.28100762881E+04  0.25500000920E-02 0.  1.
       -2   -1    0    0    0  501  0.00000000000E+00  0.00000000000E+00 -0.81221247259E+03  0.81221247259E+03  0.25500000920E-02 0. -1.
    10030    2    1    2    0    0  0.00000000000E+00  0.00000000000E+00  0.19978638155E+04  0.36222887607E+04  0.30215089013E+04 0.  0.
        1    1    3    3  502    0 -0.11822045729E+04  0.15121418544E+03  0.21119162347E+04  0.24250079514E+04  0.50400001928E-02 0. -1.
       -1    1    3    3    0  502  0.11822045729E+04 -0.15121418544E+03 -0.11405241918E+03  0.11972808093E+04  0.50400001928E-02 0.  1.
</event>
<event>
 5   0  0.6792811E-06  0.2745758E+04  0.7818609E-02  0.8320309E-01
       -2   -1    0    0    0  501  0.00000000000E+00  0.00000000000E+00  0.26772903373E+04  0.26772903373E+04  0.25500000920E-02 0. -1.
        2   -1    0    0  501    0  0.00000000000E+00  0.00000000000E+00 -0.70399427210E+03  0.70399427210E+03  0.25500000920E-02 0.  1.
    10030    2    1    2    0    0  0.00000000000E+00  0.00000000000E+00  0.19732960652E+04  0.33812846094E+04  0.27457582284E+04 0.  0.
        2    1    3    3  502    0 -0.60418616711E+03 -0.12216697123E+04  0.78325519217E+03  0.15719435443E+04  0.25500000920E-02 0.  1.
       -2    1    3    3    0  502  0.60418616711E+03  0.12216697123E+04  0.11900408730E+04  0.18093410651E+04  0.25500000920E-02 0. -1.
</event>
<event>
 5   0  0.7201538E-06  0.2983128E+04  0.7818609E-02  0.8248565E-01
        2   -1    0    0  501    0  0.00000000000E+00  0.00000000000E+00  0.23640799242E+04  0.23640799242E+04  0.25500000920E-02 0. -1.
       -2   -1    0    0    0  501  0.00000000000E+00  0.00000000000E+00 -0.94106907547E+03  0.94106907548E+03  0.25500000920E-02 0.  1.
    10030    2    1    2    0    0  0.00000000000E+00  0.00000000000E+00  0.14230108487E+04  0.33051489996E+04  0.29831275592E+04 0.  0.
        3    1    3    3  502    0 -0.76363521763E+03  0.25349367391E+03  0.21030120500E+04  0.22516788139E+04  0.10100000352E+00 0. -1.
       -3    1    3    3    0  502  0.76363521763E+03 -0.25349367391E+03 -0.68000120129E+03  0.10534701858E+04  0.10100000352E+00 0.  1.
</event>
<event>
 5   0  0.6780150E-06  0.3013575E+04  0.7818609E-02  0.8239865E-01
       -2   -1    0    0    0  501  0.00000000000E+00  0.00000000000E+00  0.82383976781E+03  0.82383976782E+03  0.25500000920E-02 0.  1.
        2   -1    0    0  501    0  0.00000000000E+00  0.00000000000E+00 -0.27558861366E+04  0.27558861366E+04  0.25500000920E-02 0. -1.
    10030    2    1    2    0    0  0.00000000000E+00  0.00000000000E+00 -0.19320463688E+04  0.35797259045E+04  0.30135750164E+04 0.  0.
        5    1    3    3  502    0 -0.23755538994E+03 -0.11939001173E+04 -0.20208572879E+04  0.23591770432E+04  0.46999998093E+01 0. -1.
       -5    1    3    3    0  502  0.23755538994E+03  0.11939001173E+04  0.88810919053E+02  0.12205488612E+04  0.46999998093E+01 0.  1.
</event>
<event>
 5   0  0.2672155E-06  0.3072987E+04  0.7818609E-02  0.8223191E-01
        1   -1    0    0  501    0  0.00000000000E+00  0.00000000000E+00  0.12389993698E+04  0.12389993698E+04  0.50400001928E-02 0. -1.
       -1   -1    0    0    0  501  0.00000000000E+00  0.00000000000E+00 -0.19054183318E+04  0.19054183318E+04  0.50400001928E-02 0.  1.
    10030    2    1    2    0    0  0.00000000000E+00  0.00000000000E+00 -0.66641896194E+03  0.31444177016E+04  0.30729868938E+04 0.  0.
        5    1    3    3  502    0 -0.12713668870E+04 -0.78803586676E+03  0.26262288369E+02  0.14960234244E+04  0.46999998093E+01 0. -1.
       -5    1    3    3    0  502  0.12713668870E+04  0.78803586676E+03 -0.69268125031E+03  0.16483942772E+04  0.46999998093E+01 0.  1.
</event>
<event>
 5   0  0.2422083E-06  0.2779420E+04  0.7818609E-02  0.8309686E-01
        1   -1    0    0  501    0  0.00000000000E+00  0.00000000000E+00  0.14361551612E+04  0.14361551612E+04  0.50400001928E-02 0.  1.
       -1   -1    0    0    0  501  0.00000000000E+00  0.00000000000E+00 -0.13447670148E+04  0.13447670148E+04  0.50400001928E-02 0. -1.
    10030    2    1    2    0    0  0.00000000000E+00  0.00000000000E+00  0.91388146403E+02  0.27809221759E+04  0.27794201473E+04 0.  0.
        2    1    3    3  502    0 -0.12330717420E+04 -0.44157174801E+03  0.51053373327E+03  0.14057368966E+04  0.25500000920E-02 0.  1.
       -2    1    3    3    0  502  0.12330717420E+04  0.44157174801E+03 -0.41914558687E+03  0.13751852794E+04  0.25500000920E-02 0. -1.
</event>
<event>
 5   0  0.2672155E-06  0.2994375E+04  0.7818609E-02  0.8245339E-01
        1   -1    0    0  501    0  0.00000000000E+00  0.00000000000E+00  0.18794936738E+04  0.18794936738E+04  0.50400001928E-02 0.  1.
       -1   -1    0    0    0  501  0.00000000000E+00  0.00000000000E+00 -0.11926458541E+04  0.11926458541E+04  0.50400001928E-02 0. -1.
    10030    2    1    2    0    0  0.00000000000E+00  0.00000000000E+00  0.68684781978E+03  0.30721395279E+04  0.29943749517E+04 0.  0.
        5    1    3    3  502    0  0.20349718718E+03 -0.22837677821E+03  0.18470851047E+04  0.18722479889E+04  0.46999998093E+01 0.  1.
       -5    1    3    3    0  502 -0.20349718718E+03  0.22837677821E+03 -0.11602372849E+04  0.11998915390E+04  0.46999998093E+01 0. -1.
</event>
<event>
 5   0  0.6792811E-06  0.3003739E+04  0.7818609E-02  0.8242664E-01
        2   -1    0    0  501    0  0.00000000000E+00  0.00000000000E+00  0.21735026002E+04  0.21735026002E+04  0.25500000920E-02 0. -1.
       -2   -1    0    0    0  501  0.00000000000E+00  0.00000000000E+00 -0.10377777036E+04  0.10377777036E+04  0.25500000920E-02 0.  1.
    10030    2    1    2    0    0  0.00000000000E+00  0.00000000000E+00  0.11357248967E+04  0.32112803038E+04  0.30037393610E+04 0.  0.
        2    1    3    3  502    0  0.57969961512E+03  0.11515745610E+04 -0.25571273651E+03  0.13143685240E+04  0.25500000920E-02 0.  1.
       -2    1    3    3    0  502 -0.57969961512E+03 -0.11515745610E+04  0.13914376332E+04  0.18969117798E+04  0.25500000920E-02 0. -1.
</event>
<event>
 5   0  0.7217255E-06  0.3095437E+04  0.7818609E-02  0.8216991E-01
        2   -1    0    0  501    0  0.00000000000E+00  0.00000000000E+00  0.20697166452E+04  0.20697166452E+04  0.25500000920E-02 0.  1.
       -2   -1    0    0    0  501  0.00000000000E+00  0.00000000000E+00 -0.11573720618E+04  0.11573720618E+04  0.25500000920E-02 0. -1.
    10030    2    1    2    0    0  0.00000000000E+00  0.00000000000E+00  0.91234458349E+03  0.32270887070E+04  0.30954367840E+04 0.  0.
        1    1    3    3  502    0  0.62584292043E+03  0.31615279669E+02 -0.10192036458E+04  0.11964342684E+04  0.50400001928E-02 0. -1.
       -1    1    3    3    0  502 -0.62584292043E+03 -0.31615279669E+02  0.19315482293E+04  0.20306544386E+04  0.50400001928E-02 0.  1.
</event>
<event>
 5   0  0.7217255E-06  0.2961536E+04  0.7818609E-02  0.8254801E-01
        2   -1    0    0  501    0  0.00000000000E+00  0.00000000000E+00  0.20780965420E+04  0.20780965420E+04  0.25500000920E-02 0.  1.
       -2   -1    0    0    0  501  0.00000000000E+00  0.00000000000E+00 -0.10551353548E+04  0.10551353548E+04  0.25500000920E-02 0. -1.
    10030    2    1    2    0    0  0.00000000000E+00  0.00000000000E+00  0.10229611873E+04  0.31332318968E+04  0.29615355018E+04 0.  0.
        1    1    3    3  502    0 -0.68814977545E+03 -0.12736294638E+04  0.84096990549E+03  0.16741901047E+04  0.50400001928E-02 0. -1.
       -1    1    3    3    0  502  0.68814977545E+03  0.12736294638E+04  0.18199128178E+03  0.14590417921E+04  0.50400001928E-02 0.  1.
</event>
<event>
 5   0  0.7201538E-06  0.2990190E+04  0.7818609E-02  0.8246538E-01
       -2   -1    0    0    0  501  0.00000000000E+00  0.00000000000E+00  0.10989117535E+04  0.10989117535E+04  0.25500000920E-02 0. -1.
        2   -1    0    0  501    0  0.00000000000E+00  0.00000000000E+00 -0.20341111807E+04  0.20341111807E+04  0.25500000920E-02 0.  1.
    10030    2    1    2    0    0  0.00000000000E+00  0.00000000000E+00 -0.93519942715E+03  0.31330229342E+04  0.29901897494E+04 0.  0.
        3    1    3    3  502    0 -0.10812171042E+04  0.61635040141E+03  0.40046166796E+03  0.13073973387E+04  0.10100000352E+00 0. -1.
       -3    1    3    3    0  502  0.10812171042E+04 -0.61635040141E+03 -0.13356610951E+04  0.18256255955E+04  0.10100000352E+00 0.  1.
</event>
<event>
 5   0  0.2504260E-06  0.2689375E+04  0.7818609E-02  0.8338461E-01
        1   -1    0    0  501    0  0.00000000000E+00  0.00000000000E+00  0.17993454313E+04  0.17993454313E+04  0.50400001928E-02 0.  1.
       -1   -1    0    0    0  501  0.00000000000E+00  0.00000000000E+00 -0.10049126394E+04  0.10049126394E+04  0.50400001928E-02 0. -1.
    10030    2    1    2    0    0  0.00000000000E+00  0.00000000000E+00  0.79443279190E+03  0.28042580707E+04  0.26893753673E+04 0.  0.
        4    1    3    3  502    0  0.77483132467E+03 -0.93635657743E+03  0.99716959571E+03  0.15720928844E+04  0.12699999809E+01 0.  1.
       -4    1    3    3    0  502 -0.77483132467E+03  0.93635657743E+03 -0.20273680381E+03  0.12321651863E+04  0.12699999809E+01 0. -1.
</event>
<event>
 5   0  0.7201538E-06  0.2907991E+04  0.7818609E-02  0.8270504E-01
        2   -1    0    0  501    0  0.00000000000E+00  0.00000000000E+00  0.15878149767E+04  0.15878149767E+04  0.25500000920E-02 0.  1.
       -2   -1    0    0    0  501  0.00000000000E+00  0.00000000000E+00 -0.13314543232E+04  0.13314543232E+04  0.25500000920E-02 0. -1.
    10030    2    1    2    0    0  0.00000000000E+00  0.00000000000E+00  0.25636065354E+03  0.29192692999E+04  0.29079911383E+04 0.  0.
        3    1    3    3  502    0  0.84646140061E+03 -0.11559436256E+04  0.37693266112E+03  0.14814792639E+04  0.10100000352E+00 0. -1.
       -3    1    3    3    0  502 -0.84646140061E+03  0.11559436256E+04 -0.12057200758E+03  0.14377900359E+04  0.10100000352E+00 0.  1.
</event>
<event>
 5   0  0.2422083E-06  0.3198320E+04  0.7818609E-02  0.8189261E-01
        1   -1    0    0  501    0  0.00000000000E+00  0.00000000000E+00  0.21843921326E+04  0.21843921327E+04  0.50400001928E-02 0.  1.
       -1   -1    0    0    0  501  0.00000000000E+00  0.00000000000E+00 -0.11707204883E+04  0.11707204883E+04  0.50400001928E-02 0. -1.
    10030    2    1    2    0    0  0.00000000000E+00  0.00000000000E+00  0.10136716443E+04  0.33551126210E+04  0.31983199491E+04 0.  0.
        2    1    3    3  502    0  0.15852627880E+04 -0.14572850694E+03  0.34768226773E+03  0.16294716518E+04  0.25500000920E-02 0. -1.
       -2    1    3    3    0  502 -0.15852627880E+04  0.14572850694E+03  0.66598937660E+03  0.17256409692E+04  0.25500000920E-02 0.  1.
</event>
<event>
 5   0  0.2298500E-06  0.2979033E+04  0.7818609E-02  0.8249743E-01
        4   -1    0    0  501    0  0.00000000000E+00  0.00000000000E+00  0.19483696801E+04  0.19483700941E+04  0.12699999809E+01 0.  1.
       -4   -1    0    0    0  501  0.00000000000E+00  0.00000000000E+00 -0.11387254676E+04  0.11387261758E+04  0.12699999809E+01 0. -1.
    10030    2    1    2    0    0  0.00000000000E+00  0.00000000000E+00  0.80964421252E+03  0.30870962699E+04  0.29790333379E+04 0.  0.
        2    1    3    3  502    0  0.45284014632E+03 -0.91012960706E+02 -0.10626363792E+04  0.11586818509E+04  0.25500000920E-02 0. -1.
       -2    1    3    3    0  502 -0.45284014632E+03  0.91012960706E+02  0.18722805917E+04  0.19284144190E+04  0.25500000920E-02 0.  1.
</event>
<event>
 5   0  0.7201538E-06  0.3044798E+04  0.7818609E-02  0.8231053E-01
        2   -1    0    0  501    0  0.00000000000E+00  0.00000000000E+00  0.21607659489E+04  0.21607659489E+04  0.25500000920E-02 0.  1.
       -2   -1    0    0    0  501  0.00000000000E+00  0.00000000000E+00 -0.10726281572E+04  0.10726281572E+04  0.25500000920E-02 0. -1.
    10030    2    1    2    0    0  0.00000000000E+00  0.00000000000E+00  0.10881377917E+04  0.32333941061E+04  0.30447977916E+04 0.  0.
        3    1    3    3  502    0  0.84608421568E+03  0.48700519914E+03  0.17846162421E+04  0.20341798608E+04  0.10100000352E+00 0.  1.
       -3    1    3    3    0  502 -0.84608421568E+03 -0.48700519914E+03 -0.69647845048E+03  0.11992142453E+04  0.10100000352E+00 0. -1.
</event>
<event>
 5   0  0.2422083E-06  0.2288259E+04  0.7818609E-02  0.8482565E-01
       -1   -1    0    0    0  501  0.00000000000E+00  0.00000000000E+00  0.87366085570E+03  0.87366085571E+03  0.50400001928E-02 0.  1.
        1   -1    0    0  501    0  0.00000000000E+00  0.00000000000E+00 -0.14983295490E+04  0.14983295490E+04  0.50400001928E-02 0. -1.
    10030    2    1    2    0    0  0.00000000000E+00  0.00000000000E+00 -0.62466869333E+03  0.23719904047E+04  0.22882586182E+04 0.  0.
        2    1    3    3  502    0 -0.79968132195E+03  0.79203177276E+02 -0.11565482738E+04  0.14083207268E+04  0.25500000920E-02 0. -1.
       -2    1    3    3    0  502  0.79968132195E+03 -0.79203177276E+02  0.53187958048E+03  0.96366967791E+03  0.25500000920E-02 0.  1.
</event>
<event>
 5   0  0.2422083E-06  0.2934519E+04  0.7818609E-02  0.8262681E-01
       -1   -1    0    0    0  501  0.00000000000E+00  0.00000000000E+00  0.15982271672E+04  0.15982271673E+04  0.50400001928E-02 0. -1.
        1   -1    0    0  501    0  0.00000000000E+00  0.00000000000E+00 -0.13470241173E+04  0.13470241173E+04  0.50400001928E-02 0.  1.
    10030    2    1    2    0    0  0.00000000000E+00  0.00000000000E+00  0.25120304995E+03  0.29452512846E+04  0.29345190674E+04 0.  0.
        2    1    3    3  502    0  0.14216756631E+04 -0.34279111133E+02  0.48818968626E+03  0.15035511027E+04  0.25500000920E-02 0.  1.
       -2    1    3    3    0  502 -0.14216756631E+04  0.34279111133E+02 -0.23698663630E+03  0.14417001819E+04  0.25500000920E-02 0. -1.
</event>
<event>
 5   0  0.2672155E-06  0.2994406E+04  0.7818609E-02  0.8245330E-01
        1   -1    0    0  501    0  0.00000000000E+00  0.00000000000E+00  0.20291119424E+04  0.20291119424E+04  0.50400001928E-02 0.  1.
       -1   -1    0    0    0  501  0.00000000000E+00  0.00000000000E+00 -0.11047282149E+04  0.11047282149E+04  0.50400001928E-02 0. -1.
    10030    2    1    2    0    0  0.00000000000E+00  0.00000000000E+00  0.92438372751E+03  0.31338401572E+04  0.29944062609E+04 0.  0.
        5    1    3    3  502    0  0.60792012901E+03  0.57134968217E+02 -0.96849084973E+03  0.11449139286E+04  0.46999998093E+01 0. -1.
       -5    1    3    3    0  502 -0.60792012901E+03 -0.57134968217E+02  0.18928745772E+04  0.19889262286E+04  0.46999998093E+01 0.  1.
</event>
<event>
 5   0  0.6792811E-06  0.2205336E+04  0.7818609E-02  0.8516210E-01
       -2   -1    0    0    0  501  0.00000000000E+00  0.00000000000E+00  0.71787360543E+03  0.71787360543E+03  0.25500000920E-02 0.  1.
        2   -1    0    0  501    0  0.00000000000E+00  0.00000000000E+00 -0.16937204259E+04  0.16937204259E+04  0.25500000920E-02 0. -1.
    10030    2    1    2    0    0  0.00000000000E+00  0.00000000000E+00 -0.97584682052E+03  0.24115940314E+04  0.22053364267E+04 0.  0.
        2    1    3    3  502    0  0.32055755299E+02  0.49178391087E+03 -0.15665853828E+04  0.16422754787E+04  0.25500000920E-02 0. -1.
       -2    1    3    3    0  502 -0.32055755299E+02 -0.49178391087E+03  0.59073856229E+03  0.76931855264E+03  0.25500000920E-02 0.  1.
</event>
<event>
 5   0  0.6792811E-06  0.3011974E+04  0.7818609E-02  0.8240320E-01
        2   -1    0    0  501    0  0.00000000000E+00  0.00000000000E+00  0.26374280835E+04  0.26374280835E+04  0.25500000920E-02 0. -1.
       -2   -1    0    0    0  501  0.00000000000E+00  0.00000000000E+00 -0.85992737883E+03  0.85992737883E+03  0.25500000920E-02 0.  1.
    10030    2    1    2    0    0  0.00000000000E+00  0.00000000000E+00  0.17775007047E+04  0.34973554623E+04  0.30119738503E+04 0.  0.
        2    1    3    3  502    0 -0.12837672136E+04 -0.12054311034E+03  0.17922178947E+04  0.22078573057E+04  0.25500000920E-02 0. -1.
       -2    1    3    3    0  502  0.12837672136E+04  0.12054311034E+03 -0.14717190021E+02  0.12894981566E+04  0.25500000920E-02 0.  1.
</event>
<event>
 5   0  0.2552990E-06  0.2924071E+04  0.7818609E-02  0.8265751E-01
        1   -1    0    0  501    0  0.00000000000E+00  0.00000000000E+00  0.17751892139E+04  0.17751892139E+04  0.50400001928E-02 0.  1.
       -1   -1    0    0    0  501  0.00000000000E+00  0.00000000000E+00 -0.12041241035E+04  0.12041241035E+04  0.50400001928E-02 0. -1.
    10030    2    1    2    0    0  0.00000000000E+00  0.00000000000E+00  0.57106511039E+03  0.29793133174E+04  0.29240712171E+04 0.  0.
        3    1    3    3  502    0 -0.82608962559E+03 -0.27473310790E+03 -0.91124111920E+03  0.12602629637E+04  0.10100000352E+00 0. -1.
       -3    1    3    3    0  502  0.82608962559E+03  0.27473310790E+03  0.14823062296E+04  0.17190503537E+04  0.10100000352E+00 0.  1.
</event>
<event>
 5   0  0.7193153E-06  0.3027287E+04  0.7818609E-02  0.8235982E-01
       -2   -1    0    0    0  501  0.00000000000E+00  0.00000000000E+00  0.15680202095E+04  0.15680202095E+04  0.25500000920E-02 0.  1.
        2   -1    0    0  501    0  0.00000000000E+00  0.00000000000E+00 -0.14611522867E+04  0.14611522868E+04  0.25500000920E-02 0. -1.
    10030    2    1    2    0    0  0.00000000000E+00  0.00000000000E+00  0.10686792273E+03  0.30291724962E+04  0.30272867818E+04 0.  0.
        4    1    3    3  502    0  0.10650520388E+04 -0.10747998323E+04  0.93260474162E+02  0.15159913106E+04  0.12699999809E+01 0. -1.
       -4    1    3    3    0  502 -0.10650520388E+04  0.10747998323E+04  0.13607448566E+02  0.15131811856E+04  0.12699999809E+01 0.  1.
</event>
<event>
 5   0  0.2628425E-06  0.2886075E+04  0.7818609E-02  0.8277033E-01
        1   -1    0    0  501    0  0.00000000000E+00  0.00000000000E+00  0.21588647159E+04  0.21588647159E+04  0.50400001928E-02 0. -1.
       -1   -1    0    0    0  501  0.00000000000E+00  0.00000000000E+00 -0.96456114698E+03  0.96456114700E+03  0.50400001928E-02 0.  1.
    10030    2    1    2    0    0  0.00000000000E+00  0.00000000000E+00  0.11943035689E+04  0.31234258629E+04  0.28860748615E+04 0.  0.
        1    1    3    3  502    0  0.50405547472E+03  0.13512409554E+04  0.54376996803E+03  0.15413013396E+04  0.50400001928E-02 0.  1.
       -1    1    3    3    0  502 -0.50405547472E+03 -0.13512409554E+04  0.65053360084E+03  0.15821245233E+04  0.50400001928E-02 0. -1.
</event>
<event>
 5   0  0.6792811E-06  0.2980133E+04  0.7818609E-02  0.8249427E-01
       -2   -1    0    0    0  501  0.00000000000E+00  0.00000000000E+00  0.18886141104E+04  0.18886141104E+04  0.25500000920E-02 0. -1.
        2   -1    0    0  501    0  0.00000000000E+00  0.00000000000E+00 -0.11756231541E+04  0.11756231541E+04  0.25500000920E-02 0.  1.
    10030    2    1    2    0    0  0.00000000000E+00  0.00000000000E+00  0.71299095629E+03  0.30642372645E+04  0.29801332033E+04 0.  0.
        2    1    3    3  502    0 -0.58243373970E+03  0.22210030945E+03 -0.10351183359E+04  0.12083160091E+04  0.25500000920E-02 0.  1.
       -2    1    3    3    0  502  0.58243373970E+03 -0.22210030945E+03  0.17481092922E+04  0.18559212553E+04  0.25500000920E-02 0. -1.
</event>
<event>
 5   0  0.2672155E-06  0.3011870E+04  0.7818609E-02  0.8240349E-01
       -1   -1    0    0    0  501  0.00000000000E+00  0.00000000000E+00  0.11490846374E+04  0.11490846374E+04  0.50400001928E-02 0. -1.
        1   -1    0    0  501    0  0.00000000000E+00  0.00000000000E+00 -0.19736060663E+04  0.19736060663E+04  0.50400001928E-02 0.  1.
    10030    2    1    2    0    0  0.00000000000E+00  0.00000000000E+00 -0.82452142892E+03  0.31226907038E+04  0.30118701241E+04 0.  0.
        5    1    3    3  502    0  0.10626354366E+04 -0.40832005165E+03  0.60986259901E+03  0.12914618908E+04  0.46999998093E+01 0. -1.
       -5    1    3    3    0  502 -0.10626354366E+04  0.40832005165E+03 -0.14343840279E+04  0.18312288129E+04  0.46999998093E+01 0.  1.
</event>
<event>
 5   0  0.7217255E-06  0.3116272E+04  0.7818609E-02  0.8211286E-01
       -2   -1    0    0    0  501  0.00000000000E+00  0.00000000000E+00  0.91940447096E+03  0.91940447096E+03  0.25500000920E-02 0.  1.
        2   -1    0    0  501    0  0.00000000000E+00  0.00000000000E+00 -0.26406097387E+04  0.26406097387E+04  0.25500000920E-02 0. -1.
    10030    2    1    2    0    0  0.00000000000E+00  0.00000000000E+00 -0.17212052678E+04  0.35600142097E+04  0.31162723885E+04 0.  0.
        1    1    3    3  502    0 -0.25284571113E+03 -0.12608866525E+04 -0.18656651011E+04  0.22659374161E+04  0.50400001928E-02 0. -1.
       -1    1    3    3    0  502  0.25284571113E+03  0.12608866525E+04  0.14445983334E+03  0.12940767936E+04  0.50400001928E-02 0.  1.
</event>
<event>
 5   0  0.2298500E-06  0.2932064E+04  0.7818609E-02  0.8263401E-01
       -4   -1    0    0    0  501  0.00000000000E+00  0.00000000000E+00  0.22574682573E+04  0.22574686146E+04  0.12699999809E+01 0.  1.
        4   -1    0    0  501    0  0.00000000000E+00  0.00000000000E+00 -0.95206139323E+03  0.95206224028E+03  0.12699999809E+01 0. -1.
    10030    2    1    2    0    0  0.00000000000E+00  0.00000000000E+00  0.13054068641E+04  0.32095308548E+04  0.29320643286E+04 0.  0.
        4    1    3    3  502    0 -0.99768973691E+03  0.10531958089E+04  0.42142125156E+03  0.15106964312E+04  0.12699999809E+01 0. -1.
       -4    1    3    3    0  502  0.99768973691E+03 -0.10531958089E+04  0.88398561253E+03  0.16988344237E+04  0.12699999809E+01 0.  1.
</event>
<event>
 5   0  0.2628425E-06  0.3049793E+04  0.7818609E-02  0.8229653E-01
        1   -1    0    0  501    0  0.00000000000E+00  0.00000000000E+00  0.20234188520E+04  0.20234188520E+04  0.50400001928E-02 0. -1.
       -1   -1    0    0    0  501  0.00000000000E+00  0.00000000000E+00 -0.11491981880E+04  0.11491981880E+04  0.50400001928E-02 0.  1.
    10030    2    1    2    0    0  0.00000000000E+00  0.00000000000E+00  0.87422066406E+03  0.31726170400E+04  0.30497929623E+04 0.  0.
        1    1    3    3  502    0 -0.24607495225E+03 -0.91136010803E+03 -0.80869159049E+03  0.12430254290E+04  0.50400001928E-02 0.  1.
       -1    1    3    3    0  502  0.24607495225E+03  0.91136010803E+03  0.16829122546E+04  0.19295916110E+04  0.50400001928E-02 0. -1.
</event>
<event>
 5   0  0.2504260E-06  0.3019860E+04  0.7818609E-02  0.8238083E-01
       -1   -1    0    0    0  501  0.00000000000E+00  0.00000000000E+00  0.10636252867E+04  0.10636252867E+04  0.50400001928E-02 0.  1.
        1   -1    0    0  501    0  0.00000000000E+00  0.00000000000E+00 -0.21435067523E+04  0.21435067523E+04  0.50400001928E-02 0. -1.
    10030    2    1    2    0    0  0.00000000000E+00  0.00000000000E+00 -0.10798814656E+04  0.32071320390E+04  0.30198595888E+04 0.  0.
        4    1    3    3  502    0 -0.10662857720E+04 -0.91483131871E+03 -0.11274221387E+04  0.18013783558E+04  0.12699999809E+01 0. -1.
       -4    1    3    3    0  502  0.10662857720E+04  0.91483131871E+03  0.47540673058E+02  0.14057536832E+04  0.12699999809E+01 0.  1.
</event>
<event>
 5   0  0.2504260E-06  0.2999781E+04  0.7818609E-02  0.8243793E-01
        1   -1    0    0  501    0  0.00000000000E+00  0.00000000000E+00  0.16972419862E+04  0.16972419862E+04  0.50400001928E-02 0. -1.
       -1   -1    0    0    0  501  0.00000000000E+00  0.00000000000E+00 -0.13254869713E+04  0.13254869713E+04  0.50400001928E-02 0.  1.
    10030    2    1    2    0    0  0.00000000000E+00  0.00000000000E+00  0.37175501488E+03  0.30227289575E+04  0.29997814186E+04 0.  0.
        4    1    3    3  502    0 -0.13130346565E+04  0.32399226754E+03  0.83940616559E+03  0.15917397157E+04  0.12699999809E+01 0. -1.
       -4    1    3    3    0  502  0.13130346565E+04 -0.32399226754E+03 -0.46765115071E+03  0.14309892419E+04  0.12699999809E+01 0.  1.
</event>
<event>
 5   0  0.6792811E-06  0.3014366E+04  0.7818609E-02  0.8239640E-01
       -2   -1    0    0    0  501  0.00000000000E+00  0.00000000000E+00  0.15670503994E+04  0.15670503994E+04  0.25500000920E-02 0.  1.
        2   -1    0    0  501    0  0.00000000000E+00  0.00000000000E+00 -0.14496029030E+04  0.14496029030E+04  0.25500000920E-02 0. -1.
    10030    2    1    2    0    0  0.00000000000E+00  0.00000000000E+00  0.11744749633E+03  0.30166533024E+04  0.30143661411E+04 0.  0.
        2    1    3    3  502    0 -0.75539502892E+03 -0.59792062010E+03  0.12186847775E+04  0.15534874652E+04  0.25500000920E-02 0.  1.
       -2    1    3    3    0  502  0.75539502892E+03  0.59792062010E+03 -0.11012372812E+04  0.14631658372E+04  0.25500000920E-02 0. -1.
</event>
<event>
 5   0  0.6792811E-06  0.2979616E+04  0.7818609E-02  0.8249576E-01
       -2   -1    0    0    0  501  0.00000000000E+00  0.00000000000E+00  0.17916197741E+04  0.17916197741E+04  0.25500000920E-02 0.  1.
        2   -1    0    0  501    0  0.00000000000E+00  0.00000000000E+00 -0.12388383352E+04  0.12388383352E+04  0.25500000920E-02 0. -1.
    10030    2    1    2    0    0  0.00000000000E+00  0.00000000000E+00  0.55278143885E+03  0.30304581093E+04  0.29796155848E+04 0.  0.
        2    1    3    3  502    0  0.11418439840E+04 -0.12771779324E+03  0.12409443013E+04  0.16911718652E+04  0.25500000920E-02 0.  1.
       -2    1    3    3    0  502 -0.11418439840E+04  0.12771779324E+03 -0.68816286247E+03  0.13392862442E+04  0.25500000920E-02 0. -1.
</event>
<event>
 5   0  0.7193153E-06  0.2976684E+04  0.7818609E-02  0.8250420E-01
       -2   -1    0    0    0  501  0.00000000000E+00  0.00000000000E+00  0.23817243252E+04  0.23817243252E+04  0.25500000920E-02 0. -1.
        2   -1    0    0  501    0  0.00000000000E+00  0.00000000000E+00 -0.93006635841E+03  0.93006635842E+03  0.25500000920E-02 0.  1.
    10030    2    1    2    0    0  0.00000000000E+00  0.00000000000E+00  0.14516579668E+04  0.33117906836E+04  0.29766838394E+04 0.  0.
        4    1    3    3  502    0  0.91882148918E+03 -0.14286960635E+03 -0.56711569039E+03  0.10891586076E+04  0.12699999809E+01 0.  1.
       -4    1    3    3    0  502 -0.91882148918E+03  0.14286960635E+03  0.20187736572E+04  0.22226320760E+04  0.12699999809E+01 0. -1.
</event>
<event>
 5   0  0.6780150E-06  0.3039482E+04  0.7818609E-02  0.8232546E-01
       -2   -1    0    0    0  501  0.00000000000E+00  0.00000000000E+00  0.12562599664E+04  0.12562599664E+04  0.25500000920E-02 0.  1.
        2   -1    0    0  501    0  0.00000000000E+00  0.00000000000E+00 -0.18384826374E+04  0.18384826374E+04  0.25500000920E-02 0. -1.
    10030    2    1    2    0    0  0.00000000000E+00  0.00000000000E+00 -0.58222267098E+03  0.30947426038E+04  0.30394816245E+04 0.  0.
        5    1    3    3  502    0 -0.54447558985E+03  0.13843074145E+04 -0.60794297421E+03  0.16069777334E+04  0.46999998093E+01 0. -1.
       -5    1    3    3    0  502  0.54447558985E+03 -0.13843074145E+04  0.25720303232E+02  0.14877648704E+04  0.46999998093E+01 0.  1.
</event>
<event>
 5   0  0.6792811E-06  0.3000286E+04  0.7818609E-02  0.8243649E-01
       -2   -1    0    0    0  501  0.00000000000E+00  0.00000000000E+00  0.11160381316E+04  0.11160381316E+04  0.25500000920E-02 0. -1.
        2   -1    0    0  501    0  0.00000000000E+00  0.00000000000E+00 -0.20164452249E+04  0.20164452250E+04  0.25500000920E-02 0.  1.
    10030    2    1    2    0    0  0.00000000000E+00  0.00000000000E+00 -0.90040709335E+03  0.31324833566E+04  0.30002864939E+04 0.  0.
        2    1    3    3  502    0 -0.10775022441E+04 -0.10384030585E+04 -0.56038919676E+03  0.15979136553E+04  0.25500000920E-02 0. -1.
       -2    1    3    3    0  502  0.10775022441E+04  0.10384030585E+04 -0.34001789659E+03  0.15345697012E+04  0.25500000920E-02 0.  1.
</event>
<event>
 5   0  0.7217255E-06  0.3115188E+04  0.7818609E-02  0.8211582E-01
       -2   -1    0    0    0  501  0.00000000000E+00  0.00000000000E+00  0.12075375373E+04  0.12075375373E+04  0.25500000920E-02 0. -1.
        2   -1    0    0  501    0  0.00000000000E+00  0.00000000000E+00 -0.20091292764E+04  0.20091292764E+04  0.25500000920E-02 0.  1.
    10030    2    1    2    0    0  0.00000000000E+00  0.00000000000E+00 -0.80159173911E+03  0.32166668138E+04  0.31151879678E+04 0.  0.
        1    1    3    3  502    0  0.43440168306E+03  0.38970104986E+03  0.10903830657E+04  0.12367323722E+04  0.50400001928E-02 0. -1.
       -1    1    3    3    0  502 -0.43440168306E+03 -0.38970104986E+03 -0.18919748048E+04  0.19799344415E+04  0.50400001928E-02 0.  1.
</event>
<event>
 5   0  0.7193153E-06  0.3014989E+04  0.7818609E-02  0.8239464E-01
       -2   -1    0    0    0  501  0.00000000000E+00  0.00000000000E+00  0.13264677785E+04  0.13264677785E+04  0.25500000920E-02 0. -1.
        2   -1    0    0  501    0  0.00000000000E+00  0.00000000000E+00 -0.17132268354E+04  0.17132268354E+04  0.25500000920E-02 0.  1.
    10030    2    1    2    0    0  0.00000000000E+00  0.00000000000E+00 -0.38675905688E+03  0.30396946140E+04  0.30149893496E+04 0.  0.
        4    1    3    3  502    0 -0.73914633210E+03 -0.12669202552E+04 -0.54424608114E+03  0.15644902183E+04  0.12699999809E+01 0.  1.
       -4    1    3    3    0  502  0.73914633210E+03  0.12669202552E+04  0.15748702426E+03  0.14752043957E+04  0.12699999809E+01 0. -1.
</event>
<event>
 5   0  0.7193153E-06  0.2657797E+04  0.7818609E-02  0.8348830E-01
       -2   -1    0    0    0  501  0.00000000000E+00  0.00000000000E+00  0.24482216506E+04  0.24482216506E+04  0.25500000920E-02 0. -1.
        2   -1    0    0  501    0  0.00000000000E+00  0.00000000000E+00 -0.72132798016E+03  0.72132798016E+03  0.25500000920E-02 0.  1.
    10030    2    1    2    0    0  0.00000000000E+00  0.00000000000E+00  0.17268936705E+04  0.31695496308E+04  0.26577966651E+04 0.  0.
        4    1    3    3  502    0 -0.38201187381E+03  0.12637661618E+04  0.68285877888E+03  0.14863834325E+04  0.12699999809E+01 0. -1.
       -4    1    3    3    0  502  0.38201187381E+03 -0.12637661618E+04  0.10440348916E+04  0.16831661983E+04  0.12699999809E+01 0.  1.
</event>
<event>
 5   0  0.6780150E-06  0.2757902E+04  0.7818609E-02  0.8316459E-01
       -2   -1    0    0    0  501  0.00000000000E+00  0.00000000000E+00  0.13532269455E+04  0.13532269455E+04  0.25500000920E-02 0.  1.
        2   -1    0    0  501    0  0.00000000000E+00  0.00000000000E+00 -0.14051642199E+04  0.14051642199E+04  0.25500000920E-02 0. -1.
    10030    2    1    2    0    0  0.00000000000E+00  0.00000000000E+00 -0.51937274415E+02  0.27583911655E+04  0.27579021631E+04 0.  0.
        5    1    3    3  502    0  0.11709605700E+04 -0.51676324713E+02  0.70056562418E+03  0.13655157937E+04  0.46999998093E+01 0.  1.
       -5    1    3    3    0  502 -0.11709605700E+04  0.51676324713E+02 -0.75250289860E+03  0.13928753718E+04  0.46999998093E+01 0. -1.
</event>
<event>
 5   0  0.2504260E-06  0.2987688E+04  0.7818609E-02  0.8247255E-01
       -1   -1    0    0    0  501  0.00000000000E+00  0.00000000000E+00  0.24760380403E+04  0.24760380403E+04  0.50400001928E-02 0. -1.
        1   -1    0    0  501    0  0.00000000000E+00  0.00000000000E+00 -0.90126661982E+03  0.90126661983E+03  0.50400001928E-02 0.  1.
    10030    2    1    2    0    0  0.00000000000E+00  0.00000000000E+00  0.15747714205E+04  0.33773046601E+04  0.29876883607E+04 0.  0.
        4    1    3    3  502    0 -0.14810962561E+04  0.19241029936E+03  0.75345504875E+03  0.16728311231E+04  0.12699999809E+01 0. -1.
       -4    1    3    3    0  502  0.14810962561E+04 -0.19241029936E+03  0.82131637171E+03  0.17044735370E+04  0.12699999809E+01 0.  1.
</event>
<event>
 5   0  0.6780150E-06  0.2965490E+04  0.7818609E-02  0.8253655E-01
       -2   -1    0    0    0  501  0.00000000000E+00  0.00000000000E+00  0.10806861706E+04  0.10806861706E+04  0.25500000920E-02 0. -1.
        2   -1    0    0  501    0  0.00000000000E+00  0.00000000000E+00 -0.20343858177E+04  0.20343858177E+04  0.25500000920E-02 0.  1.
    10030    2    1    2    0    0  0.00000000000E+00  0.00000000000E+00 -0.95369964707E+03  0.31150719883E+04  0.29654899217E+04 0.  0.
        5    1    3    3  502    0  0.50414494514E+03  0.95768577541E+03 -0.15414738344E+04  0.18834775927E+04  0.46999998093E+01 0.  1.
       -5    1    3    3    0  502 -0.50414494514E+03 -0.95768577541E+03  0.58777418729E+03  0.12315943956E+04  0.46999998093E+01 0. -1.
</event>
<event>
 5   0  0.7201538E-06  0.3011294E+04  0.7818609E-02  0.8240513E-01
        2   -1    0    0  501    0  0.00000000000E+00  0.00000000000E+00  0.22890227267E+04  0.22890227267E+04  0.25500000920E-02 0.  1.
       -2   -1    0    0    0  501  0.00000000000E+00  0.00000000000E+00 -0.99036724331E+03  0.99036724331E+03  0.25500000920E-02 0. -1.
    10030    2    1    2    0    0  0.00000000000E+00  0.00000000000E+00  0.12986554834E+04  0.32793899700E+04  0.30112941588E+04 0.  0.
        3    1    3    3  502    0  0.96543821407E+03  0.33733214041E+02  0.19070345659E+04  0.21377534284E+04  0.10100000352E+00 0.  1.
       -3    1    3    3    0  502 -0.96543821407E+03 -0.33733214041E+02 -0.60837908251E+03  0.11416365416E+04  0.10100000352E+00 0. -1.
</event>
<event>
 5   0  0.2422083E-06  0.3002199E+04  0.7818609E-02  0.8243103E-01
       -1   -1    0    0    0  501  0.00000000000E+00  0.00000000000E+00  0.19408498365E+04  0.19408498365E+04  0.50400001928E-02 0.  1.
        1   -1    0    0  501    0  0.00000000000E+00  0.00000000000E+00 -0.11609861546E+04  0.11609861546E+04  0.50400001928E-02 0. -1.
    10030    2    1    2    0    0  0.00000000000E+00  0.00000000000E+00  0.77986368194E+03  0.31018359911E+04  0.30021990529E+04 0.  0.
        2    1    3    3  502    0  0.42044935357E+03  0.67937662534E+03 -0.92305844708E+03  0.12208059447E+04  0.25500000920E-02 0. -1.
       -2    1    3    3    0  502 -0.42044935357E+03 -0.67937662534E+03  0.17029221290E+04  0.18810300464E+04  0.25500000920E-02 0.  1.
</event>
<event>
 5   0  0.2628425E-06  0.2969533E+04  0.7818609E-02  0.8252485E-01
       -1   -1    0    0    0  501  0.00000000000E+00  0.00000000000E+00  0.13652018066E+04  0.13652018066E+04  0.50400001928E-02 0. -1.
        1   -1    0    0  501    0  0.00000000000E+00  0.00000000000E+00 -0.16148028032E+04  0.16148028032E+04  0.50400001928E-02 0.  1.
    10030    2    1    2    0    0  0.00000000000E+00  0.00000000000E+00 -0.24960099662E+03  0.29800046099E+04  0.29695330975E+04 0.  0.
        1    1    3    3  502    0  0.10544948892E+04 -0.64185871284E+03 -0.95268819422E+03  0.15593450144E+04  0.50400001928E-02 0.  1.
       -1    1    3    3    0  502 -0.10544948892E+04  0.64185871284E+03  0.70308719760E+03  0.14206595954E+04  0.50400001928E-02 0. -1.
</event>
<event>
 5   0  0.2672155E-06  0.2946653E+04  0.7818609E-02  0.8259131E-01
        1   -1    0    0  501    0  0.00000000000E+00  0.00000000000E+00  0.16809029574E+04  0.16809029574E+04  0.50400001928E-02 0.  1.
       -1   -1    0    0    0  501  0.00000000000E+00  0.00000000000E+00 -0.12913841807E+04  0.12913841808E+04  0.50400001928E-02 0. -1.
    10030    2    1    2    0    0  0.00000000000E+00  0.00000000000E+00  0.38951877663E+03  0.29722871381E+04  0.29466533482E+04 0.  0.
        5    1    3    3  502    0 -0.16120648600E+03 -0.33882082879E+03  0.16318929928E+04  0.16744801925E+04  0.46999998093E+01 0.  1.
       -5    1    3    3    0  502  0.16120648600E+03  0.33882082879E+03 -0.12423742162E+04  0.12978069456E+04  0.46999998093E+01 0. -1.
</event>
<event>
 5   0  0.2672155E-06  0.2984486E+04  0.7818609E-02  0.8248175E-01
       -1   -1    0    0    0  501  0.00000000000E+00  0.00000000000E+00  0.87015838465E+03  0.87015838466E+03  0.50400001928E-02 0. -1.
        1   -1    0    0  501    0  0.00000000000E+00  0.00000000000E+00 -0.25590614174E+04  0.25590614174E+04  0.50400001928E-02 0.  1.
    10030    2    1    2    0    0  0.00000000000E+00  0.00000000000E+00 -0.16889030328E+04  0.34292198021E+04  0.29844857173E+04 0.  0.
        5    1    3    3  502    0 -0.77794388821E+03  0.15654607520E+03 -0.22965192729E+04  0.24297584711E+04  0.46999998093E+01 0.  1.
       -5    1    3    3    0  502  0.77794388821E+03 -0.15654607520E+03  0.60761624016E+03  0.99946133100E+03  0.46999998093E+01 0. -1.
</event>
<event>
 5   0  0.7217255E-06  0.2954889E+04  0.7818609E-02  0.8256731E-01
        2   -1    0    0  501    0  0.00000000000E+00  0.00000000000E+00  0.30223768710E+04  0.30223768710E+04  0.25500000920E-02 0.  1.
       -2   -1    0    0    0  501  0.00000000000E+00  0.00000000000E+00 -0.72222689513E+03  0.72222689513E+03  0.25500000920E-02 0. -1.
    10030    2    1    2    0    0  0.00000000000E+00  0.00000000000E+00  0.23001499758E+04  0.37446037661E+04  0.29548887380E+04 0.  0.
        1    1    3    3  502    0  0.50346504337E+03  0.10779228635E+04  0.22602436543E+04  0.25542310244E+04  0.50400001928E-02 0.  1.
       -1    1    3    3    0  502 -0.50346504337E+03 -0.10779228635E+04  0.39906321583E+02  0.11903727417E+04  0.50400001928E-02 0. -1.
</event>
<event>
 5   0  0.7217255E-06  0.2870279E+04  0.7818609E-02  0.8281776E-01
        2   -1    0    0  501    0  0.00000000000E+00  0.00000000000E+00  0.24118790694E+04  0.24118790694E+04  0.25500000920E-02 0. -1.
       -2   -1    0    0    0  501  0.00000000000E+00  0.00000000000E+00 -0.85395063260E+03  0.85395063261E+03  0.25500000920E-02 0.  1.
    10030    2    1    2    0    0  0.00000000000E+00  0.00000000000E+00  0.15579284368E+04  0.32658297020E+04  0.28702791900E+04 0.  0.
        1    1    3    3  502    0 -0.36333641612E+02  0.47144597053E+03 -0.76277514418E+03  0.89744490485E+03  0.50400001928E-02 0.  1.
       -1    1    3    3    0  502  0.36333641612E+02 -0.47144597053E+03  0.23207035810E+04  0.23683847972E+04  0.50400001928E-02 0. -1.
</event>
<event>
 5   0  0.2504260E-06  0.2977598E+04  0.7818609E-02  0.8250157E-01
       -1   -1    0    0    0  501  0.00000000000E+00  0.00000000000E+00  0.99854361826E+03  0.99854361827E+03  0.50400001928E-02 0. -1.
        1   -1    0    0  501    0  0.00000000000E+00  0.00000000000E+00 -0.22197560069E+04  0.22197560069E+04  0.50400001928E-02 0.  1.
    10030    2    1    2    0    0  0.00000000000E+00  0.00000000000E+00 -0.12212123887E+04  0.32182996252E+04  0.29775984920E+04 0.  0.
        4    1    3    3  502    0  0.74816225512E+03 -0.79469588547E+03  0.48378271880E+03  0.11938742154E+04  0.12699999809E+01 0. -1.
       -4    1    3    3    0  502 -0.74816225512E+03  0.79469588547E+03 -0.17049951075E+04  0.20244254098E+04  0.12699999809E+01 0.  1.
</event>
<event>
 5   0  0.6792811E-06  0.2661075E+04  0.7818609E-02  0.8347747E-01
       -2   -1    0    0    0  501  0.00000000000E+00  0.00000000000E+00  0.12077930669E+04  0.12077930669E+04  0.25500000920E-02 0.  1.
        2   -1    0    0  501    0  0.00000000000E+00  0.00000000000E+00 -0.14657556379E+04  0.14657556379E+04  0.25500000920E-02 0. -1.
    10030    2    1    2    0    0  0.00000000000E+00  0.00000000000E+00 -0.25796257100E+03  0.26735487048E+04  0.26610745929E+04 0.  0.
        2    1    3    3  502    0  0.31758832639E+03 -0.11637207949E+04  0.43509607148E+03  0.12823482464E+04  0.25500000920E-02 0. -1.
       -2    1    3    3    0  502 -0.31758832639E+03  0.11637207949E+04 -0.69305864247E+03  0.13912004584E+04  0.25500000920E-02 0.  1.
</event>
<event>
 5   0  0.6780150E-06  0.2963028E+04  0.7818609E-02  0.8254368E-01
       -2   -1    0    0    0  501  0.00000000000E+00  0.00000000000E+00  0.14514462535E+04  0.14514462535E+04  0.25500000920E-02 0. -1.
        2   -1    0    0  501    0  0.00000000000E+00  0.00000000000E+00 -0.15122045444E+04  0.15122045444E+04  0.25500000920E-02 0.  1.
    10030    2    1    2    0    0  0.00000000000E+00  0.00000000000E+00 -0.60758290891E+02  0.29636507980E+04  0.29630279247E+04 0.  0.
        5    1    3    3  502    0 -0.10571446340E+04 -0.33857571276E+03 -0.10117445308E+04  0.15019445317E+04  0.46999998093E+01 0.  1.
       -5    1    3    3    0  502  0.10571446340E+04  0.33857571276E+03  0.95098623995E+03  0.14617062663E+04  0.46999998093E+01 0. -1.
</event>
<event>
 5   0  0.6780150E-06  0.3143696E+04  0.7818609E-02  0.8203847E-01
       -2   -1    0    0    0  501  0.00000000000E+00  0.00000000000E+00  0.10580767187E+04  0.10580767187E+04  0.25500000920E-02 0.  1.
        2   -1    0    0  501    0  0.00000000000E+00  0.00000000000E+00 -0.23350919835E+04  0.23350919835E+04  0.25500000920E-02 0. -1.
    10030    2    1    2    0    0  0.00000000000E+00  0.00000000000E+00 -0.12770152649E+04  0.33931687022E+04  0.31436962091E+04 0.  0.
        5    1    3    3  502    0 -0.11020461185E+04  0.58820035807E+03 -0.16682606510E+04  0.20841307537E+04  0.46999998093E+01 0.  1.
       -5    1    3    3    0  502  0.11020461185E+04 -0.58820035807E+03  0.39124538615E+03  0.13090379485E+04  0.46999998093E+01 0. -1.
</event>
<event>
 5   0  0.2628425E-06  0.2988825E+04  0.7818609E-02  0.8246929E-01
       -1   -1    0    0    0  501  0.00000000000E+00  0.00000000000E+00  0.26273144635E+04  0.26273144635E+04  0.50400001928E-02 0.  1.
        1   -1    0    0  501    0  0.00000000000E+00  0.00000000000E+00 -0.85001952942E+03  0.85001952943E+03  0.50400001928E-02 0. -1.
    10030    2    1    2    0    0  0.00000000000E+00  0.00000000000E+00  0.17772949341E+04  0.34773339929E+04  0.29888249222E+04 0.  0.
        1    1    3    3  502    0  0.36742413406E+03  0.14014966131E+04  0.13146580664E+04  0.19564046316E+04  0.50400001928E-02 0.  1.
       -1    1    3    3    0  502 -0.36742413406E+03 -0.14014966131E+04  0.46263686764E+03  0.15209293613E+04  0.50400001928E-02 0. -1.
</event>
<event>
 5   0  0.2504260E-06  0.2980190E+04  0.7818609E-02  0.8249410E-01
        1   -1    0    0  501    0  0.00000000000E+00  0.00000000000E+00  0.13545436803E+04  0.13545436804E+04  0.50400001928E-02 0. -1.
       -1   -1    0    0    0  501  0.00000000000E+00  0.00000000000E+00 -0.16392112944E+04  0.16392112944E+04  0.50400001928E-02 0.  1.
    10030    2    1    2    0    0  0.00000000000E+00  0.00000000000E+00 -0.28466761405E+03  0.29937549748E+04  0.29801901279E+04 0.  0.
        4    1    3    3  502    0 -0.18474067713E+02 -0.59697513951E+03  0.12290396781E+04  0.13664774976E+04  0.12699999809E+01 0. -1.
       -4    1    3    3    0  502  0.18474067713E+02  0.59697513951E+03 -0.15137072921E+04  0.16272774771E+04  0.12699999809E+01 0.  1.
</event>
<event>
 5   0  0.7201538E-06  0.2987749E+04  0.7818609E-02  0.8247238E-01
        2   -1    0    0  501    0  0.00000000000E+00  0.00000000000E+00  0.15904048622E+04  0.15904048622E+04  0.25500000920E-02 0. -1.
       -2   -1    0    0    0  501  0.00000000000E+00  0.00000000000E+00 -0.14032035585E+04  0.14032035585E+04  0.25500000920E-02 0.  1.
    10030    2    1    2    0    0  0.00000000000E+00  0.00000000000E+00  0.18720130369E+03  0.29936084208E+04  0.29877494956E+04 0.  0.
        3    1    3    3  502    0 -0.61608479917E+03  0.26517568190E+03  0.14310527346E+04  0.15804399898E+04  0.10100000352E+00 0. -1.
       -3    1    3    3    0  502  0.61608479917E+03 -0.26517568190E+03 -0.12438514309E+04  0.14131684310E+04  0.10100000352E+00 0.  1.
</event>
<event>
 5   0  0.7217255E-06  0.3021133E+04  0.7818609E-02  0.8237722E-01
        2   -1    0    0  501    0  0.00000000000E+00  0.00000000000E+00  0.21116690140E+04  0.21116690140E+04  0.25500000920E-02 0.  1.
       -2   -1    0    0    0  501  0.00000000000E+00  0.00000000000E+00 -0.10805725167E+04  0.10805725167E+04  0.25500000920E-02 0. -1.
    10030    2    1    2    0    0  0.00000000000E+00  0.00000000000E+00  0.10310964973E+04  0.31922415308E+04  0.30211332317E+04 0.  0.
        1    1    3    3  502    0  0.60488576781E+03  0.22970338298E+03  0.19578331775E+04  0.20619799192E+04  0.50400001928E-02 0.  1.
       -1    1    3    3    0  502 -0.60488576781E+03 -0.22970338298E+03 -0.92673668015E+03  0.11302616116E+04  0.50400001928E-02 0. -1.
</event>
<event>
 5   0  0.6780150E-06  0.2960486E+04  0.7818609E-02  0.8255105E-01
        2   -1    0    0  501    0  0.00000000000E+00  0.00000000000E+00  0.10366050552E+04  0.10366050552E+04  0.25500000920E-02 0. -1.
       -2   -1    0    0    0  501  0.00000000000E+00  0.00000000000E+00 -0.21137452526E+04  0.21137452526E+04  0.25500000920E-02 0.  1.
    10030    2    1    2    0    0  0.00000000000E+00  0.00000000000E+00 -0.10771401974E+04  0.31503503078E+04  0.29604857806E+04 0.  0.
        5    1    3    3  502    0  0.14396457148E+03  0.10758986676E+04  0.53235856288E+03  0.12090126014E+04  0.46999998093E+01 0. -1.
       -5    1    3    3    0  502 -0.14396457148E+03 -0.10758986676E+04 -0.16094987603E+04  0.19413377064E+04  0.46999998093E+01 0.  1.
</event>
<event>
 5   0  0.2422083E-06  0.3005951E+04  0.7818609E-02  0.8242034E-01
        1   -1    0    0  501    0  0.00000000000E+00  0.00000000000E+00  0.15318225521E+04  0.15318225521E+04  0.50400001928E-02 0.  1.
       -1   -1    0    0    0  501  0.00000000000E+00  0.00000000000E+00 -0.14746717613E+04  0.14746717614E+04  0.50400001928E-02 0. -1.
    10030    2    1    2    0    0  0.00000000000E+00  0.00000000000E+00  0.57150790706E+02  0.30064943134E+04  0.30059510714E+04 0.  0.
        2    1    3    3  502    0 -0.62627927122E+03  0.12790341696E+04 -0.45190847576E+03  0.14941135844E+04  0.25500000920E-02 0. -1.
       -2    1    3    3    0  502  0.62627927122E+03 -0.12790341696E+04  0.50905926647E+03  0.15123807290E+04  0.25500000920E-02 0.  1.
</event>
<event>
 5   0  0.7201538E-06  0.3056656E+04  0.7818609E-02  0.8227735E-01
       -2   -1    0    0    0  501  0.00000000000E+00  0.00000000000E+00  0.22768358674E+04  0.22768358674E+04  0.25500000920E-02 0.  1.
        2   -1    0    0  501    0  0.00000000000E+00  0.00000000000E+00 -0.10258916982E+04  0.10258916982E+04  0.25500000920E-02 0. -1.
    10030    2    1    2    0    0  0.00000000000E+00  0.00000000000E+00  0.12509441692E+04  0.33027275656E+04  0.30566563526E+04 0.  0.
        3    1    3    3  502    0  0.89603984520E+02  0.89647621369E+03 -0.70845236496E+03  0.11461253157E+04  0.10100000352E+00 0. -1.
       -3    1    3    3    0  502 -0.89603984520E+02 -0.89647621369E+03  0.19593965341E+04  0.21566022498E+04  0.10100000352E+00 0.  1.
</event>
<event>
 5   0  0.7193153E-06  0.3016077E+04  0.7818609E-02  0.8239155E-01
       -2   -1    0    0    0  501  0.00000000000E+00  0.00000000000E+00  0.96873933920E+03  0.96873933920E+03  0.25500000920E-02 0.  1.
        2   -1    0    0  501    0  0.00000000000E+00  0.00000000000E+00 -0.23475671904E+04  0.23475671904E+04  0.25500000920E-02 0. -1.
    10030    2    1    2    0    0  0.00000000000E+00  0.00000000000E+00 -0.13788278512E+04  0.33163065296E+04  0.30160773788E+04 0.  0.
        4    1    3    3  502    0 -0.77163399487E+02  0.10045984387E+04 -0.19231612827E+04  0.21711110394E+04  0.12699999809E+01 0.  1.
       -4    1    3    3    0  502  0.77163399487E+02 -0.10045984387E+04  0.54433343147E+03  0.11451954902E+04  0.12699999809E+01 0. -1.
</event>
<event>
 5   0  0.2298500E-06  0.2987955E+04  0.7818609E-02  0.8247179E-01
        3   -1    0    0  501    0  0.00000000000E+00  0.00000000000E+00  0.22594505403E+04  0.22594505426E+04  0.10100000352E+00 0.  1.
       -3   -1    0    0    0  501  0.00000000000E+00  0.00000000000E+00 -0.98783694840E+03  0.98783695356E+03  0.10100000352E+00 0. -1.
    10030    2    1    2    0    0  0.00000000000E+00  0.00000000000E+00  0.12716135919E+04  0.32472874962E+04  0.29879549788E+04 0.  0.
        1    1    3    3  502    0 -0.81198473798E+03 -0.27636443981E+03  0.19651955402E+04  0.21442224767E+04  0.50400001928E-02 0.  1.
       -1    1    3    3    0  502  0.81198473798E+03  0.27636443981E+03 -0.69358194823E+03  0.11030650195E+04  0.50400001928E-02 0. -1.
</event>
<event>
 5   0  0.7201538E-06  0.3025622E+04  0.7818609E-02  0.8236452E-01
        2   -1    0    0  501    0  0.00000000000E+00  0.00000000000E+00  0.17415824726E+04  0.17415824726E+04  0.25500000920E-02 0.  1.
       -2   -1    0    0    0  501  0.00000000000E+00  0.00000000000E+00 -0.13140907530E+04  0.13140907530E+04  0.25500000920E-02 0. -1.
    10030    2    1    2    0    0  0.00000000000E+00  0.00000000000E+00  0.42749171960E+03  0.30556732256E+04  0.30256221991E+04 0.  0.
        3    1    3    3  502    0  0.56978030854E+03  0.52627773802E+03 -0.10979922026E+04  0.13443231549E+04  0.10100000352E+00 0. -1.
       -3    1    3    3    0  502 -0.56978030854E+03 -0.52627773802E+03  0.15254839222E+04  0.17113500707E+04  0.10100000352E+00 0.  1.
</event>
<event>
 5   0  0.7193153E-06  0.2968254E+04  0.7818609E-02  0.8252855E-01
       -2   -1    0    0    0  501  0.00000000000E+00  0.00000000000E+00  0.11398189191E+04  0.11398189191E+04  0.25500000920E-02 0. -1.
        2   -1    0    0  501    0  0.00000000000E+00  0.00000000000E+00 -0.19324413281E+04  0.19324413281E+04  0.25500000920E-02 0.  1.
    10030    2    1    2    0    0  0.00000000000E+00  0.00000000000E+00 -0.79262240905E+03  0.30722602472E+04  0.29682541574E+04 0.  0.
        4    1    3    3  502    0 -0.10972160004E+04 -0.60401125609E+03  0.42777721110E+03  0.13235208741E+04  0.12699999809E+01 0. -1.
       -4    1    3    3    0  502  0.10972160004E+04  0.60401125609E+03 -0.12203996201E+04  0.17487393730E+04  0.12699999809E+01 0.  1.
</event>
<event>
 5   0  0.7217255E-06  0.3001944E+04  0.7818609E-02  0.8243176E-01
        2   -1    0    0  501    0  0.00000000000E+00  0.00000000000E+00  0.15394222367E+04  0.15394222367E+04  0.25500000920E-02 0. -1.
       -2   -1    0    0    0  501  0.00000000000E+00  0.00000000000E+00 -0.14634821875E+04  0.14634821875E+04  0.25500000920E-02 0.  1.
    10030    2    1    2    0    0  0.00000000000E+00  0.00000000000E+00  0.75940049142E+02  0.30029044242E+04  0.30019440517E+04 0.  0.
        1    1    3    3  502    0  0.74632106901E+03 -0.42595084802E+03 -0.11930689410E+04  0.14703206320E+04  0.50400001928E-02 0.  1.
       -1    1    3    3    0  502 -0.74632106901E+03  0.42595084802E+03  0.12690089901E+04  0.15325837922E+04  0.50400001928E-02 0. -1.
</event>
<event>
 5   0  0.2504260E-06  0.2997895E+04  0.7818609E-02  0.8244332E-01
        1   -1    0    0  501    0  0.00000000000E+00  0.00000000000E+00  0.12283188946E+04  0.12283188947E+04  0.50400001928E-02 0.  1.
       -1   -1    0    0    0  501  0.00000000000E+00  0.00000000000E+00 -0.18292027118E+04  0.18292027118E+04  0.50400001928E-02 0. -1.
    10030    2    1    2    0    0  0.00000000000E+00  0.00000000000E+00 -0.60088381719E+03  0.30575216065E+04  0.29978954305E+04 0.  0.
        4    1    3    3  502    0  0.45411324697E+02  0.13877219487E+04  0.27559990412E+03  0.14155533602E+04  0.12699999809E+01 0.  1.
       -4    1    3    3    0  502 -0.45411324697E+02 -0.13877219487E+04 -0.87648372131E+03  0.16419682463E+04  0.12699999809E+01 0. -1.
</event>
<event>
 5   0  0.7201538E-06  0.3013935E+04  0.7818609E-02  0.8239763E-01
       -2   -1    0    0    0  501  0.00000000000E+00  0.00000000000E+00  0.14733200597E+04  0.14733200597E+04  0.25500000920E-02 0.  1.
        2   -1    0    0  501    0  0.00000000000E+00  0.00000000000E+00 -0.15413833961E+04  0.15413833961E+04  0.25500000920E-02 0. -1.
    10030    2    1    2    0    0  0.00000000000E+00  0.00000000000E+00 -0.68063336358E+02  0.30147034558E+04  0.30139350206E+04 0.  0.
        3    1    3    3  502    0 -0.80348815285E+03 -0.77862677417E+03 -0.10437929905E+04  0.15301492354E+04  0.10100000352E+00 0. -1.
       -3    1    3    3    0  502  0.80348815285E+03  0.77862677417E+03  0.97572965416E+03  0.14845542204E+04  0.10100000352E+00 0.  1.
</event>
<event>
 5   0  0.6780150E-06  0.3243582E+04  0.7818609E-02  0.8177401E-01
       -2   -1    0    0    0  501  0.00000000000E+00  0.00000000000E+00  0.18811609712E+04  0.18811609712E+04  0.25500000920E-02 0.  1.
        2   -1    0    0  501    0  0.00000000000E+00  0.00000000000E+00 -0.13981826416E+04  0.13981826416E+04  0.25500000920E-02 0. -1.
    10030    2    1    2    0    0  0.00000000000E+00  0.00000000000E+00  0.48297832964E+03  0.32793436128E+04  0.32435823504E+04 0.  0.
        5    1    3    3  502    0 -0.16017258777E+04  0.14213127364E+02 -0.15193250301E+02  0.16018678862E+04  0.46999998093E+01 0.  1.
       -5    1    3    3    0  502  0.16017258777E+04 -0.14213127364E+02  0.49817157994E+03  0.16774757266E+04  0.46999998093E+01 0. -1.
</event>
<event>
 5   0  0.2552990E-06  0.3183625E+04  0.7818609E-02  0.8193155E-01
        1   -1    0    0  501    0  0.00000000000E+00  0.00000000000E+00  0.15380665690E+04  0.15380665690E+04  0.50400001928E-02 0.  1.
       -1   -1    0    0    0  501  0.00000000000E+00  0.00000000000E+00 -0.16474368299E+04  0.16474368299E+04  0.50400001928E-02 0. -1.
    10030    2    1    2    0    0  0.00000000000E+00  0.00000000000E+00 -0.10937026094E+03  0.31855033989E+04  0.31836252999E+04 0.  0.
        3    1    3    3  502    0  0.13440650250E+04  0.42455556106E+03 -0.79478984166E+03  0.16181622658E+04  0.10100000352E+00 0. -1.
       -3    1    3    3    0  502 -0.13440650250E+04 -0.42455556106E+03  0.68541958072E+03  0.15673411331E+04  0.10100000352E+00 0.  1.
</event>
<event>
 5   0  0.2504260E-06  0.2859762E+04  0.7818609E-02  0.8284951E-01
       -1   -1    0    0    0  501  0.00000000000E+00  0.00000000000E+00  0.91311204321E+03  0.91311204322E+03  0.50400001928E-02 0.  1.
        1   -1    0    0  501    0  0.00000000000E+00  0.00000000000E+00 -0.22391122787E+04  0.22391122787E+04  0.50400001928E-02 0. -1.
    10030    2    1    2    0    0  0.00000000000E+00  0.00000000000E+00 -0.13260002355E+04  0.31522243219E+04  0.28597624991E+04 0.  0.
        4    1    3    3  502    0  0.85710188046E+03 -0.82888268345E+03  0.20694599832E+03  0.12101646151E+04  0.12699999809E+01 0.  1.
       -4    1    3    3    0  502 -0.85710188046E+03  0.82888268345E+03 -0.15329462338E+04  0.19420597069E+04  0.12699999809E+01 0. -1.
</event>
<event>
 5   0  0.7193153E-06  0.2967329E+04  0.7818609E-02  0.8253122E-01
        2   -1    0    0  501    0  0.00000000000E+00  0.00000000000E+00  0.12714906937E+04  0.12714906937E+04  0.25500000920E-02 0.  1.
       -2   -1    0    0    0  501  0.00000000000E+00  0.00000000000E+00 -0.17312439850E+04  0.17312439850E+04  0.25500000920E-02 0. -1.
    10030    2    1    2    0    0  0.00000000000E+00  0.00000000000E+00 -0.45975329134E+03  0.30027346787E+04  0.29673291799E+04 0.  0.
        4    1    3    3  502    0  0.12134232241E+04 -0.67629937110E+02  0.63132977507E+03  0.13695067094E+04  0.12699999809E+01 0.  1.
       -4    1    3    3    0  502 -0.12134232241E+04  0.67629937110E+02 -0.10910830664E+04  0.16332279694E+04  0.12699999809E+01 0. -1.
</event>
<event>
 5   0  0.2552990E-06  0.2977001E+04  0.7818609E-02  0.8250329E-01
        1   -1    0    0  501    0  0.00000000000E+00  0.00000000000E+00  0.23001653583E+04  0.23001653583E+04  0.50400001928E-02 0. -1.
       -1   -1    0    0    0  501  0.00000000000E+00  0.00000000000E+00 -0.96324963855E+03  0.96324963857E+03  0.50400001928E-02 0.  1.
    10030    2    1    2    0    0  0.00000000000E+00  0.00000000000E+00  0.13369157198E+04  0.32634149969E+04  0.29770008062E+04 0.  0.
        3    1    3    3  502    0  0.24456412185E+03 -0.13156804271E+04 -0.46020542429E+02  0.13390087738E+04  0.10100000352E+00 0.  1.
       -3    1    3    3    0  502 -0.24456412185E+03  0.13156804271E+04  0.13829362622E+04  0.19244062231E+04  0.10100000352E+00 0. -1.
</event>
<event>
 5   0  0.6780150E-06  0.2934178E+04  0.7818609E-02  0.8262781E-01
       -2   -1    0    0    0  501  0.00000000000E+00  0.00000000000E+00  0.13248323027E+04  0.13248323027E+04  0.25500000920E-02 0. -1.
        2   -1    0    0  501    0  0.00000000000E+00  0.00000000000E+00 -0.16246207796E+04  0.16246207796E+04  0.25500000920E-02 0.  1.
    10030    2    1    2    0    0  0.00000000000E+00  0.00000000000E+00 -0.29978847687E+03  0.29494530823E+04  0.29341779690E+04 0.  0.
        5    1    3    3  502    0  0.13060399510E+04  0.55881380287E+03  0.21850348724E+03  0.14372818387E+04  0.46999998093E+01 0. -1.
       -5    1    3    3    0  502 -0.13060399510E+04 -0.55881380287E+03 -0.51829196411E+03  0.15121712436E+04  0.46999998093E+01 0.  1.
</event>
<event>
 5   0  0.6792811E-06  0.3029033E+04  0.7818609E-02  0.8235489E-01
        2   -1    0    0  501    0  0.00000000000E+00  0.00000000000E+00  0.22031001078E+04  0.22031001078E+04  0.25500000920E-02 0. -1.
       -2   -1    0    0    0  501  0.00000000000E+00  0.00000000000E+00 -0.10411510104E+04  0.10411510104E+04  0.25500000920E-02 0.  1.
    10030    2    1    2    0    0  0.00000000000E+00  0.00000000000E+00  0.11619490974E+04  0.32442511182E+04  0.30290327851E+04 0.  0.
        2    1    3    3  502    0  0.10259197775E+04  0.31094403661E+02 -0.61183374035E+03  0.11949137114E+04  0.25500000920E-02 0.  1.
       -2    1    3    3    0  502 -0.10259197775E+04 -0.31094403661E+02  0.17737828377E+04  0.20493374069E+04  0.25500000920E-02 0. -1.
</event>
<event>
 5   0  0.6780150E-06  0.3037679E+04  0.7818609E-02  0.8233053E-01
       -2   -1    0    0    0  501  0.00000000000E+00  0.00000000000E+00  0.15916348698E+04  0.15916348698E+04  0.25500000920E-02 0. -1.
        2   -1    0    0  501    0  0.00000000000E+00  0.00000000000E+00 -0.14493736004E+04  0.14493736004E+04  0.25500000920E-02 0.  1.
    10030    2    1    2    0    0  0.00000000000E+00  0.00000000000E+00  0.14226126935E+03  0.30410084702E+04  0.30376790889E+04 0.  0.
        5    1    3    3  502    0  0.14073725428E+04 -0.54579721331E+03  0.23942020560E+03  0.15283769813E+04  0.46999998093E+01 0.  1.
       -5    1    3    3    0  502 -0.14073725428E+04  0.54579721331E+03 -0.97158936243E+02  0.15126314889E+04  0.46999998093E+01 0. -1.
</event>
<event>
 5   0  0.2672155E-06  0.3072500E+04  0.7818609E-02  0.8223326E-01
       -1   -1    0    0    0  501  0.00000000000E+00  0.00000000000E+00  0.12467365192E+04  0.12467365192E+04  0.50400001928E-02 0.  1.
        1   -1    0    0  501    0  0.00000000000E+00  0.00000000000E+00 -0.18929929358E+04  0.18929929358E+04  0.50400001928E-02 0. -1.
    10030    2    1    2    0    0  0.00000000000E+00  0.00000000000E+00 -0.64625641658E+03  0.31397294551E+04  0.30724995842E+04 0.  0.
        5    1    3    3  502    0  0.26771139874E+03  0.16202766441E+03  0.12138160471E+04  0.12535126019E+04  0.46999998093E+01 0.  1.
       -5    1    3    3    0  502 -0.26771139874E+03 -0.16202766441E+03 -0.18600724636E+04  0.18862168531E+04  0.46999998093E+01 0. -1.
</event>
<event>
 5   0  0.2504260E-06  0.3041848E+04  0.7818609E-02  0.8231881E-01
       -1   -1    0    0    0  501  0.00000000000E+00  0.00000000000E+00  0.19341186466E+04  0.19341186466E+04  0.50400001928E-02 0. -1.
        1   -1    0    0  501    0  0.00000000000E+00  0.00000000000E+00 -0.11960020486E+04  0.11960020486E+04  0.50400001928E-02 0.  1.
    10030    2    1    2    0    0  0.00000000000E+00  0.00000000000E+00  0.73811659799E+03  0.31301206952E+04  0.30418480327E+04 0.  0.
        4    1    3    3  502    0  0.14542101550E+04 -0.44513033019E+03  0.38803428889E+03  0.15695350930E+04  0.12699999809E+01 0. -1.
       -4    1    3    3    0  502 -0.14542101550E+04  0.44513033019E+03  0.35008230910E+03  0.15605856022E+04  0.12699999809E+01 0.  1.
</event>
<event>
 5   0  0.7201538E-06  0.3009977E+04  0.7818609E-02  0.8240888E-01
       -2   -1    0    0    0  501  0.00000000000E+00  0.00000000000E+00  0.13899322471E+04  0.13899322471E+04  0.25500000920E-02 0.  1.
        2   -1    0    0  501    0  0.00000000000E+00  0.00000000000E+00 -0.16295686658E+04  0.16295686658E+04  0.25500000920E-02 0. -1.
    10030    2    1    2    0    0  0.00000000000E+00  0.00000000000E+00 -0.23963641871E+03  0.30195009129E+04  0.30099767690E+04 0.  0.
        3    1    3    3  502    0  0.41013461703E+03 -0.98743976609E+03  0.94265643903E+03  0.14254293627E+04  0.10100000352E+00 0.  1.
       -3    1    3    3    0  502 -0.41013461703E+03  0.98743976609E+03 -0.11822928577E+04  0.15940715503E+04  0.10100000352E+00 0. -1.
</event>
<event>
 5   0  0.2422083E-06  0.2991940E+04  0.7818609E-02  0.8246036E-01
        1   -1    0    0  501    0  0.00000000000E+00  0.00000000000E+00  0.11775775210E+04  0.11775775210E+04  0.50400001928E-02 0.  1.
       -1   -1    0    0    0  501  0.00000000000E+00  0.00000000000E+00 -0.19004490406E+04  0.19004490406E+04  0.50400001928E-02 0. -1.
    10030    2    1    2    0    0  0.00000000000E+00  0.00000000000E+00 -0.72287151955E+03  0.30780265616E+04  0.29919398858E+04 0.  0.
        2    1    3    3  502    0 -0.18498006006E+03  0.43253239552E+02  0.11651181369E+04  0.11805035952E+04  0.25500000920E-02 0.  1.
       -2    1    3    3    0  502  0.18498006006E+03 -0.43253239552E+02 -0.18879896564E+04  0.18975229664E+04  0.25500000920E-02 0. -1.
</event>
<event>
 5   0  0.7193153E-06  0.3004358E+04  0.7818609E-02  0.8242487E-01
       -2   -1    0    0    0  501  0.00000000000E+00  0.00000000000E+00  0.13966884264E+04  0.13966884264E+04  0.25500000920E-02 0. -1.
        2   -1    0    0  501    0  0.00000000000E+00  0.00000000000E+00 -0.16156374667E+04  0.16156374667E+04  0.25500000920E-02 0.  1.
    10030    2    1    2    0    0  0.00000000000E+00  0.00000000000E+00 -0.21894904036E+03  0.30123258931E+04  0.30043582683E+04 0.  0.
        4    1    3    3  502    0  0.10191928761E+04  0.30510551645E+03 -0.11728043828E+04  0.15834504185E+04  0.12699999809E+01 0.  1.
       -4    1    3    3    0  502 -0.10191928761E+04 -0.30510551645E+03  0.95385534241E+03  0.14288754746E+04  0.12699999809E+01 0. -1.
</event>
<event>
 5   0  0.2504260E-06  0.2964087E+04  0.7818609E-02  0.8254061E-01
       -1   -1    0    0    0  501  0.00000000000E+00  0.00000000000E+00  0.80082032911E+03  0.80082032913E+03  0.50400001928E-02 0. -1.
        1   -1    0    0  501    0  0.00000000000E+00  0.00000000000E+00 -0.27427534302E+04  0.27427534302E+04  0.50400001928E-02 0.  1.
    10030    2    1    2    0    0  0.00000000000E+00  0.00000000000E+00 -0.19419331011E+04  0.35435737593E+04  0.29640868440E+04 0.  0.
        4    1    3    3  502    0  0.11801143195E+04  0.89567454971E+03 -0.92392407787E+03  0.17460068787E+04  0.12699999809E+01 0.  1.
       -4    1    3    3    0  502 -0.11801143195E+04 -0.89567454971E+03 -0.10180090232E+04  0.17975668806E+04  0.12699999809E+01 0. -1.
</event>
<event>
 5   0  0.2628425E-06  0.2994112E+04  0.7818609E-02  0.8245414E-01
       -1   -1    0    0    0  501  0.00000000000E+00  0.00000000000E+00  0.12759424795E+04  0.12759424795E+04  0.50400001928E-02 0. -1.
        1   -1    0    0  501    0  0.00000000000E+00  0.00000000000E+00 -0.17564870764E+04  0.17564870764E+04  0.50400001928E-02 0.  1.
    10030    2    1    2    0    0  0.00000000000E+00  0.00000000000E+00 -0.48054459689E+03  0.30324295559E+04  0.29941118720E+04 0.  0.
        1    1    3    3  502    0  0.96502697296E+03  0.39592376947E+03 -0.13278603534E+04  0.16885632378E+04  0.50400001928E-02 0.  1.
       -1    1    3    3    0  502 -0.96502697296E+03 -0.39592376947E+03  0.84731575653E+03  0.13438663182E+04  0.50400001928E-02 0. -1.
</event>
<event>
 5   0  0.2672155E-06  0.3010084E+04  0.7818609E-02  0.8240857E-01
        1   -1    0    0  501    0  0.00000000000E+00  0.00000000000E+00  0.31319549477E+04  0.31319549477E+04  0.50400001928E-02 0. -1.
       -1   -1    0    0    0  501  0.00000000000E+00  0.00000000000E+00 -0.72323868215E+03  0.72323868217E+03  0.50400001928E-02 0.  1.
    10030    2    1    2    0    0  0.00000000000E+00  0.00000000000E+00  0.24087162655E+04  0.38551936298E+04  0.30100836991E+04 0.  0.
        5    1    3    3  502    0 -0.13683497611E+04 -0.61874778657E+03  0.10769306809E+04  0.18479804310E+04  0.46999998093E+01 0.  1.
       -5    1    3    3    0  502  0.13683497611E+04  0.61874778657E+03  0.13317855846E+04  0.20072131988E+04  0.46999998093E+01 0. -1.
</event>
<event>
 5   0  0.2552990E-06  0.3094314E+04  0.7818609E-02  0.8217300E-01
        1   -1    0    0  501    0  0.00000000000E+00  0.00000000000E+00  0.23507862465E+04  0.23507862465E+04  0.50400001928E-02 0.  1.
       -1   -1    0    0    0  501  0.00000000000E+00  0.00000000000E+00 -0.10182529765E+04  0.10182529765E+04  0.50400001928E-02 0. -1.
    10030    2    1    2    0    0  0.00000000000E+00  0.00000000000E+00  0.13325332701E+04  0.33690392230E+04  0.30943142003E+04 0.  0.
        3    1    3    3  502    0  0.11425987784E+04 -0.76554133046E+03 -0.10524221615E+03  0.13793699400E+04  0.10100000352E+00 0. -1.
       -3    1    3    3    0  502 -0.11425987784E+04  0.76554133046E+03  0.14377754862E+04  0.19896692831E+04  0.10100000352E+00 0.  1.
</event>
<event>
 5   0  0.6792811E-06  0.2997700E+04  0.7818609E-02  0.8244388E-01
       -2   -1    0    0    0  501  0.00000000000E+00  0.00000000000E+00  0.21299217515E+04  0.21299217515E+04  0.25500000920E-02 0.  1.
        2   -1    0    0  501    0  0.00000000000E+00  0.00000000000E+00 -0.10547577426E+04  0.10547577426E+04  0.25500000920E-02 0. -1.
    10030    2    1    2    0    0  0.00000000000E+00  0.00000000000E+00  0.10751640089E+04  0.31846794941E+04  0.29977000908E+04 0.  0.
        2    1    3    3  502    0  0.60175844249E+03  0.12091006859E+03  0.19902866777E+04  0.20827802398E+04  0.25500000920E-02 0.  1.
       -2    1    3    3    0  502 -0.60175844249E+03 -0.12091006859E+03 -0.91512266880E+03  0.11018992544E+04  0.25500000920E-02 0. -1.
</event>
<event>
 5   0  0.2504260E-06  0.3013342E+04  0.7818609E-02  0.8239931E-01
       -1   -1    0    0    0  501  0.00000000000E+00  0.00000000000E+00  0.10266462711E+04  0.10266462711E+04  0.50400001928E-02 0.  1.
        1   -1    0    0  501    0  0.00000000000E+00  0.00000000000E+00 -0.22111387811E+04  0.22111387811E+04  0.50400001928E-02 0. -1.
    10030    2    1    2    0    0  0.00000000000E+00  0.00000000000E+00 -0.11844925099E+04  0.32377850522E+04  0.30133419219E+04 0.  0.
        4    1    3    3  502    0  0.13456207594E+04 -0.67274297906E+03 -0.68070322146E+03  0.16512531098E+04  0.12699999809E+01 0.  1.
       -4    1    3    3    0  502 -0.13456207594E+04  0.67274297906E+03 -0.50378928847E+03  0.15865319424E+04  0.12699999809E+01 0. -1.
</event>
<event>
 5   0  0.6780150E-06  0.2997508E+04  0.7818609E-02  0.8244443E-01
       -2   -1    0    0    0  501  0.00000000000E+00  0.00000000000E+00  0.13360237028E+04  0.13360237028E+04  0.25500000920E-02 0. -1.
        2   -1    0    0  501    0  0.00000000000E+00  0.00000000000E+00 -0.16813047884E+04  0.16813047884E+04  0.25500000920E-02 0.  1.
    10030    2    1    2    0    0  0.00000000000E+00  0.00000000000E+00 -0.34528108561E+03  0.30173284912E+04  0.29975076640E+04 0.  0.
        5    1    3    3  502    0  0.23084248502E+02 -0.24112238186E+03 -0.16614635781E+04  0.16790343049E+04  0.46999998093E+01 0.  1.
       -5    1    3    3    0  502 -0.23084248502E+02  0.24112238186E+03  0.13161824925E+04  0.13382941863E+04  0.46999998093E+01 0. -1.
</event>
<event>
 5   0  0.7193153E-06  0.2977491E+04  0.7818609E-02  0.8250188E-01
        2   -1    0    0  501    0  0.00000000000E+00  0.00000000000E+00  0.20144829247E+04  0.20144829247E+04  0.25500000920E-02 0.  1.
       -2   -1    0    0    0  501  0.00000000000E+00  0.00000000000E+00 -0.11002141229E+04  0.11002141229E+04  0.25500000920E-02 0. -1.
    10030    2    1    2    0    0  0.00000000000E+00  0.00000000000E+00  0.91426880187E+03  0.31146970476E+04  0.29774905972E+04 0.  0.
        4    1    3    3  502    0  0.11910829559E+04  0.32421330290E+03 -0.41342146742E+03  0.13018109680E+04  0.12699999809E+01 0. -1.
       -4    1    3    3    0  502 -0.11910829559E+04 -0.32421330290E+03  0.13276902693E+04  0.18128860796E+04  0.12699999809E+01 0.  1.
</event>
<event>
 5   0  0.2628425E-06  0.2982789E+04  0.7818609E-02  0.8248663E-01
       -1   -1    0    0    0  501  0.00000000000E+00  0.00000000000E+00  0.12612381315E+04  0.12612381316E+04  0.50400001928E-02 0.  1.
        1   -1    0    0  501    0  0.00000000000E+00  0.00000000000E+00 -0.17635510677E+04  0.17635510677E+04  0.50400001928E-02 0. -1.
    10030    2    1    2    0    0  0.00000000000E+00  0.00000000000E+00 -0.50231293616E+03  0.30247891993E+04  0.29827892004E+04 0.  0.
        1    1    3    3  502    0 -0.27379553705E+03  0.53821040648E+03 -0.16340382479E+04  0.17420434649E+04  0.50400001928E-02 0. -1.
       -1    1    3    3    0  502  0.27379553705E+03 -0.53821040648E+03  0.11317253118E+04  0.12827457344E+04  0.50400001928E-02 0.  1.
</event>
<event>
 5   0  0.6780150E-06  0.2976179E+04  0.7818609E-02  0.8250566E-01
       -2   -1    0    0    0  501  0.00000000000E+00  0.00000000000E+00  0.12724786807E+04  0.12724786807E+04  0.25500000920E-02 0.  1.
        2   -1    0    0  501    0  0.00000000000E+00  0.00000000000E+00 -0.17402334124E+04  0.17402334124E+04  0.25500000920E-02 0. -1.
    10030    2    1    2    0    0  0.00000000000E+00  0.00000000000E+00 -0.46775473172E+03  0.30127120932E+04  0.29761787022E+04 0.  0.
        5    1    3    3  502    0  0.79670454232E+03  0.22321240370E+03  0.10181667570E+04  0.13119632388E+04  0.46999998093E+01 0.  1.
       -5    1    3    3    0  502 -0.79670454232E+03 -0.22321240370E+03 -0.14859214887E+04  0.17007488543E+04  0.46999998093E+01 0. -1.
</event>
<event>
 5   0  0.7217255E-06  0.3071664E+04  0.7818609E-02  0.8223558E-01
        2   -1    0    0  501    0  0.00000000000E+00  0.00000000000E+00  0.13707000065E+04  0.13707000065E+04  0.25500000920E-02 0.  1.
       -2   -1    0    0    0  501  0.00000000000E+00  0.00000000000E+00 -0.17208574775E+04  0.17208574775E+04  0.25500000920E-02 0. -1.
    10030    2    1    2    0    0  0.00000000000E+00  0.00000000000E+00 -0.35015747096E+03  0.30915574840E+04  0.30716636246E+04 0.  0.
        1    1    3    3  502    0  0.10895354726E+04 -0.35404632394E+03 -0.12046127746E+04  0.16623863216E+04  0.50400001928E-02 0. -1.
       -1    1    3    3    0  502 -0.10895354726E+04  0.35404632394E+03  0.85445530363E+03  0.14291711624E+04  0.50400001928E-02 0.  1.
</event>
<event>
 5   0  0.7201538E-06  0.3007317E+04  0.7818609E-02  0.8241644E-01
       -2   -1    0    0    0  501  0.00000000000E+00  0.00000000000E+00  0.17962241916E+04  0.17962241916E+04  0.25500000920E-02 0.  1.
        2   -1    0    0  501    0  0.00000000000E+00  0.00000000000E+00 -0.12587456848E+04  0.12587456848E+04  0.25500000920E-02 0. -1.
    10030    2    1    2    0    0  0.00000000000E+00  0.00000000000E+00  0.53747850677E+03  0.30549698763E+04  0.30073173760E+04 0.  0.
        3    1    3    3  502    0 -0.12066337675E+04  0.32909014879E+03  0.11166654916E+04  0.16766655019E+04  0.10100000352E+00 0.  1.
       -3    1    3    3    0  502  0.12066337675E+04 -0.32909014879E+03 -0.57918698488E+03  0.13783043744E+04  0.10100000352E+00 0. -1.
</event>
<event>
 5   0  0.2628425E-06  0.2727093E+04  0.7818609E-02  0.8326267E-01
       -1   -1    0    0    0  501  0.00000000000E+00  0.00000000000E+00  0.11834809254E+04  0.11834809255E+04  0.50400001928E-02 0.  1.
        1   -1    0    0  501    0  0.00000000000E+00  0.00000000000E+00 -0.15710088936E+04  0.15710088936E+04  0.50400001928E-02 0. -1.
    10030    2    1    2    0    0  0.00000000000E+00  0.00000000000E+00 -0.38752796811E+03  0.27544898190E+04  0.27270930012E+04 0.  0.
        1    1    3    3  502    0  0.28518253855E+03 -0.87865753937E+03 -0.12067808216E+04  0.15197658054E+04  0.50400001928E-02 0. -1.
       -1    1    3    3    0  502 -0.28518253855E+03  0.87865753937E+03  0.81925285351E+03  0.12347240136E+04  0.50400001928E-02 0.  1.
</event>
<event>
 5   0  0.2422083E-06  0.3029363E+04  0.7818609E-02  0.8235396E-01
        1   -1    0    0  501    0  0.00000000000E+00  0.00000000000E+00  0.24112899929E+04  0.24112899929E+04  0.50400001928E-02 0. -1.
       -1   -1    0    0    0  501  0.00000000000E+00  0.00000000000E+00 -0.95146565977E+03  0.95146565979E+03  0.50400001928E-02 0.  1.
    10030    2    1    2    0    0  0.00000000000E+00  0.00000000000E+00  0.14598243331E+04  0.33627556527E+04  0.30293627211E+04 0.  0.
        2    1    3    3  502    0 -0.40347747874E+03  0.11029570555E+04  0.17917128966E+04  0.21423219754E+04  0.25500000920E-02 0. -1.
       -2    1    3    3    0  502  0.40347747874E+03 -0.11029570555E+04 -0.33188856347E+03  0.12204336773E+04  0.25500000920E-02 0.  1.
</event>
<event>
 5   0  0.7217255E-06  0.2991854E+04  0.7818609E-02  0.8246061E-01
        2   -1    0    0  501    0  0.00000000000E+00  0.00000000000E+00  0.15057667527E+04  0.15057667527E+04  0.25500000920E-02 0. -1.
       -2   -1    0    0    0  501  0.00000000000E+00  0.00000000000E+00 -0.14861511856E+04  0.14861511856E+04  0.25500000920E-02 0.  1.
    10030    2    1    2    0    0  0.00000000000E+00  0.00000000000E+00  0.19615567007E+02  0.29919179383E+04  0.29918536360E+04 0.  0.
        1    1    3    3  502    0 -0.88766283970E+03  0.19789694332E+03  0.11975574064E+04  0.15037460752E+04  0.50400001928E-02 0. -1.
       -1    1    3    3    0  502  0.88766283970E+03 -0.19789694332E+03 -0.11779418394E+04  0.14881718631E+04  0.50400001928E-02 0.  1.
</event>
<event>
 5   0  0.7201538E-06  0.2823396E+04  0.7818609E-02  0.8296041E-01
       -2   -1    0    0    0  501  0.00000000000E+00  0.00000000000E+00  0.14044402988E+04  0.14044402988E+04  0.25500000920E-02 0. -1.
        2   -1    0    0  501    0  0.00000000000E+00  0.00000000000E+00 -0.14189933266E+04  0.14189933266E+04  0.25500000920E-02 0.  1.
    10030    2    1    2    0    0  0.00000000000E+00  0.00000000000E+00 -0.14553027862E+02  0.28234336254E+04  0.28233961193E+04 0.  0.
        3    1    3    3  502    0 -0.34312543848E+03  0.48977056338E+03  0.12715215846E+04  0.14051254113E+04  0.10100000352E+00 0. -1.
       -3    1    3    3    0  502  0.34312543848E+03 -0.48977056338E+03 -0.12860746124E+04  0.14183082141E+04  0.10100000352E+00 0.  1.
</event>
<event>
 5   0  0.2672155E-06  0.3038252E+04  0.7818609E-02  0.8232891E-01
        1   -1    0    0  501    0  0.00000000000E+00  0.00000000000E+00  0.16834865971E+04  0.16834865971E+04  0.50400001928E-02 0.  1.
       -1   -1    0    0    0  501  0.00000000000E+00  0.00000000000E+00 -0.13708124387E+04  0.13708124387E+04  0.50400001928E-02 0. -1.
    10030    2    1    2    0    0  0.00000000000E+00  0.00000000000E+00  0.31267415835E+03  0.30542990358E+04  0.30382523711E+04 0.  0.
        5    1    3    3  502    0  0.13205783771E+03  0.63941955117E+03  0.15352322132E+04  0.16683095256E+04  0.46999998093E+01 0.  1.
       -5    1    3    3    0  502 -0.13205783771E+03 -0.63941955117E+03 -0.12225580548E+04  0.13859895102E+04  0.46999998093E+01 0. -1.
</event>
<event>
 5   0  0.7201538E-06  0.3051435E+04  0.7818609E-02  0.8229194E-01
       -2   -1    0    0    0  501  0.00000000000E+00  0.00000000000E+00  0.15065964412E+04  0.15065964412E+04  0.25500000920E-02 0. -1.
        2   -1    0    0  501    0  0.00000000000E+00  0.00000000000E+00 -0.15450814470E+04  0.15450814470E+04  0.25500000920E-02 0.  1.
    10030    2    1    2    0    0  0.00000000000E+00  0.00000000000E+00 -0.38485005855E+02  0.30516778882E+04  0.30514352094E+04 0.  0.
        3    1    3    3  502    0 -0.56546366667E+03  0.96823038091E+03 -0.10540203847E+04  0.15388886283E+04  0.10100000352E+00 0.  1.
       -3    1    3    3    0  502  0.56546366667E+03 -0.96823038091E+03  0.10155353788E+04  0.15127892598E+04  0.10100000352E+00 0. -1.
</event>
<event>
 5   0  0.2504260E-06  0.2981534E+04  0.7818609E-02  0.8249024E-01
        1   -1    0    0  501    0  0.00000000000E+00  0.00000000000E+00  0.19642226959E+04  0.19642226959E+04  0.50400001928E-02 0.  1.
       -1   -1    0    0    0  501  0.00000000000E+00  0.00000000000E+00 -0.11314328729E+04  0.11314328729E+04  0.50400001928E-02 0. -1.
    10030    2    1    2    0    0  0.00000000000E+00  0.00000000000E+00  0.83278982305E+03  0.30956555688E+04  0.29815339192E+04 0.  0.
        4    1    3    3  502    0 -0.34145963846E+03  0.10687006910E+04  0.14356355890E+04  0.18220227795E+04  0.12699999809E+01 0.  1.
       -4    1    3    3    0  502  0.34145963846E+03 -0.10687006910E+04 -0.60284576591E+03  0.12736327893E+04  0.12699999809E+01 0. -1.
</event>
<event>
 5   0  0.2504260E-06  0.3023489E+04  0.7818609E-02  0.8237055E-01
       -1   -1    0    0    0  501  0.00000000000E+00  0.00000000000E+00  0.87388757966E+03  0.87388757968E+03  0.50400001928E-02 0.  1.
        1   -1    0    0  501    0  0.00000000000E+00  0.00000000000E+00 -0.26151784072E+04  0.26151784072E+04  0.50400001928E-02 0. -1.
    10030    2    1    2    0    0  0.00000000000E+00  0.00000000000E+00 -0.17412908276E+04  0.34890659869E+04  0.30234893277E+04 0.  0.
        4    1    3    3  502    0  0.74723627024E+03 -0.13905532125E+03  0.63736019873E+03  0.99193148037E+03  0.12699999809E+01 0.  1.
       -4    1    3    3    0  502 -0.74723627024E+03  0.13905532125E+03 -0.23786510263E+04  0.24971345065E+04  0.12699999809E+01 0. -1.
</event>
<event>
 5   0  0.7201538E-06  0.2999943E+04  0.7818609E-02  0.8243747E-01
        2   -1    0    0  501    0  0.00000000000E+00  0.00000000000E+00  0.13307974643E+04  0.13307974643E+04  0.25500000920E-02 0.  1.
       -2   -1    0    0    0  501  0.00000000000E+00  0.00000000000E+00 -0.16906508869E+04  0.16906508869E+04  0.25500000920E-02 0. -1.
    10030    2    1    2    0    0  0.00000000000E+00  0.00000000000E+00 -0.35985342262E+03  0.30214483512E+04  0.29999426083E+04 0.  0.
        3    1    3    3  502    0  0.14952340407E+04  0.60242825857E+02 -0.28342459793E+03  0.15230507370E+04  0.10100000352E+00 0. -1.
       -3    1    3    3    0  502 -0.14952340407E+04 -0.60242825857E+02 -0.76428824686E+02  0.14983976142E+04  0.10100000352E+00 0.  1.
</event>
<event>
 5   0  0.2552990E-06  0.3009577E+04  0.7818609E-02  0.8241001E-01
        1   -1    0    0  501    0  0.00000000000E+00  0.00000000000E+00  0.11005455728E+04  0.11005455728E+04  0.50400001928E-02 0. -1.
       -1   -1    0    0    0  501  0.00000000000E+00  0.00000000000E+00 -0.20575143612E+04  0.20575143612E+04  0.50400001928E-02 0.  1.
    10030    2    1    2    0    0  0.00000000000E+00  0.00000000000E+00 -0.95696878838E+03  0.31580599341E+04  0.30095769279E+04 0.  0.
        3    1    3    3  502    0  0.10090102841E+04 -0.72272135368E+03  0.41435290579E+03  0.13084786010E+04  0.10100000352E+00 0. -1.
       -3    1    3    3    0  502 -0.10090102841E+04  0.72272135368E+03 -0.13713216942E+04  0.18495813331E+04  0.10100000352E+00 0.  1.
</event>
<event>
 5   0  0.2628425E-06  0.2956170E+04  0.7818609E-02  0.8256359E-01
        1   -1    0    0  501    0  0.00000000000E+00  0.00000000000E+00  0.12775310472E+04  0.12775310472E+04  0.50400001928E-02 0.  1.
       -1   -1    0    0    0  501  0.00000000000E+00  0.00000000000E+00 -0.17101233356E+04  0.17101233356E+04  0.50400001928E-02 0. -1.
    10030    2    1    2    0    0  0.00000000000E+00  0.00000000000E+00 -0.43259228837E+03  0.29876543829E+04  0.29561702629E+04 0.  0.
        1    1    3    3  502    0  0.14073955438E+03 -0.14692594409E+04 -0.29590517181E+03  0.15053540439E+04  0.50400001928E-02 0.  1.
       -1    1    3    3    0  502 -0.14073955438E+03  0.14692594409E+04 -0.13668711656E+03  0.14823003389E+04  0.50400001928E-02 0. -1.
</event>
<event>
 5   0  0.2504260E-06  0.2895207E+04  0.7818609E-02  0.8274305E-01
        1   -1    0    0  501    0  0.00000000000E+00  0.00000000000E+00  0.19844493837E+04  0.19844493837E+04  0.50400001928E-02 0.  1.
       -1   -1    0    0    0  501  0.00000000000E+00  0.00000000000E+00 -0.10559885626E+04  0.10559885626E+04  0.50400001928E-02 0. -1.
    10030    2    1    2    0    0  0.00000000000E+00  0.00000000000E+00  0.92846082113E+03  0.30404379463E+04  0.28952069717E+04 0.  0.
        4    1    3    3  502    0  0.10254367972E+03 -0.80434579593E+03  0.17235793170E+04  0.19047872953E+04  0.12699999809E+01 0.  1.
       -4    1    3    3    0  502 -0.10254367972E+03  0.80434579593E+03 -0.79511849583E+03  0.11356506510E+04  0.12699999809E+01 0. -1.
</event>
<event>
 5   0  0.6792811E-06  0.3027036E+04  0.7818609E-02  0.8236053E-01
       -2   -1    0    0    0  501  0.00000000000E+00  0.00000000000E+00  0.10806429599E+04  0.10806429599E+04  0.25500000920E-02 0.  1.
        2   -1    0    0  501    0  0.00000000000E+00  0.00000000000E+00 -0.21197901690E+04  0.21197901690E+04  0.25500000920E-02 0. -1.
    10030    2    1    2    0    0  0.00000000000E+00  0.00000000000E+00 -0.10391472091E+04  0.32004331289E+04  0.30270357267E+04 0.  0.
        2    1    3    3  502    0  0.29136455479E+03 -0.18997608716E+03  0.10378124078E+04  0.10945495929E+04  0.25500000920E-02 0.  1.
       -2    1    3    3    0  502 -0.29136455479E+03  0.18997608716E+03 -0.20769596168E+04  0.21058835361E+04  0.25500000920E-02 0. -1.
</event>
<event>
 5   0  0.6792811E-06  0.3019485E+04  0.7818609E-02  0.8238189E-01
        2   -1    0    0  501    0  0.00000000000E+00  0.00000000000E+00  0.17269356773E+04  0.17269356773E+04  0.25500000920E-02 0.  1.
       -2   -1    0    0    0  501  0.00000000000E+00  0.00000000000E+00 -0.13198649860E+04  0.13198649860E+04  0.25500000920E-02 0. -1.
    10030    2    1    2    0    0  0.00000000000E+00  0.00000000000E+00  0.40707069127E+03  0.30468006634E+04  0.30194846803E+04 0.  0.
        2    1    3    3  502    0  0.33980830283E+03 -0.10202232689E+04 -0.86576684680E+03  0.13805351985E+04  0.25500000920E-02 0. -1.
       -2    1    3    3    0  502 -0.33980830283E+03  0.10202232689E+04  0.12728375381E+04  0.16662654649E+04  0.25500000920E-02 0.  1.
</event>
<event>
 5   0  0.6792811E-06  0.2931499E+04  0.7818609E-02  0.8263567E-01
       -2   -1    0    0    0  501  0.00000000000E+00  0.00000000000E+00  0.94705557472E+03  0.94705557472E+03  0.25500000920E-02 0. -1.
        2   -1    0    0  501    0  0.00000000000E+00  0.00000000000E+00 -0.22685270343E+04  0.22685270343E+04  0.25500000920E-02 0.  1.
    10030    2    1    2    0    0  0.00000000000E+00  0.00000000000E+00 -0.13214714595E+04  0.32155826090E+04  0.29314987117E+04 0.  0.
        2    1    3    3  502    0  0.44061539734E+03 -0.12207373221E+04  0.86514779270E+02  0.13007022507E+04  0.25500000920E-02 0. -1.
       -2    1    3    3    0  502 -0.44061539734E+03  0.12207373221E+04 -0.14079862388E+04  0.19148803583E+04  0.25500000920E-02 0.  1.
</event>
<event>
 5   0  0.2422083E-06  0.2977509E+04  0.7818609E-02  0.8250183E-01
       -1   -1    0    0    0  501  0.00000000000E+00  0.00000000000E+00  0.10529526822E+04  0.10529526822E+04  0.50400001928E-02 0. -1.
        1   -1    0    0  501    0  0.00000000000E+00  0.00000000000E+00 -0.21049278916E+04  0.21049278916E+04  0.50400001928E-02 0.  1.
    10030    2    1    2    0    0  0.00000000000E+00  0.00000000000E+00 -0.10519752095E+04  0.31578805738E+04  0.29775086695E+04 0.  0.
        2    1    3    3  502    0 -0.60546765130E+03  0.94360871847E+03 -0.15648134489E+04  0.19250012001E+04  0.25500000920E-02 0. -1.
       -2    1    3    3    0  502  0.60546765130E+03 -0.94360871847E+03  0.51283823947E+03  0.12328793737E+04  0.25500000920E-02 0.  1.
</event>
<event>
 5   0  0.2504260E-06  0.2885779E+04  0.7818609E-02  0.8277121E-01
       -1   -1    0    0    0  501  0.00000000000E+00  0.00000000000E+00  0.99345523625E+03  0.99345523627E+03  0.50400001928E-02 0.  1.
        1   -1    0    0  501    0  0.00000000000E+00  0.00000000000E+00 -0.20956449227E+04  0.20956449227E+04  0.50400001928E-02 0. -1.
    10030    2    1    2    0    0  0.00000000000E+00  0.00000000000E+00 -0.11021896865E+04  0.30891001590E+04  0.28857785236E+04 0.  0.
        4    1    3    3  502    0 -0.11303821493E+04  0.32108645733E+03  0.34519589306E+03  0.12247539075E+04  0.12699999809E+01 0.  1.
       -4    1    3    3    0  502  0.11303821493E+04 -0.32108645733E+03 -0.14473855795E+04  0.18643462515E+04  0.12699999809E+01 0. -1.
</event>
<event>
 5   0  0.2552990E-06  0.3046439E+04  0.7818609E-02  0.8230593E-01
       -1   -1    0    0    0  501  0.00000000000E+00  0.00000000000E+00  0.15639024113E+04  0.15639024113E+04  0.50400001928E-02 0. -1.
        1   -1    0    0  501    0  0.00000000000E+00  0.00000000000E+00 -0.14835952711E+04  0.14835952712E+04  0.50400001928E-02 0.  1.
    10030    2    1    2    0    0  0.00000000000E+00  0.00000000000E+00  0.80307140190E+02  0.30474976825E+04  0.30464393787E+04 0.  0.
        3    1    3    3  502    0 -0.15136392562E+03  0.23473859693E+03 -0.14577593321E+04  0.14842760954E+04  0.10100000352E+00 0.  1.
       -3    1    3    3    0  502  0.15136392562E+03 -0.23473859693E+03  0.15380664723E+04  0.15632215871E+04  0.10100000352E+00 0. -1.
</event>
<event>
 5   0  0.6780150E-06  0.2953052E+04  0.7818609E-02  0.8257266E-01
        2   -1    0    0  501    0  0.00000000000E+00  0.00000000000E+00  0.21723084552E+04  0.21723084552E+04  0.25500000920E-02 0.  1.
       -2   -1    0    0    0  501  0.00000000000E+00  0.00000000000E+00 -0.10036002952E+04  0.10036002952E+04  0.25500000920E-02 0. -1.
    10030    2    1    2    0    0  0.00000000000E+00  0.00000000000E+00  0.11687081600E+04  0.31759087504E+04  0.29530522562E+04 0.  0.
        5    1    3    3  502    0  0.12858666672E+03  0.66982410737E+03 -0.82401782851E+03  0.10696851581E+04  0.46999998093E+01 0. -1.
       -5    1    3    3    0  502 -0.12858666672E+03 -0.66982410737E+03  0.19927259885E+04  0.21062235924E+04  0.46999998093E+01 0.  1.
</event>
<event>
 5   0  0.2504260E-06  0.3118151E+04  0.7818609E-02  0.8210774E-01
        1   -1    0    0  501    0  0.00000000000E+00  0.00000000000E+00  0.96178219201E+03  0.96178219202E+03  0.50400001928E-02 0. -1.
       -1   -1    0    0    0  501  0.00000000000E+00  0.00000000000E+00 -0.25273048976E+04  0.25273048976E+04  0.50400001928E-02 0.  1.
    10030    2    1    2    0    0  0.00000000000E+00  0.00000000000E+00 -0.15655227056E+04  0.34890870896E+04  0.31181512755E+04 0.  0.
        4    1    3    3  502    0 -0.14907295364E+03  0.50618382743E+03  0.85882240796E+03  0.10079793420E+04  0.12699999809E+01 0. -1.
       -4    1    3    3    0  502  0.14907295364E+03 -0.50618382743E+03 -0.24243451135E+04  0.24811077476E+04  0.12699999809E+01 0.  1.
</event>
<event>
 5   0  0.6780150E-06  0.3010164E+04  0.7818609E-02  0.8240835E-01
       -2   -1    0    0    0  501  0.00000000000E+00  0.00000000000E+00  0.17719963842E+04  0.17719963842E+04  0.25500000920E-02 0. -1.
        2   -1    0    0  501    0  0.00000000000E+00  0.00000000000E+00 -0.12783723692E+04  0.12783723692E+04  0.25500000920E-02 0.  1.
    10030    2    1    2    0    0  0.00000000000E+00  0.00000000000E+00  0.49362401506E+03  0.30503687534E+04  0.30101635941E+04 0.  0.
        5    1    3    3  502    0 -0.14854336643E+04 -0.23680311664E+03  0.19454561146E+03  0.15167263999E+04  0.46999998093E+01 0.  1.
       -5    1    3    3    0  502  0.14854336643E+04  0.23680311664E+03  0.29907840361E+03  0.15336423535E+04  0.46999998093E+01 0. -1.
</event>
<event>
 5   0  0.2504260E-06  0.3015319E+04  0.7818609E-02  0.8239370E-01
       -1   -1    0    0    0  501  0.00000000000E+00  0.00000000000E+00  0.15032730212E+04  0.15032730212E+04  0.50400001928E-02 0.  1.
        1   -1    0    0  501    0  0.00000000000E+00  0.00000000000E+00 -0.15120585713E+04  0.15120585713E+04  0.50400001928E-02 0. -1.
    10030    2    1    2    0    0  0.00000000000E+00  0.00000000000E+00 -0.87855500462E+01  0.30153315925E+04  0.30153187936E+04 0.  0.
        4    1    3    3  502    0  0.90833757943E+02  0.12335986091E+04  0.85759634998E+03  0.15051542819E+04  0.12699999809E+01 0.  1.
       -4    1    3    3    0  502 -0.90833757943E+02 -0.12335986091E+04 -0.86638190003E+03  0.15101773106E+04  0.12699999809E+01 0. -1.
</event>
<event>
 5   0  0.2298500E-06  0.2983286E+04  0.7818609E-02  0.8248520E-01
        3   -1    0    0  501    0  0.00000000000E+00  0.00000000000E+00  0.26241959857E+04  0.26241959877E+04  0.10100000352E+00 0. -1.
       -3   -1    0    0    0  501  0.00000000000E+00  0.00000000000E+00 -0.84787847735E+03  0.84787848337E+03  0.10100000352E+00 0.  1.
    10030    2    1    2    0    0  0.00000000000E+00  0.00000000000E+00  0.17763175084E+04  0.34720744710E+04  0.29832863158E+04 0.  0.
        2    1    3    3  502    0  0.98224970723E+02 -0.53880832094E+03  0.25029396734E+04  0.25621611113E+04  0.25500000920E-02 0. -1.
       -2    1    3    3    0  502 -0.98224970723E+02  0.53880832094E+03 -0.72662216500E+03  0.90991335976E+03  0.25500000920E-02 0.  1.
</event>
<event>
 5   0  0.2552990E-06  0.3026332E+04  0.7818609E-02  0.8236251E-01
       -1   -1    0    0    0  501  0.00000000000E+00  0.00000000000E+00  0.17695014406E+04  0.17695014406E+04  0.50400001928E-02 0.  1.
        1   -1    0    0  501    0  0.00000000000E+00  0.00000000000E+00 -0.12939640088E+04  0.12939640088E+04  0.50400001928E-02 0. -1.
    10030    2    1    2    0    0  0.00000000000E+00  0.00000000000E+00  0.47553743179E+03  0.30634654494E+04  0.30263318904E+04 0.  0.
        3    1    3    3  502    0 -0.64300404977E+03  0.11427491766E+03 -0.11439552763E+04  0.13172496533E+04  0.10100000352E+00 0. -1.
       -3    1    3    3    0  502  0.64300404977E+03 -0.11427491766E+03  0.16194927081E+04  0.17462157961E+04  0.10100000352E+00 0.  1.
</event>
<event>
 5   0  0.2552990E-06  0.2840730E+04  0.7818609E-02  0.8290734E-01
       -1   -1    0    0    0  501  0.00000000000E+00  0.00000000000E+00  0.67574236060E+03  0.67574236061E+03  0.50400001928E-02 0.  1.
        1   -1    0    0  501    0  0.00000000000E+00  0.00000000000E+00 -0.29855113165E+04  0.29855113165E+04  0.50400001928E-02 0. -1.
    10030    2    1    2    0    0  0.00000000000E+00  0.00000000000E+00 -0.23097689559E+04  0.36612536771E+04  0.28407298109E+04 0.  0.
        3    1    3    3  502    0  0.12381377198E+04 -0.56993710070E+03 -0.16698140338E+04  0.21554795823E+04  0.10100000352E+00 0.  1.
       -3    1    3    3    0  502 -0.12381377198E+04  0.56993710070E+03 -0.63995492207E+03  0.15057740948E+04  0.10100000352E+00 0. -1.
</event>
<event>
 5   0  0.7193153E-06  0.3018094E+04  0.7818609E-02  0.8238583E-01
        2   -1    0    0  501    0  0.00000000000E+00  0.00000000000E+00  0.92489051163E+03  0.92489051163E+03  0.25500000920E-02 0.  1.
       -2   -1    0    0    0  501  0.00000000000E+00  0.00000000000E+00 -0.24621539368E+04  0.24621539368E+04  0.25500000920E-02 0. -1.
    10030    2    1    2    0    0  0.00000000000E+00  0.00000000000E+00 -0.15372634252E+04  0.33870444485E+04  0.30180939776E+04 0.  0.
        4    1    3    3  502    0 -0.10194800514E+04  0.29721575888E+03  0.43460483770E+03  0.11474143804E+04  0.12699999809E+01 0.  1.
       -4    1    3    3    0  502  0.10194800514E+04 -0.29721575888E+03 -0.19718682629E+04  0.22396300681E+04  0.12699999809E+01 0. -1.
</event>
<event>
 5   0  0.6792811E-06  0.3003720E+04  0.7818609E-02  0.8242670E-01
       -2   -1    0    0    0  501  0.00000000000E+00  0.00000000000E+00  0.12552783620E+04  0.12552783620E+04  0.25500000920E-02 0. -1.
        2   -1    0    0  501    0  0.00000000000E+00  0.00000000000E+00 -0.17968786001E+04  0.17968786001E+04  0.25500000920E-02 0.  1.
    10030    2    1    2    0    0  0.00000000000E+00  0.00000000000E+00 -0.54160023806E+03  0.30521569621E+04  0.30037195781E+04 0.  0.
        2    1    3    3  502    0 -0.92729193742E+03  0.95567857651E+03 -0.97654388949E+03  0.16513115536E+04  0.25500000920E-02 0.  1.
       -2    1    3    3    0  502  0.92729193742E+03 -0.95567857651E+03  0.43494365143E+03  0.14008454086E+04  0.25500000920E-02 0. -1.
</event>
<event>
 5   0  0.2552990E-06  0.2912259E+04  0.7818609E-02  0.8269240E-01
        1   -1    0    0  501    0  0.00000000000E+00  0.00000000000E+00  0.14022435487E+04  0.14022435487E+04  0.50400001928E-02 0.  1.
       -1   -1    0    0    0  501  0.00000000000E+00  0.00000000000E+00 -0.15120858032E+04  0.15120858032E+04  0.50400001928E-02 0. -1.
    10030    2    1    2    0    0  0.00000000000E+00  0.00000000000E+00 -0.10984225452E+03  0.29143293520E+04  0.29122586167E+04 0.  0.
        3    1    3    3  502    0  0.13116857597E+04  0.48799064522E+02  0.57593307505E+03  0.14333875254E+04  0.10100000352E+00 0.  1.
       -3    1    3    3    0  502 -0.13116857597E+04 -0.48799064522E+02 -0.68577532956E+03  0.14809418266E+04  0.10100000352E+00 0. -1.
</event>
<event>
 5   0  0.7201538E-06  0.3079836E+04  0.7818609E-02  0.8221294E-01
       -2   -1    0    0    0  501  0.00000000000E+00  0.00000000000E+00  0.13789191927E+04  0.13789191927E+04  0.25500000920E-02 0. -1.
        2   -1    0    0  501    0  0.00000000000E+00  0.00000000000E+00 -0.17197147528E+04  0.17197147528E+04  0.25500000920E-02 0.  1.
    10030    2    1    2    0    0  0.00000000000E+00  0.00000000000E+00 -0.34079556009E+03  0.30986339456E+04  0.30798361507E+04 0.  0.
        3    1    3    3  502    0 -0.15272915451E+04 -0.14779148945E+03 -0.39658972859E+02  0.15349379897E+04  0.10100000352E+00 0. -1.
       -3    1    3    3    0  502  0.15272915451E+04  0.14779148945E+03 -0.30113658723E+03  0.15636959558E+04  0.10100000352E+00 0.  1.
</event>
<event>
 5   0  0.2628425E-06  0.3000442E+04  0.7818609E-02  0.8243605E-01
        1   -1    0    0  501    0  0.00000000000E+00  0.00000000000E+00  0.12590388580E+04  0.12590388580E+04  0.50400001928E-02 0. -1.
       -1   -1    0    0    0  501  0.00000000000E+00  0.00000000000E+00 -0.17876045436E+04  0.17876045436E+04  0.50400001928E-02 0.  1.
    10030    2    1    2    0    0  0.00000000000E+00  0.00000000000E+00 -0.52856568556E+03  0.30466434016E+04  0.30004423562E+04 0.  0.
        1    1    3    3  502    0  0.58765199901E+03 -0.51058684287E+03 -0.15664610202E+04  0.17492380981E+04  0.50400001928E-02 0.  1.
       -1    1    3    3    0  502 -0.58765199901E+03  0.51058684287E+03  0.10378953346E+04  0.12974053035E+04  0.50400001928E-02 0. -1.
</event>
<event>
 5   0  0.2504260E-06  0.2896870E+04  0.7818609E-02  0.8273809E-01
       -1   -1    0    0    0  501  0.00000000000E+00  0.00000000000E+00  0.17207300011E+04  0.17207300011E+04  0.50400001928E-02 0. -1.
        1   -1    0    0  501    0  0.00000000000E+00  0.00000000000E+00 -0.12192287866E+04  0.12192287867E+04  0.50400001928E-02 0.  1.
    10030    2    1    2    0    0  0.00000000000E+00  0.00000000000E+00  0.50150121446E+03  0.29399587878E+04  0.28968697253E+04 0.  0.
        4    1    3    3  502    0  0.51195803296E+03 -0.13431856000E+04  0.43148190681E+03  0.15008087261E+04  0.12699999809E+01 0. -1.
       -4    1    3    3    0  502 -0.51195803296E+03  0.13431856000E+04  0.70019307648E+02  0.14391500616E+04  0.12699999809E+01 0.  1.
</event>
<event>
 5   0  0.2672155E-06  0.2931800E+04  0.7818609E-02  0.8263478E-01
       -1   -1    0    0    0  501  0.00000000000E+00  0.00000000000E+00  0.10354731013E+04  0.10354731013E+04  0.50400001928E-02 0. -1.
        1   -1    0    0  501    0  0.00000000000E+00  0.00000000000E+00 -0.20752478075E+04  0.20752478075E+04  0.50400001928E-02 0.  1.
    10030    2    1    2    0    0  0.00000000000E+00  0.00000000000E+00 -0.10397747062E+04  0.31107209088E+04  0.29318003228E+04 0.  0.
        5    1    3    3  502    0  0.88193329759E+03 -0.59377255586E+03  0.55089342906E+03  0.11974463870E+04  0.46999998093E+01 0. -1.
       -5    1    3    3    0  502 -0.88193329759E+03  0.59377255586E+03 -0.15906681352E+04  0.19132745218E+04  0.46999998093E+01 0.  1.
</event>
<event>
 5   0  0.7201538E-06  0.2811250E+04  0.7818609E-02  0.8299784E-01
       -2   -1    0    0    0  501  0.00000000000E+00  0.00000000000E+00  0.81732407596E+03  0.81732407596E+03  0.25500000920E-02 0.  1.
        2   -1    0    0  501    0  0.00000000000E+00  0.00000000000E+00 -0.24173782924E+04  0.24173782924E+04  0.25500000920E-02 0. -1.
    10030    2    1    2    0    0  0.00000000000E+00  0.00000000000E+00 -0.16000542164E+04  0.32347023683E+04  0.28112498851E+04 0.  0.
        3    1    3    3  502    0 -0.77835826592E+03 -0.10589897383E+04 -0.22646410420E+03  0.13336367034E+04  0.10100000352E+00 0.  1.
       -3    1    3    3    0  502  0.77835826592E+03  0.10589897383E+04 -0.13735901122E+04  0.19010656650E+04  0.10100000352E+00 0. -1.
</event>
<event>
 5   0  0.2628425E-06  0.3062116E+04  0.7818609E-02  0.8226212E-01
       -1   -1    0    0    0  501  0.00000000000E+00  0.00000000000E+00  0.12899567731E+04  0.12899567731E+04  0.50400001928E-02 0. -1.
        1   -1    0    0  501    0  0.00000000000E+00  0.00000000000E+00 -0.18172223789E+04  0.18172223789E+04  0.50400001928E-02 0.  1.
    10030    2    1    2    0    0  0.00000000000E+00  0.00000000000E+00 -0.52726560588E+03  0.31071791520E+04  0.30621158148E+04 0.  0.
        1    1    3    3  502    0 -0.20227783547E+03  0.14842934764E+04  0.57400871575E+02  0.14991125064E+04  0.50400001928E-02 0. -1.
       -1    1    3    3    0  502  0.20227783547E+03 -0.14842934764E+04 -0.58466647746E+03  0.16080666456E+04  0.50400001928E-02 0.  1.
</event>
<event>
 5   0  0.7217255E-06  0.2964369E+04  0.7818609E-02  0.8253979E-01
       -2   -1    0    0    0  501  0.00000000000E+00  0.00000000000E+00  0.13758883963E+04  0.13758883963E+04  0.25500000920E-02 0. -1.
        2   -1    0    0  501    0  0.00000000000E+00  0.00000000000E+00 -0.15966928052E+04  0.15966928052E+04  0.25500000920E-02 0.  1.
    10030    2    1    2    0    0  0.00000000000E+00  0.00000000000E+00 -0.22080440897E+03  0.29725812015E+04  0.29643691424E+04 0.  0.
        1    1    3    3  502    0 -0.96696787200E+03 -0.39686287465E+03  0.94338676935E+03  0.14080147738E+04  0.50400001928E-02 0. -1.
       -1    1    3    3    0  502  0.96696787200E+03  0.39686287465E+03 -0.11641911783E+04  0.15645664276E+04  0.50400001928E-02 0.  1.
</event>
<event>
 5   0  0.2504260E-06  0.3026521E+04  0.7818609E-02  0.8236198E-01
       -1   -1    0    0    0  501  0.00000000000E+00  0.00000000000E+00  0.14582492414E+04  0.14582492414E+04  0.50400001928E-02 0. -1.
        1   -1    0    0  501    0  0.00000000000E+00  0.00000000000E+00 -0.15703474333E+04  0.15703474333E+04  0.50400001928E-02 0.  1.
    10030    2    1    2    0    0  0.00000000000E+00  0.00000000000E+00 -0.11209819185E+03  0.30285966747E+04  0.30265214047E+04 0.  0.
        4    1    3    3  502    0  0.92730125099E+03 -0.10469864361E+03 -0.12481286822E+04  0.15584210716E+04  0.12699999809E+01 0.  1.
       -4    1    3    3    0  502 -0.92730125099E+03  0.10469864361E+03  0.11360304904E+04  0.14701756031E+04  0.12699999809E+01 0. -1.
</event>
<event>
 5   0  0.2672155E-06  0.3117671E+04  0.7818609E-02  0.8210905E-01
       -1   -1    0    0    0  501  0.00000000000E+00  0.00000000000E+00  0.11730677491E+04  0.11730677491E+04  0.50400001928E-02 0. -1.
        1   -1    0    0  501    0  0.00000000000E+00  0.00000000000E+00 -0.20714641318E+04  0.20714641318E+04  0.50400001928E-02 0.  1.
    10030    2    1    2    0    0  0.00000000000E+00  0.00000000000E+00 -0.89839638273E+03  0.32445318810E+04  0.31176707758E+04 0.  0.
        5    1    3    3  502    0  0.58682044020E+03 -0.96839515399E+03  0.66574971773E+03  0.13135418455E+04  0.46999998093E+01 0. -1.
       -5    1    3    3    0  502 -0.58682044020E+03  0.96839515399E+03 -0.15641461005E+04  0.19309900354E+04  0.46999998093E+01 0.  1.
</event>
<event>
 5   0  0.2422083E-06  0.3007239E+04  0.7818609E-02  0.8241667E-01
        1   -1    0    0  501    0  0.00000000000E+00  0.00000000000E+00  0.14496677336E+04  0.14496677336E+04  0.50400001928E-02 0.  1.
       -1   -1    0    0    0  501  0.00000000000E+00  0.00000000000E+00 -0.15595792727E+04  0.15595792727E+04  0.50400001928E-02 0. -1.
    10030    2    1    2    0    0  0.00000000000E+00  0.00000000000E+00 -0.10991153912E+03  0.30092470063E+04  0.30072390990E+04 0.  0.
        2    1    3    3  502    0  0.13004932652E+04  0.72430506270E+03  0.15724994870E+03  0.14968727745E+04  0.25500000920E-02 0. -1.
       -2    1    3    3    0  502 -0.13004932652E+04 -0.72430506270E+03 -0.26716148782E+03  0.15123742319E+04  0.25500000920E-02 0.  1.
</event>
<event>
 5   0  0.2504260E-06  0.2966396E+04  0.7818609E-02  0.8253392E-01
       -1   -1    0    0    0  501  0.00000000000E+00  0.00000000000E+00  0.13418438457E+04  0.13418438457E+04  0.50400001928E-02 0. -1.
        1   -1    0    0  501    0  0.00000000000E+00  0.00000000000E+00 -0.16394423592E+04  0.16394423592E+04  0.50400001928E-02 0.  1.
    10030    2    1    2    0    0  0.00000000000E+00  0.00000000000E+00 -0.29759851346E+03  0.29812862049E+04  0.29663955502E+04 0.  0.
        4    1    3    3  502    0 -0.97341913632E+03  0.11805938870E+03  0.96961716938E+03  0.13790003271E+04  0.12699999809E+01 0. -1.
       -4    1    3    3    0  502  0.97341913632E+03 -0.11805938870E+03 -0.12672156828E+04  0.16022858777E+04  0.12699999809E+01 0.  1.
</event>
<event>
 5   0  0.2672155E-06  0.3041186E+04  0.7818609E-02  0.8232067E-01
        1   -1    0    0  501    0  0.00000000000E+00  0.00000000000E+00  0.15653217848E+04  0.15653217848E+04  0.50400001928E-02 0. -1.
       -1   -1    0    0    0  501  0.00000000000E+00  0.00000000000E+00 -0.14771419033E+04  0.14771419033E+04  0.50400001928E-02 0.  1.
    10030    2    1    2    0    0  0.00000000000E+00  0.00000000000E+00  0.88179881578E+02  0.30424636881E+04  0.30411855586E+04 0.  0.
        5    1    3    3  502    0 -0.15175531822E+03  0.14628039036E+03  0.15506287668E+04  0.15648959364E+04  0.46999998093E+01 0. -1.
       -5    1    3    3    0  502  0.15175531822E+03 -0.14628039036E+03 -0.14624488852E+04  0.14775677518E+04  0.46999998093E+01 0.  1.
</event>
<event>
 5   0  0.6792811E-06  0.3017987E+04  0.7818609E-02  0.8238613E-01
       -2   -1    0    0    0  501  0.00000000000E+00  0.00000000000E+00  0.12787404758E+04  0.12787404758E+04  0.25500000920E-02 0.  1.
        2   -1    0    0  501    0  0.00000000000E+00  0.00000000000E+00 -0.17807060162E+04  0.17807060162E+04  0.25500000920E-02 0. -1.
    10030    2    1    2    0    0  0.00000000000E+00  0.00000000000E+00 -0.50196554040E+03  0.30594464920E+04  0.30179866523E+04 0.  0.
        2    1    3    3  502    0  0.84393509078E+03 -0.61701615580E+02 -0.15175574474E+04  0.17375310452E+04  0.25500000920E-02 0. -1.
       -2    1    3    3    0  502 -0.84393509078E+03  0.61701615580E+02  0.10155919070E+04  0.13219154468E+04  0.25500000920E-02 0.  1.
</event>
<event>
 5   0  0.2628425E-06  0.3172452E+04  0.7818609E-02  0.8196131E-01
        1   -1    0    0  501    0  0.00000000000E+00  0.00000000000E+00  0.12244414156E+04  0.12244414156E+04  0.50400001928E-02 0.  1.
       -1   -1    0    0    0  501  0.00000000000E+00  0.00000000000E+00 -0.20549064550E+04  0.20549064550E+04  0.50400001928E-02 0. -1.
    10030    2    1    2    0    0  0.00000000000E+00  0.00000000000E+00 -0.83046503939E+03  0.32793478706E+04  0.31724517766E+04 0.  0.
        1    1    3    3  502    0 -0.74251685137E+03 -0.22166188843E+03  0.10154729436E+04  0.12773607817E+04  0.50400001928E-02 0.  1.
       -1    1    3    3    0  502  0.74251685137E+03  0.22166188843E+03 -0.18459379830E+04  0.20019870890E+04  0.50400001928E-02 0. -1.
</event>
<event>
 5   0  0.2628425E-06  0.2991197E+04  0.7818609E-02  0.8246249E-01
        1   -1    0    0  501    0  0.00000000000E+00  0.00000000000E+00  0.20270139252E+04  0.20270139252E+04  0.50400001928E-02 0. -1.
       -1   -1    0    0    0  501  0.00000000000E+00  0.00000000000E+00 -0.11035024675E+04  0.11035024675E+04  0.50400001928E-02 0.  1.
    10030    2    1    2    0    0  0.00000000000E+00  0.00000000000E+00  0.92351145771E+03  0.31305163926E+04  0.29911969965E+04 0.  0.
        1    1    3    3  502    0 -0.66760741841E+03  0.78474369089E+03  0.15963588043E+04  0.18999694096E+04  0.50400001928E-02 0. -1.
       -1    1    3    3    0  502  0.66760741841E+03 -0.78474369089E+03 -0.67284734659E+03  0.12305469830E+04  0.50400001928E-02 0.  1.
</event>
<event>
 5   0  0.2628425E-06  0.2976394E+04  0.7818609E-02  0.8250504E-01
       -1   -1    0    0    0  501  0.00000000000E+00  0.00000000000E+00  0.17137763137E+04  0.17137763137E+04  0.50400001928E-02 0.  1.
        1   -1    0    0  501    0  0.00000000000E+00  0.00000000000E+00 -0.12923102833E+04  0.12923102833E+04  0.50400001928E-02 0. -1.
    10030    2    1    2    0    0  0.00000000000E+00  0.00000000000E+00  0.42146603043E+03  0.30060865970E+04  0.29763942974E+04 0.  0.
        1    1    3    3  502    0  0.41913237586E+03  0.90539321390E+03 -0.90451180911E+03  0.13466812663E+04  0.50400001928E-02 0. -1.
       -1    1    3    3    0  502 -0.41913237586E+03 -0.90539321390E+03  0.13259778395E+04  0.16594053306E+04  0.50400001928E-02 0.  1.
</event>
<event>
 5   0  0.7193153E-06  0.2987666E+04  0.7818609E-02  0.8247262E-01
        2   -1    0    0  501    0  0.00000000000E+00  0.00000000000E+00  0.16150305360E+04  0.16150305361E+04  0.25500000920E-02 0. -1.
       -2   -1    0    0    0  501  0.00000000000E+00  0.00000000000E+00 -0.13817307542E+04  0.13817307542E+04  0.25500000920E-02 0.  1.
    10030    2    1    2    0    0  0.00000000000E+00  0.00000000000E+00  0.23329978181E+03  0.29967612903E+04  0.29876662201E+04 0.  0.
        4    1    3    3  502    0 -0.17491799709E+03 -0.14270357865E+04 -0.29018106294E+03  0.14667085954E+04  0.12699999809E+01 0.  1.
       -4    1    3    3    0  502  0.17491799709E+03  0.14270357865E+04  0.52348084475E+03  0.15300526949E+04  0.12699999809E+01 0. -1.
</event>
<event>
 5   0  0.2552990E-06  0.2583602E+04  0.7818609E-02  0.8373793E-01
        1   -1    0    0  501    0  0.00000000000E+00  0.00000000000E+00  0.90694602880E+03  0.90694602882E+03  0.50400001928E-02 0. -1.
       -1   -1    0    0    0  501  0.00000000000E+00  0.00000000000E+00 -0.18399664519E+04  0.18399664519E+04  0.50400001928E-02 0.  1.
    10030    2    1    2    0    0  0.00000000000E+00  0.00000000000E+00 -0.93302042306E+03  0.27469124807E+04  0.25836023430E+04 0.  0.
        3    1    3    3  502    0  0.88261702227E+03 -0.41348946029E+03  0.43487885418E+03  0.10672890751E+04  0.10100000352E+00 0. -1.
       -3    1    3    3    0  502 -0.88261702227E+03  0.41348946029E+03 -0.13678992772E+04  0.16796234056E+04  0.10100000352E+00 0.  1.
</event>
<event>
 5   0  0.7193153E-06  0.2786036E+04  0.7818609E-02  0.8307617E-01
        2   -1    0    0  501    0  0.00000000000E+00  0.00000000000E+00  0.11493579689E+04  0.11493579689E+04  0.25500000920E-02 0.  1.
       -2   -1    0    0    0  501  0.00000000000E+00  0.00000000000E+00 -0.16883327259E+04  0.16883327259E+04  0.25500000920E-02 0. -1.
    10030    2    1    2    0    0  0.00000000000E+00  0.00000000000E+00 -0.53897475698E+03  0.28376906948E+04  0.27860356585E+04 0.  0.
        4    1    3    3  502    0 -0.10895443273E+04  0.86552508294E+03 -0.33593925177E+03  0.14314668365E+04  0.12699999809E+01 0.  1.
       -4    1    3    3    0  502  0.10895443273E+04 -0.86552508294E+03 -0.20303550521E+03  0.14062238583E+04  0.12699999809E+01 0. -1.
</event>
<event>
 5   0  0.7201538E-06  0.2670451E+04  0.7818609E-02  0.8344657E-01
        2   -1    0    0  501    0  0.00000000000E+00  0.00000000000E+00  0.16289980551E+04  0.16289980551E+04  0.25500000920E-02 0.  1.
       -2   -1    0    0    0  501  0.00000000000E+00  0.00000000000E+00 -0.10944320877E+04  0.10944320877E+04  0.25500000920E-02 0. -1.
    10030    2    1    2    0    0  0.00000000000E+00  0.00000000000E+00  0.53456596740E+03  0.27234301428E+04  0.26704514542E+04 0.  0.
        3    1    3    3  502    0  0.68411626386E+03 -0.10293305716E+04 -0.24800440353E+03  0.12605723631E+04  0.10100000352E+00 0. -1.
       -3    1    3    3    0  502 -0.68411626386E+03  0.10293305716E+04  0.78257037093E+03  0.14628577798E+04  0.10100000352E+00 0.  1.
</event>
<event>
 5   0  0.7217255E-06  0.3060323E+04  0.7818609E-02  0.8226712E-01
       -2   -1    0    0    0  501  0.00000000000E+00  0.00000000000E+00  0.10381796765E+04  0.10381796765E+04  0.25500000920E-02 0. -1.
        2   -1    0    0  501    0  0.00000000000E+00  0.00000000000E+00 -0.22552876181E+04  0.22552876181E+04  0.25500000920E-02 0.  1.
    10030    2    1    2    0    0  0.00000000000E+00  0.00000000000E+00 -0.12171079416E+04  0.32934672946E+04  0.30603227083E+04 0.  0.
        1    1    3    3  502    0 -0.13714991214E+04 -0.23909642764E+03  0.74815313573E+02  0.13941930544E+04  0.50400001928E-02 0. -1.
       -1    1    3    3    0  502  0.13714991214E+04  0.23909642764E+03 -0.12919232552E+04  0.18992742401E+04  0.50400001928E-02 0.  1.
</event>
<event>
 5   0  0.7193153E-06  0.2994333E+04  0.7818609E-02  0.8245351E-01
       -2   -1    0    0    0  501  0.00000000000E+00  0.00000000000E+00  0.10885793112E+04  0.10885793112E+04  0.25500000920E-02 0.  1.
        2   -1    0    0  501    0  0.00000000000E+00  0.00000000000E+00 -0.20591128760E+04  0.20591128760E+04  0.25500000920E-02 0. -1.
    10030    2    1    2    0    0  0.00000000000E+00  0.00000000000E+00 -0.97053356478E+03  0.31476921873E+04  0.29943330986E+04 0.  0.
        4    1    3    3  502    0 -0.58180327704E+03 -0.77377683447E+03  0.71527597653E+03  0.12036805964E+04  0.12699999809E+01 0.  1.
       -4    1    3    3    0  502  0.58180327704E+03  0.77377683447E+03 -0.16858095413E+04  0.19440115908E+04  0.12699999809E+01 0. -1.
</event>
<event>
 5   0  0.2552990E-06  0.2933097E+04  0.7818609E-02  0.8263098E-01
        1   -1    0    0  501    0  0.00000000000E+00  0.00000000000E+00  0.14508255189E+04  0.14508255190E+04  0.50400001928E-02 0.  1.
       -1   -1    0    0    0  501  0.00000000000E+00  0.00000000000E+00 -0.14824422573E+04  0.14824422573E+04  0.50400001928E-02 0. -1.
    10030    2    1    2    0    0  0.00000000000E+00  0.00000000000E+00 -0.31616738376E+02  0.29332677763E+04  0.29330973781E+04 0.  0.
        3    1    3    3  502    0 -0.76018470699E+03  0.75343752061E+03 -0.10184713037E+04  0.14774412655E+04  0.10100000352E+00 0. -1.
       -3    1    3    3    0  502  0.76018470699E+03 -0.75343752061E+03  0.98685456536E+03  0.14558265108E+04  0.10100000352E+00 0.  1.
</event>
<event>
 5   0  0.7201538E-06  0.3057165E+04  0.7818609E-02  0.8227593E-01
       -2   -1    0    0    0  501  0.00000000000E+00  0.00000000000E+00  0.78384827152E+03  0.78384827152E+03  0.25500000920E-02 0.  1.
        2   -1    0    0  501    0  0.00000000000E+00  0.00000000000E+00 -0.29808894586E+04  0.29808894586E+04  0.25500000920E-02 0. -1.
    10030    2    1    2    0    0  0.00000000000E+00  0.00000000000E+00 -0.21970411871E+04  0.37647377301E+04  0.30571653862E+04 0.  0.
        3    1    3    3  502    0  0.57295431293E+03  0.84527328351E+03 -0.24992350568E+04  0.26998035943E+04  0.10100000352E+00 0. -1.
       -3    1    3    3    0  502 -0.57295431293E+03 -0.84527328351E+03  0.30219386971E+03  0.10649341358E+04  0.10100000352E+00 0.  1.
</event>
<event>
 5   0  0.2552990E-06  0.2981862E+04  0.7818609E-02  0.8248929E-01
       -1   -1    0    0    0  501  0.00000000000E+00  0.00000000000E+00  0.10309591658E+04  0.10309591658E+04  0.50400001928E-02 0.  1.
        1   -1    0    0  501    0  0.00000000000E+00  0.00000000000E+00 -0.21561237715E+04  0.21561237715E+04  0.50400001928E-02 0. -1.
    10030    2    1    2    0    0  0.00000000000E+00  0.00000000000E+00 -0.11251646057E+04  0.31870829373E+04  0.29818622134E+04 0.  0.
        3    1    3    3  502    0 -0.13213464285E+03 -0.14831834945E+04 -0.48272246520E+03  0.15653478306E+04  0.10100000352E+00 0.  1.
       -3    1    3    3    0  502  0.13213464285E+03  0.14831834945E+04 -0.64244214049E+03  0.16217351067E+04  0.10100000352E+00 0. -1.
</event>
<event>
 5   0  0.7193153E-06  0.2947330E+04  0.7818609E-02  0.8258933E-01
       -2   -1    0    0    0  501  0.00000000000E+00  0.00000000000E+00  0.20405683974E+04  0.20405683974E+04  0.25500000920E-02 0. -1.
        2   -1    0    0  501    0  0.00000000000E+00  0.00000000000E+00 -0.10642566940E+04  0.10642566940E+04  0.25500000920E-02 0.  1.
    10030    2    1    2    0    0  0.00000000000E+00  0.00000000000E+00  0.97631170340E+03  0.31048250914E+04  0.29473300300E+04 0.  0.
        4    1    3    3  502    0 -0.66483257454E+03  0.63248667314E+01 -0.89728123464E+03  0.11167620978E+04  0.12699999809E+01 0.  1.
       -4    1    3    3    0  502  0.66483257454E+03 -0.63248667314E+01  0.18735929380E+04  0.19880629936E+04  0.12699999809E+01 0. -1.
</event>
<event>
 5   0  0.6792811E-06  0.3156853E+04  0.7818609E-02  0.8200306E-01
       -2   -1    0    0    0  501  0.00000000000E+00  0.00000000000E+00  0.16540951241E+04  0.16540951241E+04  0.25500000920E-02 0. -1.
        2   -1    0    0  501    0  0.00000000000E+00  0.00000000000E+00 -0.15062193817E+04  0.15062193817E+04  0.25500000920E-02 0.  1.
    10030    2    1    2    0    0  0.00000000000E+00  0.00000000000E+00  0.14787574246E+03  0.31603145058E+04  0.31568529488E+04 0.  0.
        2    1    3    3  502    0  0.34589724239E+03 -0.14918223896E+04  0.45678523209E+03  0.15980712414E+04  0.25500000920E-02 0. -1.
       -2    1    3    3    0  502 -0.34589724239E+03  0.14918223896E+04 -0.30890948962E+03  0.15622432644E+04  0.25500000920E-02 0.  1.
</event>
<event>
 5   0  0.7217255E-06  0.2949680E+04  0.7818609E-02  0.8258248E-01
        2   -1    0    0  501    0  0.00000000000E+00  0.00000000000E+00  0.18797645605E+04  0.18797645605E+04  0.25500000920E-02 0. -1.
       -2   -1    0    0    0  501  0.00000000000E+00  0.00000000000E+00 -0.11571411749E+04  0.11571411749E+04  0.25500000920E-02 0.  1.
    10030    2    1    2    0    0  0.00000000000E+00  0.00000000000E+00  0.72262338559E+03  0.30369057354E+04  0.29496799637E+04 0.  0.
        1    1    3    3  502    0  0.91678417704E+02  0.44167707379E+03 -0.10843725984E+04  0.11744562580E+04  0.50400001928E-02 0.  1.
       -1    1    3    3    0  502 -0.91678417704E+02 -0.44167707379E+03  0.18069959840E+04  0.18624494774E+04  0.50400001928E-02 0. -1.
</event>
<event>
 5   0  0.7201538E-06  0.3052542E+04  0.7818609E-02  0.8228884E-01
       -2   -1    0    0    0  501  0.00000000000E+00  0.00000000000E+00  0.20088204842E+04  0.20088204842E+04  0.25500000920E-02 0.  1.
        2   -1    0    0  501    0  0.00000000000E+00  0.00000000000E+00 -0.11596372892E+04  0.11596372892E+04  0.25500000920E-02 0. -1.
    10030    2    1    2    0    0  0.00000000000E+00  0.00000000000E+00  0.84918319497E+03  0.31684577735E+04  0.30525419839E+04 0.  0.
        3    1    3    3  502    0 -0.79610206879E+03  0.12971593440E+04  0.30577983600E+03  0.15523859655E+04  0.10100000352E+00 0.  1.
       -3    1    3    3    0  502  0.79610206879E+03 -0.12971593440E+04  0.54340335897E+03  0.16160718079E+04  0.10100000352E+00 0. -1.
</event>
<event>
 5   0  0.6792811E-06  0.2294253E+04  0.7818609E-02  0.8480191E-01
       -2   -1    0    0    0  501  0.00000000000E+00  0.00000000000E+00  0.68806162284E+03  0.68806162285E+03  0.25500000920E-02 0. -1.
        2   -1    0    0  501    0  0.00000000000E+00  0.00000000000E+00 -0.19124721898E+04  0.19124721898E+04  0.25500000920E-02 0.  1.
    10030    2    1    2    0    0  0.00000000000E+00  0.00000000000E+00 -0.12244105669E+04  0.26005338126E+04  0.22942525742E+04 0.  0.
        2    1    3    3  502    0  0.39977108443E+03  0.60789010317E+03 -0.16174801792E+04  0.17735809617E+04  0.25500000920E-02 0.  1.
       -2    1    3    3    0  502 -0.39977108443E+03 -0.60789010317E+03  0.39306961232E+03  0.82695285091E+03  0.25500000920E-02 0. -1.
</event>
<event>
 5   0  0.2422083E-06  0.2992453E+04  0.7818609E-02  0.8245889E-01
        1   -1    0    0  501    0  0.00000000000E+00  0.00000000000E+00  0.14560580919E+04  0.14560580919E+04  0.50400001928E-02 0.  1.
       -1   -1    0    0    0  501  0.00000000000E+00  0.00000000000E+00 -0.15375035298E+04  0.15375035298E+04  0.50400001928E-02 0. -1.
    10030    2    1    2    0    0  0.00000000000E+00  0.00000000000E+00 -0.81445437895E+02  0.29935616217E+04  0.29924534789E+04 0.  0.
        2    1    3    3  502    0 -0.68743667214E+03 -0.10947299761E+04  0.71300938292E+03  0.14762741205E+04  0.25500000920E-02 0.  1.
       -2    1    3    3    0  502  0.68743667214E+03  0.10947299761E+04 -0.79445482081E+03  0.15172875012E+04  0.25500000920E-02 0. -1.
</event>
<event>
 5   0  0.2422083E-06  0.3022531E+04  0.7818609E-02  0.8237326E-01
        1   -1    0    0  501    0  0.00000000000E+00  0.00000000000E+00  0.19993846028E+04  0.19993846029E+04  0.50400001928E-02 0.  1.
       -1   -1    0    0    0  501  0.00000000000E+00  0.00000000000E+00 -0.11423134205E+04  0.11423134205E+04  0.50400001928E-02 0. -1.
    10030    2    1    2    0    0  0.00000000000E+00  0.00000000000E+00  0.85707118237E+03  0.31416980233E+04  0.30225312998E+04 0.  0.
        2    1    3    3  502    0  0.29352773439E+03 -0.20495629413E+03 -0.10976018966E+04  0.11545109514E+04  0.25500000920E-02 0. -1.
       -2    1    3    3    0  502 -0.29352773439E+03  0.20495629413E+03  0.19546730790E+04  0.19871870720E+04  0.25500000920E-02 0.  1.
</event>
<event>
 5   0  0.2504260E-06  0.2961902E+04  0.7818609E-02  0.8254694E-01
       -1   -1    0    0    0  501  0.00000000000E+00  0.00000000000E+00  0.95173001764E+03  0.95173001765E+03  0.50400001928E-02 0.  1.
        1   -1    0    0  501    0  0.00000000000E+00  0.00000000000E+00 -0.23044520677E+04  0.23044520677E+04  0.50400001928E-02 0. -1.
    10030    2    1    2    0    0  0.00000000000E+00  0.00000000000E+00 -0.13527220501E+04  0.32561820854E+04  0.29619022314E+04 0.  0.
        4    1    3    3  502    0  0.12670113957E+04 -0.48104443681E+03 -0.19968771560E+02  0.13554047335E+04  0.12699999809E+01 0.  1.
       -4    1    3    3    0  502 -0.12670113957E+04  0.48104443681E+03 -0.13327532785E+04  0.19007773518E+04  0.12699999809E+01 0. -1.
</event>
<event>
 5   0  0.2672155E-06  0.3027085E+04  0.7818609E-02  0.8236039E-01
       -1   -1    0    0    0  501  0.00000000000E+00  0.00000000000E+00  0.13313615310E+04  0.13313615311E+04  0.50400001928E-02 0.  1.
        1   -1    0    0  501    0  0.00000000000E+00  0.00000000000E+00 -0.17206522577E+04  0.17206522577E+04  0.50400001928E-02 0. -1.
    10030    2    1    2    0    0  0.00000000000E+00  0.00000000000E+00 -0.38929072662E+03  0.30520137887E+04  0.30270845540E+04 0.  0.
        5    1    3    3  502    0 -0.75616568817E+02  0.69695982028E+03  0.11577878087E+04  0.13535012215E+04  0.46999998093E+01 0.  1.
       -5    1    3    3    0  502  0.75616568817E+02 -0.69695982028E+03 -0.15470785353E+04  0.16985125672E+04  0.46999998093E+01 0. -1.
</event>
<event>
 5   0  0.2672155E-06  0.3035821E+04  0.7818609E-02  0.8233575E-01
        1   -1    0    0  501    0  0.00000000000E+00  0.00000000000E+00  0.25572963507E+04  0.25572963507E+04  0.50400001928E-02 0. -1.
       -1   -1    0    0    0  501  0.00000000000E+00  0.00000000000E+00 -0.90097208386E+03  0.90097208387E+03  0.50400001928E-02 0.  1.
    10030    2    1    2    0    0  0.00000000000E+00  0.00000000000E+00  0.16563242669E+04  0.34582684346E+04  0.30358212215E+04 0.  0.
        5    1    3    3  502    0 -0.13149039973E+04  0.64733346957E+03  0.12781170601E+04  0.19446383860E+04  0.46999998093E+01 0. -1.
       -5    1    3    3    0  502  0.13149039973E+04 -0.64733346957E+03  0.37820720676E+03  0.15136300486E+04  0.46999998093E+01 0.  1.
</event>
<event>
 5   0  0.7201538E-06  0.2950615E+04  0.7818609E-02  0.8257975E-01
       -2   -1    0    0    0  501  0.00000000000E+00  0.00000000000E+00  0.86526674581E+03  0.86526674581E+03  0.25500000920E-02 0. -1.
        2   -1    0    0  501    0  0.00000000000E+00  0.00000000000E+00 -0.25154464026E+04  0.25154464026E+04  0.25500000920E-02 0.  1.
    10030    2    1    2    0    0  0.00000000000E+00  0.00000000000E+00 -0.16501796568E+04  0.33807131485E+04  0.29506149346E+04 0.  0.
        3    1    3    3  502    0 -0.82513499698E+02 -0.68123434065E+01  0.86260279339E+03  0.86656706320E+03  0.10100000352E+00 0. -1.
       -3    1    3    3    0  502  0.82513499698E+02  0.68123434065E+01 -0.25127824502E+04  0.25141460853E+04  0.10100000352E+00 0.  1.
</event>
<event>
 5   0  0.7201538E-06  0.2995424E+04  0.7818609E-02  0.8245039E-01
        2   -1    0    0  501    0  0.00000000000E+00  0.00000000000E+00  0.15773251922E+04  0.15773251922E+04  0.25500000920E-02 0.  1.
       -2   -1    0    0    0  501  0.00000000000E+00  0.00000000000E+00 -0.14221167066E+04  0.14221167066E+04  0.25500000920E-02 0. -1.
    10030    2    1    2    0    0  0.00000000000E+00  0.00000000000E+00  0.15520848565E+03  0.29994418988E+04  0.29954235144E+04 0.  0.
        3    1    3    3  502    0  0.12901194946E+04 -0.56619754748E+03  0.58637296850E+03  0.15260475882E+04  0.10100000352E+00 0.  1.
       -3    1    3    3    0  502 -0.12901194946E+04  0.56619754748E+03 -0.43116448285E+03  0.14733943106E+04  0.10100000352E+00 0. -1.
</event>
<event>
 5   0  0.2298500E-06  0.2921968E+04  0.7818609E-02  0.8266371E-01
        3   -1    0    0  501    0  0.00000000000E+00  0.00000000000E+00  0.24371727147E+04  0.24371727168E+04  0.10100000352E+00 0.  1.
       -3   -1    0    0    0  501  0.00000000000E+00  0.00000000000E+00 -0.87579953718E+03  0.87579954301E+03  0.10100000352E+00 0. -1.
    10030    2    1    2    0    0  0.00000000000E+00  0.00000000000E+00  0.15613731775E+04  0.33129722598E+04  0.29219683425E+04 0.  0.
        2    1    3    3  502    0  0.26307625883E+03  0.72587350415E+03  0.21869709853E+04  0.23192549564E+04  0.25500000920E-02 0.  1.
       -2    1    3    3    0  502 -0.26307625883E+03 -0.72587350415E+03 -0.62559780781E+03  0.99371730342E+03  0.25500000920E-02 0. -1.
</event>
<event>
 5   0  0.7217255E-06  0.3310196E+04  0.7818609E-02  0.8160306E-01
        2   -1    0    0  501    0  0.00000000000E+00  0.00000000000E+00  0.14534083904E+04  0.14534083904E+04  0.25500000920E-02 0.  1.
       -2   -1    0    0    0  501  0.00000000000E+00  0.00000000000E+00 -0.18847759550E+04  0.18847759550E+04  0.25500000920E-02 0. -1.
    10030    2    1    2    0    0  0.00000000000E+00  0.00000000000E+00 -0.43136756455E+03  0.33381843454E+04  0.33101958776E+04 0.  0.
        1    1    3    3  502    0 -0.17848925322E+03  0.16354382575E+04 -0.39841319722E+03  0.16927048719E+04  0.50400001928E-02 0. -1.
       -1    1    3    3    0  502  0.17848925322E+03 -0.16354382575E+04 -0.32954367335E+02  0.16454794735E+04  0.50400001928E-02 0.  1.
</event>
<event>
 5   0  0.2422083E-06  0.2970848E+04  0.7818609E-02  0.8252105E-01
       -1   -1    0    0    0  501  0.00000000000E+00  0.00000000000E+00  0.18135835533E+04  0.18135835533E+04  0.50400001928E-02 0.  1.
        1   -1    0    0  501    0  0.00000000000E+00  0.00000000000E+00 -0.12166429989E+04  0.12166429989E+04  0.50400001928E-02 0. -1.
    10030    2    1    2    0    0  0.00000000000E+00  0.00000000000E+00  0.59694055444E+03  0.30302265522E+04  0.29708475108E+04 0.  0.
        2    1    3    3  502    0  0.12659464413E+04  0.72461713278E+02 -0.49069447692E+03  0.13596514855E+04  0.25500000920E-02 0. -1.
       -2    1    3    3    0  502 -0.12659464413E+04 -0.72461713278E+02  0.10876350314E+04  0.16705750668E+04  0.25500000920E-02 0.  1.
</event>
<event>
 5   0  0.7201538E-06  0.2962513E+04  0.7818609E-02  0.8254517E-01
       -2   -1    0    0    0  501  0.00000000000E+00  0.00000000000E+00  0.12580589854E+04  0.12580589854E+04  0.25500000920E-02 0. -1.
        2   -1    0    0  501    0  0.00000000000E+00  0.00000000000E+00 -0.17440525697E+04  0.17440525697E+04  0.25500000920E-02 0.  1.
    10030    2    1    2    0    0  0.00000000000E+00  0.00000000000E+00 -0.48599358428E+03  0.30021115551E+04  0.29625131266E+04 0.  0.
        3    1    3    3  502    0 -0.50342776775E+03 -0.64816047611E+03 -0.14925929375E+04  0.17033452989E+04  0.10100000352E+00 0.  1.
       -3    1    3    3    0  502  0.50342776775E+03  0.64816047611E+03  0.10065993532E+04  0.12987662562E+04  0.10100000352E+00 0. -1.
</event>
<event>
 5   0  0.7193153E-06  0.3086023E+04  0.7818609E-02  0.8219584E-01
        2   -1    0    0  501    0  0.00000000000E+00  0.00000000000E+00  0.22738456700E+04  0.22738456700E+04  0.25500000920E-02 0.  1.
       -2   -1    0    0    0  501  0.00000000000E+00  0.00000000000E+00 -0.10470737476E+04  0.10470737476E+04  0.25500000920E-02 0. -1.
    10030    2    1    2    0    0  0.00000000000E+00  0.00000000000E+00  0.12267719224E+04  0.33209194177E+04  0.30860227525E+04 0.  0.
        4    1    3    3  502    0 -0.76325638493E+03  0.52812094440E+03  0.19398539349E+04  0.21504666802E+04  0.12699999809E+01 0.  1.
       -4    1    3    3    0  502  0.76325638493E+03 -0.52812094440E+03 -0.71308201251E+03  0.11704527374E+04  0.12699999809E+01 0. -1.
</event>
<event>
 5   0  0.6780150E-06  0.2981266E+04  0.7818609E-02  0.8249101E-01
       -2   -1    0    0    0  501  0.00000000000E+00  0.00000000000E+00  0.12754422103E+04  0.12754422103E+04  0.25500000920E-02 0. -1.
        2   -1    0    0  501    0  0.00000000000E+00  0.00000000000E+00 -0.17421300118E+04  0.17421300118E+04  0.25500000920E-02 0.  1.
    10030    2    1    2    0    0  0.00000000000E+00  0.00000000000E+00 -0.46668780153E+03  0.30175722221E+04  0.29812656056E+04 0.  0.
        5    1    3    3  502    0  0.74500961486E+03 -0.55839359397E+03 -0.14116173573E+04  0.16910140110E+04  0.46999998093E+01 0.  1.
       -5    1    3    3    0  502 -0.74500961486E+03  0.55839359397E+03  0.94492955575E+03  0.13265582111E+04  0.46999998093E+01 0. -1.
</event>
<event>
 5   0  0.2628425E-06  0.3004278E+04  0.7818609E-02  0.8242510E-01
       -1   -1    0    0    0  501  0.00000000000E+00  0.00000000000E+00  0.27451377786E+04  0.27451377786E+04  0.50400001928E-02 0.  1.
        1   -1    0    0  501    0  0.00000000000E+00  0.00000000000E+00 -0.82197025997E+03  0.82197025999E+03  0.50400001928E-02 0. -1.
    10030    2    1    2    0    0  0.00000000000E+00  0.00000000000E+00  0.19231675186E+04  0.35671080386E+04  0.30042780255E+04 0.  0.
        1    1    3    3  502    0 -0.57990500164E+03 -0.34181152859E+03  0.25560294598E+04  0.26431820845E+04  0.50400001928E-02 0.  1.
       -1    1    3    3    0  502  0.57990500164E+03  0.34181152859E+03 -0.63286194123E+03  0.92392595412E+03  0.50400001928E-02 0. -1.
</event>
<event>
 5   0  0.2552990E-06  0.2942023E+04  0.7818609E-02  0.8260483E-01
        1   -1    0    0  501    0  0.00000000000E+00  0.00000000000E+00  0.14746751732E+04  0.14746751732E+04  0.50400001928E-02 0.  1.
       -1   -1    0    0    0  501  0.00000000000E+00  0.00000000000E+00 -0.14673572164E+04  0.14673572164E+04  0.50400001928E-02 0. -1.
    10030    2    1    2    0    0  0.00000000000E+00  0.00000000000E+00  0.73179568233E+01  0.29420323896E+04  0.29420232883E+04 0.  0.
        3    1    3    3  502    0 -0.11648373808E+04 -0.65234652445E+03 -0.61397804723E+03  0.14694798959E+04  0.10100000352E+00 0. -1.
       -3    1    3    3    0  502  0.11648373808E+04  0.65234652445E+03  0.62129600405E+03  0.14725524937E+04  0.10100000352E+00 0.  1.
</event>
<event>
 5   0  0.2504260E-06  0.3006781E+04  0.7818609E-02  0.8241797E-01
        1   -1    0    0  501    0  0.00000000000E+00  0.00000000000E+00  0.18531599473E+04  0.18531599473E+04  0.50400001928E-02 0.  1.
       -1   -1    0    0    0  501  0.00000000000E+00  0.00000000000E+00 -0.12196375269E+04  0.12196375269E+04  0.50400001928E-02 0. -1.
    10030    2    1    2    0    0  0.00000000000E+00  0.00000000000E+00  0.63352242044E+03  0.30727974742E+04  0.30067812791E+04 0.  0.
        4    1    3    3  502    0  0.92057945321E+03  0.11718813638E+04  0.51963768531E+03  0.15782260286E+04  0.12699999809E+01 0. -1.
       -4    1    3    3    0  502 -0.92057945321E+03 -0.11718813638E+04  0.11388473513E+03  0.14945714457E+04  0.12699999809E+01 0.  1.
</event>
<event>
 5   0  0.2672155E-06  0.2970927E+04  0.7818609E-02  0.8252082E-01
        1   -1    0    0  501    0  0.00000000000E+00  0.00000000000E+00  0.19170521959E+04  0.19170521959E+04  0.50400001928E-02 0. -1.
       -1   -1    0    0    0  501  0.00000000000E+00  0.00000000000E+00 -0.11510393208E+04  0.11510393208E+04  0.50400001928E-02 0.  1.
    10030    2    1    2    0    0  0.00000000000E+00  0.00000000000E+00  0.76601287515E+03  0.30680915167E+04  0.29709274360E+04 0.  0.
        5    1    3    3  502    0  0.62037318150E+03  0.51578564480E+03 -0.90505556766E+03  0.12124542821E+04  0.46999998093E+01 0.  1.
       -5    1    3    3    0  502 -0.62037318150E+03 -0.51578564480E+03  0.16710684428E+04  0.18556372346E+04  0.46999998093E+01 0. -1.
</event>
<event>
 5   0  0.7201538E-06  0.3077407E+04  0.7818609E-02  0.8221966E-01
        2   -1    0    0  501    0  0.00000000000E+00  0.00000000000E+00  0.23141885167E+04  0.23141885167E+04  0.25500000920E-02 0. -1.
       -2   -1    0    0    0  501  0.00000000000E+00  0.00000000000E+00 -0.10230838482E+04  0.10230838482E+04  0.25500000920E-02 0.  1.
    10030    2    1    2    0    0  0.00000000000E+00  0.00000000000E+00  0.12911046685E+04  0.33372723649E+04  0.30774072809E+04 0.  0.
        3    1    3    3  502    0  0.37709782996E+03 -0.10193117787E+04  0.18267538693E+04  0.21256126140E+04  0.10100000352E+00 0. -1.
       -3    1    3    3    0  502 -0.37709782996E+03  0.10193117787E+04 -0.53564920084E+03  0.12116597509E+04  0.10100000352E+00 0.  1.
</event>
<event>
 5   0  0.2422083E-06  0.2707672E+04  0.7818609E-02  0.8332520E-01
        1   -1    0    0  501    0  0.00000000000E+00  0.00000000000E+00  0.13859918834E+04  0.13859918834E+04  0.50400001928E-02 0. -1.
       -1   -1    0    0    0  501  0.00000000000E+00  0.00000000000E+00 -0.13224261570E+04  0.13224261570E+04  0.50400001928E-02 0.  1.
    10030    2    1    2    0    0  0.00000000000E+00  0.00000000000E+00  0.63565726414E+02  0.27084180404E+04  0.27076720038E+04 0.  0.
        2    1    3    3  502    0  0.29586818646E+03 -0.28548699276E+03 -0.12584683140E+04  0.13239272276E+04  0.25500000920E-02 0.  1.
       -2    1    3    3    0  502 -0.29586818646E+03  0.28548699276E+03  0.13220340404E+04  0.13844908128E+04  0.25500000920E-02 0. -1.
</event>
<event>
 5   0  0.2504260E-06  0.2985365E+04  0.7818609E-02  0.8247923E-01
       -1   -1    0    0    0  501  0.00000000000E+00  0.00000000000E+00  0.13517494000E+04  0.13517494000E+04  0.50400001928E-02 0. -1.
        1   -1    0    0  501    0  0.00000000000E+00  0.00000000000E+00 -0.16483087048E+04  0.16483087048E+04  0.50400001928E-02 0.  1.
    10030    2    1    2    0    0  0.00000000000E+00  0.00000000000E+00 -0.29655930482E+03  0.30000581048E+04  0.29853645022E+04 0.  0.
        4    1    3    3  502    0  0.13128721449E+04 -0.63862689771E+03 -0.46064892405E+03  0.15309071257E+04  0.12699999809E+01 0.  1.
       -4    1    3    3    0  502 -0.13128721449E+04  0.63862689771E+03  0.16408961923E+03  0.14691509791E+04  0.12699999809E+01 0. -1.
</event>
<event>
 5   0  0.2552990E-06  0.2997178E+04  0.7818609E-02  0.8244537E-01
        1   -1    0    0  501    0  0.00000000000E+00  0.00000000000E+00  0.17221893550E+04  0.17221893550E+04  0.50400001928E-02 0.  1.
       -1   -1    0    0    0  501  0.00000000000E+00  0.00000000000E+00 -0.13040194884E+04  0.13040194885E+04  0.50400001928E-02 0. -1.
    10030    2    1    2    0    0  0.00000000000E+00  0.00000000000E+00  0.41816986658E+03  0.30262088435E+04  0.29971776603E+04 0.  0.
        3    1    3    3  502    0  0.43760855815E+03  0.79989098258E+03 -0.99173786700E+03  0.13471714224E+04  0.10100000352E+00 0. -1.
       -3    1    3    3    0  502 -0.43760855815E+03 -0.79989098258E+03  0.14099077336E+04  0.16790374211E+04  0.10100000352E+00 0.  1.
</event>
<event>
 5   0  0.2504260E-06  0.3000700E+04  0.7818609E-02  0.8243531E-01
        1   -1    0    0  501    0  0.00000000000E+00  0.00000000000E+00  0.17061287480E+04  0.17061287480E+04  0.50400001928E-02 0.  1.
       -1   -1    0    0    0  501  0.00000000000E+00  0.00000000000E+00 -0.13193909482E+04  0.13193909482E+04  0.50400001928E-02 0. -1.
    10030    2    1    2    0    0  0.00000000000E+00  0.00000000000E+00  0.38673779975E+03  0.30255196962E+04  0.30007004693E+04 0.  0.
        4    1    3    3  502    0 -0.26035765419E+03 -0.33110348586E+03 -0.12585533067E+04  0.13271675347E+04  0.12699999809E+01 0. -1.
       -4    1    3    3    0  502  0.26035765419E+03  0.33110348586E+03  0.16452911065E+04  0.16983521615E+04  0.12699999809E+01 0.  1.
</event>
<event>
 5   0  0.6792811E-06  0.2952261E+04  0.7818609E-02  0.8257496E-01
        2   -1    0    0  501    0  0.00000000000E+00  0.00000000000E+00  0.14377028407E+04  0.14377028407E+04  0.25500000920E-02 0. -1.
       -2   -1    0    0    0  501  0.00000000000E+00  0.00000000000E+00 -0.15155857857E+04  0.15155857857E+04  0.25500000920E-02 0.  1.
    10030    2    1    2    0    0  0.00000000000E+00  0.00000000000E+00 -0.77882945007E+02  0.29532886264E+04  0.29522614988E+04 0.  0.
        2    1    3    3  502    0  0.31907177200E+03 -0.70113385903E+03  0.12206894151E+04  0.14434258318E+04  0.25500000920E-02 0. -1.
       -2    1    3    3    0  502 -0.31907177200E+03  0.70113385903E+03 -0.12985723601E+04  0.15098627945E+04  0.25500000920E-02 0.  1.
</event>
<event>
 5   0  0.6780150E-06  0.3077947E+04  0.7818609E-02  0.8221816E-01
        2   -1    0    0  501    0  0.00000000000E+00  0.00000000000E+00  0.18926778799E+04  0.18926778799E+04  0.25500000920E-02 0. -1.
       -2   -1    0    0    0  501  0.00000000000E+00  0.00000000000E+00 -0.12513696262E+04  0.12513696262E+04  0.25500000920E-02 0.  1.
    10030    2    1    2    0    0  0.00000000000E+00  0.00000000000E+00  0.64130825366E+03  0.31440475061E+04  0.30779471153E+04 0.  0.
        5    1    3    3  502    0  0.15028238481E+04  0.49367410751E+02 -0.14260348054E+02  0.15037094491E+04  0.46999998093E+01 0.  1.
       -5    1    3    3    0  502 -0.15028238481E+04 -0.49367410751E+02  0.65556860171E+03  0.16403380570E+04  0.46999998093E+01 0. -1.
</event>
<event>
 5   0  0.7201538E-06  0.2967630E+04  0.7818609E-02  0.8253035E-01
       -2   -1    0    0    0  501  0.00000000000E+00  0.00000000000E+00  0.10982999043E+04  0.10982999043E+04  0.25500000920E-02 0.  1.
        2   -1    0    0  501    0  0.00000000000E+00  0.00000000000E+00 -0.20046498186E+04  0.20046498186E+04  0.25500000920E-02 0. -1.
    10030    2    1    2    0    0  0.00000000000E+00  0.00000000000E+00 -0.90634991433E+03  0.31029497229E+04  0.29676298313E+04 0.  0.
        3    1    3    3  502    0  0.55373797089E+03  0.82441168514E+03 -0.16059095607E+04  0.18881805777E+04  0.10100000352E+00 0. -1.
       -3    1    3    3    0  502 -0.55373797089E+03 -0.82441168514E+03  0.69955964633E+03  0.12147691451E+04  0.10100000352E+00 0.  1.
</event>
<event>
 5   0  0.6780150E-06  0.2757101E+04  0.7818609E-02  0.8316712E-01
       -2   -1    0    0    0  501  0.00000000000E+00  0.00000000000E+00  0.10221105850E+04  0.10221105850E+04  0.25500000920E-02 0.  1.
        2   -1    0    0  501    0  0.00000000000E+00  0.00000000000E+00 -0.18592917661E+04  0.18592917661E+04  0.25500000920E-02 0. -1.
    10030    2    1    2    0    0  0.00000000000E+00  0.00000000000E+00 -0.83718118114E+03  0.28814023511E+04  0.27571012275E+04 0.  0.
        5    1    3    3  502    0 -0.74667261195E+02 -0.29338202645E+03 -0.18241145220E+04  0.18490711432E+04  0.46999998093E+01 0. -1.
       -5    1    3    3    0  502  0.74667261195E+02  0.29338202645E+03  0.98693334088E+03  0.10323312078E+04  0.46999998093E+01 0.  1.
</event>
<event>
 5   0  0.2504260E-06  0.2994152E+04  0.7818609E-02  0.8245403E-01
        1   -1    0    0  501    0  0.00000000000E+00  0.00000000000E+00  0.17576540255E+04  0.17576540255E+04  0.50400001928E-02 0.  1.
       -1   -1    0    0    0  501  0.00000000000E+00  0.00000000000E+00 -0.12751298024E+04  0.12751298024E+04  0.50400001928E-02 0. -1.
    10030    2    1    2    0    0  0.00000000000E+00  0.00000000000E+00  0.48252422311E+03  0.30327838279E+04  0.29941523210E+04 0.  0.
        4    1    3    3  502    0  0.11466582927E+04  0.23361580603E+02 -0.73337122329E+03  0.13613250779E+04  0.12699999809E+01 0. -1.
       -4    1    3    3    0  502 -0.11466582927E+04 -0.23361580603E+02  0.12158954464E+04  0.16714587501E+04  0.12699999809E+01 0.  1.
</event>
<event>
 5   0  0.2672155E-06  0.2921617E+04  0.7818609E-02  0.8266475E-01
        1   -1    0    0  501    0  0.00000000000E+00  0.00000000000E+00  0.15469102399E+04  0.15469102399E+04  0.50400001928E-02 0. -1.
       -1   -1    0    0    0  501  0.00000000000E+00  0.00000000000E+00 -0.13794996922E+04  0.13794996922E+04  0.50400001928E-02 0.  1.
    10030    2    1    2    0    0  0.00000000000E+00  0.00000000000E+00  0.16741054773E+03  0.29264099321E+04  0.29216174970E+04 0.  0.
        5    1    3    3  502    0  0.99893348115E+03  0.71694042882E+03 -0.70630162995E+03  0.14180111991E+04  0.46999998093E+01 0.  1.
       -5    1    3    3    0  502 -0.99893348115E+03 -0.71694042882E+03  0.87371217768E+03  0.15083987330E+04  0.46999998093E+01 0. -1.
</event>
<event>
 5   0  0.2552990E-06  0.2987236E+04  0.7818609E-02  0.8247385E-01
        1   -1    0    0  501    0  0.00000000000E+00  0.00000000000E+00  0.14423853442E+04  0.14423853442E+04  0.50400001928E-02 0.  1.
       -1   -1    0    0    0  501  0.00000000000E+00  0.00000000000E+00 -0.15466704628E+04  0.15466704628E+04  0.50400001928E-02 0. -1.
    10030    2    1    2    0    0  0.00000000000E+00  0.00000000000E+00 -0.10428511856E+03  0.29890558070E+04  0.29872360522E+04 0.  0.
        3    1    3    3  502    0  0.22133624865E+03  0.14736125329E+04  0.49758398533E+02  0.14909726827E+04  0.10100000352E+00 0.  1.
       -3    1    3    3    0  502 -0.22133624865E+03 -0.14736125329E+04 -0.15404351709E+03  0.14980831244E+04  0.10100000352E+00 0. -1.
</event>
<event>
 5   0  0.2672155E-06  0.3012154E+04  0.7818609E-02  0.8240269E-01
        1   -1    0    0  501    0  0.00000000000E+00  0.00000000000E+00  0.29951924570E+04  0.29951924570E+04  0.50400001928E-02 0. -1.
       -1   -1    0    0    0  501  0.00000000000E+00  0.00000000000E+00 -0.75730299963E+03  0.75730299965E+03  0.50400001928E-02 0.  1.
    10030    2    1    2    0    0  0.00000000000E+00  0.00000000000E+00  0.22378894573E+04  0.37524954566E+04  0.30121542007E+04 0.  0.
        5    1    3    3  502    0 -0.15656204498E+03  0.47576668005E+03  0.28883889925E+04  0.29314976838E+04  0.46999998093E+01 0. -1.
       -5    1    3    3    0  502  0.15656204498E+03 -0.47576668005E+03 -0.65049953519E+03  0.82099777286E+03  0.46999998093E+01 0.  1.
</event>
<event>
 5   0  0.6792811E-06  0.2950270E+04  0.7818609E-02  0.8258076E-01
        2   -1    0    0  501    0  0.00000000000E+00  0.00000000000E+00  0.11103851358E+04  0.11103851358E+04  0.25500000920E-02 0. -1.
       -2   -1    0    0    0  501  0.00000000000E+00  0.00000000000E+00 -0.19597018229E+04  0.19597018229E+04  0.25500000920E-02 0.  1.
    10030    2    1    2    0    0  0.00000000000E+00  0.00000000000E+00 -0.84931668704E+03  0.30700869587E+04  0.29502703434E+04 0.  0.
        2    1    3    3  502    0  0.21779677637E+03 -0.10411877798E+03  0.10896906185E+04  0.11161101199E+04  0.25500000920E-02 0. -1.
       -2    1    3    3    0  502 -0.21779677637E+03  0.10411877798E+03 -0.19390073055E+04  0.19539768388E+04  0.25500000920E-02 0.  1.
</event>
<event>
 5   0  0.7201538E-06  0.2972522E+04  0.7818609E-02  0.8251621E-01
       -2   -1    0    0    0  501  0.00000000000E+00  0.00000000000E+00  0.22589433789E+04  0.22589433789E+04  0.25500000920E-02 0. -1.
        2   -1    0    0  501    0  0.00000000000E+00  0.00000000000E+00 -0.97787803711E+03  0.97787803711E+03  0.25500000920E-02 0.  1.
    10030    2    1    2    0    0  0.00000000000E+00  0.00000000000E+00  0.12810653418E+04  0.32368214160E+04  0.29725215675E+04 0.  0.
        3    1    3    3  502    0  0.45927692125E+03 -0.13445190152E+04  0.16550579828E+03  0.14304051357E+04  0.10100000352E+00 0.  1.
       -3    1    3    3    0  502 -0.45927692125E+03  0.13445190152E+04  0.11155595435E+04  0.18064162804E+04  0.10100000352E+00 0. -1.
</event>
<event>
 5   0  0.7201538E-06  0.2967962E+04  0.7818609E-02  0.8252939E-01
       -2   -1    0    0    0  501  0.00000000000E+00  0.00000000000E+00  0.10796451420E+04  0.10796451420E+04  0.25500000920E-02 0. -1.
        2   -1    0    0  501    0  0.00000000000E+00  0.00000000000E+00 -0.20397434003E+04  0.20397434003E+04  0.25500000920E-02 0.  1.
    10030    2    1    2    0    0  0.00000000000E+00  0.00000000000E+00 -0.96009825830E+03  0.31193885424E+04  0.29679616259E+04 0.  0.
        3    1    3    3  502    0  0.93288827621E+03 -0.10410866168E+04  0.43415182266E+02  0.13985802686E+04  0.10100000352E+00 0. -1.
       -3    1    3    3    0  502 -0.93288827621E+03  0.10410866168E+04 -0.10035134406E+04  0.17208082738E+04  0.10100000352E+00 0.  1.
</event>
<event>
 5   0  0.2422083E-06  0.3049291E+04  0.7818609E-02  0.8229794E-01
       -1   -1    0    0    0  501  0.00000000000E+00  0.00000000000E+00  0.84505868129E+03  0.84505868131E+03  0.50400001928E-02 0. -1.
        1   -1    0    0  501    0  0.00000000000E+00  0.00000000000E+00 -0.27507480436E+04  0.27507480436E+04  0.50400001928E-02 0.  1.
    10030    2    1    2    0    0  0.00000000000E+00  0.00000000000E+00 -0.19056893623E+04  0.35958067249E+04  0.30492907466E+04 0.  0.
        2    1    3    3  502    0 -0.37024504348E+03 -0.14196370197E+04 -0.14420362051E+04  0.20571628707E+04  0.25500000920E-02 0.  1.
       -2    1    3    3    0  502  0.37024504348E+03  0.14196370197E+04 -0.46365315720E+03  0.15386438542E+04  0.25500000920E-02 0. -1.
</event>
<event>
 5   0  0.7193153E-06  0.3019092E+04  0.7818609E-02  0.8238300E-01
       -2   -1    0    0    0  501  0.00000000000E+00  0.00000000000E+00  0.25268690667E+04  0.25268690667E+04  0.25500000920E-02 0. -1.
        2   -1    0    0  501    0  0.00000000000E+00  0.00000000000E+00 -0.90179969129E+03  0.90179969129E+03  0.25500000920E-02 0.  1.
    10030    2    1    2    0    0  0.00000000000E+00  0.00000000000E+00  0.16250693754E+04  0.34286687580E+04  0.30190924095E+04 0.  0.
        4    1    3    3  502    0 -0.10781923623E+02  0.13074107632E+04  0.16694058194E+04  0.21204614018E+04  0.12699999809E+01 0. -1.
       -4    1    3    3    0  502  0.10781923623E+02 -0.13074107632E+04 -0.44336443979E+02  0.13082073562E+04  0.12699999809E+01 0.  1.
</event>
<event>
 5   0  0.7201538E-06  0.3000337E+04  0.7818609E-02  0.8243635E-01
       -2   -1    0    0    0  501  0.00000000000E+00  0.00000000000E+00  0.26655510335E+04  0.26655510335E+04  0.25500000920E-02 0.  1.
        2   -1    0    0  501    0  0.00000000000E+00  0.00000000000E+00 -0.84429278827E+03  0.84429278828E+03  0.25500000920E-02 0. -1.
    10030    2    1    2    0    0  0.00000000000E+00  0.00000000000E+00  0.18212582453E+04  0.35098438218E+04  0.30003369907E+04 0.  0.
        3    1    3    3  502    0  0.69353227388E+03 -0.13243057432E+04  0.76389855427E+03  0.16787834070E+04  0.10100000352E+00 0. -1.
       -3    1    3    3    0  502 -0.69353227388E+03  0.13243057432E+04  0.10573596910E+04  0.18310604148E+04  0.10100000352E+00 0.  1.
</event>
<event>
 5   0  0.7201538E-06  0.2979696E+04  0.7818609E-02  0.8249553E-01
        2   -1    0    0  501    0  0.00000000000E+00  0.00000000000E+00  0.22301581880E+04  0.22301581880E+04  0.25500000920E-02 0. -1.
       -2   -1    0    0    0  501  0.00000000000E+00  0.00000000000E+00 -0.99528706686E+03  0.99528706687E+03  0.25500000920E-02 0.  1.
    10030    2    1    2    0    0  0.00000000000E+00  0.00000000000E+00  0.12348711212E+04  0.32254452549E+04  0.29796963614E+04 0.  0.
        3    1    3    3  502    0 -0.10083584751E+04  0.91708765159E+03  0.12685518454E+04  0.18620043957E+04  0.10100000352E+00 0. -1.
       -3    1    3    3    0  502  0.10083584751E+04 -0.91708765159E+03 -0.33680724280E+02  0.13634408591E+04  0.10100000352E+00 0.  1.
</event>
<event>
 5   0  0.7201538E-06  0.3114924E+04  0.7818609E-02  0.8211654E-01
       -2   -1    0    0    0  501  0.00000000000E+00  0.00000000000E+00  0.12340452460E+04  0.12340452460E+04  0.25500000920E-02 0.  1.
        2   -1    0    0  501    0  0.00000000000E+00  0.00000000000E+00 -0.19656395406E+04  0.19656395406E+04  0.25500000920E-02 0. -1.
    10030    2    1    2    0    0  0.00000000000E+00  0.00000000000E+00 -0.73159429462E+03  0.31996847866E+04  0.31149241599E+04 0.  0.
        3    1    3    3  502    0 -0.13160376972E+04 -0.24806031677E+03  0.45094809676E+03  0.14130970729E+04  0.10100000352E+00 0.  1.
       -3    1    3    3    0  502  0.13160376972E+04  0.24806031677E+03 -0.11825423914E+04  0.17865877137E+04  0.10100000352E+00 0. -1.
</event>
<event>
 5   0  0.6780150E-06  0.2606027E+04  0.7818609E-02  0.8366157E-01
       -2   -1    0    0    0  501  0.00000000000E+00  0.00000000000E+00  0.75821952169E+03  0.75821952170E+03  0.25500000920E-02 0. -1.
        2   -1    0    0  501    0  0.00000000000E+00  0.00000000000E+00 -0.22392512341E+04  0.22392512341E+04  0.25500000920E-02 0.  1.
    10030    2    1    2    0    0  0.00000000000E+00  0.00000000000E+00 -0.14810317124E+04  0.29974707558E+04  0.26060268607E+04 0.  0.
        5    1    3    3  502    0  0.35941151912E+03  0.74507268760E+02 -0.21785480409E+04  0.22092581628E+04  0.46999998093E+01 0.  1.
       -5    1    3    3    0  502 -0.35941151912E+03 -0.74507268760E+02  0.69751632854E+03  0.78821259299E+03  0.46999998093E+01 0. -1.
</event>
<event>
 5   0  0.2552990E-06  0.2915056E+04  0.7818609E-02  0.8268412E-01
        1   -1    0    0  501    0  0.00000000000E+00  0.00000000000E+00  0.86138296661E+03  0.86138296663E+03  0.50400001928E-02 0. -1.
       -1   -1    0    0    0  501  0.00000000000E+00  0.00000000000E+00 -0.24662529179E+04  0.24662529179E+04  0.50400001928E-02 0.  1.
    10030    2    1    2    0    0  0.00000000000E+00  0.00000000000E+00 -0.16048699513E+04  0.33276358845E+04  0.29150562635E+04 0.  0.
        3    1    3    3  502    0  0.10856849612E+04 -0.63335411562E+02 -0.19101730419E+04  0.21980637547E+04  0.10100000352E+00 0.  1.
       -3    1    3    3    0  502 -0.10856849612E+04  0.63335411562E+02  0.30530309064E+03  0.11295721299E+04  0.10100000352E+00 0. -1.
</event>
<event>
 5   0  0.2422083E-06  0.2903957E+04  0.7818609E-02  0.8271701E-01
       -1   -1    0    0    0  501  0.00000000000E+00  0.00000000000E+00  0.17502426313E+04  0.17502426314E+04  0.50400001928E-02 0.  1.
        1   -1    0    0  501    0  0.00000000000E+00  0.00000000000E+00 -0.12045424972E+04  0.12045424972E+04  0.50400001928E-02 0. -1.
    10030    2    1    2    0    0  0.00000000000E+00  0.00000000000E+00  0.54570013412E+03  0.29547851286E+04  0.29039570451E+04 0.  0.
        2    1    3    3  502    0  0.10751798207E+04 -0.90288529654E+03  0.64950232311E+03  0.15469540308E+04  0.25500000920E-02 0.  1.
       -2    1    3    3    0  502 -0.10751798207E+04  0.90288529654E+03 -0.10380218899E+03  0.14078310978E+04  0.25500000920E-02 0. -1.
</event>
<event>
 5   0  0.2504260E-06  0.2809548E+04  0.7818609E-02  0.8300310E-01
        1   -1    0    0  501    0  0.00000000000E+00  0.00000000000E+00  0.12237664619E+04  0.12237664619E+04  0.50400001928E-02 0. -1.
       -1   -1    0    0    0  501  0.00000000000E+00  0.00000000000E+00 -0.16125549133E+04  0.16125549133E+04  0.50400001928E-02 0.  1.
    10030    2    1    2    0    0  0.00000000000E+00  0.00000000000E+00 -0.38878845141E+03  0.28363213751E+04  0.28095484483E+04 0.  0.
        4    1    3    3  502    0 -0.11667319661E+03 -0.28995362851E+03 -0.15770083200E+04  0.16076823678E+04  0.12699999809E+01 0.  1.
       -4    1    3    3    0  502  0.11667319661E+03  0.28995362851E+03  0.11882198686E+04  0.12286390074E+04  0.12699999809E+01 0. -1.
</event>
<event>
 5   0  0.7201538E-06  0.2966426E+04  0.7818609E-02  0.8253384E-01
        2   -1    0    0  501    0  0.00000000000E+00  0.00000000000E+00  0.11557092157E+04  0.11557092157E+04  0.25500000920E-02 0. -1.
       -2   -1    0    0    0  501  0.00000000000E+00  0.00000000000E+00 -0.19035244326E+04  0.19035244326E+04  0.25500000920E-02 0.  1.
    10030    2    1    2    0    0  0.00000000000E+00  0.00000000000E+00 -0.74781521689E+03  0.30592336482E+04  0.29664259498E+04 0.  0.
        3    1    3    3  502    0 -0.50776659780E+03  0.39290464475E+03 -0.17527951691E+04  0.18666793760E+04  0.10100000352E+00 0.  1.
       -3    1    3    3    0  502  0.50776659780E+03 -0.39290464475E+03  0.10049799522E+04  0.11925542722E+04  0.10100000352E+00 0. -1.
</event>
<event>
 5   0  0.7201538E-06  0.2996980E+04  0.7818609E-02  0.8244594E-01
        2   -1    0    0  501    0  0.00000000000E+00  0.00000000000E+00  0.17152819659E+04  0.17152819659E+04  0.25500000920E-02 0.  1.
       -2   -1    0    0    0  501  0.00000000000E+00  0.00000000000E+00 -0.13090980664E+04  0.13090980664E+04  0.25500000920E-02 0. -1.
    10030    2    1    2    0    0  0.00000000000E+00  0.00000000000E+00  0.40618389950E+03  0.30243800322E+04  0.29969800164E+04 0.  0.
        3    1    3    3  502    0 -0.35802587174E+03 -0.13282604995E+04 -0.39648974565E+03  0.14316642791E+04  0.10100000352E+00 0. -1.
       -3    1    3    3    0  502  0.35802587174E+03  0.13282604995E+04  0.80267364515E+03  0.15927157531E+04  0.10100000352E+00 0.  1.
</event>
<event>
 5   0  0.7217255E-06  0.2967843E+04  0.7818609E-02  0.8252974E-01
        2   -1    0    0  501    0  0.00000000000E+00  0.00000000000E+00  0.20386514865E+04  0.20386514865E+04  0.25500000920E-02 0.  1.
       -2   -1    0    0    0  501  0.00000000000E+00  0.00000000000E+00 -0.10801369144E+04  0.10801369144E+04  0.25500000920E-02 0. -1.
    10030    2    1    2    0    0  0.00000000000E+00  0.00000000000E+00  0.95851457207E+03  0.31187884009E+04  0.29678428033E+04 0.  0.
        1    1    3    3  502    0  0.17282550248E+03 -0.74844500962E+03  0.18134709944E+04  0.19694455144E+04  0.50400001928E-02 0.  1.
       -1    1    3    3    0  502 -0.17282550248E+03  0.74844500962E+03 -0.85495642231E+03  0.11493428865E+04  0.50400001928E-02 0. -1.
</event>
<event>
 5   0  0.2628425E-06  0.2265447E+04  0.7818609E-02  0.8491671E-01
       -1   -1    0    0    0  501  0.00000000000E+00  0.00000000000E+00  0.70224907515E+03  0.70224907516E+03  0.50400001928E-02 0. -1.
        1   -1    0    0  501    0  0.00000000000E+00  0.00000000000E+00 -0.18270761264E+04  0.18270761264E+04  0.50400001928E-02 0.  1.
    10030    2    1    2    0    0  0.00000000000E+00  0.00000000000E+00 -0.11248270512E+04  0.25293252015E+04  0.22654469934E+04 0.  0.
        1    1    3    3  502    0 -0.10691736708E+03 -0.35202385311E+03  0.63368491815E+03  0.73274053529E+03  0.50400001928E-02 0. -1.
       -1    1    3    3    0  502  0.10691736708E+03  0.35202385311E+03 -0.17585119694E+04  0.17965846662E+04  0.50400001928E-02 0.  1.
</event>
<event>
 5   0  0.6792811E-06  0.2707189E+04  0.7818609E-02  0.8332676E-01
       -2   -1    0    0    0  501  0.00000000000E+00  0.00000000000E+00  0.81261523399E+03  0.81261523400E+03  0.25500000920E-02 0. -1.
        2   -1    0    0  501    0  0.00000000000E+00  0.00000000000E+00 -0.22547173375E+04  0.22547173375E+04  0.25500000920E-02 0.  1.
    10030    2    1    2    0    0  0.00000000000E+00  0.00000000000E+00 -0.14421021035E+04  0.30673325715E+04  0.27071886944E+04 0.  0.
        2    1    3    3  502    0  0.67314353223E+03  0.11708880349E+04 -0.61897337188E+03  0.14856746078E+04  0.25500000920E-02 0.  1.
       -2    1    3    3    0  502 -0.67314353223E+03 -0.11708880349E+04 -0.82312873161E+03  0.15816579637E+04  0.25500000920E-02 0. -1.
</event>
<event>
 5   0  0.7201538E-06  0.2968503E+04  0.7818609E-02  0.8252783E-01
        2   -1    0    0  501    0  0.00000000000E+00  0.00000000000E+00  0.26623810494E+04  0.26623810494E+04  0.25500000920E-02 0. -1.
       -2   -1    0    0    0  501  0.00000000000E+00  0.00000000000E+00 -0.82745551759E+03  0.82745551759E+03  0.25500000920E-02 0.  1.
    10030    2    1    2    0    0  0.00000000000E+00  0.00000000000E+00  0.18349255318E+04  0.34898365670E+04  0.29685025782E+04 0.  0.
        3    1    3    3  502    0 -0.31195784824E+03  0.57880527927E+02 -0.78712166722E+03  0.84866270320E+03  0.10100000352E+00 0.  1.
       -3    1    3    3    0  502  0.31195784824E+03 -0.57880527927E+02  0.26220471990E+04  0.26411738638E+04  0.10100000352E+00 0. -1.
</event>
<event>
 5   0  0.2628425E-06  0.2708423E+04  0.7818609E-02  0.8332277E-01
       -1   -1    0    0    0  501  0.00000000000E+00  0.00000000000E+00  0.17905282652E+04  0.17905282652E+04  0.50400001928E-02 0. -1.
        1   -1    0    0  501    0  0.00000000000E+00  0.00000000000E+00 -0.10242165571E+04  0.10242165572E+04  0.50400001928E-02 0.  1.
    10030    2    1    2    0    0  0.00000000000E+00  0.00000000000E+00  0.76631170805E+03  0.28147448224E+04  0.27084229325E+04 0.  0.
        1    1    3    3  502    0  0.70708299349E+03 -0.35018612485E+03  0.15269476402E+04  0.17187686807E+04  0.50400001928E-02 0. -1.
       -1    1    3    3    0  502 -0.70708299349E+03  0.35018612485E+03 -0.76063593219E+03  0.10959761417E+04  0.50400001928E-02 0.  1.
</event>
<event>
 5   0  0.7193153E-06  0.3107531E+04  0.7818609E-02  0.8213674E-01
       -2   -1    0    0    0  501  0.00000000000E+00  0.00000000000E+00  0.16432200094E+04  0.16432200094E+04  0.25500000920E-02 0.  1.
        2   -1    0    0  501    0  0.00000000000E+00  0.00000000000E+00 -0.14691805819E+04  0.14691805819E+04  0.25500000920E-02 0. -1.
    10030    2    1    2    0    0  0.00000000000E+00  0.00000000000E+00  0.17403942750E+03  0.31124005913E+04  0.31075308073E+04 0.  0.
        4    1    3    3  502    0 -0.10401904931E+04  0.25363114401E+03  0.12147772747E+04  0.16192623195E+04  0.12699999809E+01 0.  1.
       -4    1    3    3    0  502  0.10401904931E+04 -0.25363114401E+03 -0.10407378472E+04  0.14931382718E+04  0.12699999809E+01 0. -1.
</event>
<event>
 5   0  0.2298500E-06  0.2174252E+04  0.7818609E-02  0.8529222E-01
        3   -1    0    0  501    0  0.00000000000E+00  0.00000000000E+00  0.17031805832E+04  0.17031805862E+04  0.10100000352E+00 0.  1.
       -3   -1    0    0    0  501  0.00000000000E+00  0.00000000000E+00 -0.69390336171E+03  0.69390336906E+03  0.10100000352E+00 0. -1.
    10030    2    1    2    0    0  0.00000000000E+00  0.00000000000E+00  0.10092772214E+04  0.23970839552E+04  0.21742518204E+04 0.  0.
        4    1    3    3  502    0 -0.58800103994E+03  0.71027091269E+03  0.11395132192E+04  0.14658519646E+04  0.12699999809E+01 0.  1.
       -4    1    3    3    0  502  0.58800103994E+03 -0.71027091269E+03 -0.13023599776E+03  0.93123199064E+03  0.12699999809E+01 0. -1.
</event>
<event>
 5   0  0.6780150E-06  0.2982743E+04  0.7818609E-02  0.8248676E-01
        2   -1    0    0  501    0  0.00000000000E+00  0.00000000000E+00  0.28984312595E+04  0.28984312595E+04  0.25500000920E-02 0. -1.
       -2   -1    0    0    0  501  0.00000000000E+00  0.00000000000E+00 -0.76737706508E+03  0.76737706508E+03  0.25500000920E-02 0.  1.
    10030    2    1    2    0    0  0.00000000000E+00  0.00000000000E+00  0.21310541944E+04  0.36658083246E+04  0.29827434843E+04 0.  0.
        5    1    3    3  502    0  0.56663112817E+03  0.28975534592E+03 -0.59209962971E+03  0.86927156712E+03  0.46999998093E+01 0.  1.
       -5    1    3    3    0  502 -0.56663112817E+03 -0.28975534592E+03  0.27231538241E+04  0.27965367575E+04  0.46999998093E+01 0. -1.
</event>
<event>
 5   0  0.7193153E-06  0.2802092E+04  0.7818609E-02  0.8302619E-01
       -2   -1    0    0    0  501  0.00000000000E+00  0.00000000000E+00  0.89909275349E+03  0.89909275349E+03  0.25500000920E-02 0. -1.
        2   -1    0    0  501    0  0.00000000000E+00  0.00000000000E+00 -0.21832336298E+04  0.21832336298E+04  0.25500000920E-02 0.  1.
    10030    2    1    2    0    0  0.00000000000E+00  0.00000000000E+00 -0.12841408763E+04  0.30823263833E+04  0.28020917442E+04 0.  0.
        4    1    3    3  502    0 -0.14835078780E+03 -0.88533892718E+03  0.54119116613E+03  0.10481996296E+04  0.12699999809E+01 0. -1.
       -4    1    3    3    0  502  0.14835078780E+03  0.88533892718E+03 -0.18253320424E+04  0.20341267537E+04  0.12699999809E+01 0.  1.
</event>
<event>
 5   0  0.7201538E-06  0.2981863E+04  0.7818609E-02  0.8248929E-01
        2   -1    0    0  501    0  0.00000000000E+00  0.00000000000E+00  0.17511813509E+04  0.17511813509E+04  0.25500000920E-02 0.  1.
       -2   -1    0    0    0  501  0.00000000000E+00  0.00000000000E+00 -0.12693581640E+04  0.12693581640E+04  0.25500000920E-02 0. -1.
    10030    2    1    2    0    0  0.00000000000E+00  0.00000000000E+00  0.48182318684E+03  0.30205395149E+04  0.29818627363E+04 0.  0.
        3    1    3    3  502    0 -0.11371252189E+04 -0.95897215974E+03  0.34319137731E+03  0.15265849790E+04  0.10100000352E+00 0.  1.
       -3    1    3    3    0  502  0.11371252189E+04  0.95897215974E+03  0.13863180953E+03  0.14939545359E+04  0.10100000352E+00 0. -1.
</event>
<event>
 5   0  0.7201538E-06  0.3073741E+04  0.7818609E-02  0.8222982E-01
       -2   -1    0    0    0  501  0.00000000000E+00  0.00000000000E+00  0.12939315470E+04  0.12939315470E+04  0.25500000920E-02 0.  1.
        2   -1    0    0  501    0  0.00000000000E+00  0.00000000000E+00 -0.18254213082E+04  0.18254213082E+04  0.25500000920E-02 0. -1.
    10030    2    1    2    0    0  0.00000000000E+00  0.00000000000E+00 -0.53148976114E+03  0.31193528552E+04  0.30737405338E+04 0.  0.
        3    1    3    3  502    0  0.32289194699E+03  0.23028458432E+02 -0.17904310569E+04  0.18194595074E+04  0.10100000352E+00 0. -1.
       -3    1    3    3    0  502 -0.32289194699E+03 -0.23028458432E+02  0.12589412958E+04  0.12998933478E+04  0.10100000352E+00 0.  1.
</event>
<event>
 5   0  0.7193153E-06  0.2971304E+04  0.7818609E-02  0.8251973E-01
       -2   -1    0    0    0  501  0.00000000000E+00  0.00000000000E+00  0.12372366139E+04  0.12372366139E+04  0.25500000920E-02 0. -1.
        2   -1    0    0  501    0  0.00000000000E+00  0.00000000000E+00 -0.17839451666E+04  0.17839451666E+04  0.25500000920E-02 0.  1.
    10030    2    1    2    0    0  0.00000000000E+00  0.00000000000E+00 -0.54670855269E+03  0.30211817805E+04  0.29713042775E+04 0.  0.
        4    1    3    3  502    0 -0.67560100616E+03 -0.96495022120E+03  0.64715757243E+03  0.13440164379E+04  0.12699999809E+01 0. -1.
       -4    1    3    3    0  502  0.67560100616E+03  0.96495022120E+03 -0.11938661251E+04  0.16771653426E+04  0.12699999809E+01 0.  1.
</event>
<event>
 5   0  0.7201538E-06  0.2991512E+04  0.7818609E-02  0.8246159E-01
       -2   -1    0    0    0  501  0.00000000000E+00  0.00000000000E+00  0.13632539119E+04  0.13632539119E+04  0.25500000920E-02 0.  1.
        2   -1    0    0  501    0  0.00000000000E+00  0.00000000000E+00 -0.16411363786E+04  0.16411363786E+04  0.25500000920E-02 0. -1.
    10030    2    1    2    0    0  0.00000000000E+00  0.00000000000E+00 -0.27788246673E+03  0.30043902905E+04  0.29915117169E+04 0.  0.
        3    1    3    3  502    0  0.41065990720E+03  0.23291231680E+03 -0.15643454949E+04  0.16340338260E+04  0.10100000352E+00 0. -1.
       -3    1    3    3    0  502 -0.41065990720E+03 -0.23291231680E+03  0.12864630282E+04  0.13703564645E+04  0.10100000352E+00 0.  1.
</event>
<event>
 5   0  0.2672155E-06  0.2231748E+04  0.7818609E-02  0.8505329E-01
       -1   -1    0    0    0  501  0.00000000000E+00  0.00000000000E+00  0.74442237985E+03  0.74442237987E+03  0.50400001928E-02 0. -1.
        1   -1    0    0  501    0  0.00000000000E+00  0.00000000000E+00 -0.16726729083E+04  0.16726729083E+04  0.50400001928E-02 0.  1.
    10030    2    1    2    0    0  0.00000000000E+00  0.00000000000E+00 -0.92825052845E+03  0.24170952882E+04  0.22317483255E+04 0.  0.
        5    1    3    3  502    0 -0.53447116360E+03  0.97441037486E+03 -0.57252799782E+03  0.12501781480E+04  0.46999998093E+01 0.  1.
       -5    1    3    3    0  502  0.53447116360E+03 -0.97441037486E+03 -0.35572253063E+03  0.11669171402E+04  0.46999998093E+01 0. -1.
</event>
<event>
 5   0  0.7217255E-06  0.2999084E+04  0.7818609E-02  0.8243993E-01
        2   -1    0    0  501    0  0.00000000000E+00  0.00000000000E+00  0.18086617798E+04  0.18086617798E+04  0.25500000920E-02 0. -1.
       -2   -1    0    0    0  501  0.00000000000E+00  0.00000000000E+00 -0.12432540363E+04  0.12432540363E+04  0.25500000920E-02 0.  1.
    10030    2    1    2    0    0  0.00000000000E+00  0.00000000000E+00  0.56540774350E+03  0.30519158161E+04  0.29990838989E+04 0.  0.
        1    1    3    3  502    0  0.74810264020E+03  0.11337928229E+04  0.92909620399E+03  0.16457106313E+04  0.50400001928E-02 0. -1.
       -1    1    3    3    0  502 -0.74810264020E+03 -0.11337928229E+04 -0.36368846049E+03  0.14062051849E+04  0.50400001928E-02 0.  1.
</event>
<event>
 5   0  0.2552990E-06  0.2965010E+04  0.7818609E-02  0.8253794E-01
        1   -1    0    0  501    0  0.00000000000E+00  0.00000000000E+00  0.18907166900E+04  0.18907166901E+04  0.50400001928E-02 0. -1.
       -1   -1    0    0    0  501  0.00000000000E+00  0.00000000000E+00 -0.11624273798E+04  0.11624273798E+04  0.50400001928E-02 0.  1.
    10030    2    1    2    0    0  0.00000000000E+00  0.00000000000E+00  0.72828931024E+03  0.30531440699E+04  0.29650098469E+04 0.  0.
        3    1    3    3  502    0 -0.12731187531E+04  0.67145387556E+03  0.72986249390E+03  0.16138094487E+04  0.10100000352E+00 0. -1.
       -3    1    3    3    0  502  0.12731187531E+04 -0.67145387556E+03 -0.15731836617E+01  0.14393346212E+04  0.10100000352E+00 0.  1.
</event>
<event>
 5   0  0.7193153E-06  0.3099094E+04  0.7818609E-02  0.8215987E-01
        2   -1    0    0  501    0  0.00000000000E+00  0.00000000000E+00  0.12518420486E+04  0.12518420486E+04  0.25500000920E-02 0. -1.
       -2   -1    0    0    0  501  0.00000000000E+00  0.00000000000E+00 -0.19180502590E+04  0.19180502590E+04  0.25500000920E-02 0.  1.
    10030    2    1    2    0    0  0.00000000000E+00  0.00000000000E+00 -0.66620821042E+03  0.31698923076E+04  0.30990940390E+04 0.  0.
        4    1    3    3  502    0 -0.61448030001E+03  0.10349019115E+04  0.66514546732E+03  0.13751465781E+04  0.12699999809E+01 0. -1.
       -4    1    3    3    0  502  0.61448030001E+03 -0.10349019115E+04 -0.13313536777E+04  0.17947457295E+04  0.12699999809E+01 0.  1.
</event>
<event>
 5   0  0.7193153E-06  0.3023472E+04  0.7818609E-02  0.8237060E-01
        2   -1    0    0  501    0  0.00000000000E+00  0.00000000000E+00  0.18174374806E+04  0.18174374806E+04  0.25500000920E-02 0. -1.
       -2   -1    0    0    0  501  0.00000000000E+00  0.00000000000E+00 -0.12574547886E+04  0.12574547886E+04  0.25500000920E-02 0.  1.
    10030    2    1    2    0    0  0.00000000000E+00  0.00000000000E+00  0.55998269194E+03  0.30748922692E+04  0.30234718209E+04 0.  0.
        4    1    3    3  502    0  0.66190219445E+03  0.83440077307E+03 -0.81110355198E+03  0.13387418534E+04  0.12699999809E+01 0.  1.
       -4    1    3    3    0  502 -0.66190219445E+03 -0.83440077307E+03  0.13710862439E+04  0.17361504158E+04  0.12699999809E+01 0. -1.
</event>
<event>
 5   0  0.7193153E-06  0.3021781E+04  0.7818609E-02  0.8237538E-01
        2   -1    0    0  501    0  0.00000000000E+00  0.00000000000E+00  0.16768223847E+04  0.16768223847E+04  0.25500000920E-02 0. -1.
       -2   -1    0    0    0  501  0.00000000000E+00  0.00000000000E+00 -0.13613787656E+04  0.13613787656E+04  0.25500000920E-02 0.  1.
    10030    2    1    2    0    0  0.00000000000E+00  0.00000000000E+00  0.31544361907E+03  0.30382011503E+04  0.30217811888E+04 0.  0.
        4    1    3    3  502    0  0.97449565413E+02  0.14582714421E+04  0.54286566288E+03  0.15590884380E+04  0.12699999809E+01 0. -1.
       -4    1    3    3    0  502 -0.97449565413E+02 -0.14582714421E+04 -0.22742204382E+03  0.14791127123E+04  0.12699999809E+01 0.  1.
</event>
<event>
 5   0  0.7217255E-06  0.2970065E+04  0.7818609E-02  0.8252331E-01
       -2   -1    0    0    0  501  0.00000000000E+00  0.00000000000E+00  0.94095043341E+03  0.94095043341E+03  0.25500000920E-02 0.  1.
        2   -1    0    0  501    0  0.00000000000E+00  0.00000000000E+00 -0.23437164353E+04  0.23437164353E+04  0.25500000920E-02 0. -1.
    10030    2    1    2    0    0  0.00000000000E+00  0.00000000000E+00 -0.14027660019E+04  0.32846668687E+04  0.29700646428E+04 0.  0.
        1    1    3    3  502    0  0.11962242398E+04  0.69520783351E+03 -0.12980234403E+04  0.18971376374E+04  0.50400001928E-02 0. -1.
       -1    1    3    3    0  502 -0.11962242398E+04 -0.69520783351E+03 -0.10474256159E+03  0.13875292313E+04  0.50400001928E-02 0.  1.
</event>
<event>
 5   0  0.2504260E-06  0.3057711E+04  0.7818609E-02  0.8227441E-01
        1   -1    0    0  501    0  0.00000000000E+00  0.00000000000E+00  0.10005271127E+04  0.10005271127E+04  0.50400001928E-02 0.  1.
       -1   -1    0    0    0  501  0.00000000000E+00  0.00000000000E+00 -0.23361674488E+04  0.23361674488E+04  0.50400001928E-02 0. -1.
    10030    2    1    2    0    0  0.00000000000E+00  0.00000000000E+00 -0.13356403361E+04  0.33366945615E+04  0.30577108250E+04 0.  0.
        4    1    3    3  502    0  0.70563757950E+03  0.12638479545E+04 -0.13082258012E+03  0.14533933419E+04  0.12699999809E+01 0.  1.
       -4    1    3    3    0  502 -0.70563757950E+03 -0.12638479545E+04 -0.12048177560E+04  0.18833012196E+04  0.12699999809E+01 0. -1.
</event>
<event>
 5   0  0.2672155E-06  0.2987153E+04  0.7818609E-02  0.8247409E-01
       -1   -1    0    0    0  501  0.00000000000E+00  0.00000000000E+00  0.10883385253E+04  0.10883385253E+04  0.50400001928E-02 0. -1.
        1   -1    0    0  501    0  0.00000000000E+00  0.00000000000E+00 -0.20497025127E+04  0.20497025127E+04  0.50400001928E-02 0.  1.
    10030    2    1    2    0    0  0.00000000000E+00  0.00000000000E+00 -0.96136398745E+03  0.31380410380E+04  0.29871526308E+04 0.  0.
        5    1    3    3  502    0  0.15475245481E+03  0.36287741239E+03 -0.19939741820E+04  0.20326296926E+04  0.46999998093E+01 0.  1.
       -5    1    3    3    0  502 -0.15475245481E+03 -0.36287741239E+03  0.10326101945E+04  0.11054113454E+04  0.46999998093E+01 0. -1.
</event>
<event>
 5   0  0.7193153E-06  0.2373618E+04  0.7818609E-02  0.8449447E-01
        2   -1    0    0  501    0  0.00000000000E+00  0.00000000000E+00  0.16279003295E+04  0.16279003296E+04  0.25500000920E-02 0.  1.
       -2   -1    0    0    0  501  0.00000000000E+00  0.00000000000E+00 -0.86523473945E+03  0.86523473946E+03  0.25500000920E-02 0. -1.
    10030    2    1    2    0    0  0.00000000000E+00  0.00000000000E+00  0.76266559010E+03  0.24931350690E+04  0.23736182654E+04 0.  0.
        4    1    3    3  502    0 -0.11585113287E+04 -0.16351719546E+03  0.59042393960E+03  0.13105298216E+04  0.12699999809E+01 0.  1.
       -4    1    3    3    0  502  0.11585113287E+04  0.16351719546E+03  0.17224165049E+03  0.11826052474E+04  0.12699999809E+01 0. -1.
</event>
<event>
 5   0  0.7217255E-06  0.2990459E+04  0.7818609E-02  0.8246461E-01
       -2   -1    0    0    0  501  0.00000000000E+00  0.00000000000E+00  0.97686923284E+03  0.97686923284E+03  0.25500000920E-02 0.  1.
        2   -1    0    0  501    0  0.00000000000E+00  0.00000000000E+00 -0.22886500591E+04  0.22886500591E+04  0.25500000920E-02 0. -1.
    10030    2    1    2    0    0  0.00000000000E+00  0.00000000000E+00 -0.13117808262E+04  0.32655192919E+04  0.29904593811E+04 0.  0.
        1    1    3    3  502    0 -0.14269095036E+04 -0.21145522663E+03 -0.10857028711E+04  0.18054181700E+04  0.50400001928E-02 0.  1.
       -1    1    3    3    0  502  0.14269095036E+04  0.21145522663E+03 -0.22607795512E+03  0.14601011219E+04  0.50400001928E-02 0. -1.
</event>
<event>
 5   0  0.6792811E-06  0.2736399E+04  0.7818609E-02  0.8323290E-01
        2   -1    0    0  501    0  0.00000000000E+00  0.00000000000E+00  0.14807261887E+04  0.14807261887E+04  0.25500000920E-02 0.  1.
       -2   -1    0    0    0  501  0.00000000000E+00  0.00000000000E+00 -0.12642245743E+04  0.12642245743E+04  0.25500000920E-02 0. -1.
    10030    2    1    2    0    0  0.00000000000E+00  0.00000000000E+00  0.21650161440E+03  0.27449507629E+04  0.27363994120E+04 0.  0.
        2    1    3    3  502    0 -0.11014719851E+04 -0.49655753514E+03  0.75225435930E+03  0.14232696655E+04  0.25500000920E-02 0.  1.
       -2    1    3    3    0  502  0.11014719851E+04  0.49655753514E+03 -0.53575274490E+03  0.13216810974E+04  0.25500000920E-02 0. -1.
</event>
<event>
 5   0  0.6780150E-06  0.3018989E+04  0.7818609E-02  0.8238329E-01
       -2   -1    0    0    0  501  0.00000000000E+00  0.00000000000E+00  0.12373481145E+04  0.12373481145E+04  0.25500000920E-02 0.  1.
        2   -1    0    0  501    0  0.00000000000E+00  0.00000000000E+00 -0.18414981999E+04  0.18414981999E+04  0.25500000920E-02 0. -1.
    10030    2    1    2    0    0  0.00000000000E+00  0.00000000000E+00 -0.60415008545E+03  0.30788463144E+04  0.30189894504E+04 0.  0.
        5    1    3    3  502    0 -0.12314045031E+04 -0.74211433791E+03  0.16689172047E+03  0.14473996259E+04  0.46999998093E+01 0.  1.
       -5    1    3    3    0  502  0.12314045031E+04  0.74211433791E+03 -0.77104180593E+03  0.16314466885E+04  0.46999998093E+01 0. -1.
</event>
<event>
 5   0  0.6792811E-06  0.3025792E+04  0.7818609E-02  0.8236404E-01
       -2   -1    0    0    0  501  0.00000000000E+00  0.00000000000E+00  0.10371835161E+04  0.10371835162E+04  0.25500000920E-02 0. -1.
        2   -1    0    0  501    0  0.00000000000E+00  0.00000000000E+00 -0.22067977131E+04  0.22067977131E+04  0.25500000920E-02 0.  1.
    10030    2    1    2    0    0  0.00000000000E+00  0.00000000000E+00 -0.11696141969E+04  0.32439812292E+04  0.30257919370E+04 0.  0.
        2    1    3    3  502    0  0.12290164788E+03  0.79257510179E+03 -0.19601088420E+04  0.21178542866E+04  0.25500000920E-02 0.  1.
       -2    1    3    3    0  502 -0.12290164788E+03 -0.79257510179E+03  0.79049464504E+03  0.11261269426E+04  0.25500000920E-02 0. -1.
</event>
<event>
 5   0  0.2552990E-06  0.2953528E+04  0.7818609E-02  0.8257127E-01
       -1   -1    0    0    0  501  0.00000000000E+00  0.00000000000E+00  0.10975889507E+04  0.10975889508E+04  0.50400001928E-02 0.  1.
        1   -1    0    0  501    0  0.00000000000E+00  0.00000000000E+00 -0.19869299703E+04  0.19869299703E+04  0.50400001928E-02 0. -1.
    10030    2    1    2    0    0  0.00000000000E+00  0.00000000000E+00 -0.88934101956E+03  0.30845189211E+04  0.29535283180E+04 0.  0.
        3    1    3    3  502    0  0.10352357198E+03 -0.21321925476E+03 -0.19669355845E+04  0.19811651078E+04  0.10100000352E+00 0. -1.
       -3    1    3    3    0  502 -0.10352357198E+03  0.21321925476E+03  0.10775945650E+04  0.11033538133E+04  0.10100000352E+00 0.  1.
</event>
<event>
 5   0  0.7217255E-06  0.2961900E+04  0.7818609E-02  0.8254695E-01
       -2   -1    0    0    0  501  0.00000000000E+00  0.00000000000E+00  0.12146776963E+04  0.12146776963E+04  0.25500000920E-02 0. -1.
        2   -1    0    0  501    0  0.00000000000E+00  0.00000000000E+00 -0.18055925234E+04  0.18055925234E+04  0.25500000920E-02 0.  1.
    10030    2    1    2    0    0  0.00000000000E+00  0.00000000000E+00 -0.59091482708E+03  0.30202702198E+04  0.29619000435E+04 0.  0.
        1    1    3    3  502    0 -0.81673072243E+03  0.88673030216E+03  0.58165260105E+03  0.13385288380E+04  0.50400001928E-02 0. -1.
       -1    1    3    3    0  502  0.81673072243E+03 -0.88673030216E+03 -0.11725674281E+04  0.16817413818E+04  0.50400001928E-02 0.  1.
</event>
<event>
 5   0  0.2422083E-06  0.3013312E+04  0.7818609E-02  0.8239940E-01
        1   -1    0    0  501    0  0.00000000000E+00  0.00000000000E+00  0.16126532618E+04  0.16126532618E+04  0.50400001928E-02 0.  1.
       -1   -1    0    0    0  501  0.00000000000E+00  0.00000000000E+00 -0.14076257242E+04  0.14076257242E+04  0.50400001928E-02 0. -1.
    10030    2    1    2    0    0  0.00000000000E+00  0.00000000000E+00  0.20502753758E+03  0.30202789860E+04  0.30133119424E+04 0.  0.
        2    1    3    3  502    0 -0.75450641249E+03 -0.17691534298E+03  0.13975666362E+04  0.15980523983E+04  0.25500000920E-02 0.  1.
       -2    1    3    3    0  502  0.75450641249E+03  0.17691534298E+03 -0.11925390986E+04  0.14222265877E+04  0.25500000920E-02 0. -1.
</event>
<event>
 5   0  0.2504260E-06  0.2972298E+04  0.7818609E-02  0.8251686E-01
       -1   -1    0    0    0  501  0.00000000000E+00  0.00000000000E+00  0.12366833408E+04  0.12366833408E+04  0.50400001928E-02 0.  1.
        1   -1    0    0  501    0  0.00000000000E+00  0.00000000000E+00 -0.17859366568E+04  0.17859366568E+04  0.50400001928E-02 0. -1.
    10030    2    1    2    0    0  0.00000000000E+00  0.00000000000E+00 -0.54925331600E+03  0.30226199976E+04  0.29722975028E+04 0.  0.
        4    1    3    3  502    0 -0.10851976296E+03  0.56900983797E+03  0.11171525304E+04  0.12584037999E+04  0.12699999809E+01 0.  1.
       -4    1    3    3    0  502  0.10851976296E+03 -0.56900983797E+03 -0.16664058464E+04  0.17642161977E+04  0.12699999809E+01 0. -1.
</event>
<event>
 5   0  0.7201538E-06  0.2437599E+04  0.7818609E-02  0.8425560E-01
       -2   -1    0    0    0  501  0.00000000000E+00  0.00000000000E+00  0.88791124136E+03  0.88791124136E+03  0.25500000920E-02 0.  1.
        2   -1    0    0  501    0  0.00000000000E+00  0.00000000000E+00 -0.16729961472E+04  0.16729961473E+04  0.25500000920E-02 0. -1.
    10030    2    1    2    0    0  0.00000000000E+00  0.00000000000E+00 -0.78508490589E+03  0.25609073886E+04  0.24375988890E+04 0.  0.
        3    1    3    3  502    0 -0.43606555072E+03  0.54336931271E+03  0.65807968483E+03  0.95836958231E+03  0.10100000352E+00 0.  1.
       -3    1    3    3    0  502  0.43606555072E+03 -0.54336931271E+03 -0.14431645907E+04  0.16025378063E+04  0.10100000352E+00 0. -1.
</event>
<event>
 5   0  0.6780150E-06  0.2951146E+04  0.7818609E-02  0.8257821E-01
       -2   -1    0    0    0  501  0.00000000000E+00  0.00000000000E+00  0.10610184420E+04  0.10610184420E+04  0.25500000920E-02 0. -1.
        2   -1    0    0  501    0  0.00000000000E+00  0.00000000000E+00 -0.20520996078E+04  0.20520996078E+04  0.25500000920E-02 0.  1.
    10030    2    1    2    0    0  0.00000000000E+00  0.00000000000E+00 -0.99108116574E+03  0.31131180498E+04  0.29511458986E+04 0.  0.
        5    1    3    3  502    0  0.95299401276E+03  0.22485222761E+03  0.66891875357E+03  0.11858459012E+04  0.46999998093E+01 0. -1.
       -5    1    3    3    0  502 -0.95299401276E+03 -0.22485222761E+03 -0.16599999193E+04  0.19272721486E+04  0.46999998093E+01 0.  1.
</event>
<event>
 5   0  0.6780150E-06  0.3111252E+04  0.7818609E-02  0.8212657E-01
       -2   -1    0    0    0  501  0.00000000000E+00  0.00000000000E+00  0.18021693118E+04  0.18021693119E+04  0.25500000920E-02 0.  1.
        2   -1    0    0  501    0  0.00000000000E+00  0.00000000000E+00 -0.13428110805E+04  0.13428110806E+04  0.25500000920E-02 0. -1.
    10030    2    1    2    0    0  0.00000000000E+00  0.00000000000E+00  0.45935823130E+03  0.31449803924E+04  0.31112524301E+04 0.  0.
        5    1    3    3  502    0  0.15027276121E+04 -0.40118332669E+03  0.25849238900E+03  0.15766986849E+04  0.46999998093E+01 0. -1.
       -5    1    3    3    0  502 -0.15027276121E+04  0.40118332669E+03  0.20086584230E+03  0.15682817076E+04  0.46999998093E+01 0.  1.
</event>
<event>
 5   0  0.7217255E-06  0.2998731E+04  0.7818609E-02  0.8244093E-01
       -2   -1    0    0    0  501  0.00000000000E+00  0.00000000000E+00  0.80754080479E+03  0.80754080480E+03  0.25500000920E-02 0.  1.
        2   -1    0    0  501    0  0.00000000000E+00  0.00000000000E+00 -0.27838795015E+04  0.27838795015E+04  0.25500000920E-02 0. -1.
    10030    2    1    2    0    0  0.00000000000E+00  0.00000000000E+00 -0.19763386967E+04  0.35914203063E+04  0.29987305935E+04 0.  0.
        1    1    3    3  502    0  0.43284737537E+03 -0.60985217878E+03 -0.25445665264E+04  0.26521868972E+04  0.50400001928E-02 0. -1.
       -1    1    3    3    0  502 -0.43284737537E+03  0.60985217878E+03  0.56822782969E+03  0.93923340911E+03  0.50400001928E-02 0.  1.
</event>
<event>
 5   0  0.2504260E-06  0.3040605E+04  0.7818609E-02  0.8232230E-01
       -1   -1    0    0    0  501  0.00000000000E+00  0.00000000000E+00  0.19657079335E+04  0.19657079335E+04  0.50400001928E-02 0. -1.
        1   -1    0    0  501    0  0.00000000000E+00  0.00000000000E+00 -0.11758206336E+04  0.11758206337E+04  0.50400001928E-02 0.  1.
    10030    2    1    2    0    0  0.00000000000E+00  0.00000000000E+00  0.78988729987E+03  0.31415285672E+04  0.30406051687E+04 0.  0.
        4    1    3    3  502    0 -0.16430045481E+03  0.57311998328E+02 -0.11654973119E+04  0.11784162684E+04  0.12699999809E+01 0.  1.
       -4    1    3    3    0  502  0.16430045481E+03 -0.57311998328E+02  0.19553846118E+04  0.19631122988E+04  0.12699999809E+01 0. -1.
</event>
<event>
 5   0  0.2298500E-06  0.3030262E+04  0.7818609E-02  0.8235142E-01
       -3   -1    0    0    0  501  0.00000000000E+00  0.00000000000E+00  0.14528094278E+04  0.14528094313E+04  0.10100000352E+00 0. -1.
        3   -1    0    0  501    0  0.00000000000E+00  0.00000000000E+00 -0.15801256568E+04  0.15801256601E+04  0.10100000352E+00 0.  1.
    10030    2    1    2    0    0  0.00000000000E+00  0.00000000000E+00 -0.12731622904E+03  0.30329350914E+04  0.30302616795E+04 0.  0.
        4    1    3    3  502    0 -0.69751372770E+03 -0.13446551825E+04 -0.95259512007E+02  0.15177941058E+04  0.12699999809E+01 0.  1.
       -4    1    3    3    0  502  0.69751372770E+03  0.13446551825E+04 -0.32056717036E+02  0.15151409856E+04  0.12699999809E+01 0. -1.
</event>
<event>
 5   0  0.6780150E-06  0.3046685E+04  0.7818609E-02  0.8230524E-01
        2   -1    0    0  501    0  0.00000000000E+00  0.00000000000E+00  0.16377117550E+04  0.16377117550E+04  0.25500000920E-02 0. -1.
       -2   -1    0    0    0  501  0.00000000000E+00  0.00000000000E+00 -0.14169598242E+04  0.14169598242E+04  0.25500000920E-02 0.  1.
    10030    2    1    2    0    0  0.00000000000E+00  0.00000000000E+00  0.22075193087E+03  0.30546715792E+04  0.30466845983E+04 0.  0.
        5    1    3    3  502    0  0.82437932187E+03 -0.51528174585E+03  0.12862390794E+04  0.16123118815E+04  0.46999998093E+01 0. -1.
       -5    1    3    3    0  502 -0.82437932187E+03  0.51528174585E+03 -0.10654871485E+04  0.14423596977E+04  0.46999998093E+01 0.  1.
</event>
<event>
 5   0  0.6792811E-06  0.2961741E+04  0.7818609E-02  0.8254741E-01
       -2   -1    0    0    0  501  0.00000000000E+00  0.00000000000E+00  0.88277511337E+03  0.88277511337E+03  0.25500000920E-02 0. -1.
        2   -1    0    0  501    0  0.00000000000E+00  0.00000000000E+00 -0.24841859404E+04  0.24841859404E+04  0.25500000920E-02 0.  1.
    10030    2    1    2    0    0  0.00000000000E+00  0.00000000000E+00 -0.16014108270E+04  0.33669610537E+04  0.29617410590E+04 0.  0.
        2    1    3    3  502    0  0.44003373167E+03 -0.14028821507E+04 -0.59967972705E+03  0.15878676862E+04  0.25500000920E-02 0. -1.
       -2    1    3    3    0  502 -0.44003373167E+03  0.14028821507E+04 -0.10017310999E+04  0.17790933675E+04  0.25500000920E-02 0.  1.
</event>
<event>
 5   0  0.7201538E-06  0.2963594E+04  0.7818609E-02  0.8254204E-01
        2   -1    0    0  501    0  0.00000000000E+00  0.00000000000E+00  0.10723074604E+04  0.10723074604E+04  0.25500000920E-02 0.  1.
       -2   -1    0    0    0  501  0.00000000000E+00  0.00000000000E+00 -0.20476611271E+04  0.20476611271E+04  0.25500000920E-02 0. -1.
    10030    2    1    2    0    0  0.00000000000E+00  0.00000000000E+00 -0.97535366672E+03  0.31199685875E+04  0.29635939688E+04 0.  0.
        3    1    3    3  502    0 -0.69239565165E+03 -0.56847563444E+03  0.75491883837E+03  0.11715283813E+04  0.10100000352E+00 0.  1.
       -3    1    3    3    0  502  0.69239565165E+03  0.56847563444E+03 -0.17302725051E+04  0.19484402063E+04  0.10100000352E+00 0. -1.
</event>
<event>
 5   0  0.2628425E-06  0.2664841E+04  0.7818609E-02  0.8346504E-01
       -1   -1    0    0    0  501  0.00000000000E+00  0.00000000000E+00  0.13110613521E+04  0.13110613521E+04  0.50400001928E-02 0.  1.
        1   -1    0    0  501    0  0.00000000000E+00  0.00000000000E+00 -0.13541274922E+04  0.13541274923E+04  0.50400001928E-02 0. -1.
    10030    2    1    2    0    0  0.00000000000E+00  0.00000000000E+00 -0.43066140190E+02  0.26651888443E+04  0.26648408740E+04 0.  0.
        1    1    3    3  502    0 -0.60234823376E+03  0.17053299224E+03  0.11548174910E+04  0.13135860587E+04  0.50400001928E-02 0.  1.
       -1    1    3    3    0  502  0.60234823376E+03 -0.17053299224E+03 -0.11978836312E+04  0.13516027856E+04  0.50400001928E-02 0. -1.
</event>
<event>
 5   0  0.7201538E-06  0.2549043E+04  0.7818609E-02  0.8385719E-01
       -2   -1    0    0    0  501  0.00000000000E+00  0.00000000000E+00  0.10248824801E+04  0.10248824801E+04  0.25500000920E-02 0.  1.
        2   -1    0    0  501    0  0.00000000000E+00  0.00000000000E+00 -0.15849666718E+04  0.15849666718E+04  0.25500000920E-02 0. -1.
    10030    2    1    2    0    0  0.00000000000E+00  0.00000000000E+00 -0.56008419168E+03  0.26098491520E+04  0.25490426231E+04 0.  0.
        3    1    3    3  502    0 -0.65933100218E+03 -0.59997980286E+03  0.65257171992E+03  0.11047818763E+04  0.10100000352E+00 0.  1.
       -3    1    3    3    0  502  0.65933100218E+03  0.59997980286E+03 -0.12126559116E+04  0.15050672757E+04  0.10100000352E+00 0. -1.
</event>
<event>
 5   0  0.6780150E-06  0.2997164E+04  0.7818609E-02  0.8244541E-01
       -2   -1    0    0    0  501  0.00000000000E+00  0.00000000000E+00  0.99774542059E+03  0.99774542059E+03  0.25500000920E-02 0.  1.
        2   -1    0    0  501    0  0.00000000000E+00  0.00000000000E+00 -0.22508233836E+04  0.22508233836E+04  0.25500000920E-02 0. -1.
    10030    2    1    2    0    0  0.00000000000E+00  0.00000000000E+00 -0.12530779630E+04  0.32485688042E+04  0.29971644757E+04 0.  0.
        5    1    3    3  502    0 -0.45956318687E+02 -0.14968903994E+04 -0.68524673481E+03  0.16469298797E+04  0.46999998093E+01 0. -1.
       -5    1    3    3    0  502  0.45956318687E+02  0.14968903994E+04 -0.56783122823E+03  0.16016389246E+04  0.46999998093E+01 0.  1.
</event>
<event>
 5   0  0.2628425E-06  0.2994456E+04  0.7818609E-02  0.8245316E-01
        1   -1    0    0  501    0  0.00000000000E+00  0.00000000000E+00  0.19938007664E+04  0.19938007664E+04  0.50400001928E-02 0. -1.
       -1   -1    0    0    0  501  0.00000000000E+00  0.00000000000E+00 -0.11243305201E+04  0.11243305201E+04  0.50400001928E-02 0.  1.
    10030    2    1    2    0    0  0.00000000000E+00  0.00000000000E+00  0.86947024633E+03  0.31181312865E+04  0.29944555784E+04 0.  0.
        1    1    3    3  502    0  0.35112034643E+03 -0.11455299508E+04  0.13696863287E+04  0.18197705913E+04  0.50400001928E-02 0. -1.
       -1    1    3    3    0  502 -0.35112034643E+03  0.11455299508E+04 -0.50021608239E+03  0.12983606952E+04  0.50400001928E-02 0.  1.
</event>
<event>
 5   0  0.2422083E-06  0.2747763E+04  0.7818609E-02  0.8319672E-01
       -1   -1    0    0    0  501  0.00000000000E+00  0.00000000000E+00  0.14754115691E+04  0.14754115691E+04  0.50400001928E-02 0.  1.
        1   -1    0    0  501    0  0.00000000000E+00  0.00000000000E+00 -0.12793384016E+04  0.12793384016E+04  0.50400001928E-02 0. -1.
    10030    2    1    2    0    0  0.00000000000E+00  0.00000000000E+00  0.19607316753E+03  0.27547499707E+04  0.27477632202E+04 0.  0.
        2    1    3    3  502    0 -0.29114138191E+03  0.61432649140E+03  0.12949694329E+04  0.14625683487E+04  0.25500000920E-02 0.  1.
       -2    1    3    3    0  502  0.29114138191E+03 -0.61432649140E+03 -0.10988962654E+04  0.12921816221E+04  0.25500000920E-02 0. -1.
</event>
<event>
 5   0  0.7193153E-06  0.2979055E+04  0.7818609E-02  0.8249737E-01
       -2   -1    0    0    0  501  0.00000000000E+00  0.00000000000E+00  0.10960104676E+04  0.10960104676E+04  0.25500000920E-02 0. -1.
        2   -1    0    0  501    0  0.00000000000E+00  0.00000000000E+00 -0.20243342681E+04  0.20243342681E+04  0.25500000920E-02 0.  1.
    10030    2    1    2    0    0  0.00000000000E+00  0.00000000000E+00 -0.92832380046E+03  0.31203447357E+04  0.29790545801E+04 0.  0.
        4    1    3    3  502    0  0.14101416648E+04  0.45323492547E+03 -0.62900628843E+03  0.16092146955E+04  0.12699999809E+01 0. -1.
       -4    1    3    3    0  502 -0.14101416648E+04 -0.45323492547E+03 -0.29931751203E+03  0.15111300402E+04  0.12699999809E+01 0.  1.
</event>
<event>
 5   0  0.7193153E-06  0.2838975E+04  0.7818609E-02  0.8291269E-01
       -2   -1    0    0    0  501  0.00000000000E+00  0.00000000000E+00  0.14247434950E+04  0.14247434950E+04  0.25500000920E-02 0.  1.
        2   -1    0    0  501    0  0.00000000000E+00  0.00000000000E+00 -0.14142506602E+04  0.14142506602E+04  0.25500000920E-02 0. -1.
    10030    2    1    2    0    0  0.00000000000E+00  0.00000000000E+00  0.10492834795E+02  0.28389941551E+04  0.28389747645E+04 0.  0.
        4    1    3    3  502    0  0.54347680080E+03  0.67876822491E+03  0.11272386971E+04  0.14236439264E+04  0.12699999809E+01 0.  1.
       -4    1    3    3    0  502 -0.54347680080E+03 -0.67876822491E+03 -0.11167458623E+04  0.14153502287E+04  0.12699999809E+01 0. -1.
</event>
<event>
 5   0  0.6792811E-06  0.3040124E+04  0.7818609E-02  0.8232365E-01
       -2   -1    0    0    0  501  0.00000000000E+00  0.00000000000E+00  0.96281165993E+03  0.96281165993E+03  0.25500000920E-02 0.  1.
        2   -1    0    0  501    0  0.00000000000E+00  0.00000000000E+00 -0.23998348872E+04  0.23998348872E+04  0.25500000920E-02 0. -1.
    10030    2    1    2    0    0  0.00000000000E+00  0.00000000000E+00 -0.14370232273E+04  0.33626465472E+04  0.30401243470E+04 0.  0.
        2    1    3    3  502    0 -0.34976582936E+02  0.77721972949E+03  0.72589560541E+03  0.10640574699E+04  0.25500000920E-02 0.  1.
       -2    1    3    3    0  502  0.34976582936E+02 -0.77721972949E+03 -0.21629188327E+04  0.22985890773E+04  0.25500000920E-02 0. -1.
</event>
<event>
 5   0  0.7217255E-06  0.2803976E+04  0.7818609E-02  0.8302035E-01
       -2   -1    0    0    0  501  0.00000000000E+00  0.00000000000E+00  0.10106362449E+04  0.10106362449E+04  0.25500000920E-02 0.  1.
        2   -1    0    0  501    0  0.00000000000E+00  0.00000000000E+00 -0.19448840330E+04  0.19448840330E+04  0.25500000920E-02 0. -1.
    10030    2    1    2    0    0  0.00000000000E+00  0.00000000000E+00 -0.93424778811E+03  0.29555202780E+04  0.28039759599E+04 0.  0.
        1    1    3    3  502    0  0.28034145782E+03 -0.64900980767E+03 -0.17432449237E+04  0.18811453765E+04  0.50400001928E-02 0. -1.
       -1    1    3    3    0  502 -0.28034145782E+03  0.64900980767E+03  0.80899713561E+03  0.10743749015E+04  0.50400001928E-02 0.  1.
</event>
<event>
 5   0  0.7193153E-06  0.2967184E+04  0.7818609E-02  0.8253164E-01
       -2   -1    0    0    0  501  0.00000000000E+00  0.00000000000E+00  0.17503118090E+04  0.17503118090E+04  0.25500000920E-02 0. -1.
        2   -1    0    0  501    0  0.00000000000E+00  0.00000000000E+00 -0.12575160834E+04  0.12575160834E+04  0.25500000920E-02 0.  1.
    10030    2    1    2    0    0  0.00000000000E+00  0.00000000000E+00  0.49279572551E+03  0.30078278924E+04  0.29671840191E+04 0.  0.
        4    1    3    3  502    0  0.60482483992E+03 -0.95604716848E+03  0.12193388381E+04  0.16633183972E+04  0.12699999809E+01 0. -1.
       -4    1    3    3    0  502 -0.60482483992E+03  0.95604716848E+03 -0.72654311262E+03  0.13445094952E+04  0.12699999809E+01 0.  1.
</event>
<event>
 5   0  0.6780150E-06  0.2957861E+04  0.7818609E-02  0.8255867E-01
       -2   -1    0    0    0  501  0.00000000000E+00  0.00000000000E+00  0.14340898471E+04  0.14340898471E+04  0.25500000920E-02 0. -1.
        2   -1    0    0  501    0  0.00000000000E+00  0.00000000000E+00 -0.15251733212E+04  0.15251733212E+04  0.25500000920E-02 0.  1.
    10030    2    1    2    0    0  0.00000000000E+00  0.00000000000E+00 -0.91083474057E+02  0.29592631683E+04  0.29578611023E+04 0.  0.
        5    1    3    3  502    0 -0.13311970378E+04  0.16194117872E+03  0.57837473503E+03  0.14604279931E+04  0.46999998093E+01 0. -1.
       -5    1    3    3    0  502  0.13311970378E+04 -0.16194117872E+03 -0.66945820908E+03  0.14988351753E+04  0.46999998093E+01 0.  1.
</event>
<event>
 5   0  0.2552990E-06  0.3064246E+04  0.7818609E-02  0.8225619E-01
        1   -1    0    0  501    0  0.00000000000E+00  0.00000000000E+00  0.13994085184E+04  0.13994085184E+04  0.50400001928E-02 0.  1.
       -1   -1    0    0    0  501  0.00000000000E+00  0.00000000000E+00 -0.16774236384E+04  0.16774236384E+04  0.50400001928E-02 0. -1.
    10030    2    1    2    0    0  0.00000000000E+00  0.00000000000E+00 -0.27801511994E+03  0.30768321568E+04  0.30642460270E+04 0.  0.
        3    1    3    3  502    0 -0.22891200195E+03 -0.12206129511E+04 -0.10399690543E+04  0.16198247823E+04  0.10100000352E+00 0. -1.
       -3    1    3    3    0  502  0.22891200195E+03  0.12206129511E+04  0.76195393435E+03  0.14570073745E+04  0.10100000352E+00 0.  1.
</event>
<event>
 5   0  0.2552990E-06  0.2955003E+04  0.7818609E-02  0.8256698E-01
       -1   -1    0    0    0  501  0.00000000000E+00  0.00000000000E+00  0.14189775770E+04  0.14189775770E+04  0.50400001928E-02 0. -1.
        1   -1    0    0  501    0  0.00000000000E+00  0.00000000000E+00 -0.15384386611E+04  0.15384386611E+04  0.50400001928E-02 0.  1.
    10030    2    1    2    0    0  0.00000000000E+00  0.00000000000E+00 -0.11946108410E+03  0.29574162381E+04  0.29550025135E+04 0.  0.
        3    1    3    3  502    0 -0.10631542596E+04  0.31510108344E+03 -0.10369625932E+04  0.15181821703E+04  0.10100000352E+00 0.  1.
       -3    1    3    3    0  502  0.10631542596E+04 -0.31510108344E+03  0.91750150906E+03  0.14392340678E+04  0.10100000352E+00 0. -1.
</event>
<event>
 5   0  0.2504260E-06  0.3006040E+04  0.7818609E-02  0.8242008E-01
        1   -1    0    0  501    0  0.00000000000E+00  0.00000000000E+00  0.21549604120E+04  0.21549604120E+04  0.50400001928E-02 0.  1.
       -1   -1    0    0    0  501  0.00000000000E+00  0.00000000000E+00 -0.10483110915E+04  0.10483110915E+04  0.50400001928E-02 0. -1.
    10030    2    1    2    0    0  0.00000000000E+00  0.00000000000E+00  0.11066493205E+04  0.32032715035E+04  0.30060398544E+04 0.  0.
        4    1    3    3  502    0 -0.51276906060E+03 -0.13059871673E+04 -0.21051656788E+02  0.14032032554E+04  0.12699999809E+01 0.  1.
       -4    1    3    3    0  502  0.51276906060E+03  0.13059871673E+04  0.11277009773E+04  0.18000682481E+04  0.12699999809E+01 0. -1.
</event>
<event>
 5   0  0.2628425E-06  0.2964174E+04  0.7818609E-02  0.8254036E-01
       -1   -1    0    0    0  501  0.00000000000E+00  0.00000000000E+00  0.87228345089E+03  0.87228345090E+03  0.50400001928E-02 0. -1.
        1   -1    0    0  501    0  0.00000000000E+00  0.00000000000E+00 -0.25181967280E+04  0.25181967280E+04  0.50400001928E-02 0.  1.
    10030    2    1    2    0    0  0.00000000000E+00  0.00000000000E+00 -0.16459132771E+04  0.33904801789E+04  0.29641736332E+04 0.  0.
        1    1    3    3  502    0  0.21859619301E+03  0.11172269289E+04 -0.19084415439E+04  0.22221902333E+04  0.50400001928E-02 0.  1.
       -1    1    3    3    0  502 -0.21859619301E+03 -0.11172269289E+04  0.26252826683E+03  0.11682899456E+04  0.50400001928E-02 0. -1.
</event>
<event>
 5   0  0.7217255E-06  0.3019887E+04  0.7818609E-02  0.8238075E-01
        2   -1    0    0  501    0  0.00000000000E+00  0.00000000000E+00  0.20578526883E+04  0.20578526883E+04  0.25500000920E-02 0. -1.
       -2   -1    0    0    0  501  0.00000000000E+00  0.00000000000E+00 -0.11079164320E+04  0.11079164320E+04  0.25500000920E-02 0.  1.
    10030    2    1    2    0    0  0.00000000000E+00  0.00000000000E+00  0.94993625627E+03  0.31657691203E+04  0.30198866257E+04 0.  0.
        1    1    3    3  502    0  0.66352196829E+03  0.91565570140E+03  0.15239262223E+04  0.18976400862E+04  0.50400001928E-02 0. -1.
       -1    1    3    3    0  502 -0.66352196829E+03 -0.91565570140E+03 -0.57398996600E+03  0.12681290341E+04  0.50400001928E-02 0.  1.
</event>
<event>
 5   0  0.7193153E-06  0.2948844E+04  0.7818609E-02  0.8258491E-01
        2   -1    0    0  501    0  0.00000000000E+00  0.00000000000E+00  0.26503879603E+04  0.26503879603E+04  0.25500000920E-02 0.  1.
       -2   -1    0    0    0  501  0.00000000000E+00  0.00000000000E+00 -0.82022744955E+03  0.82022744955E+03  0.25500000920E-02 0. -1.
    10030    2    1    2    0    0  0.00000000000E+00  0.00000000000E+00  0.18301605107E+04  0.34706154098E+04  0.29488444903E+04 0.  0.
        4    1    3    3  502    0  0.52948836114E+03 -0.14911393296E+03  0.25250933158E+04  0.25843163034E+04  0.12699999809E+01 0.  1.
       -4    1    3    3    0  502 -0.52948836114E+03  0.14911393296E+03 -0.69493280508E+03  0.88629910643E+03  0.12699999809E+01 0. -1.
</event>
<event>
 5   0  0.6792811E-06  0.2995919E+04  0.7818609E-02  0.8244897E-01
        2   -1    0    0  501    0  0.00000000000E+00  0.00000000000E+00  0.12772417402E+04  0.12772417402E+04  0.25500000920E-02 0. -1.
       -2   -1    0    0    0  501  0.00000000000E+00  0.00000000000E+00 -0.17568188336E+04  0.17568188336E+04  0.25500000920E-02 0.  1.
    10030    2    1    2    0    0  0.00000000000E+00  0.00000000000E+00 -0.47957709334E+03  0.30340605738E+04  0.29959187868E+04 0.  0.
        2    1    3    3  502    0 -0.83889713774E+03 -0.11757247998E+03 -0.14909566892E+04  0.17147954819E+04  0.25500000920E-02 0.  1.
       -2    1    3    3    0  502  0.83889713774E+03  0.11757247998E+03  0.10113795959E+04  0.13192650919E+04  0.25500000920E-02 0. -1.
</event>
<event>
 5   0  0.2672155E-06  0.2953375E+04  0.7818609E-02  0.8257172E-01
        1   -1    0    0  501    0  0.00000000000E+00  0.00000000000E+00  0.26155717179E+04  0.26155717179E+04  0.50400001928E-02 0. -1.
       -1   -1    0    0    0  501  0.00000000000E+00  0.00000000000E+00 -0.83370151030E+03  0.83370151031E+03  0.50400001928E-02 0.  1.
    10030    2    1    2    0    0  0.00000000000E+00  0.00000000000E+00  0.17818702076E+04  0.34492732282E+04  0.29533750805E+04 0.  0.
        5    1    3    3  502    0 -0.10401688598E+04  0.79779943944E+03  0.96972758683E+02  0.13144812697E+04  0.46999998093E+01 0.  1.
       -5    1    3    3    0  502  0.10401688598E+04 -0.79779943944E+03  0.16848974489E+04  0.21347919585E+04  0.46999998093E+01 0. -1.
</event>
<event>
 5   0  0.2552990E-06  0.3030308E+04  0.7818609E-02  0.8235129E-01
       -1   -1    0    0    0  501  0.00000000000E+00  0.00000000000E+00  0.78610127681E+03  0.78610127683E+03  0.50400001928E-02 0. -1.
        1   -1    0    0  501    0  0.00000000000E+00  0.00000000000E+00 -0.29203513355E+04  0.29203513355E+04  0.50400001928E-02 0.  1.
    10030    2    1    2    0    0  0.00000000000E+00  0.00000000000E+00 -0.21342500587E+04  0.37064526123E+04  0.30303081781E+04 0.  0.
        3    1    3    3  502    0 -0.98064115163E+03 -0.86201527748E+03 -0.20073945302E+04  0.23946524209E+04  0.10100000352E+00 0.  1.
       -3    1    3    3    0  502  0.98064115163E+03  0.86201527748E+03 -0.12685552847E+03  0.13118001914E+04  0.10100000352E+00 0. -1.
</event>
<event>
 5   0  0.7217255E-06  0.2968474E+04  0.7818609E-02  0.8252791E-01
       -2   -1    0    0    0  501  0.00000000000E+00  0.00000000000E+00  0.10806079490E+04  0.10806079490E+04  0.25500000920E-02 0. -1.
        2   -1    0    0  501    0  0.00000000000E+00  0.00000000000E+00 -0.20386298703E+04  0.20386298703E+04  0.25500000920E-02 0.  1.
    10030    2    1    2    0    0  0.00000000000E+00  0.00000000000E+00 -0.95802192130E+03  0.31192378193E+04  0.29684741150E+04 0.  0.
        1    1    3    3  502    0 -0.12598117141E+04 -0.22490196740E+02 -0.13032793764E+04  0.18127792190E+04  0.50400001928E-02 0.  1.
       -1    1    3    3    0  502  0.12598117141E+04  0.22490196740E+02  0.34525745508E+03  0.13064586003E+04  0.50400001928E-02 0. -1.
</event>
<event>
 5   0  0.2504260E-06  0.3011567E+04  0.7818609E-02  0.8240436E-01
       -1   -1    0    0    0  501  0.00000000000E+00  0.00000000000E+00  0.69764603896E+03  0.69764603898E+03  0.50400001928E-02 0. -1.
        1   -1    0    0  501    0  0.00000000000E+00  0.00000000000E+00 -0.32500492712E+04  0.32500492712E+04  0.50400001928E-02 0.  1.
    10030    2    1    2    0    0  0.00000000000E+00  0.00000000000E+00 -0.25524032322E+04  0.39476953102E+04  0.30115670343E+04 0.  0.
        4    1    3    3  502    0 -0.13745025041E+04  0.57356913514E+03 -0.98560870125E+03  0.17859632727E+04  0.12699999809E+01 0.  1.
       -4    1    3    3    0  502  0.13745025041E+04 -0.57356913514E+03 -0.15667945310E+04  0.21617320374E+04  0.12699999809E+01 0. -1.
</event>
<event>
 5   0  0.2552990E-06  0.2984505E+04  0.7818609E-02  0.8248170E-01
       -1   -1    0    0    0  501  0.00000000000E+00  0.00000000000E+00  0.10201781438E+04  0.10201781438E+04  0.50400001928E-02 0.  1.
        1   -1    0    0  501    0  0.00000000000E+00  0.00000000000E+00 -0.21827728894E+04  0.21827728894E+04  0.50400001928E-02 0. -1.
    10030    2    1    2    0    0  0.00000000000E+00  0.00000000000E+00 -0.11625947456E+04  0.32029510333E+04  0.29845047795E+04 0.  0.
        3    1    3    3  502    0  0.72889150658E+03 -0.59005647540E+03 -0.18270192410E+04  0.20536428097E+04  0.10100000352E+00 0. -1.
       -3    1    3    3    0  502 -0.72889150658E+03  0.59005647540E+03  0.66442449538E+03  0.11493082236E+04  0.10100000352E+00 0.  1.
</event>
<event>
 5   0  0.2628425E-06  0.3064346E+04  0.7818609E-02  0.8225592E-01
       -1   -1    0    0    0  501  0.00000000000E+00  0.00000000000E+00  0.18178885823E+04  0.18178885823E+04  0.50400001928E-02 0.  1.
        1   -1    0    0  501    0  0.00000000000E+00  0.00000000000E+00 -0.12913627527E+04  0.12913627527E+04  0.50400001928E-02 0. -1.
    10030    2    1    2    0    0  0.00000000000E+00  0.00000000000E+00  0.52652582956E+03  0.31092513350E+04  0.30643456749E+04 0.  0.
        1    1    3    3  502    0 -0.34844731027E+03  0.25948924337E+03  0.17540808968E+04  0.18070832819E+04  0.50400001928E-02 0.  1.
       -1    1    3    3    0  502  0.34844731027E+03 -0.25948924337E+03 -0.12275550672E+04  0.13021680531E+04  0.50400001928E-02 0. -1.
</event>
<event>
 5   0  0.2672155E-06  0.3068365E+04  0.7818609E-02  0.8224474E-01
        1   -1    0    0  501    0  0.00000000000E+00  0.00000000000E+00  0.19396628451E+04  0.19396628451E+04  0.50400001928E-02 0. -1.
       -1   -1    0    0    0  501  0.00000000000E+00  0.00000000000E+00 -0.12134665140E+04  0.12134665140E+04  0.50400001928E-02 0.  1.
    10030    2    1    2    0    0  0.00000000000E+00  0.00000000000E+00  0.72619633112E+03  0.31531293592E+04  0.30683649790E+04 0.  0.
        5    1    3    3  502    0 -0.13366113341E+04 -0.75307433116E+03  0.36983788576E+03  0.15781169026E+04  0.46999998093E+01 0. -1.
       -5    1    3    3    0  502  0.13366113341E+04  0.75307433116E+03  0.35635844536E+03  0.15750124565E+04  0.46999998093E+01 0.  1.
</event>
<event>
 5   0  0.2552990E-06  0.2879162E+04  0.7818609E-02  0.8279104E-01
        1   -1    0    0  501    0  0.00000000000E+00  0.00000000000E+00  0.19053649531E+04  0.19053649531E+04  0.50400001928E-02 0.  1.
       -1   -1    0    0    0  501  0.00000000000E+00  0.00000000000E+00 -0.10876623826E+04  0.10876623826E+04  0.50400001928E-02 0. -1.
    10030    2    1    2    0    0  0.00000000000E+00  0.00000000000E+00  0.81770257054E+03  0.29930273357E+04  0.28791622286E+04 0.  0.
        3    1    3    3  502    0  0.50364266891E+01 -0.11143387939E+03  0.19008655711E+04  0.19041357107E+04  0.10100000352E+00 0.  1.
       -3    1    3    3    0  502 -0.50364266891E+01  0.11143387939E+03 -0.10831630006E+04  0.10888916250E+04  0.10100000352E+00 0. -1.
</event>
<event>
 5   0  0.7193153E-06  0.3044288E+04  0.7818609E-02  0.8231196E-01
        2   -1    0    0  501    0  0.00000000000E+00  0.00000000000E+00  0.21623387681E+04  0.21623387681E+04  0.25500000920E-02 0. -1.
       -2   -1    0    0    0  501  0.00000000000E+00  0.00000000000E+00 -0.10714893534E+04  0.10714893534E+04  0.25500000920E-02 0.  1.
    10030    2    1    2    0    0  0.00000000000E+00  0.00000000000E+00  0.10908494147E+04  0.32338281214E+04  0.30442884018E+04 0.  0.
        4    1    3    3  502    0 -0.35800445450E+03 -0.13156146674E+04 -0.17339877084E+03  0.13744372991E+04  0.12699999809E+01 0.  1.
       -4    1    3    3    0  502  0.35800445450E+03  0.13156146674E+04  0.12642481855E+04  0.18593908223E+04  0.12699999809E+01 0. -1.
</event>
<event>
 5   0  0.7217255E-06  0.2998001E+04  0.7818609E-02  0.8244302E-01
       -2   -1    0    0    0  501  0.00000000000E+00  0.00000000000E+00  0.25339237201E+04  0.25339237201E+04  0.25500000920E-02 0. -1.
        2   -1    0    0  501    0  0.00000000000E+00  0.00000000000E+00 -0.88676810783E+03  0.88676810783E+03  0.25500000920E-02 0.  1.
    10030    2    1    2    0    0  0.00000000000E+00  0.00000000000E+00  0.16471556123E+04  0.34206918279E+04  0.29980011625E+04 0.  0.
        1    1    3    3  502    0 -0.14879549752E+04 -0.39210988661E+02  0.10259396390E+04  0.18077886085E+04  0.50400001928E-02 0. -1.
       -1    1    3    3    0  502  0.14879549752E+04  0.39210988661E+02  0.62121597323E+03  0.16129032195E+04  0.50400001928E-02 0.  1.
</event>
<event>
 5   0  0.2504260E-06  0.2971627E+04  0.7818609E-02  0.8251880E-01
        1   -1    0    0  501    0  0.00000000000E+00  0.00000000000E+00  0.20418876269E+04  0.20418876269E+04  0.50400001928E-02 0.  1.
       -1   -1    0    0    0  501  0.00000000000E+00  0.00000000000E+00 -0.10811771697E+04  0.10811771697E+04  0.50400001928E-02 0. -1.
    10030    2    1    2    0    0  0.00000000000E+00  0.00000000000E+00  0.96071045715E+03  0.31230647966E+04  0.29716273558E+04 0.  0.
        4    1    3    3  502    0  0.85069600038E+03 -0.11735168956E+04  0.82383640281E+03  0.16671933363E+04  0.12699999809E+01 0.  1.
       -4    1    3    3    0  502 -0.85069600038E+03  0.11735168956E+04  0.13687405434E+03  0.14558714603E+04  0.12699999809E+01 0. -1.
</event>
<event>
 5   0  0.6780150E-06  0.2308298E+04  0.7818609E-02  0.8474656E-01
       -2   -1    0    0    0  501  0.00000000000E+00  0.00000000000E+00  0.12390053824E+04  0.12390053824E+04  0.25500000920E-02 0.  1.
        2   -1    0    0  501    0  0.00000000000E+00  0.00000000000E+00 -0.10751045855E+04  0.10751045855E+04  0.25500000920E-02 0. -1.
    10030    2    1    2    0    0  0.00000000000E+00  0.00000000000E+00  0.16390079695E+03  0.23141099679E+04  0.23082983933E+04 0.  0.
        5    1    3    3  502    0  0.66003829917E+02  0.89627029763E+03  0.80791534734E+03  0.12084726933E+04  0.46999998093E+01 0. -1.
       -5    1    3    3    0  502 -0.66003829917E+02 -0.89627029763E+03 -0.64401455040E+03  0.11056372747E+04  0.46999998093E+01 0.  1.
</event>
<event>
 5   0  0.2504260E-06  0.2996586E+04  0.7818609E-02  0.8244706E-01
        1   -1    0    0  501    0  0.00000000000E+00  0.00000000000E+00  0.21472572536E+04  0.21472572536E+04  0.50400001928E-02 0. -1.
       -1   -1    0    0    0  501  0.00000000000E+00  0.00000000000E+00 -0.10454650064E+04  0.10454650064E+04  0.50400001928E-02 0.  1.
    10030    2    1    2    0    0  0.00000000000E+00  0.00000000000E+00  0.11017922472E+04  0.31927222600E+04  0.29965862699E+04 0.  0.
        4    1    3    3  502    0  0.14796509891E+04 -0.66533420619E+02  0.31007788046E+03  0.15132559765E+04  0.12699999809E+01 0.  1.
       -4    1    3    3    0  502 -0.14796509891E+04  0.66533420619E+02  0.79171436675E+03  0.16794662834E+04  0.12699999809E+01 0. -1.
</event>
<event>
 5   0  0.2628425E-06  0.2968396E+04  0.7818609E-02  0.8252814E-01
       -1   -1    0    0    0  501  0.00000000000E+00  0.00000000000E+00  0.75020742437E+03  0.75020742438E+03  0.50400001928E-02 0. -1.
        1   -1    0    0  501    0  0.00000000000E+00  0.00000000000E+00 -0.29363129659E+04  0.29363129659E+04  0.50400001928E-02 0.  1.
    10030    2    1    2    0    0  0.00000000000E+00  0.00000000000E+00 -0.21861055415E+04  0.36865203903E+04  0.29683960567E+04 0.  0.
        1    1    3    3  502    0  0.88718146323E+03 -0.83704322499E+03 -0.42829423416E+02  0.12204780493E+04  0.50400001928E-02 0. -1.
       -1    1    3    3    0  502 -0.88718146323E+03  0.83704322499E+03 -0.21432761181E+04  0.24660423410E+04  0.50400001928E-02 0.  1.
</event>
<event>
 5   0  0.2628425E-06  0.2734236E+04  0.7818609E-02  0.8323981E-01
        1   -1    0    0  501    0  0.00000000000E+00  0.00000000000E+00  0.21662579416E+04  0.21662579416E+04  0.50400001928E-02 0. -1.
       -1   -1    0    0    0  501  0.00000000000E+00  0.00000000000E+00 -0.86278346789E+03  0.86278346790E+03  0.50400001928E-02 0.  1.
    10030    2    1    2    0    0  0.00000000000E+00  0.00000000000E+00  0.13034744737E+04  0.30290414095E+04  0.27342359366E+04 0.  0.
        1    1    3    3  502    0  0.30246308757E+03  0.12981870028E+03  0.21217083095E+04  0.21470870884E+04  0.50400001928E-02 0. -1.
       -1    1    3    3    0  502 -0.30246308757E+03 -0.12981870028E+03 -0.81823383587E+03  0.88195432108E+03  0.50400001928E-02 0.  1.
</event>
<event>
 5   0  0.2552990E-06  0.3019325E+04  0.7818609E-02  0.8238234E-01
        1   -1    0    0  501    0  0.00000000000E+00  0.00000000000E+00  0.20489802801E+04  0.20489802801E+04  0.50400001928E-02 0.  1.
       -1   -1    0    0    0  501  0.00000000000E+00  0.00000000000E+00 -0.11123003669E+04  0.11123003669E+04  0.50400001928E-02 0. -1.
    10030    2    1    2    0    0  0.00000000000E+00  0.00000000000E+00  0.93667991320E+03  0.31612806470E+04  0.30193254328E+04 0.  0.
        3    1    3    3  502    0  0.37518703213E+03 -0.44576289459E+03 -0.98983796499E+03  0.11485856844E+04  0.10100000352E+00 0. -1.
       -3    1    3    3    0  502 -0.37518703213E+03  0.44576289459E+03  0.19265178782E+04  0.20126949626E+04  0.10100000352E+00 0.  1.
</event>
<event>
 5   0  0.6780150E-06  0.2901573E+04  0.7818609E-02  0.8272410E-01
       -2   -1    0    0    0  501  0.00000000000E+00  0.00000000000E+00  0.10164389998E+04  0.10164389998E+04  0.25500000920E-02 0. -1.
        2   -1    0    0  501    0  0.00000000000E+00  0.00000000000E+00 -0.20707404878E+04  0.20707404878E+04  0.25500000920E-02 0.  1.
    10030    2    1    2    0    0  0.00000000000E+00  0.00000000000E+00 -0.10543014880E+04  0.30871794876E+04  0.29015729460E+04 0.  0.
        5    1    3    3  502    0 -0.13756862964E+03 -0.10528583117E+04  0.52468413534E+03  0.11843780158E+04  0.46999998093E+01 0. -1.
       -5    1    3    3    0  502  0.13756862964E+03  0.10528583117E+04 -0.15789856234E+04  0.19028014718E+04  0.46999998093E+01 0.  1.
</event>
<event>
 5   0  0.7217255E-06  0.2955962E+04  0.7818609E-02  0.8256419E-01
       -2   -1    0    0    0  501  0.00000000000E+00  0.00000000000E+00  0.80069338762E+03  0.80069338762E+03  0.25500000920E-02 0.  1.
        2   -1    0    0  501    0  0.00000000000E+00  0.00000000000E+00 -0.27281697957E+04  0.27281697957E+04  0.25500000920E-02 0. -1.
    10030    2    1    2    0    0  0.00000000000E+00  0.00000000000E+00 -0.19274764081E+04  0.35288631833E+04  0.29559617830E+04 0.  0.
        1    1    3    3  502    0  0.12727051329E+04 -0.70276534989E+03 -0.64615269682E+03  0.15909653673E+04  0.50400001928E-02 0. -1.
       -1    1    3    3    0  502 -0.12727051329E+04  0.70276534989E+03 -0.12813237112E+04  0.19378978160E+04  0.50400001928E-02 0.  1.
</event>
<event>
 5   0  0.2504260E-06  0.2967593E+04  0.7818609E-02  0.8253046E-01
       -1   -1    0    0    0  501  0.00000000000E+00  0.00000000000E+00  0.11945822933E+04  0.11945822933E+04  0.50400001928E-02 0. -1.
        1   -1    0    0  501    0  0.00000000000E+00  0.00000000000E+00 -0.18430307125E+04  0.18430307125E+04  0.50400001928E-02 0.  1.
    10030    2    1    2    0    0  0.00000000000E+00  0.00000000000E+00 -0.64844841921E+03  0.30376130058E+04  0.29675928664E+04 0.  0.
        4    1    3    3  502    0  0.14280106288E+04 -0.79929354968E+02 -0.72857294928E+03  0.16051240491E+04  0.12699999809E+01 0.  1.
       -4    1    3    3    0  502 -0.14280106288E+04  0.79929354968E+02  0.80124530071E+02  0.14324889567E+04  0.12699999809E+01 0. -1.
</event>
<event>
 5   0  0.2552990E-06  0.2991310E+04  0.7818609E-02  0.8246217E-01
        1   -1    0    0  501    0  0.00000000000E+00  0.00000000000E+00  0.14694282218E+04  0.14694282219E+04  0.50400001928E-02 0.  1.
       -1   -1    0    0    0  501  0.00000000000E+00  0.00000000000E+00 -0.15223494709E+04  0.15223494709E+04  0.50400001928E-02 0. -1.
    10030    2    1    2    0    0  0.00000000000E+00  0.00000000000E+00 -0.52921249023E+02  0.29917776927E+04  0.29913095968E+04 0.  0.
        3    1    3    3  502    0  0.10327313072E+04 -0.10565810024E+04  0.20613951946E+03  0.14917744063E+04  0.10100000352E+00 0.  1.
       -3    1    3    3    0  502 -0.10327313072E+04  0.10565810024E+04 -0.25906076848E+03  0.15000032865E+04  0.10100000352E+00 0. -1.
</event>
<event>
 5   0  0.6780150E-06  0.3012637E+04  0.7818609E-02  0.8240132E-01
       -2   -1    0    0    0  501  0.00000000000E+00  0.00000000000E+00  0.93978036548E+03  0.93978036548E+03  0.25500000920E-02 0. -1.
        2   -1    0    0  501    0  0.00000000000E+00  0.00000000000E+00 -0.24143887787E+04  0.24143887787E+04  0.25500000920E-02 0.  1.
    10030    2    1    2    0    0  0.00000000000E+00  0.00000000000E+00 -0.14746084132E+04  0.33541691442E+04  0.30126368310E+04 0.  0.
        5    1    3    3  502    0 -0.66836599130E+03  0.12098987286E+04 -0.14038427016E+04  0.19701178779E+04  0.46999998093E+01 0.  1.
       -5    1    3    3    0  502  0.66836599130E+03 -0.12098987286E+04 -0.70765711587E+02  0.13840512663E+04  0.46999998093E+01 0. -1.
</event>
<event>
 5   0  0.2552990E-06  0.2774921E+04  0.7818609E-02  0.8311097E-01
       -1   -1    0    0    0  501  0.00000000000E+00  0.00000000000E+00  0.81195570127E+03  0.81195570128E+03  0.50400001928E-02 0. -1.
        1   -1    0    0  501    0  0.00000000000E+00  0.00000000000E+00 -0.23708770586E+04  0.23708770586E+04  0.50400001928E-02 0.  1.
    10030    2    1    2    0    0  0.00000000000E+00  0.00000000000E+00 -0.15589213574E+04  0.31828327599E+04  0.27749213645E+04 0.  0.
        3    1    3    3  502    0 -0.58426469745E+02 -0.11604030059E+04 -0.16492903102E+04  0.20174506997E+04  0.10100000352E+00 0.  1.
       -3    1    3    3    0  502  0.58426469745E+02  0.11604030059E+04  0.90368952812E+02  0.11653820602E+04  0.10100000352E+00 0. -1.
</event>
<event>
 5   0  0.2552990E-06  0.2968865E+04  0.7818609E-02  0.8252678E-01
        1   -1    0    0  501    0  0.00000000000E+00  0.00000000000E+00  0.85885831478E+03  0.85885831479E+03  0.50400001928E-02 0.  1.
       -1   -1    0    0    0  501  0.00000000000E+00  0.00000000000E+00 -0.25656615455E+04  0.25656615455E+04  0.50400001928E-02 0. -1.
    10030    2    1    2    0    0  0.00000000000E+00  0.00000000000E+00 -0.17068032307E+04  0.34245198603E+04  0.29688649355E+04 0.  0.
        3    1    3    3  502    0 -0.13245532075E+04  0.37401854740E+03 -0.21199257244E+03  0.13925774429E+04  0.10100000352E+00 0. -1.
       -3    1    3    3    0  502  0.13245532075E+04 -0.37401854740E+03 -0.14948106583E+04  0.20319424174E+04  0.10100000352E+00 0.  1.
</event>
<event>
 5   0  0.7193153E-06  0.2907929E+04  0.7818609E-02  0.8270522E-01
       -2   -1    0    0    0  501  0.00000000000E+00  0.00000000000E+00  0.16923651241E+04  0.16923651241E+04  0.25500000920E-02 0.  1.
        2   -1    0    0  501    0  0.00000000000E+00  0.00000000000E+00 -0.12491469079E+04  0.12491469079E+04  0.25500000920E-02 0. -1.
    10030    2    1    2    0    0  0.00000000000E+00  0.00000000000E+00  0.44321821618E+03  0.29415120320E+04  0.29079289275E+04 0.  0.
        4    1    3    3  502    0 -0.99198494564E+03  0.64069727009E+03 -0.63641084797E+03  0.13414721408E+04  0.12699999809E+01 0. -1.
       -4    1    3    3    0  502  0.99198494564E+03 -0.64069727009E+03  0.10796290641E+04  0.16000398912E+04  0.12699999809E+01 0.  1.
</event>
<event>
 5   0  0.6792811E-06  0.3056775E+04  0.7818609E-02  0.8227702E-01
       -2   -1    0    0    0  501  0.00000000000E+00  0.00000000000E+00  0.97748072631E+03  0.97748072632E+03  0.25500000920E-02 0.  1.
        2   -1    0    0  501    0  0.00000000000E+00  0.00000000000E+00 -0.23897842294E+04  0.23897842294E+04  0.25500000920E-02 0. -1.
    10030    2    1    2    0    0  0.00000000000E+00  0.00000000000E+00 -0.14123035031E+04  0.33672649557E+04  0.30567747868E+04 0.  0.
        2    1    3    3  502    0  0.81275561362E+03  0.29401821906E+03 -0.20947253778E+04  0.22660301871E+04  0.25500000920E-02 0. -1.
       -2    1    3    3    0  502 -0.81275561362E+03 -0.29401821906E+03  0.68242187467E+03  0.11012347686E+04  0.25500000920E-02 0.  1.
</event>
<event>
 5   0  0.2422083E-06  0.2222929E+04  0.7818609E-02  0.8508945E-01
        1   -1    0    0  501    0  0.00000000000E+00  0.00000000000E+00  0.76205589880E+03  0.76205589882E+03  0.50400001928E-02 0. -1.
       -1   -1    0    0    0  501  0.00000000000E+00  0.00000000000E+00 -0.16210800270E+04  0.16210800270E+04  0.50400001928E-02 0.  1.
    10030    2    1    2    0    0  0.00000000000E+00  0.00000000000E+00 -0.85902412816E+03  0.23831359258E+04  0.22229292360E+04 0.  0.
        2    1    3    3  502    0  0.92257450709E+03 -0.61629434614E+03 -0.50055363390E+03  0.12171755759E+04  0.25500000920E-02 0.  1.
       -2    1    3    3    0  502 -0.92257450709E+03  0.61629434614E+03 -0.35847049427E+03  0.11659603499E+04  0.25500000920E-02 0. -1.
</event>
<event>
 5   0  0.6792811E-06  0.2908797E+04  0.7818609E-02  0.8270265E-01
        2   -1    0    0  501    0  0.00000000000E+00  0.00000000000E+00  0.26747365956E+04  0.26747365956E+04  0.25500000920E-02 0. -1.
       -2   -1    0    0    0  501  0.00000000000E+00  0.00000000000E+00 -0.79083498514E+03  0.79083498515E+03  0.25500000920E-02 0.  1.
    10030    2    1    2    0    0  0.00000000000E+00  0.00000000000E+00  0.18839016105E+04  0.34655715808E+04  0.29087971919E+04 0.  0.
        2    1    3    3  502    0 -0.12911200168E+04  0.55292358385E+02  0.17369235567E+04  0.21649368546E+04  0.25500000920E-02 0. -1.
       -2    1    3    3    0  502  0.12911200168E+04 -0.55292358385E+02  0.14697805381E+03  0.13006347262E+04  0.25500000920E-02 0.  1.
</event>
<event>
 5   0  0.2422083E-06  0.3006435E+04  0.7818609E-02  0.8241896E-01
        1   -1    0    0  501    0  0.00000000000E+00  0.00000000000E+00  0.12590643759E+04  0.12590643759E+04  0.50400001928E-02 0.  1.
       -1   -1    0    0    0  501  0.00000000000E+00  0.00000000000E+00 -0.17947162116E+04  0.17947162116E+04  0.50400001928E-02 0. -1.
    10030    2    1    2    0    0  0.00000000000E+00  0.00000000000E+00 -0.53565183577E+03  0.30537805875E+04  0.30064352625E+04 0.  0.
        2    1    3    3  502    0 -0.20120713482E+03  0.35920046627E+03  0.12006780087E+04  0.12693057026E+04  0.25500000920E-02 0.  1.
       -2    1    3    3    0  502  0.20120713482E+03 -0.35920046627E+03 -0.17363298445E+04  0.17844748849E+04  0.25500000920E-02 0. -1.
</event>
<event>
 5   0  0.2628425E-06  0.3070517E+04  0.7818609E-02  0.8223876E-01
       -1   -1    0    0    0  501  0.00000000000E+00  0.00000000000E+00  0.12481960770E+04  0.12481960770E+04  0.50400001928E-02 0.  1.
        1   -1    0    0  501    0  0.00000000000E+00  0.00000000000E+00 -0.18883406787E+04  0.18883406788E+04  0.50400001928E-02 0. -1.
    10030    2    1    2    0    0  0.00000000000E+00  0.00000000000E+00 -0.64014460173E+03  0.31365367558E+04  0.30705174986E+04 0.  0.
        1    1    3    3  502    0 -0.13798808279E+04  0.59963803233E+03 -0.79163000989E+01  0.15045595824E+04  0.50400001928E-02 0. -1.
       -1    1    3    3    0  502  0.13798808279E+04 -0.59963803233E+03 -0.63222830163E+03  0.16319771734E+04  0.50400001928E-02 0.  1.
</event>
<event>
 5   0  0.6792811E-06  0.3021010E+04  0.7818609E-02  0.8237757E-01
        2   -1    0    0  501    0  0.00000000000E+00  0.00000000000E+00  0.15997915222E+04  0.15997915222E+04  0.25500000920E-02 0.  1.
       -2   -1    0    0    0  501  0.00000000000E+00  0.00000000000E+00 -0.14262020970E+04  0.14262020970E+04  0.25500000920E-02 0. -1.
    10030    2    1    2    0    0  0.00000000000E+00  0.00000000000E+00  0.17358942516E+03  0.30259936192E+04  0.30210104427E+04 0.  0.
        2    1    3    3  502    0  0.10866653803E+04  0.47572344696E+03 -0.84987964363E+03  0.14592634633E+04  0.25500000920E-02 0. -1.
       -2    1    3    3    0  502 -0.10866653803E+04 -0.47572344696E+03  0.10234690688E+04  0.15667301559E+04  0.25500000920E-02 0.  1.
</event>
<event>
 5   0  0.7193153E-06  0.2916881E+04  0.7818609E-02  0.8267873E-01
       -2   -1    0    0    0  501  0.00000000000E+00  0.00000000000E+00  0.84269962224E+03  0.84269962224E+03  0.25500000920E-02 0. -1.
        2   -1    0    0  501    0  0.00000000000E+00  0.00000000000E+00 -0.25240885240E+04  0.25240885240E+04  0.25500000920E-02 0.  1.
    10030    2    1    2    0    0  0.00000000000E+00  0.00000000000E+00 -0.16813889018E+04  0.33667881463E+04  0.29168808311E+04 0.  0.
        4    1    3    3  502    0 -0.97679427263E+03  0.71888838362E+03 -0.17756446980E+04  0.21503123647E+04  0.12699999809E+01 0.  1.
       -4    1    3    3    0  502  0.97679427263E+03 -0.71888838362E+03  0.94255796242E+02  0.12164757816E+04  0.12699999809E+01 0. -1.
</event>
<event>
 5   0  0.7217255E-06  0.2957705E+04  0.7818609E-02  0.8255913E-01
       -2   -1    0    0    0  501  0.00000000000E+00  0.00000000000E+00  0.11486072068E+04  0.11486072068E+04  0.25500000920E-02 0.  1.
        2   -1    0    0  501    0  0.00000000000E+00  0.00000000000E+00 -0.19040492672E+04  0.19040492672E+04  0.25500000920E-02 0. -1.
    10030    2    1    2    0    0  0.00000000000E+00  0.00000000000E+00 -0.75544206047E+03  0.30526564740E+04  0.29577049957E+04 0.  0.
        1    1    3    3  502    0  0.45238547055E+02 -0.12017267175E+04  0.51061405336E+03  0.13064916155E+04  0.50400001928E-02 0.  1.
       -1    1    3    3    0  502 -0.45238547055E+02  0.12017267175E+04 -0.12660561138E+04  0.17461648585E+04  0.50400001928E-02 0. -1.
</event>
<event>
 5   0  0.7217255E-06  0.2698796E+04  0.7818609E-02  0.8335396E-01
        2   -1    0    0  501    0  0.00000000000E+00  0.00000000000E+00  0.67772347148E+03  0.67772347148E+03  0.25500000920E-02 0. -1.
       -2   -1    0    0    0  501  0.00000000000E+00  0.00000000000E+00 -0.26867513448E+04  0.26867513448E+04  0.25500000920E-02 0.  1.
    10030    2    1    2    0    0  0.00000000000E+00  0.00000000000E+00 -0.20090278733E+04  0.33644748162E+04  0.26987956191E+04 0.  0.
        1    1    3    3  502    0  0.11655419983E+04 -0.38144463191E+03 -0.17062907438E+04  0.21012891899E+04  0.50400001928E-02 0.  1.
       -1    1    3    3    0  502 -0.11655419983E+04  0.38144463191E+03 -0.30273712951E+03  0.12631856264E+04  0.50400001928E-02 0. -1.
</event>
<event>
 5   0  0.2422083E-06  0.3000012E+04  0.7818609E-02  0.8243728E-01
       -1   -1    0    0    0  501  0.00000000000E+00  0.00000000000E+00  0.12310465437E+04  0.12310465437E+04  0.50400001928E-02 0.  1.
        1   -1    0    0  501    0  0.00000000000E+00  0.00000000000E+00 -0.18277274007E+04  0.18277274007E+04  0.50400001928E-02 0. -1.
    10030    2    1    2    0    0  0.00000000000E+00  0.00000000000E+00 -0.59668085707E+03  0.30587739444E+04  0.30000116663E+04 0.  0.
        2    1    3    3  502    0 -0.18002244772E+03 -0.11297728551E+04  0.69082889182E+03  0.13364278296E+04  0.25500000920E-02 0.  1.
       -2    1    3    3    0  502  0.18002244772E+03  0.11297728551E+04 -0.12875097489E+04  0.17223461148E+04  0.25500000920E-02 0. -1.
</event>
<event>
 5   0  0.2422083E-06  0.2983492E+04  0.7818609E-02  0.8248461E-01
        1   -1    0    0  501    0  0.00000000000E+00  0.00000000000E+00  0.21795122392E+04  0.21795122392E+04  0.50400001928E-02 0.  1.
       -1   -1    0    0    0  501  0.00000000000E+00  0.00000000000E+00 -0.10210111068E+04  0.10210111068E+04  0.50400001928E-02 0. -1.
    10030    2    1    2    0    0  0.00000000000E+00  0.00000000000E+00  0.11585011324E+04  0.32005233460E+04  0.29834920504E+04 0.  0.
        2    1    3    3  502    0 -0.10008999440E+04  0.83042939083E+03 -0.20458152072E+03  0.13165360875E+04  0.25500000920E-02 0. -1.
       -2    1    3    3    0  502  0.10008999440E+04 -0.83042939083E+03  0.13630826531E+04  0.18839872585E+04  0.25500000920E-02 0.  1.
</event>
<event>
 5   0  0.7217255E-06  0.3000736E+04  0.7818609E-02  0.8243521E-01
        2   -1    0    0  501    0  0.00000000000E+00  0.00000000000E+00  0.21563076726E+04  0.21563076726E+04  0.25500000920E-02 0.  1.
       -2   -1    0    0    0  501  0.00000000000E+00  0.00000000000E+00 -0.10439625083E+04  0.10439625083E+04  0.25500000920E-02 0. -1.
    10030    2    1    2    0    0  0.00000000000E+00  0.00000000000E+00  0.11123451643E+04  0.32002701810E+04  0.30007361541E+04 0.  0.
        1    1    3    3  502    0 -0.98620500740E+03 -0.91290365830E+03  0.12677021932E+04  0.18474474977E+04  0.50400001928E-02 0.  1.
       -1    1    3    3    0  502  0.98620500740E+03  0.91290365830E+03 -0.15535702894E+03  0.13528226833E+04  0.50400001928E-02 0. -1.
</event>
<event>
 5   0  0.6780150E-06  0.3129618E+04  0.7818609E-02  0.8207656E-01
       -2   -1    0    0    0  501  0.00000000000E+00  0.00000000000E+00  0.16557829839E+04  0.16557829839E+04  0.25500000920E-02 0.  1.
        2   -1    0    0  501    0  0.00000000000E+00  0.00000000000E+00 -0.14788333969E+04  0.14788333969E+04  0.25500000920E-02 0. -1.
    10030    2    1    2    0    0  0.00000000000E+00  0.00000000000E+00  0.17694958699E+03  0.31346163807E+04  0.31296179796E+04 0.  0.
        5    1    3    3  502    0 -0.13008435800E+04  0.14042230291E+03  0.94815363241E+03  0.16158371958E+04  0.46999998093E+01 0.  1.
       -5    1    3    3    0  502  0.13008435800E+04 -0.14042230291E+03 -0.77120404542E+03  0.15187791849E+04  0.46999998093E+01 0. -1.
</event>
<event>
 5   0  0.7193153E-06  0.2930680E+04  0.7818609E-02  0.8263807E-01
       -2   -1    0    0    0  501  0.00000000000E+00  0.00000000000E+00  0.12239804944E+04  0.12239804944E+04  0.25500000920E-02 0.  1.
        2   -1    0    0  501    0  0.00000000000E+00  0.00000000000E+00 -0.17542937583E+04  0.17542937583E+04  0.25500000920E-02 0. -1.
    10030    2    1    2    0    0  0.00000000000E+00  0.00000000000E+00 -0.53031326387E+03  0.29782742527E+04  0.29306800178E+04 0.  0.
        4    1    3    3  502    0 -0.14529941261E+04  0.16982529053E+03 -0.35131058508E+03  0.15044777499E+04  0.12699999809E+01 0. -1.
       -4    1    3    3    0  502  0.14529941261E+04 -0.16982529053E+03 -0.17900267879E+03  0.14737965028E+04  0.12699999809E+01 0.  1.
</event>
<event>
 5   0  0.2628425E-06  0.3052429E+04  0.7818609E-02  0.8228916E-01
        1   -1    0    0  501    0  0.00000000000E+00  0.00000000000E+00  0.13023584519E+04  0.13023584519E+04  0.50400001928E-02 0. -1.
       -1   -1    0    0    0  501  0.00000000000E+00  0.00000000000E+00 -0.17885483354E+04  0.17885483354E+04  0.50400001928E-02 0.  1.
    10030    2    1    2    0    0  0.00000000000E+00  0.00000000000E+00 -0.48618988351E+03  0.30909067873E+04  0.30524292236E+04 0.  0.
        1    1    3    3  502    0  0.11616282287E+04 -0.18763625599E+03 -0.12273264630E+04  0.17002699060E+04  0.50400001928E-02 0.  1.
       -1    1    3    3    0  502 -0.11616282287E+04  0.18763625599E+03  0.74113657953E+03  0.13906368813E+04  0.50400001928E-02 0. -1.
</event>
<event>
 5   0  0.7201538E-06  0.3021111E+04  0.7818609E-02  0.8237728E-01
        2   -1    0    0  501    0  0.00000000000E+00  0.00000000000E+00  0.17029039275E+04  0.17029039275E+04  0.25500000920E-02 0.  1.
       -2   -1    0    0    0  501  0.00000000000E+00  0.00000000000E+00 -0.13399334572E+04  0.13399334572E+04  0.25500000920E-02 0. -1.
    10030    2    1    2    0    0  0.00000000000E+00  0.00000000000E+00  0.36297047030E+03  0.30428373846E+04  0.30211110187E+04 0.  0.
        3    1    3    3  502    0  0.63706468981E+03  0.11654542344E+04 -0.54316294897E+03  0.14349776970E+04  0.10100000352E+00 0.  1.
       -3    1    3    3    0  502 -0.63706468981E+03 -0.11654542344E+04  0.90613341927E+03  0.16078596877E+04  0.10100000352E+00 0. -1.
</event>
<event>
 5   0  0.7217255E-06  0.2571395E+04  0.7818609E-02  0.8377983E-01
       -2   -1    0    0    0  501  0.00000000000E+00  0.00000000000E+00  0.12984244733E+04  0.12984244733E+04  0.25500000920E-02 0. -1.
        2   -1    0    0  501    0  0.00000000000E+00  0.00000000000E+00 -0.12730948207E+04  0.12730948207E+04  0.25500000920E-02 0.  1.
    10030    2    1    2    0    0  0.00000000000E+00  0.00000000000E+00  0.25329652630E+02  0.25715192940E+04  0.25713945415E+04 0.  0.
        1    1    3    3  502    0 -0.76041258127E+03  0.10302317772E+04  0.12848349868E+03  0.12869004694E+04  0.50400001928E-02 0.  1.
       -1    1    3    3    0  502  0.76041258127E+03 -0.10302317772E+04 -0.10315384604E+03  0.12846188246E+04  0.50400001928E-02 0. -1.
</event>
<event>
 5   0  0.2504260E-06  0.2889508E+04  0.7818609E-02  0.8276006E-01
        1   -1    0    0  501    0  0.00000000000E+00  0.00000000000E+00  0.18056154866E+04  0.18056154866E+04  0.50400001928E-02 0.  1.
       -1   -1    0    0    0  501  0.00000000000E+00  0.00000000000E+00 -0.11560125837E+04  0.11560125837E+04  0.50400001928E-02 0. -1.
    10030    2    1    2    0    0  0.00000000000E+00  0.00000000000E+00  0.64960290289E+03  0.29616280704E+04  0.28895080716E+04 0.  0.
        4    1    3    3  502    0 -0.15018036089E+03 -0.10171629247E+04 -0.71548830291E+03  0.12526370905E+04  0.12699999809E+01 0. -1.
       -4    1    3    3    0  502  0.15018036089E+03  0.10171629247E+04  0.13650912058E+04  0.17089909798E+04  0.12699999809E+01 0.  1.
</event>
<event>
 5   0  0.7201538E-06  0.3025854E+04  0.7818609E-02  0.8236386E-01
       -2   -1    0    0    0  501  0.00000000000E+00  0.00000000000E+00  0.19479149417E+04  0.19479149417E+04  0.25500000920E-02 0.  1.
        2   -1    0    0  501    0  0.00000000000E+00  0.00000000000E+00 -0.11750762889E+04  0.11750762889E+04  0.25500000920E-02 0. -1.
    10030    2    1    2    0    0  0.00000000000E+00  0.00000000000E+00  0.77283865275E+03  0.31229912306E+04  0.30258543658E+04 0.  0.
        3    1    3    3  502    0  0.33986579568E+03  0.68794005772E+03 -0.95934801956E+03  0.12284620120E+04  0.10100000352E+00 0. -1.
       -3    1    3    3    0  502 -0.33986579568E+03 -0.68794005772E+03  0.17321866723E+04  0.18945292186E+04  0.10100000352E+00 0.  1.
</event>
<event>
 5   0  0.7217255E-06  0.2877848E+04  0.7818609E-02  0.8279499E-01
        2   -1    0    0  501    0  0.00000000000E+00  0.00000000000E+00  0.21002066928E+04  0.21002066928E+04  0.25500000920E-02 0.  1.
       -2   -1    0    0    0  501  0.00000000000E+00  0.00000000000E+00 -0.98585615499E+03  0.98585615499E+03  0.25500000920E-02 0. -1.
    10030    2    1    2    0    0  0.00000000000E+00  0.00000000000E+00  0.11143505379E+04  0.30860628478E+04  0.28778475949E+04 0.  0.
        1    1    3    3  502    0  0.46344104537E+03  0.11218950642E+04 -0.27143750050E+03  0.12438265370E+04  0.50400001928E-02 0. -1.
       -1    1    3    3    0  502 -0.46344104537E+03 -0.11218950642E+04  0.13857880384E+04  0.18422363108E+04  0.50400001928E-02 0.  1.
</event>
<event>
 5   0  0.2422083E-06  0.2928750E+04  0.7818609E-02  0.8264374E-01
        1   -1    0    0  501    0  0.00000000000E+00  0.00000000000E+00  0.11852166631E+04  0.11852166631E+04  0.50400001928E-02 0.  1.
       -1   -1    0    0    0  501  0.00000000000E+00  0.00000000000E+00 -0.18092851161E+04  0.18092851161E+04  0.50400001928E-02 0. -1.
    10030    2    1    2    0    0  0.00000000000E+00  0.00000000000E+00 -0.62406845298E+03  0.29945017792E+04  0.29287504967E+04 0.  0.
        2    1    3    3  502    0  0.83609392326E+02 -0.14619405210E+04 -0.32388100540E+03  0.14997198148E+04  0.25500000920E-02 0. -1.
       -2    1    3    3    0  502 -0.83609392326E+02  0.14619405210E+04 -0.30018744758E+03  0.14947819644E+04  0.25500000920E-02 0.  1.
</event>
<event>
 5   0  0.6780150E-06  0.2964683E+04  0.7818609E-02  0.8253888E-01
        2   -1    0    0  501    0  0.00000000000E+00  0.00000000000E+00  0.13671608135E+04  0.13671608135E+04  0.25500000920E-02 0.  1.
       -2   -1    0    0    0  501  0.00000000000E+00  0.00000000000E+00 -0.16072254554E+04  0.16072254554E+04  0.25500000920E-02 0. -1.
    10030    2    1    2    0    0  0.00000000000E+00  0.00000000000E+00 -0.24006464188E+03  0.29743862689E+04  0.29646825537E+04 0.  0.
        5    1    3    3  502    0 -0.52720113838E+03 -0.48695934790E+03  0.11812260934E+04  0.13821677252E+04  0.46999998093E+01 0.  1.
       -5    1    3    3    0  502  0.52720113838E+03  0.48695934790E+03 -0.14212907353E+04  0.15922185437E+04  0.46999998093E+01 0. -1.
</event>
<event>
 5   0  0.2628425E-06  0.3021829E+04  0.7818609E-02  0.8237525E-01
        1   -1    0    0  501    0  0.00000000000E+00  0.00000000000E+00  0.16695536616E+04  0.16695536616E+04  0.50400001928E-02 0. -1.
       -1   -1    0    0    0  501  0.00000000000E+00  0.00000000000E+00 -0.13673491105E+04  0.13673491105E+04  0.50400001928E-02 0.  1.
    10030    2    1    2    0    0  0.00000000000E+00  0.00000000000E+00  0.30220455110E+03  0.30369027721E+04  0.30218290581E+04 0.  0.
        1    1    3    3  502    0 -0.12373421872E+04  0.64361014661E+03  0.73504543950E+03  0.15765600234E+04  0.50400001928E-02 0. -1.
       -1    1    3    3    0  502  0.12373421872E+04 -0.64361014661E+03 -0.43284088840E+03  0.14603427488E+04  0.50400001928E-02 0.  1.
</event>
<event>
 5   0  0.7217255E-06  0.2909093E+04  0.7818609E-02  0.8270177E-01
       -2   -1    0    0    0  501  0.00000000000E+00  0.00000000000E+00  0.63899326068E+03  0.63899326068E+03  0.25500000920E-02 0.  1.
        2   -1    0    0  501    0  0.00000000000E+00  0.00000000000E+00 -0.33109971079E+04  0.33109971079E+04  0.25500000920E-02 0. -1.
    10030    2    1    2    0    0  0.00000000000E+00  0.00000000000E+00 -0.26720038473E+04  0.39499903686E+04  0.29090925307E+04 0.  0.
        1    1    3    3  502    0 -0.10926241490E+04 -0.76183373470E+03 -0.21294625446E+04  0.25117382227E+04  0.50400001928E-02 0. -1.
       -1    1    3    3    0  502  0.10926241490E+04  0.76183373470E+03 -0.54254130265E+03  0.14382521460E+04  0.50400001928E-02 0.  1.
</event>
<event>
 5   0  0.6792811E-06  0.3013496E+04  0.7818609E-02  0.8239887E-01
        2   -1    0    0  501    0  0.00000000000E+00  0.00000000000E+00  0.12954263398E+04  0.12954263398E+04  0.25500000920E-02 0.  1.
       -2   -1    0    0    0  501  0.00000000000E+00  0.00000000000E+00 -0.17525425409E+04  0.17525425409E+04  0.25500000920E-02 0. -1.
    10030    2    1    2    0    0  0.00000000000E+00  0.00000000000E+00 -0.45711620108E+03  0.30479688807E+04  0.30134961550E+04 0.  0.
        2    1    3    3  502    0  0.45660886155E+03  0.95517120813E+03 -0.13129448163E+04  0.16866142950E+04  0.25500000920E-02 0. -1.
       -2    1    3    3    0  502 -0.45660886155E+03 -0.95517120813E+03  0.85582861526E+03  0.13613545857E+04  0.25500000920E-02 0.  1.
</event>
<event>
 5   0  0.2672155E-06  0.2999600E+04  0.7818609E-02  0.8243845E-01
        1   -1    0    0  501    0  0.00000000000E+00  0.00000000000E+00  0.12177372737E+04  0.12177372737E+04  0.50400001928E-02 0. -1.
       -1   -1    0    0    0  501  0.00000000000E+00  0.00000000000E+00 -0.18471966229E+04  0.18471966229E+04  0.50400001928E-02 0.  1.
    10030    2    1    2    0    0  0.00000000000E+00  0.00000000000E+00 -0.62945934915E+03  0.30649338966E+04  0.29996000931E+04 0.  0.
        5    1    3    3  502    0  0.57032273322E+03 -0.13039162765E+04 -0.79823007643E+03  0.16317656146E+04  0.46999998093E+01 0. -1.
       -5    1    3    3    0  502 -0.57032273322E+03  0.13039162765E+04  0.16877072728E+03  0.14331682820E+04  0.46999998093E+01 0.  1.
</event>
<event>
 5   0  0.2552990E-06  0.2966469E+04  0.7818609E-02  0.8253371E-01
       -1   -1    0    0    0  501  0.00000000000E+00  0.00000000000E+00  0.16460705535E+04  0.16460705535E+04  0.50400001928E-02 0.  1.
        1   -1    0    0  501    0  0.00000000000E+00  0.00000000000E+00 -0.13365070576E+04  0.13365070576E+04  0.50400001928E-02 0. -1.
    10030    2    1    2    0    0  0.00000000000E+00  0.00000000000E+00  0.30956349589E+03  0.29825776112E+04  0.29664692226E+04 0.  0.
        3    1    3    3  502    0 -0.12871659899E+04  0.70640723277E+03  0.36610737613E+03  0.15132224176E+04  0.10100000352E+00 0.  1.
       -3    1    3    3    0  502  0.12871659899E+04 -0.70640723277E+03 -0.56543880238E+02  0.14693551935E+04  0.10100000352E+00 0. -1.
</event>
<event>
 5   0  0.7201538E-06  0.3027075E+04  0.7818609E-02  0.8236041E-01
       -2   -1    0    0    0  501  0.00000000000E+00  0.00000000000E+00  0.11415648862E+04  0.11415648862E+04  0.25500000920E-02 0. -1.
        2   -1    0    0  501    0  0.00000000000E+00  0.00000000000E+00 -0.20067155560E+04  0.20067155560E+04  0.25500000920E-02 0.  1.
    10030    2    1    2    0    0  0.00000000000E+00  0.00000000000E+00 -0.86515066986E+03  0.31482804422E+04  0.30270751661E+04 0.  0.
        3    1    3    3  502    0 -0.14164327165E+04  0.53339876501E+03 -0.43293909429E+03  0.15742401826E+04  0.10100000352E+00 0.  1.
       -3    1    3    3    0  502  0.14164327165E+04 -0.53339876501E+03 -0.43221157556E+03  0.15740402597E+04  0.10100000352E+00 0. -1.
</event>
<event>
 5   0  0.6780150E-06  0.2940082E+04  0.7818609E-02  0.8261051E-01
        2   -1    0    0  501    0  0.00000000000E+00  0.00000000000E+00  0.18248373222E+04  0.18248373222E+04  0.25500000920E-02 0.  1.
       -2   -1    0    0    0  501  0.00000000000E+00  0.00000000000E+00 -0.11842261503E+04  0.11842261503E+04  0.25500000920E-02 0. -1.
    10030    2    1    2    0    0  0.00000000000E+00  0.00000000000E+00  0.64061117187E+03  0.30090634726E+04  0.29400816840E+04 0.  0.
        5    1    3    3  502    0  0.10440217995E+04  0.75722943447E+03  0.10422784736E+04  0.16582353394E+04  0.46999998093E+01 0.  1.
       -5    1    3    3    0  502 -0.10440217995E+04 -0.75722943447E+03 -0.40166730174E+03  0.13508281332E+04  0.46999998093E+01 0. -1.
</event>
<event>
 5   0  0.2672155E-06  0.2939937E+04  0.7818609E-02  0.8261093E-01
       -1   -1    0    0    0  501  0.00000000000E+00  0.00000000000E+00  0.86576125860E+03  0.86576125861E+03  0.50400001928E-02 0.  1.
        1   -1    0    0  501    0  0.00000000000E+00  0.00000000000E+00 -0.24958474886E+04  0.24958474886E+04  0.50400001928E-02 0. -1.
    10030    2    1    2    0    0  0.00000000000E+00  0.00000000000E+00 -0.16300862300E+04  0.33616087472E+04  0.29399374572E+04 0.  0.
        5    1    3    3  502    0  0.37993571540E+03 -0.12671365323E+04 -0.82177740433E+02  0.13254287647E+04  0.46999998093E+01 0.  1.
       -5    1    3    3    0  502 -0.37993571540E+03  0.12671365323E+04 -0.15479084895E+04  0.20361799825E+04  0.46999998093E+01 0. -1.
</event>
<event>
 5   0  0.7217255E-06  0.3004823E+04  0.7818609E-02  0.8242355E-01
       -2   -1    0    0    0  501  0.00000000000E+00  0.00000000000E+00  0.14454871859E+04  0.14454871859E+04  0.25500000920E-02 0. -1.
        2   -1    0    0  501    0  0.00000000000E+00  0.00000000000E+00 -0.15615773951E+04  0.15615773951E+04  0.25500000920E-02 0.  1.
    10030    2    1    2    0    0  0.00000000000E+00  0.00000000000E+00 -0.11609020914E+03  0.30070645810E+04  0.30048228662E+04 0.  0.
        1    1    3    3  502    0  0.61571300800E+03  0.13701168194E+04 -0.88358086833E+02  0.15047025482E+04  0.50400001928E-02 0.  1.
       -1    1    3    3    0  502 -0.61571300800E+03 -0.13701168194E+04 -0.27732122306E+02  0.15023620328E+04  0.50400001928E-02 0. -1.
</event>
<event>
 5   0  0.2628425E-06  0.3014972E+04  0.7818609E-02  0.8239468E-01
        1   -1    0    0  501    0  0.00000000000E+00  0.00000000000E+00  0.12126631623E+04  0.12126631623E+04  0.50400001928E-02 0. -1.
       -1   -1    0    0    0  501  0.00000000000E+00  0.00000000000E+00 -0.18739867543E+04  0.18739867543E+04  0.50400001928E-02 0.  1.
    10030    2    1    2    0    0  0.00000000000E+00  0.00000000000E+00 -0.66132359204E+03  0.30866499166E+04  0.30149724401E+04 0.  0.
        1    1    3    3  502    0 -0.38287164038E+03  0.42988771932E+03 -0.17570255142E+04  0.18489274734E+04  0.50400001928E-02 0.  1.
       -1    1    3    3    0  502  0.38287164038E+03 -0.42988771932E+03  0.10957019222E+04  0.12377224433E+04  0.50400001928E-02 0. -1.
</event>
<event>
 5   0  0.7201538E-06  0.3008551E+04  0.7818609E-02  0.8241293E-01
       -2   -1    0    0    0  501  0.00000000000E+00  0.00000000000E+00  0.15193765677E+04  0.15193765677E+04  0.25500000920E-02 0. -1.
        2   -1    0    0  501    0  0.00000000000E+00  0.00000000000E+00 -0.14893244157E+04  0.14893244157E+04  0.25500000920E-02 0.  1.
    10030    2    1    2    0    0  0.00000000000E+00  0.00000000000E+00  0.30052151966E+02  0.30087009834E+04  0.30085508930E+04 0.  0.
        3    1    3    3  502    0 -0.81528434491E+03 -0.44063222291E+03 -0.11699377963E+04  0.14925145816E+04  0.10100000352E+00 0.  1.
       -3    1    3    3    0  502  0.81528434491E+03  0.44063222291E+03  0.11999899482E+04  0.15161864018E+04  0.10100000352E+00 0. -1.
</event>
<event>
 5   0  0.7193153E-06  0.2873827E+04  0.7818609E-02  0.8280708E-01
       -2   -1    0    0    0  501  0.00000000000E+00  0.00000000000E+00  0.92173347839E+03  0.92173347840E+03  0.25500000920E-02 0.  1.
        2   -1    0    0  501    0  0.00000000000E+00  0.00000000000E+00 -0.22400404123E+04  0.22400404123E+04  0.25500000920E-02 0. -1.
    10030    2    1    2    0    0  0.00000000000E+00  0.00000000000E+00 -0.13183069339E+04  0.31617738907E+04  0.28738268848E+04 0.  0.
        4    1    3    3  502    0  0.11065840783E+04  0.43588511500E+03 -0.15462928143E+04  0.19507811861E+04  0.12699999809E+01 0. -1.
       -4    1    3    3    0  502 -0.11065840783E+04 -0.43588511500E+03  0.22798588039E+03  0.12109927045E+04  0.12699999809E+01 0.  1.
</event>
<event>
 5   0  0.6792811E-06  0.2679856E+04  0.7818609E-02  0.8341571E-01
       -2   -1    0    0    0  501  0.00000000000E+00  0.00000000000E+00  0.13908102144E+04  0.13908102144E+04  0.25500000920E-02 0.  1.
        2   -1    0    0  501    0  0.00000000000E+00  0.00000000000E+00 -0.12909070941E+04  0.12909070941E+04  0.25500000920E-02 0. -1.
    10030    2    1    2    0    0  0.00000000000E+00  0.00000000000E+00  0.99903120276E+02  0.26817173084E+04  0.26798557963E+04 0.  0.
        2    1    3    3  502    0 -0.55403295738E+03  0.11559213980E+04  0.44047893973E+03  0.13554071317E+04  0.25500000920E-02 0.  1.
       -2    1    3    3    0  502  0.55403295738E+03 -0.11559213980E+04 -0.34057581945E+03  0.13263101768E+04  0.25500000920E-02 0. -1.
</event>
<event>
 5   0  0.6792811E-06  0.3043645E+04  0.7818609E-02  0.8231376E-01
       -2   -1    0    0    0  501  0.00000000000E+00  0.00000000000E+00  0.94500667550E+03  0.94500667550E+03  0.25500000920E-02 0. -1.
        2   -1    0    0  501    0  0.00000000000E+00  0.00000000000E+00 -0.24507166265E+04  0.24507166265E+04  0.25500000920E-02 0.  1.
    10030    2    1    2    0    0  0.00000000000E+00  0.00000000000E+00 -0.15057099510E+04  0.33957233020E+04  0.30436449016E+04 0.  0.
        2    1    3    3  502    0 -0.97358813941E+03  0.35515448250E+03  0.49047884046E+03  0.11465505068E+04  0.25500000920E-02 0. -1.
       -2    1    3    3    0  502  0.97358813941E+03 -0.35515448250E+03 -0.19961887915E+04  0.22491727952E+04  0.25500000920E-02 0.  1.
</event>
<event>
 5   0  0.7217255E-06  0.2988759E+04  0.7818609E-02  0.8246948E-01
       -2   -1    0    0    0  501  0.00000000000E+00  0.00000000000E+00  0.97593049198E+03  0.97593049199E+03  0.25500000920E-02 0. -1.
        2   -1    0    0  501    0  0.00000000000E+00  0.00000000000E+00 -0.22882469844E+04  0.22882469844E+04  0.25500000920E-02 0.  1.
    10030    2    1    2    0    0  0.00000000000E+00  0.00000000000E+00 -0.13123164925E+04  0.32641774764E+04  0.29887589433E+04 0.  0.
        1    1    3    3  502    0 -0.74176261589E+03 -0.12704263753E+04 -0.36932539302E+03  0.15167716372E+04  0.50400001928E-02 0. -1.
       -1    1    3    3    0  502  0.74176261589E+03  0.12704263753E+04 -0.94299109943E+03  0.17474058392E+04  0.50400001928E-02 0.  1.
</event>
<event>
 5   0  0.2672155E-06  0.2940746E+04  0.7818609E-02  0.8260856E-01
       -1   -1    0    0    0  501  0.00000000000E+00  0.00000000000E+00  0.12967654988E+04  0.12967654988E+04  0.50400001928E-02 0.  1.
        1   -1    0    0  501    0  0.00000000000E+00  0.00000000000E+00 -0.16672229806E+04  0.16672229806E+04  0.50400001928E-02 0. -1.
    10030    2    1    2    0    0  0.00000000000E+00  0.00000000000E+00 -0.37045748188E+03  0.29639884794E+04  0.29407463271E+04 0.  0.
        5    1    3    3  502    0  0.95987274615E+03  0.16053287864E+03 -0.12961417099E+04  0.16208429646E+04  0.46999998093E+01 0. -1.
       -5    1    3    3    0  502 -0.95987274615E+03 -0.16053287864E+03  0.92568422799E+03  0.13431455148E+04  0.46999998093E+01 0.  1.
</event>
<event>
 5   0  0.2628425E-06  0.3003630E+04  0.7818609E-02  0.8242695E-01
        1   -1    0    0  501    0  0.00000000000E+00  0.00000000000E+00  0.15816897256E+04  0.15816897256E+04  0.50400001928E-02 0. -1.
       -1   -1    0    0    0  501  0.00000000000E+00  0.00000000000E+00 -0.14259743687E+04  0.14259743687E+04  0.50400001928E-02 0.  1.
    10030    2    1    2    0    0  0.00000000000E+00  0.00000000000E+00  0.15571535687E+03  0.30076640943E+04  0.30036304753E+04 0.  0.
        1    1    3    3  502    0 -0.50358439019E+03  0.47494788358E+03  0.14124176268E+04  0.15729260258E+04  0.50400001928E-02 0. -1.
       -1    1    3    3    0  502  0.50358439019E+03 -0.47494788358E+03 -0.12567022699E+04  0.14347380685E+04  0.50400001928E-02 0.  1.
</event>
<event>
 5   0  0.7217255E-06  0.2951630E+04  0.7818609E-02  0.8257680E-01
        2   -1    0    0  501    0  0.00000000000E+00  0.00000000000E+00  0.13888652053E+04  0.13888652053E+04  0.25500000920E-02 0.  1.
       -2   -1    0    0    0  501  0.00000000000E+00  0.00000000000E+00 -0.15682086807E+04  0.15682086807E+04  0.25500000920E-02 0. -1.
    10030    2    1    2    0    0  0.00000000000E+00  0.00000000000E+00 -0.17934347536E+03  0.29570738860E+04  0.29516303775E+04 0.  0.
        1    1    3    3  502    0 -0.25809133209E+03  0.11733325931E+04  0.76906129433E+03  0.14264556720E+04  0.50400001928E-02 0. -1.
       -1    1    3    3    0  502  0.25809133209E+03 -0.11733325931E+04 -0.94840476969E+03  0.15306182140E+04  0.50400001928E-02 0.  1.
</event>
<event>
 5   0  0.2422083E-06  0.2992188E+04  0.7818609E-02  0.8245965E-01
       -1   -1    0    0    0  501  0.00000000000E+00  0.00000000000E+00  0.15297501430E+04  0.15297501430E+04  0.50400001928E-02 0.  1.
        1   -1    0    0  501    0  0.00000000000E+00  0.00000000000E+00 -0.14631779850E+04  0.14631779850E+04  0.50400001928E-02 0. -1.
    10030    2    1    2    0    0  0.00000000000E+00  0.00000000000E+00  0.66572158021E+02  0.29929281280E+04  0.29921876491E+04 0.  0.
        2    1    3    3  502    0 -0.91314469124E+03 -0.11838061855E+04 -0.22102888020E+02  0.14952320387E+04  0.25500000920E-02 0. -1.
       -2    1    3    3    0  502  0.91314469124E+03  0.11838061855E+04  0.88675046040E+02  0.14976960893E+04  0.25500000920E-02 0.  1.
</event>
<event>
 5   0  0.2552990E-06  0.2970502E+04  0.7818609E-02  0.8252205E-01
       -1   -1    0    0    0  501  0.00000000000E+00  0.00000000000E+00  0.94957631637E+03  0.94957631639E+03  0.50400001928E-02 0.  1.
        1   -1    0    0  501    0  0.00000000000E+00  0.00000000000E+00 -0.23231100411E+04  0.23231100411E+04  0.50400001928E-02 0. -1.
    10030    2    1    2    0    0  0.00000000000E+00  0.00000000000E+00 -0.13735337248E+04  0.32726863575E+04  0.29705018266E+04 0.  0.
        3    1    3    3  502    0  0.12607626663E+04  0.77298964835E+03 -0.53516499287E+03  0.15727164643E+04  0.10100000352E+00 0.  1.
       -3    1    3    3    0  502 -0.12607626663E+04 -0.77298964835E+03 -0.83836873189E+03  0.16999698933E+04  0.10100000352E+00 0. -1.
</event>
<event>
 5   0  0.2504260E-06  0.2900382E+04  0.7818609E-02  0.8272764E-01
       -1   -1    0    0    0  501  0.00000000000E+00  0.00000000000E+00  0.17722533011E+04  0.17722533011E+04  0.50400001928E-02 0. -1.
        1   -1    0    0  501    0  0.00000000000E+00  0.00000000000E+00 -0.11866552860E+04  0.11866552860E+04  0.50400001928E-02 0.  1.
    10030    2    1    2    0    0  0.00000000000E+00  0.00000000000E+00  0.58559801508E+03  0.29589085871E+04  0.29003818699E+04 0.  0.
        4    1    3    3  502    0 -0.21849196053E+03  0.13955005482E+04  0.62789576068E+03  0.15457733391E+04  0.12699999809E+01 0.  1.
       -4    1    3    3    0  502  0.21849196053E+03 -0.13955005482E+04 -0.42297745597E+02  0.14131352479E+04  0.12699999809E+01 0. -1.
</event>
<event>
 5   0  0.7217255E-06  0.2943769E+04  0.7818609E-02  0.8259973E-01
        2   -1    0    0  501    0  0.00000000000E+00  0.00000000000E+00  0.19729393040E+04  0.19729393040E+04  0.25500000920E-02 0.  1.
       -2   -1    0    0    0  501  0.00000000000E+00  0.00000000000E+00 -0.10980797162E+04  0.10980797162E+04  0.25500000920E-02 0. -1.
    10030    2    1    2    0    0  0.00000000000E+00  0.00000000000E+00  0.87485958781E+03  0.30710190203E+04  0.29437694414E+04 0.  0.
        1    1    3    3  502    0  0.10984323341E+03  0.18318923771E+03  0.19566848853E+04  0.19683088104E+04  0.50400001928E-02 0.  1.
       -1    1    3    3    0  502 -0.10984323341E+03 -0.18318923771E+03 -0.10818252975E+04  0.11027102099E+04  0.50400001928E-02 0. -1.
</event>
<event>
 5   0  0.2422083E-06  0.3017167E+04  0.7818609E-02  0.8238846E-01
        1   -1    0    0  501    0  0.00000000000E+00  0.00000000000E+00  0.16799404368E+04  0.16799404368E+04  0.50400001928E-02 0. -1.
       -1   -1    0    0    0  501  0.00000000000E+00  0.00000000000E+00 -0.13547050104E+04  0.13547050104E+04  0.50400001928E-02 0.  1.
    10030    2    1    2    0    0  0.00000000000E+00  0.00000000000E+00  0.32523542635E+03  0.30346454472E+04  0.30171667020E+04 0.  0.
        2    1    3    3  502    0 -0.12645163706E+04 -0.19800039328E+03  0.96575337144E+03  0.16033980733E+04  0.25500000920E-02 0. -1.
       -2    1    3    3    0  502  0.12645163706E+04  0.19800039328E+03 -0.64051794509E+03  0.14312473738E+04  0.25500000920E-02 0.  1.
</event>
<event>
 5   0  0.2672155E-06  0.2836118E+04  0.7818609E-02  0.8292142E-01
        1   -1    0    0  501    0  0.00000000000E+00  0.00000000000E+00  0.18275539266E+04  0.18275539266E+04  0.50400001928E-02 0. -1.
       -1   -1    0    0    0  501  0.00000000000E+00  0.00000000000E+00 -0.11003188068E+04  0.11003188068E+04  0.50400001928E-02 0.  1.
    10030    2    1    2    0    0  0.00000000000E+00  0.00000000000E+00  0.72723511988E+03  0.29278727334E+04  0.28361184431E+04 0.  0.
        5    1    3    3  502    0 -0.98324409731E+03 -0.14228614360E+03  0.14082107219E+04  0.17233960163E+04  0.46999998093E+01 0. -1.
       -5    1    3    3    0  502  0.98324409731E+03  0.14228614360E+03 -0.68097560203E+03  0.12044767171E+04  0.46999998093E+01 0.  1.
</event>
<event>
 5   0  0.2672155E-06  0.2589336E+04  0.7818609E-02  0.8371833E-01
        1   -1    0    0  501    0  0.00000000000E+00  0.00000000000E+00  0.96806260920E+03  0.96806260921E+03  0.50400001928E-02 0.  1.
       -1   -1    0    0    0  501  0.00000000000E+00  0.00000000000E+00 -0.17314633704E+04  0.17314633704E+04  0.50400001928E-02 0. -1.
    10030    2    1    2    0    0  0.00000000000E+00  0.00000000000E+00 -0.76340076119E+03  0.26995259796E+04  0.25893357821E+04 0.  0.
        5    1    3    3  502    0  0.75909098533E+03 -0.67114527979E+03 -0.12219041388E+04  0.15873647737E+04  0.46999998093E+01 0. -1.
       -5    1    3    3    0  502 -0.75909098533E+03  0.67114527979E+03  0.45850337757E+03  0.11121612059E+04  0.46999998093E+01 0.  1.
</event>
<event>
 5   0  0.7217255E-06  0.3087339E+04  0.7818609E-02  0.8219221E-01
       -2   -1    0    0    0  501  0.00000000000E+00  0.00000000000E+00  0.14322203918E+04  0.14322203918E+04  0.25500000920E-02 0. -1.
        2   -1    0    0  501    0  0.00000000000E+00  0.00000000000E+00 -0.16637910244E+04  0.16637910244E+04  0.25500000920E-02 0.  1.
    10030    2    1    2    0    0  0.00000000000E+00  0.00000000000E+00 -0.23157063259E+03  0.30960114161E+04  0.30873389401E+04 0.  0.
        1    1    3    3  502    0 -0.90485872534E+03  0.12222256116E+04 -0.38169176749E+03  0.15678945640E+04  0.50400001928E-02 0. -1.
       -1    1    3    3    0  502  0.90485872534E+03 -0.12222256116E+04  0.15012113490E+03  0.15281168521E+04  0.50400001928E-02 0.  1.
</event>
<event>
 5   0  0.2672155E-06  0.2990835E+04  0.7818609E-02  0.8246353E-01
        1   -1    0    0  501    0  0.00000000000E+00  0.00000000000E+00  0.15765082202E+04  0.15765082202E+04  0.50400001928E-02 0. -1.
       -1   -1    0    0    0  501  0.00000000000E+00  0.00000000000E+00 -0.14184974100E+04  0.14184974100E+04  0.50400001928E-02 0.  1.
    10030    2    1    2    0    0  0.00000000000E+00  0.00000000000E+00  0.15801081024E+03  0.29950056303E+04  0.29908345506E+04 0.  0.
        5    1    3    3  502    0  0.44040161024E+02 -0.13213957677E+04  0.77871045153E+03  0.15344179248E+04  0.46999998093E+01 0.  1.
       -5    1    3    3    0  502 -0.44040161024E+02  0.13213957677E+04 -0.62069964130E+03  0.14605877055E+04  0.46999998093E+01 0. -1.
</event>
<event>
 5   0  0.6792811E-06  0.3005777E+04  0.7818609E-02  0.8242083E-01
        2   -1    0    0  501    0  0.00000000000E+00  0.00000000000E+00  0.15933259744E+04  0.15933259744E+04  0.25500000920E-02 0. -1.
       -2   -1    0    0    0  501  0.00000000000E+00  0.00000000000E+00 -0.14175840707E+04  0.14175840707E+04  0.25500000920E-02 0.  1.
    10030    2    1    2    0    0  0.00000000000E+00  0.00000000000E+00  0.17574190369E+03  0.30109100450E+04  0.30057767852E+04 0.  0.
        2    1    3    3  502    0 -0.78896427040E+03  0.50295949108E+03  0.12659920308E+04  0.15742200265E+04  0.25500000920E-02 0. -1.
       -2    1    3    3    0  502  0.78896427040E+03 -0.50295949108E+03 -0.10902501272E+04  0.14366900185E+04  0.25500000920E-02 0.  1.
</event>
<event>
 5   0  0.2422083E-06  0.2903266E+04  0.7818609E-02  0.8271906E-01
        1   -1    0    0  501    0  0.00000000000E+00  0.00000000000E+00  0.15888895670E+04  0.15888895671E+04  0.50400001928E-02 0. -1.
       -1   -1    0    0    0  501  0.00000000000E+00  0.00000000000E+00 -0.13262335090E+04  0.13262335090E+04  0.50400001928E-02 0.  1.
    10030    2    1    2    0    0  0.00000000000E+00  0.00000000000E+00  0.26265605803E+03  0.29151230761E+04  0.29032661510E+04 0.  0.
        2    1    3    3  502    0 -0.28203535017E+02  0.14513086046E+04  0.14348037637E+03  0.14586564790E+04  0.25500000920E-02 0.  1.
       -2    1    3    3    0  502  0.28203535017E+02 -0.14513086046E+04  0.11917568166E+03  0.14564665971E+04  0.25500000920E-02 0. -1.
</event>
<event>
 5   0  0.6780150E-06  0.3012083E+04  0.7818609E-02  0.8240289E-01
       -2   -1    0    0    0  501  0.00000000000E+00  0.00000000000E+00  0.14988121356E+04  0.14988121356E+04  0.25500000920E-02 0.  1.
        2   -1    0    0  501    0  0.00000000000E+00  0.00000000000E+00 -0.15133053448E+04  0.15133053448E+04  0.25500000920E-02 0. -1.
    10030    2    1    2    0    0  0.00000000000E+00  0.00000000000E+00 -0.14493209214E+02  0.30121174804E+04  0.30120826122E+04 0.  0.
        5    1    3    3  502    0  0.53773165409E+03  0.21143524027E+03  0.13835527756E+04  0.14993667215E+04  0.46999998093E+01 0.  1.
       -5    1    3    3    0  502 -0.53773165409E+03 -0.21143524027E+03 -0.13980459849E+04  0.15127507589E+04  0.46999998093E+01 0. -1.
</event>
<event>
 5   0  0.7193153E-06  0.3082330E+04  0.7818609E-02  0.8220604E-01
       -2   -1    0    0    0  501  0.00000000000E+00  0.00000000000E+00  0.88736545423E+03  0.88736545424E+03  0.25500000920E-02 0. -1.
        2   -1    0    0  501    0  0.00000000000E+00  0.00000000000E+00 -0.26766762181E+04  0.26766762181E+04  0.25500000920E-02 0.  1.
    10030    2    1    2    0    0  0.00000000000E+00  0.00000000000E+00 -0.17893107638E+04  0.35640416723E+04  0.30823302926E+04 0.  0.
        4    1    3    3  502    0  0.17558159745E+03 -0.15234221747E+04 -0.71723349831E+03  0.16929469938E+04  0.12699999809E+01 0. -1.
       -4    1    3    3    0  502 -0.17558159745E+03  0.15234221747E+04 -0.10720772655E+04  0.18710946785E+04  0.12699999809E+01 0.  1.
</event>
<event>
 5   0  0.7193153E-06  0.2660966E+04  0.7818609E-02  0.8347782E-01
       -2   -1    0    0    0  501  0.00000000000E+00  0.00000000000E+00  0.16052356252E+04  0.16052356252E+04  0.25500000920E-02 0. -1.
        2   -1    0    0  501    0  0.00000000000E+00  0.00000000000E+00 -0.11027575295E+04  0.11027575295E+04  0.25500000920E-02 0.  1.
    10030    2    1    2    0    0  0.00000000000E+00  0.00000000000E+00  0.50247809566E+03  0.27079931547E+04  0.26609664953E+04 0.  0.
        4    1    3    3  502    0  0.96072361559E+03  0.90395594093E+03  0.42767501290E+03  0.13867349200E+04  0.12699999809E+01 0. -1.
       -4    1    3    3    0  502 -0.96072361559E+03 -0.90395594093E+03  0.74803082765E+02  0.13212582347E+04  0.12699999809E+01 0.  1.
</event>
<event>
 5   0  0.2672155E-06  0.2666842E+04  0.7818609E-02  0.8345844E-01
       -1   -1    0    0    0  501  0.00000000000E+00  0.00000000000E+00  0.81233655997E+03  0.81233655998E+03  0.50400001928E-02 0.  1.
        1   -1    0    0  501    0  0.00000000000E+00  0.00000000000E+00 -0.21887618582E+04  0.21887618582E+04  0.50400001928E-02 0. -1.
    10030    2    1    2    0    0  0.00000000000E+00  0.00000000000E+00 -0.13764252982E+04  0.30010984182E+04  0.26668417865E+04 0.  0.
        5    1    3    3  502    0  0.68527583531E+03 -0.25309609486E+03 -0.19435213107E+04  0.20762846093E+04  0.46999998093E+01 0. -1.
       -5    1    3    3    0  502 -0.68527583531E+03  0.25309609486E+03  0.56709601249E+03  0.92481380887E+03  0.46999998093E+01 0.  1.
</event>
<event>
 5   0  0.2298500E-06  0.2984981E+04  0.7818609E-02  0.8248033E-01
        3   -1    0    0  501    0  0.00000000000E+00  0.00000000000E+00  0.12373868329E+04  0.12373868370E+04  0.10100000352E+00 0. -1.
       -3   -1    0    0    0  501  0.00000000000E+00  0.00000000000E+00 -0.18001872079E+04  0.18001872107E+04  0.10100000352E+00 0.  1.
    10030    2    1    2    0    0  0.00000000000E+00  0.00000000000E+00 -0.56280037497E+03  0.30375740477E+04  0.29849810441E+04 0.  0.
        1    1    3    3  502    0  0.14800514037E+04  0.18221731556E+03 -0.21889607518E+03  0.15072062896E+04  0.50400001928E-02 0.  1.
       -1    1    3    3    0  502 -0.14800514037E+04 -0.18221731556E+03 -0.34390429979E+03  0.15303677581E+04  0.50400001928E-02 0. -1.
</event>
<event>
 5   0  0.2672155E-06  0.3028077E+04  0.7818609E-02  0.8235758E-01
        1   -1    0    0  501    0  0.00000000000E+00  0.00000000000E+00  0.22751248852E+04  0.22751248852E+04  0.50400001928E-02 0. -1.
       -1   -1    0    0    0  501  0.00000000000E+00  0.00000000000E+00 -0.10075546275E+04  0.10075546275E+04  0.50400001928E-02 0.  1.
    10030    2    1    2    0    0  0.00000000000E+00  0.00000000000E+00  0.12675702578E+04  0.32826795127E+04  0.30280770176E+04 0.  0.
        5    1    3    3  502    0 -0.50743462251E+03  0.13145877930E+04  0.33455445210E+02  0.14095291123E+04  0.46999998093E+01 0. -1.
       -5    1    3    3    0  502  0.50743462251E+03 -0.13145877930E+04  0.12341148126E+04  0.18731504004E+04  0.46999998093E+01 0.  1.
</event>
<event>
 5   0  0.7193153E-06  0.2968602E+04  0.7818609E-02  0.8252754E-01
       -2   -1    0    0    0  501  0.00000000000E+00  0.00000000000E+00  0.15232928389E+04  0.15232928389E+04  0.25500000920E-02 0. -1.
        2   -1    0    0  501    0  0.00000000000E+00  0.00000000000E+00 -0.14463070706E+04  0.14463070706E+04  0.25500000920E-02 0.  1.
    10030    2    1    2    0    0  0.00000000000E+00  0.00000000000E+00  0.76985768235E+02  0.29695999095E+04  0.29686018282E+04 0.  0.
        4    1    3    3  502    0 -0.34447951514E+03 -0.91285825532E+03 -0.10804408586E+04  0.14557920155E+04  0.12699999809E+01 0.  1.
       -4    1    3    3    0  502  0.34447951514E+03  0.91285825532E+03  0.11574266268E+04  0.15138078940E+04  0.12699999809E+01 0. -1.
</event>
<event>
 5   0  0.6780150E-06  0.2921756E+04  0.7818609E-02  0.8266434E-01
       -2   -1    0    0    0  501  0.00000000000E+00  0.00000000000E+00  0.11802813600E+04  0.11802813600E+04  0.25500000920E-02 0.  1.
        2   -1    0    0  501    0  0.00000000000E+00  0.00000000000E+00 -0.18081830406E+04  0.18081830406E+04  0.25500000920E-02 0. -1.
    10030    2    1    2    0    0  0.00000000000E+00  0.00000000000E+00 -0.62790168056E+03  0.29884644006E+04  0.29217561420E+04 0.  0.
        5    1    3    3  502    0 -0.39473695613E+03 -0.13326602273E+04 -0.77404556112E+03  0.15909019978E+04  0.46999998093E+01 0. -1.
       -5    1    3    3    0  502  0.39473695613E+03  0.13326602273E+04  0.14614388056E+03  0.13975624028E+04  0.46999998093E+01 0.  1.
</event>
<event>
 5   0  0.2552990E-06  0.2993635E+04  0.7818609E-02  0.8245551E-01
       -1   -1    0    0    0  501  0.00000000000E+00  0.00000000000E+00  0.14862755857E+04  0.14862755857E+04  0.50400001928E-02 0. -1.
        1   -1    0    0  501    0  0.00000000000E+00  0.00000000000E+00 -0.15074341639E+04  0.15074341639E+04  0.50400001928E-02 0.  1.
    10030    2    1    2    0    0  0.00000000000E+00  0.00000000000E+00 -0.21158578221E+02  0.29937097496E+04  0.29936349776E+04 0.  0.
        3    1    3    3  502    0 -0.33587478000E+03 -0.38323433316E+02 -0.14687590598E+04  0.15071608207E+04  0.10100000352E+00 0.  1.
       -3    1    3    3    0  502  0.33587478000E+03  0.38323433316E+02  0.14476004816E+04  0.14865489289E+04  0.10100000352E+00 0. -1.
</event>
<event>
 5   0  0.7193153E-06  0.2970410E+04  0.7818609E-02  0.8252231E-01
        2   -1    0    0  501    0  0.00000000000E+00  0.00000000000E+00  0.17226110884E+04  0.17226110884E+04  0.25500000920E-02 0.  1.
       -2   -1    0    0    0  501  0.00000000000E+00  0.00000000000E+00 -0.12805172626E+04  0.12805172626E+04  0.25500000920E-02 0. -1.
    10030    2    1    2    0    0  0.00000000000E+00  0.00000000000E+00  0.44209382581E+03  0.30031283511E+04  0.29704095580E+04 0.  0.
        4    1    3    3  502    0 -0.13301412810E+04 -0.19744848631E+03  0.85852359475E+03  0.15954078186E+04  0.12699999809E+01 0.  1.
       -4    1    3    3    0  502  0.13301412810E+04  0.19744848631E+03 -0.41642976895E+03  0.14077205324E+04  0.12699999809E+01 0. -1.
</event>
<event>
 5   0  0.7217255E-06  0.2998277E+04  0.7818609E-02  0.8244223E-01
       -2   -1    0    0    0  501  0.00000000000E+00  0.00000000000E+00  0.14380716342E+04  0.14380716342E+04  0.25500000920E-02 0.  1.
        2   -1    0    0  501    0  0.00000000000E+00  0.00000000000E+00 -0.15627986577E+04  0.15627986577E+04  0.25500000920E-02 0. -1.
    10030    2    1    2    0    0  0.00000000000E+00  0.00000000000E+00 -0.12472702351E+03  0.30008702920E+04  0.29982771184E+04 0.  0.
        1    1    3    3  502    0 -0.97180481529E+03  0.32032889611E+03 -0.11589393376E+04  0.15460128036E+04  0.50400001928E-02 0. -1.
       -1    1    3    3    0  502  0.97180481529E+03 -0.32032889611E+03  0.10342123141E+04  0.14548574883E+04  0.50400001928E-02 0.  1.
</event>
<event>
 5   0  0.2552990E-06  0.3004236E+04  0.7818609E-02  0.8242522E-01
       -1   -1    0    0    0  501  0.00000000000E+00  0.00000000000E+00  0.13112835565E+04  0.13112835565E+04  0.50400001928E-02 0. -1.
        1   -1    0    0  501    0  0.00000000000E+00  0.00000000000E+00 -0.17207245448E+04  0.17207245449E+04  0.50400001928E-02 0.  1.
    10030    2    1    2    0    0  0.00000000000E+00  0.00000000000E+00 -0.40944098838E+03  0.30320081013E+04  0.30042355440E+04 0.  0.
        3    1    3    3  502    0  0.82123097059E+03  0.42773057985E+03  0.98900029249E+03  0.13548045412E+04  0.10100000352E+00 0. -1.
       -3    1    3    3    0  502 -0.82123097059E+03 -0.42773057985E+03 -0.13984412809E+04  0.16772035602E+04  0.10100000352E+00 0.  1.
</event>
<event>
 5   0  0.7201538E-06  0.3028832E+04  0.7818609E-02  0.8235545E-01
       -2   -1    0    0    0  501  0.00000000000E+00  0.00000000000E+00  0.97955146934E+03  0.97955146935E+03  0.25500000920E-02 0. -1.
        2   -1    0    0  501    0  0.00000000000E+00  0.00000000000E+00 -0.23413322318E+04  0.23413322318E+04  0.25500000920E-02 0.  1.
    10030    2    1    2    0    0  0.00000000000E+00  0.00000000000E+00 -0.13617807624E+04  0.33208837011E+04  0.30288317404E+04 0.  0.
        3    1    3    3  502    0  0.31650987809E+02  0.14817841532E+04 -0.33981730036E+03  0.15205794519E+04  0.10100000352E+00 0. -1.
       -3    1    3    3    0  502 -0.31650987809E+02 -0.14817841532E+04 -0.10219634621E+04  0.18003042492E+04  0.10100000352E+00 0.  1.
</event>
<event>
 5   0  0.2552990E-06  0.2985038E+04  0.7818609E-02  0.8248016E-01
        1   -1    0    0  501    0  0.00000000000E+00  0.00000000000E+00  0.17797429377E+04  0.17797429377E+04  0.50400001928E-02 0. -1.
       -1   -1    0    0    0  501  0.00000000000E+00  0.00000000000E+00 -0.12516489538E+04  0.12516489538E+04  0.50400001928E-02 0.  1.
    10030    2    1    2    0    0  0.00000000000E+00  0.00000000000E+00  0.52809398388E+03  0.30313918915E+04  0.29850382819E+04 0.  0.
        3    1    3    3  502    0 -0.14597061642E+04  0.31049816852E+03  0.24221484228E+03  0.15118926015E+04  0.10100000352E+00 0.  1.
       -3    1    3    3    0  502  0.14597061642E+04 -0.31049816852E+03  0.28587914160E+03  0.15194992900E+04  0.10100000352E+00 0. -1.
</event>
<event>
 5   0  0.2672155E-06  0.2740025E+04  0.7818609E-02  0.8322134E-01
        1   -1    0    0  501    0  0.00000000000E+00  0.00000000000E+00  0.24618922818E+04  0.24618922818E+04  0.50400001928E-02 0. -1.
       -1   -1    0    0    0  501  0.00000000000E+00  0.00000000000E+00 -0.76239503014E+03  0.76239503016E+03  0.50400001928E-02 0.  1.
    10030    2    1    2    0    0  0.00000000000E+00  0.00000000000E+00  0.16994972517E+04  0.32242873120E+04  0.27400251389E+04 0.  0.
        5    1    3    3  502    0 -0.13005805308E+04 -0.34637068871E+03  0.11507493766E+04  0.17707988561E+04  0.46999998093E+01 0.  1.
       -5    1    3    3    0  502  0.13005805308E+04  0.34637068871E+03  0.54874787509E+03  0.14534884559E+04  0.46999998093E+01 0. -1.
</event>
<event>
 5   0  0.2628425E-06  0.3148238E+04  0.7818609E-02  0.8202623E-01
       -1   -1    0    0    0  501  0.00000000000E+00  0.00000000000E+00  0.13545074330E+04  0.13545074330E+04  0.50400001928E-02 0.  1.
        1   -1    0    0  501    0  0.00000000000E+00  0.00000000000E+00 -0.18293364986E+04  0.18293364986E+04  0.50400001928E-02 0. -1.
    10030    2    1    2    0    0  0.00000000000E+00  0.00000000000E+00 -0.47482906556E+03  0.31838439316E+04  0.31482375291E+04 0.  0.
        1    1    3    3  502    0  0.36305319734E+03  0.79065679364E+03  0.10892545654E+04  0.13940664610E+04  0.50400001928E-02 0.  1.
       -1    1    3    3    0  502 -0.36305319734E+03 -0.79065679364E+03 -0.15640836310E+04  0.17897774706E+04  0.50400001928E-02 0. -1.
</event>
<event>
 5   0  0.2628425E-06  0.3002891E+04  0.7818609E-02  0.8242906E-01
        1   -1    0    0  501    0  0.00000000000E+00  0.00000000000E+00  0.21631026895E+04  0.21631026895E+04  0.50400001928E-02 0.  1.
       -1   -1    0    0    0  501  0.00000000000E+00  0.00000000000E+00 -0.10421783482E+04  0.10421783482E+04  0.50400001928E-02 0. -1.
    10030    2    1    2    0    0  0.00000000000E+00  0.00000000000E+00  0.11209243414E+04  0.32052810377E+04  0.30028911322E+04 0.  0.
        1    1    3    3  502    0 -0.32677020781E+03 -0.25620299537E+03  0.21005963184E+04  0.21412434791E+04  0.50400001928E-02 0.  1.
       -1    1    3    3    0  502  0.32677020781E+03  0.25620299537E+03 -0.97967197707E+03  0.10640375587E+04  0.50400001928E-02 0. -1.
</event>
<event>
 5   0  0.7201538E-06  0.3030843E+04  0.7818609E-02  0.8234978E-01
        2   -1    0    0  501    0  0.00000000000E+00  0.00000000000E+00  0.16067264638E+04  0.16067264638E+04  0.25500000920E-02 0. -1.
       -2   -1    0    0    0  501  0.00000000000E+00  0.00000000000E+00 -0.14293049957E+04  0.14293049957E+04  0.25500000920E-02 0.  1.
    10030    2    1    2    0    0  0.00000000000E+00  0.00000000000E+00  0.17742146816E+03  0.30360314595E+04  0.30308428936E+04 0.  0.
        3    1    3    3  502    0 -0.13909944409E+04 -0.45906053873E+03 -0.30041281792E+03  0.14952758890E+04  0.10100000352E+00 0. -1.
       -3    1    3    3    0  502  0.13909944409E+04  0.45906053873E+03  0.47783428608E+03  0.15407555705E+04  0.10100000352E+00 0.  1.
</event>
<event>
 5   0  0.2628425E-06  0.2973024E+04  0.7818609E-02  0.8251476E-01
        1   -1    0    0  501    0  0.00000000000E+00  0.00000000000E+00  0.13503689019E+04  0.13503689019E+04  0.50400001928E-02 0.  1.
       -1   -1    0    0    0  501  0.00000000000E+00  0.00000000000E+00 -0.16363814753E+04  0.16363814753E+04  0.50400001928E-02 0. -1.
    10030    2    1    2    0    0  0.00000000000E+00  0.00000000000E+00 -0.28601257342E+03  0.29867503772E+04  0.29730244909E+04 0.  0.
        1    1    3    3  502    0  0.13646503791E+04 -0.28395133894E+03 -0.66193695040E+03  0.15430682248E+04  0.50400001928E-02 0. -1.
       -1    1    3    3    0  502 -0.13646503791E+04  0.28395133894E+03  0.37592437698E+03  0.14436821524E+04  0.50400001928E-02 0.  1.
</event>
<event>
 5   0  0.2422083E-06  0.2999710E+04  0.7818609E-02  0.8243814E-01
        1   -1    0    0  501    0  0.00000000000E+00  0.00000000000E+00  0.19971577829E+04  0.19971577830E+04  0.50400001928E-02 0.  1.
       -1   -1    0    0    0  501  0.00000000000E+00  0.00000000000E+00 -0.11263829356E+04  0.11263829356E+04  0.50400001928E-02 0. -1.
    10030    2    1    2    0    0  0.00000000000E+00  0.00000000000E+00  0.87077484739E+03  0.31235407185E+04  0.29997096169E+04 0.  0.
        2    1    3    3  502    0  0.23101784742E+03  0.88663611332E+03  0.16718715338E+04  0.19064750900E+04  0.25500000920E-02 0.  1.
       -2    1    3    3    0  502 -0.23101784742E+03 -0.88663611332E+03 -0.80109668638E+03  0.12170656285E+04  0.25500000920E-02 0. -1.
</event>
<event>
 5   0  0.2672155E-06  0.2977489E+04  0.7818609E-02  0.8250188E-01
       -1   -1    0    0    0  501  0.00000000000E+00  0.00000000000E+00  0.11024305021E+04  0.11024305021E+04  0.50400001928E-02 0. -1.
        1   -1    0    0  501    0  0.00000000000E+00  0.00000000000E+00 -0.20104307638E+04  0.20104307638E+04  0.50400001928E-02 0.  1.
    10030    2    1    2    0    0  0.00000000000E+00  0.00000000000E+00 -0.90800026167E+03  0.31128612659E+04  0.29774890068E+04 0.  0.
        5    1    3    3  502    0 -0.50944989717E+03 -0.93396435846E+03  0.63474512664E+03  0.12388511155E+04  0.46999998093E+01 0. -1.
       -5    1    3    3    0  502  0.50944989717E+03  0.93396435846E+03 -0.15427453883E+04  0.18740101504E+04  0.46999998093E+01 0.  1.
</event>
<event>
 5   0  0.7217255E-06  0.3026229E+04  0.7818609E-02  0.8236280E-01
       -2   -1    0    0    0  501  0.00000000000E+00  0.00000000000E+00  0.14323501264E+04  0.14323501264E+04  0.25500000920E-02 0.  1.
        2   -1    0    0  501    0  0.00000000000E+00  0.00000000000E+00 -0.15984329322E+04  0.15984329322E+04  0.25500000920E-02 0. -1.
    10030    2    1    2    0    0  0.00000000000E+00  0.00000000000E+00 -0.16608280585E+03  0.30307830586E+04  0.30262290808E+04 0.  0.
        1    1    3    3  502    0 -0.12349740433E+04  0.86441965726E+03 -0.21413291887E+03  0.15225751668E+04  0.50400001928E-02 0.  1.
       -1    1    3    3    0  502  0.12349740433E+04 -0.86441965726E+03  0.48050113017E+02  0.15082078918E+04  0.50400001928E-02 0. -1.
</event>
<event>
 5   0  0.7201538E-06  0.2973342E+04  0.7818609E-02  0.8251384E-01
       -2   -1    0    0    0  501  0.00000000000E+00  0.00000000000E+00  0.12228576254E+04  0.12228576254E+04  0.25500000920E-02 0. -1.
        2   -1    0    0  501    0  0.00000000000E+00  0.00000000000E+00 -0.18073979605E+04  0.18073979605E+04  0.25500000920E-02 0.  1.
    10030    2    1    2    0    0  0.00000000000E+00  0.00000000000E+00 -0.58454033508E+03  0.30302555859E+04  0.29733418089E+04 0.  0.
        3    1    3    3  502    0 -0.35957413103E+03  0.14097025437E+04  0.19586337198E+02  0.14549702582E+04  0.10100000352E+00 0. -1.
       -3    1    3    3    0  502  0.35957413103E+03 -0.14097025437E+04 -0.60412667227E+03  0.15752853277E+04  0.10100000352E+00 0.  1.
</event>
<event>
 5   0  0.2504260E-06  0.2972969E+04  0.7818609E-02  0.8251492E-01
       -1   -1    0    0    0  501  0.00000000000E+00  0.00000000000E+00  0.10740077855E+04  0.10740077855E+04  0.50400001928E-02 0.  1.
        1   -1    0    0  501    0  0.00000000000E+00  0.00000000000E+00 -0.20573742807E+04  0.20573742807E+04  0.50400001928E-02 0. -1.
    10030    2    1    2    0    0  0.00000000000E+00  0.00000000000E+00 -0.98336649513E+03  0.31313820662E+04  0.29729688833E+04 0.  0.
        4    1    3    3  502    0 -0.73287594274E+03  0.23061048334E+03  0.84865844859E+03  0.11447755753E+04  0.12699999809E+01 0.  1.
       -4    1    3    3    0  502  0.73287594274E+03 -0.23061048334E+03 -0.18320249437E+04  0.19866064909E+04  0.12699999809E+01 0. -1.
</event>
<event>
 5   0  0.2422083E-06  0.2981227E+04  0.7818609E-02  0.8249112E-01
        1   -1    0    0  501    0  0.00000000000E+00  0.00000000000E+00  0.17062138868E+04  0.17062138868E+04  0.50400001928E-02 0. -1.
       -1   -1    0    0    0  501  0.00000000000E+00  0.00000000000E+00 -0.13022571356E+04  0.13022571356E+04  0.50400001928E-02 0.  1.
    10030    2    1    2    0    0  0.00000000000E+00  0.00000000000E+00  0.40395675118E+03  0.30084710225E+04  0.29812274043E+04 0.  0.
        2    1    3    3  502    0 -0.76618580110E+03 -0.22187347762E+03 -0.10687591571E+04  0.13336096347E+04  0.25500000920E-02 0.  1.
       -2    1    3    3    0  502  0.76618580110E+03  0.22187347762E+03  0.14727159082E+04  0.16748613878E+04  0.25500000920E-02 0. -1.
</event>
<event>
 5   0  0.2504260E-06  0.3029141E+04  0.7818609E-02  0.8235458E-01
        1   -1    0    0  501    0  0.00000000000E+00  0.00000000000E+00  0.24880886464E+04  0.24880886464E+04  0.50400001928E-02 0. -1.
       -1   -1    0    0    0  501  0.00000000000E+00  0.00000000000E+00 -0.92196229282E+03  0.92196229283E+03  0.50400001928E-02 0.  1.
    10030    2    1    2    0    0  0.00000000000E+00  0.00000000000E+00  0.15661263536E+04  0.34100509392E+04  0.30291410751E+04 0.  0.
        4    1    3    3  502    0 -0.12673133098E+04  0.68320208785E+03  0.25375283415E+03  0.14619303102E+04  0.12699999809E+01 0.  1.
       -4    1    3    3    0  502  0.12673133098E+04 -0.68320208785E+03  0.13123735194E+04  0.19481206291E+04  0.12699999809E+01 0. -1.
</event>
<event>
 5   0  0.2628425E-06  0.2988633E+04  0.7818609E-02  0.8246984E-01
       -1   -1    0    0    0  501  0.00000000000E+00  0.00000000000E+00  0.84709558908E+03  0.84709558910E+03  0.50400001928E-02 0. -1.
        1   -1    0    0  501    0  0.00000000000E+00  0.00000000000E+00 -0.26360440027E+04  0.26360440027E+04  0.50400001928E-02 0.  1.
    10030    2    1    2    0    0  0.00000000000E+00  0.00000000000E+00 -0.17889484137E+04  0.34831395918E+04  0.29886326287E+04 0.  0.
        1    1    3    3  502    0 -0.15609216509E+03  0.13932013833E+04 -0.14973760132E+04  0.20512215345E+04  0.50400001928E-02 0.  1.
       -1    1    3    3    0  502  0.15609216509E+03 -0.13932013833E+04 -0.29157240041E+03  0.14319180574E+04  0.50400001928E-02 0. -1.
</event>
<event>
 5   0  0.2628425E-06  0.3044510E+04  0.7818609E-02  0.8231134E-01
       -1   -1    0    0    0  501  0.00000000000E+00  0.00000000000E+00  0.27726364385E+04  0.27726364385E+04  0.50400001928E-02 0.  1.
        1   -1    0    0  501    0  0.00000000000E+00  0.00000000000E+00 -0.83576073309E+03  0.83576073311E+03  0.50400001928E-02 0. -1.
    10030    2    1    2    0    0  0.00000000000E+00  0.00000000000E+00  0.19368757054E+04  0.36083971716E+04  0.30445102479E+04 0.  0.
        1    1    3    3  502    0  0.11973337543E+04 -0.56015272369E+03  0.18631620056E+04  0.22844587657E+04  0.50400001928E-02 0.  1.
       -1    1    3    3    0  502 -0.11973337543E+04  0.56015272369E+03  0.73713699717E+02  0.13239384059E+04  0.50400001928E-02 0. -1.
</event>
<event>
 5   0  0.7193153E-06  0.3008588E+04  0.7818609E-02  0.8241283E-01
       -2   -1    0    0    0  501  0.00000000000E+00  0.00000000000E+00  0.24586795131E+04  0.24586795131E+04  0.25500000920E-02 0.  1.
        2   -1    0    0  501    0  0.00000000000E+00  0.00000000000E+00 -0.92037215928E+03  0.92037215929E+03  0.25500000920E-02 0. -1.
    10030    2    1    2    0    0  0.00000000000E+00  0.00000000000E+00  0.15383073538E+04  0.33790516724E+04  0.30085878232E+04 0.  0.
        4    1    3    3  502    0 -0.13240030360E+04 -0.71294305489E+03  0.72385467390E+03  0.16689035444E+04  0.12699999809E+01 0.  1.
       -4    1    3    3    0  502  0.13240030360E+04  0.71294305489E+03  0.81445267991E+03  0.17101481279E+04  0.12699999809E+01 0. -1.
</event>
<event>
 5   0  0.7193153E-06  0.3031725E+04  0.7818609E-02  0.8234729E-01
        2   -1    0    0  501    0  0.00000000000E+00  0.00000000000E+00  0.18677037697E+04  0.18677037697E+04  0.25500000920E-02 0.  1.
       -2   -1    0    0    0  501  0.00000000000E+00  0.00000000000E+00 -0.12303017879E+04  0.12303017879E+04  0.25500000920E-02 0. -1.
    10030    2    1    2    0    0  0.00000000000E+00  0.00000000000E+00  0.63740198188E+03  0.30980055576E+04  0.30317251110E+04 0.  0.
        4    1    3    3  502    0 -0.14961517849E+04  0.22559292251E+03  0.22462668095E+03  0.15296473740E+04  0.12699999809E+01 0.  1.
       -4    1    3    3    0  502  0.14961517849E+04 -0.22559292251E+03  0.41277530093E+03  0.15683581836E+04  0.12699999809E+01 0. -1.
</event>
<event>
 5   0  0.2628425E-06  0.2326011E+04  0.7818609E-02  0.8467735E-01
        1   -1    0    0  501    0  0.00000000000E+00  0.00000000000E+00  0.73085563981E+03  0.73085563983E+03  0.50400001928E-02 0.  1.
       -1   -1    0    0    0  501  0.00000000000E+00  0.00000000000E+00 -0.18506821807E+04  0.18506821807E+04  0.50400001928E-02 0. -1.
    10030    2    1    2    0    0  0.00000000000E+00  0.00000000000E+00 -0.11198265409E+04  0.25815378205E+04  0.23260107560E+04 0.  0.
        1    1    3    3  502    0 -0.55769757495E+02  0.96991486413E+03  0.14964559555E+03  0.98297452347E+03  0.50400001928E-02 0.  1.
       -1    1    3    3    0  502  0.55769757495E+02 -0.96991486413E+03 -0.12694721364E+04  0.15985632971E+04  0.50400001928E-02 0. -1.
</event>
<event>
 5   0  0.2504260E-06  0.2872251E+04  0.7818609E-02  0.8281182E-01
        1   -1    0    0  501    0  0.00000000000E+00  0.00000000000E+00  0.16438605410E+04  0.16438605410E+04  0.50400001928E-02 0.  1.
       -1   -1    0    0    0  501  0.00000000000E+00  0.00000000000E+00 -0.12546419222E+04  0.12546419223E+04  0.50400001928E-02 0. -1.
    10030    2    1    2    0    0  0.00000000000E+00  0.00000000000E+00  0.38921861877E+03  0.28985024633E+04  0.28722509285E+04 0.  0.
        4    1    3    3  502    0 -0.75407888499E+02  0.10008218562E+04 -0.84197121720E+03  0.13100564419E+04  0.12699999809E+01 0. -1.
       -4    1    3    3    0  502  0.75407888499E+02 -0.10008218562E+04  0.12311898360E+04  0.15884460213E+04  0.12699999809E+01 0.  1.
</event>
<event>
 5   0  0.7193153E-06  0.3111563E+04  0.7818609E-02  0.8212572E-01
        2   -1    0    0  501    0  0.00000000000E+00  0.00000000000E+00  0.17825816339E+04  0.17825816339E+04  0.25500000920E-02 0. -1.
       -2   -1    0    0    0  501  0.00000000000E+00  0.00000000000E+00 -0.13578378335E+04  0.13578378335E+04  0.25500000920E-02 0.  1.
    10030    2    1    2    0    0  0.00000000000E+00  0.00000000000E+00  0.42474380044E+03  0.31404194674E+04  0.31115634551E+04 0.  0.
        4    1    3    3  502    0 -0.26106689979E+03  0.68979706512E+03  0.15949220143E+04  0.17572005468E+04  0.12699999809E+01 0. -1.
       -4    1    3    3    0  502  0.26106689979E+03 -0.68979706512E+03 -0.11701782138E+04  0.13832189206E+04  0.12699999809E+01 0.  1.
</event>
<event>
 5   0  0.7193153E-06  0.3006138E+04  0.7818609E-02  0.8241980E-01
        2   -1    0    0  501    0  0.00000000000E+00  0.00000000000E+00  0.19505600813E+04  0.19505600813E+04  0.25500000920E-02 0. -1.
       -2   -1    0    0    0  501  0.00000000000E+00  0.00000000000E+00 -0.11582395758E+04  0.11582395758E+04  0.25500000920E-02 0.  1.
    10030    2    1    2    0    0  0.00000000000E+00  0.00000000000E+00  0.79232050546E+03  0.31087996571E+04  0.30061376423E+04 0.  0.
        4    1    3    3  502    0 -0.72132660453E+03 -0.11124428013E+04  0.11284187778E+04  0.17410260215E+04  0.12699999809E+01 0. -1.
       -4    1    3    3    0  502  0.72132660453E+03  0.11124428013E+04 -0.33609827232E+03  0.13677736356E+04  0.12699999809E+01 0.  1.
</event>
<event>
 5   0  0.6780150E-06  0.2396590E+04  0.7818609E-02  0.8440781E-01
       -2   -1    0    0    0  501  0.00000000000E+00  0.00000000000E+00  0.13116722108E+04  0.13116722108E+04  0.25500000920E-02 0.  1.
        2   -1    0    0  501    0  0.00000000000E+00  0.00000000000E+00 -0.10947181111E+04  0.10947181111E+04  0.25500000920E-02 0. -1.
    10030    2    1    2    0    0  0.00000000000E+00  0.00000000000E+00  0.21695409970E+03  0.24063903220E+04  0.23965903489E+04 0.  0.
        5    1    3    3  502    0 -0.51397614460E+03 -0.99216768385E+03 -0.32609876397E+03  0.11640148985E+04  0.46999998093E+01 0. -1.
       -5    1    3    3    0  502  0.51397614460E+03  0.99216768385E+03  0.54305286367E+03  0.12423754235E+04  0.46999998093E+01 0.  1.
</event>
<event>
 5   0  0.7217255E-06  0.3035075E+04  0.7818609E-02  0.8233785E-01
       -2   -1    0    0    0  501  0.00000000000E+00  0.00000000000E+00  0.15367126338E+04  0.15367126338E+04  0.25500000920E-02 0.  1.
        2   -1    0    0  501    0  0.00000000000E+00  0.00000000000E+00 -0.14986017507E+04  0.14986017507E+04  0.25500000920E-02 0. -1.
    10030    2    1    2    0    0  0.00000000000E+00  0.00000000000E+00  0.38110883050E+02  0.30353143845E+04  0.30350751182E+04 0.  0.
        1    1    3    3  502    0  0.46444650365E+03  0.11471280077E+02 -0.14257307626E+04  0.14995167063E+04  0.50400001928E-02 0. -1.
       -1    1    3    3    0  502 -0.46444650365E+03 -0.11471280077E+02  0.14638416456E+04  0.15357976782E+04  0.50400001928E-02 0.  1.
</event>
<event>
 5   0  0.2672155E-06  0.3029949E+04  0.7818609E-02  0.8235230E-01
        1   -1    0    0  501    0  0.00000000000E+00  0.00000000000E+00  0.21188025566E+04  0.21188025566E+04  0.50400001928E-02 0. -1.
       -1   -1    0    0    0  501  0.00000000000E+00  0.00000000000E+00 -0.10832284377E+04  0.10832284377E+04  0.50400001928E-02 0.  1.
    10030    2    1    2    0    0  0.00000000000E+00  0.00000000000E+00  0.10355741189E+04  0.32020309944E+04  0.30299486354E+04 0.  0.
        5    1    3    3  502    0  0.13752613683E+03 -0.88078241950E+03 -0.77670297459E+03  0.11823623427E+04  0.46999998093E+01 0.  1.
       -5    1    3    3    0  502 -0.13752613683E+03  0.88078241950E+03  0.18122770935E+04  0.20196686516E+04  0.46999998093E+01 0. -1.
</event>
<event>
 5   0  0.6780150E-06  0.2992252E+04  0.7818609E-02  0.8245947E-01
        2   -1    0    0  501    0  0.00000000000E+00  0.00000000000E+00  0.28931961851E+04  0.28931961851E+04  0.25500000920E-02 0.  1.
       -2   -1    0    0    0  501  0.00000000000E+00  0.00000000000E+00 -0.77367456403E+03  0.77367456404E+03  0.25500000920E-02 0. -1.
    10030    2    1    2    0    0  0.00000000000E+00  0.00000000000E+00  0.21195216211E+04  0.36668707492E+04  0.29922515250E+04 0.  0.
        5    1    3    3  502    0  0.11334244934E+04 -0.54641510830E+03  0.67861100734E+02  0.12600983184E+04  0.46999998093E+01 0.  1.
       -5    1    3    3    0  502 -0.11334244934E+04  0.54641510830E+03  0.20516605204E+04  0.24067724308E+04  0.46999998093E+01 0. -1.
</event>
<event>
 5   0  0.2422083E-06  0.3191342E+04  0.7818609E-02  0.8191107E-01
       -1   -1    0    0    0  501  0.00000000000E+00  0.00000000000E+00  0.14088098451E+04  0.14088098451E+04  0.50400001928E-02 0.  1.
        1   -1    0    0  501    0  0.00000000000E+00  0.00000000000E+00 -0.18073171702E+04  0.18073171702E+04  0.50400001928E-02 0. -1.
    10030    2    1    2    0    0  0.00000000000E+00  0.00000000000E+00 -0.39850732512E+03  0.32161270153E+04  0.31913421769E+04 0.  0.
        2    1    3    3  502    0 -0.89222637067E+03 -0.41899907625E+03 -0.14638048310E+04  0.17647528738E+04  0.25500000920E-02 0. -1.
       -2    1    3    3    0  502  0.89222637067E+03  0.41899907625E+03  0.10652975059E+04  0.14513741415E+04  0.25500000920E-02 0.  1.
</event>
<event>
 5   0  0.6780150E-06  0.3021137E+04  0.7818609E-02  0.8237721E-01
       -2   -1    0    0    0  501  0.00000000000E+00  0.00000000000E+00  0.95762986697E+03  0.95762986697E+03  0.25500000920E-02 0.  1.
        2   -1    0    0  501    0  0.00000000000E+00  0.00000000000E+00 -0.23827752896E+04  0.23827752896E+04  0.25500000920E-02 0. -1.
    10030    2    1    2    0    0  0.00000000000E+00  0.00000000000E+00 -0.14251454227E+04  0.33404051566E+04  0.30211367289E+04 0.  0.
        5    1    3    3  502    0 -0.49447412320E+02 -0.15074393804E+04 -0.62022268361E+03  0.16308025016E+04  0.46999998093E+01 0. -1.
       -5    1    3    3    0  502  0.49447412320E+02  0.15074393804E+04 -0.80492273906E+03  0.17096026550E+04  0.46999998093E+01 0.  1.
</event>
<event>
 5   0  0.2552990E-06  0.2889245E+04  0.7818609E-02  0.8276085E-01
       -1   -1    0    0    0  501  0.00000000000E+00  0.00000000000E+00  0.12510321609E+04  0.12510321609E+04  0.50400001928E-02 0.  1.
        1   -1    0    0  501    0  0.00000000000E+00  0.00000000000E+00 -0.16681700863E+04  0.16681700863E+04  0.50400001928E-02 0. -1.
    10030    2    1    2    0    0  0.00000000000E+00  0.00000000000E+00 -0.41713792540E+03  0.29192022472E+04  0.28892451802E+04 0.  0.
        3    1    3    3  502    0 -0.71258324890E+03  0.12560838374E+04 -0.17059033488E+03  0.14541741868E+04  0.10100000352E+00 0. -1.
       -3    1    3    3    0  502  0.71258324890E+03 -0.12560838374E+04 -0.24654759052E+03  0.14650280604E+04  0.10100000352E+00 0.  1.
</event>
<event>
 5   0  0.2504260E-06  0.3027301E+04  0.7818609E-02  0.8235978E-01
       -1   -1    0    0    0  501  0.00000000000E+00  0.00000000000E+00  0.20050010867E+04  0.20050010867E+04  0.50400001928E-02 0. -1.
        1   -1    0    0  501    0  0.00000000000E+00  0.00000000000E+00 -0.11427116597E+04  0.11427116597E+04  0.50400001928E-02 0.  1.
    10030    2    1    2    0    0  0.00000000000E+00  0.00000000000E+00  0.86228942700E+03  0.31477127464E+04  0.30273011872E+04 0.  0.
        4    1    3    3  502    0 -0.12054320250E+03 -0.12176919871E+04 -0.49526645213E+03  0.13200738278E+04  0.12699999809E+01 0.  1.
       -4    1    3    3    0  502  0.12054320250E+03  0.12176919871E+04  0.13575558791E+04  0.18276389187E+04  0.12699999809E+01 0. -1.
</event>
<event>
 5   0  0.2552990E-06  0.2993366E+04  0.7818609E-02  0.8245628E-01
        1   -1    0    0  501    0  0.00000000000E+00  0.00000000000E+00  0.15679118785E+04  0.15679118785E+04  0.50400001928E-02 0. -1.
       -1   -1    0    0    0  501  0.00000000000E+00  0.00000000000E+00 -0.14286902302E+04  0.14286902302E+04  0.50400001928E-02 0.  1.
    10030    2    1    2    0    0  0.00000000000E+00  0.00000000000E+00  0.13922164826E+03  0.29966021087E+04  0.29933662540E+04 0.  0.
        3    1    3    3  502    0  0.26444426303E+03  0.14540052181E+04  0.30650650743E+03  0.15093071894E+04  0.10100000352E+00 0. -1.
       -3    1    3    3    0  502 -0.26444426303E+03 -0.14540052181E+04 -0.16728485918E+03  0.14872949193E+04  0.10100000352E+00 0.  1.
</event>
<event>
 5   0  0.2552990E-06  0.2898189E+04  0.7818609E-02  0.8273416E-01
       -1   -1    0    0    0  501  0.00000000000E+00  0.00000000000E+00  0.11625684900E+04  0.11625684900E+04  0.50400001928E-02 0. -1.
        1   -1    0    0  501    0  0.00000000000E+00  0.00000000000E+00 -0.18062379301E+04  0.18062379301E+04  0.50400001928E-02 0.  1.
    10030    2    1    2    0    0  0.00000000000E+00  0.00000000000E+00 -0.64366944008E+03  0.29688064201E+04  0.28981892989E+04 0.  0.
        3    1    3    3  502    0 -0.26410308894E+03  0.54006649442E+03  0.10287959672E+04  0.11915718242E+04  0.10100000352E+00 0. -1.
       -3    1    3    3    0  502  0.26410308894E+03 -0.54006649442E+03 -0.16724654073E+04  0.17772345959E+04  0.10100000352E+00 0.  1.
</event>
<event>
 5   0  0.6792811E-06  0.2879281E+04  0.7818609E-02  0.8279069E-01
        2   -1    0    0  501    0  0.00000000000E+00  0.00000000000E+00  0.13658284833E+04  0.13658284833E+04  0.25500000920E-02 0.  1.
       -2   -1    0    0    0  501  0.00000000000E+00  0.00000000000E+00 -0.15174419013E+04  0.15174419013E+04  0.25500000920E-02 0. -1.
    10030    2    1    2    0    0  0.00000000000E+00  0.00000000000E+00 -0.15161341802E+03  0.28832703847E+04  0.28792814177E+04 0.  0.
        2    1    3    3  502    0  0.77279167283E+03 -0.79529951672E+03  0.84353767259E+03  0.13932925378E+04  0.25500000920E-02 0.  1.
       -2    1    3    3    0  502 -0.77279167283E+03  0.79529951672E+03 -0.99515109061E+03  0.14899778468E+04  0.25500000920E-02 0. -1.
</event>
<event>
 5   0  0.2672155E-06  0.2995082E+04  0.7818609E-02  0.8245136E-01
        1   -1    0    0  501    0  0.00000000000E+00  0.00000000000E+00  0.78933284356E+03  0.78933284358E+03  0.50400001928E-02 0. -1.
       -1   -1    0    0    0  501  0.00000000000E+00  0.00000000000E+00 -0.28411712370E+04  0.28411712370E+04  0.50400001928E-02 0.  1.
    10030    2    1    2    0    0  0.00000000000E+00  0.00000000000E+00 -0.20518383935E+04  0.36305040806E+04  0.29950824841E+04 0.  0.
        5    1    3    3  502    0  0.31089791585E+03 -0.89058743291E+03  0.38393957949E+03  0.10184474363E+04  0.46999998093E+01 0. -1.
       -5    1    3    3    0  502 -0.31089791585E+03  0.89058743291E+03 -0.24357779729E+04  0.26120566443E+04  0.46999998093E+01 0.  1.
</event>
<event>
 5   0  0.2422083E-06  0.3030507E+04  0.7818609E-02  0.8235073E-01
       -1   -1    0    0    0  501  0.00000000000E+00  0.00000000000E+00  0.12863987206E+04  0.12863987206E+04  0.50400001928E-02 0. -1.
        1   -1    0    0  501    0  0.00000000000E+00  0.00000000000E+00 -0.17848221406E+04  0.17848221406E+04  0.50400001928E-02 0.  1.
    10030    2    1    2    0    0  0.00000000000E+00  0.00000000000E+00 -0.49842342003E+03  0.30712208612E+04  0.30305068343E+04 0.  0.
        2    1    3    3  502    0 -0.11041609958E+04 -0.13787730121E+03 -0.12915288389E+04  0.17047663759E+04  0.25500000920E-02 0.  1.
       -2    1    3    3    0  502  0.11041609958E+04  0.13787730121E+03  0.79310541889E+03  0.13664544852E+04  0.25500000920E-02 0. -1.
</event>
<event>
 5   0  0.2552990E-06  0.3051472E+04  0.7818609E-02  0.8229184E-01
       -1   -1    0    0    0  501  0.00000000000E+00  0.00000000000E+00  0.13034923151E+04  0.13034923151E+04  0.50400001928E-02 0.  1.
        1   -1    0    0  501    0  0.00000000000E+00  0.00000000000E+00 -0.17858722606E+04  0.17858722607E+04  0.50400001928E-02 0. -1.
    10030    2    1    2    0    0  0.00000000000E+00  0.00000000000E+00 -0.48237994553E+03  0.30893645758E+04  0.30514722791E+04 0.  0.
        3    1    3    3  502    0  0.14581148817E+04  0.20493854255E+02  0.21310448506E+03  0.14737477865E+04  0.10100000352E+00 0. -1.
       -3    1    3    3    0  502 -0.14581148817E+04 -0.20493854255E+02 -0.69548443058E+03  0.16156167893E+04  0.10100000352E+00 0.  1.
</event>
<event>
 5   0  0.7217255E-06  0.2997459E+04  0.7818609E-02  0.8244457E-01
        2   -1    0    0  501    0  0.00000000000E+00  0.00000000000E+00  0.16182735326E+04  0.16182735326E+04  0.25500000920E-02 0.  1.
       -2   -1    0    0    0  501  0.00000000000E+00  0.00000000000E+00 -0.13880167277E+04  0.13880167277E+04  0.25500000920E-02 0. -1.
    10030    2    1    2    0    0  0.00000000000E+00  0.00000000000E+00  0.23025680497E+03  0.30062902603E+04  0.29974594131E+04 0.  0.
        1    1    3    3  502    0 -0.41974418563E+03 -0.12014168162E+04 -0.67878639706E+03  0.14423378663E+04  0.50400001928E-02 0. -1.
       -1    1    3    3    0  502  0.41974418563E+03  0.12014168162E+04  0.90904320203E+03  0.15639523940E+04  0.50400001928E-02 0.  1.
</event>
<event>
 5   0  0.6792811E-06  0.3016787E+04  0.7818609E-02  0.8238953E-01
       -2   -1    0    0    0  501  0.00000000000E+00  0.00000000000E+00  0.82046644420E+03  0.82046644421E+03  0.25500000920E-02 0.  1.
        2   -1    0    0  501    0  0.00000000000E+00  0.00000000000E+00 -0.27731188590E+04  0.27731188590E+04  0.25500000920E-02 0. -1.
    10030    2    1    2    0    0  0.00000000000E+00  0.00000000000E+00 -0.19526524148E+04  0.35935853032E+04  0.30167870124E+04 0.  0.
        2    1    3    3  502    0  0.89667294030E+03  0.89992811981E+03 -0.75987486791E+01  0.12704136034E+04  0.25500000920E-02 0.  1.
       -2    1    3    3    0  502 -0.89667294030E+03 -0.89992811981E+03 -0.19450536661E+04  0.23231716998E+04  0.25500000920E-02 0. -1.
</event>
<event>
 5   0  0.2552990E-06  0.3073483E+04  0.7818609E-02  0.8223053E-01
        1   -1    0    0  501    0  0.00000000000E+00  0.00000000000E+00  0.18107002464E+04  0.18107002464E+04  0.50400001928E-02 0. -1.
       -1   -1    0    0    0  501  0.00000000000E+00  0.00000000000E+00 -0.13042330003E+04  0.13042330003E+04  0.50400001928E-02 0.  1.
    10030    2    1    2    0    0  0.00000000000E+00  0.00000000000E+00  0.50646724612E+03  0.31149332467E+04  0.30734833756E+04 0.  0.
        3    1    3    3  502    0 -0.28522887545E+03  0.93375832696E+03  0.14559625595E+04  0.17530222787E+04  0.10100000352E+00 0. -1.
       -3    1    3    3    0  502  0.28522887545E+03 -0.93375832696E+03 -0.94949531339E+03  0.13619109681E+04  0.10100000352E+00 0.  1.
</event>
<event>
 5   0  0.7217255E-06  0.3033885E+04  0.7818609E-02  0.8234121E-01
        2   -1    0    0  501    0  0.00000000000E+00  0.00000000000E+00  0.17929847688E+04  0.17929847688E+04  0.25500000920E-02 0.  1.
       -2   -1    0    0    0  501  0.00000000000E+00  0.00000000000E+00 -0.12833984457E+04  0.12833984457E+04  0.25500000920E-02 0. -1.
    10030    2    1    2    0    0  0.00000000000E+00  0.00000000000E+00  0.50958632314E+03  0.30763832145E+04  0.30338845498E+04 0.  0.
        1    1    3    3  502    0  0.12293166070E+04 -0.54758183522E+03  0.96463402062E+03  0.16557729254E+04  0.50400001928E-02 0.  1.
       -1    1    3    3    0  502 -0.12293166070E+04  0.54758183522E+03 -0.45504769748E+03  0.14206102891E+04  0.50400001928E-02 0. -1.
</event>
<event>
 5   0  0.2628425E-06  0.2990440E+04  0.7818609E-02  0.8246466E-01
       -1   -1    0    0    0  501  0.00000000000E+00  0.00000000000E+00  0.14149839554E+04  0.14149839555E+04  0.50400001928E-02 0. -1.
        1   -1    0    0  501    0  0.00000000000E+00  0.00000000000E+00 -0.15800052732E+04  0.15800052732E+04  0.50400001928E-02 0.  1.
    10030    2    1    2    0    0  0.00000000000E+00  0.00000000000E+00 -0.16502131774E+03  0.29949892286E+04  0.29904395069E+04 0.  0.
        1    1    3    3  502    0  0.15285719718E+02 -0.12612201826E+04  0.72168803730E+03  0.14531839613E+04  0.50400001928E-02 0. -1.
       -1    1    3    3    0  502 -0.15285719718E+02  0.12612201826E+04 -0.88670935504E+03  0.15418052674E+04  0.50400001928E-02 0.  1.
</event>
<event>
 5   0  0.2552990E-06  0.2974769E+04  0.7818609E-02  0.8250973E-01
        1   -1    0    0  501    0  0.00000000000E+00  0.00000000000E+00  0.88838967433E+03  0.88838967434E+03  0.50400001928E-02 0.  1.
       -1   -1    0    0    0  501  0.00000000000E+00  0.00000000000E+00 -0.24902503080E+04  0.24902503080E+04  0.50400001928E-02 0. -1.
    10030    2    1    2    0    0  0.00000000000E+00  0.00000000000E+00 -0.16018606337E+04  0.33786399824E+04  0.29747690063E+04 0.  0.
        3    1    3    3  502    0 -0.90761737742E+03 -0.25953361972E+03  0.50455079461E+03  0.10703730743E+04  0.10100000352E+00 0.  1.
       -3    1    3    3    0  502  0.90761737742E+03  0.25953361972E+03 -0.21064114283E+04  0.23082669081E+04  0.10100000352E+00 0. -1.
</event>
<event>
 5   0  0.7193153E-06  0.3054232E+04  0.7818609E-02  0.8228412E-01
        2   -1    0    0  501    0  0.00000000000E+00  0.00000000000E+00  0.22947980139E+04  0.22947980139E+04  0.25500000920E-02 0. -1.
       -2   -1    0    0    0  501  0.00000000000E+00  0.00000000000E+00 -0.10162475967E+04  0.10162475967E+04  0.25500000920E-02 0.  1.
    10030    2    1    2    0    0  0.00000000000E+00  0.00000000000E+00  0.12785504172E+04  0.33110456106E+04  0.30542317964E+04 0.  0.
        4    1    3    3  502    0 -0.78015345407E+03 -0.98154070463E+03  0.15843705421E+04  0.20204685581E+04  0.12699999809E+01 0. -1.
       -4    1    3    3    0  502  0.78015345407E+03  0.98154070463E+03 -0.30582012488E+03  0.12905770525E+04  0.12699999809E+01 0.  1.
</event>
<event>
 5   0  0.2298500E-06  0.2961606E+04  0.7818609E-02  0.8254780E-01
        4   -1    0    0  501    0  0.00000000000E+00  0.00000000000E+00  0.12625441628E+04  0.12625448015E+04  0.12699999809E+01 0. -1.
       -4   -1    0    0    0  501  0.00000000000E+00  0.00000000000E+00 -0.17367917816E+04  0.17367922459E+04  0.12699999809E+01 0.  1.
    10030    2    1    2    0    0  0.00000000000E+00  0.00000000000E+00 -0.47424761882E+03  0.29993370475E+04  0.29616063075E+04 0.  0.
        3    1    3    3  502    0 -0.95437216505E+03 -0.32952755324E+02  0.90904812522E+03  0.13184387046E+04  0.10100000352E+00 0. -1.
       -3    1    3    3    0  502  0.95437216505E+03  0.32952755324E+02 -0.13832957440E+04  0.16808983429E+04  0.10100000352E+00 0.  1.
</event>
<event>
 5   0  0.7217255E-06  0.2855107E+04  0.7818609E-02  0.8286361E-01
        2   -1    0    0  501    0  0.00000000000E+00  0.00000000000E+00  0.19321103886E+04  0.19321103886E+04  0.25500000920E-02 0. -1.
       -2   -1    0    0    0  501  0.00000000000E+00  0.00000000000E+00 -0.10547577617E+04  0.10547577617E+04  0.25500000920E-02 0.  1.
    10030    2    1    2    0    0  0.00000000000E+00  0.00000000000E+00  0.87735262690E+03  0.29868681502E+04  0.28551066031E+04 0.  0.
        1    1    3    3  502    0 -0.92953658244E+03 -0.53781349124E+03 -0.54527537281E+03  0.12044114088E+04  0.50400001928E-02 0.  1.
       -1    1    3    3    0  502  0.92953658244E+03  0.53781349124E+03  0.14226279997E+04  0.17824567414E+04  0.50400001928E-02 0. -1.
</event>
<event>
 5   0  0.6780150E-06  0.2995648E+04  0.7818609E-02  0.8244975E-01
        2   -1    0    0  501    0  0.00000000000E+00  0.00000000000E+00  0.31206843697E+04  0.31206843697E+04  0.25500000920E-02 0.  1.
       -2   -1    0    0    0  501  0.00000000000E+00  0.00000000000E+00 -0.71890552051E+03  0.71890552051E+03  0.25500000920E-02 0. -1.
    10030    2    1    2    0    0  0.00000000000E+00  0.00000000000E+00  0.24017788491E+04  0.38395898902E+04  0.29956483246E+04 0.  0.
        5    1    3    3  502    0 -0.22924151832E+03  0.14661883221E+04  0.94074313052E+03  0.17570656212E+04  0.46999998093E+01 0. -1.
       -5    1    3    3    0  502  0.22924151832E+03 -0.14661883221E+04  0.14610357186E+04  0.20825242689E+04  0.46999998093E+01 0.  1.
</event>
<event>
 5   0  0.7193153E-06  0.3006033E+04  0.7818609E-02  0.8242010E-01
       -2   -1    0    0    0  501  0.00000000000E+00  0.00000000000E+00  0.80374840247E+03  0.80374840247E+03  0.25500000920E-02 0.  1.
        2   -1    0    0  501    0  0.00000000000E+00  0.00000000000E+00 -0.28106535545E+04  0.28106535545E+04  0.25500000920E-02 0. -1.
    10030    2    1    2    0    0  0.00000000000E+00  0.00000000000E+00 -0.20069051520E+04  0.36144019569E+04  0.30060328038E+04 0.  0.
        4    1    3    3  502    0  0.13819334577E+04 -0.45468326815E+02 -0.29491418644E+03  0.14137833782E+04  0.12699999809E+01 0.  1.
       -4    1    3    3    0  502 -0.13819334577E+04  0.45468326815E+02 -0.17119909656E+04  0.22006185788E+04  0.12699999809E+01 0. -1.
</event>
<event>
 5   0  0.2552990E-06  0.2707347E+04  0.7818609E-02  0.8332625E-01
       -1   -1    0    0    0  501  0.00000000000E+00  0.00000000000E+00  0.12471707049E+04  0.12471707049E+04  0.50400001928E-02 0.  1.
        1   -1    0    0  501    0  0.00000000000E+00  0.00000000000E+00 -0.14692716425E+04  0.14692716426E+04  0.50400001928E-02 0. -1.
    10030    2    1    2    0    0  0.00000000000E+00  0.00000000000E+00 -0.22210093770E+03  0.27164423474E+04  0.27073474473E+04 0.  0.
        3    1    3    3  502    0  0.34754139350E+03  0.12937023736E+04 -0.30659407971E+03  0.13742091513E+04  0.10100000352E+00 0. -1.
       -3    1    3    3    0  502 -0.34754139350E+03 -0.12937023736E+04  0.84493142016E+02  0.13422331961E+04  0.10100000352E+00 0.  1.
</event>
<event>
 5   0  0.2552990E-06  0.2863526E+04  0.7818609E-02  0.8283813E-01
       -1   -1    0    0    0  501  0.00000000000E+00  0.00000000000E+00  0.17597952639E+04  0.17597952640E+04  0.50400001928E-02 0.  1.
        1   -1    0    0  501    0  0.00000000000E+00  0.00000000000E+00 -0.11648768818E+04  0.11648768818E+04  0.50400001928E-02 0. -1.
    10030    2    1    2    0    0  0.00000000000E+00  0.00000000000E+00  0.59491838215E+03  0.29246721458E+04  0.28635256728E+04 0.  0.
        3    1    3    3  502    0 -0.10617099542E+04 -0.80952557775E+03  0.82559392007E+03  0.15697659122E+04  0.10100000352E+00 0.  1.
       -3    1    3    3    0  502  0.10617099542E+04  0.80952557775E+03 -0.23067553792E+03  0.13549062336E+04  0.10100000352E+00 0. -1.
</event>
<event>
 5   0  0.7201538E-06  0.2729096E+04  0.7818609E-02  0.8325626E-01
        2   -1    0    0  501    0  0.00000000000E+00  0.00000000000E+00  0.20216424234E+04  0.20216424234E+04  0.25500000920E-02 0. -1.
       -2   -1    0    0    0  501  0.00000000000E+00  0.00000000000E+00 -0.92102889799E+03  0.92102889799E+03  0.25500000920E-02 0.  1.
    10030    2    1    2    0    0  0.00000000000E+00  0.00000000000E+00  0.11006135254E+04  0.29426713214E+04  0.27290958894E+04 0.  0.
        3    1    3    3  502    0  0.65943880944E+03  0.30640995927E+03  0.17953311490E+04  0.19369978191E+04  0.10100000352E+00 0. -1.
       -3    1    3    3    0  502 -0.65943880944E+03 -0.30640995927E+03 -0.69471762356E+03  0.10056735023E+04  0.10100000352E+00 0.  1.
</event>
<event>
 5   0  0.7193153E-06  0.2983426E+04  0.7818609E-02  0.8248479E-01
        2   -1    0    0  501    0  0.00000000000E+00  0.00000000000E+00  0.18432049159E+04  0.18432049159E+04  0.25500000920E-02 0. -1.
       -2   -1    0    0    0  501  0.00000000000E+00  0.00000000000E+00 -0.12072495076E+04  0.12072495076E+04  0.25500000920E-02 0.  1.
    10030    2    1    2    0    0  0.00000000000E+00  0.00000000000E+00  0.63595540824E+03  0.30504544235E+04  0.29834263705E+04 0.  0.
        4    1    3    3  502    0 -0.10047618201E+02  0.16790671640E+03 -0.11975212650E+04  0.12092776410E+04  0.12699999809E+01 0.  1.
       -4    1    3    3    0  502  0.10047618201E+02 -0.16790671640E+03  0.18334766732E+04  0.18411767825E+04  0.12699999809E+01 0. -1.
</event>
<event>
 5   0  0.2422083E-06  0.3001899E+04  0.7818609E-02  0.8243189E-01
       -1   -1    0    0    0  501  0.00000000000E+00  0.00000000000E+00  0.16528703715E+04  0.16528703715E+04  0.50400001928E-02 0.  1.
        1   -1    0    0  501    0  0.00000000000E+00  0.00000000000E+00 -0.13629920164E+04  0.13629920164E+04  0.50400001928E-02 0. -1.
    10030    2    1    2    0    0  0.00000000000E+00  0.00000000000E+00  0.28987835508E+03  0.30158623879E+04  0.30018988128E+04 0.  0.
        2    1    3    3  502    0 -0.11190598299E+04 -0.81010406555E+03 -0.44454874832E+03  0.14512708533E+04  0.25500000920E-02 0. -1.
       -2    1    3    3    0  502  0.11190598299E+04  0.81010406555E+03  0.73442710340E+03  0.15645915346E+04  0.25500000920E-02 0.  1.
</event>
<event>
 5   0  0.2628425E-06  0.2795490E+04  0.7818609E-02  0.8304670E-01
       -1   -1    0    0    0  501  0.00000000000E+00  0.00000000000E+00  0.15601727484E+04  0.15601727485E+04  0.50400001928E-02 0. -1.
        1   -1    0    0  501    0  0.00000000000E+00  0.00000000000E+00 -0.12522269921E+04  0.12522269921E+04  0.50400001928E-02 0.  1.
    10030    2    1    2    0    0  0.00000000000E+00  0.00000000000E+00  0.30794575634E+03  0.28123997406E+04  0.27954895299E+04 0.  0.
        1    1    3    3  502    0 -0.10080449264E+04 -0.71648590589E+03 -0.50126081104E+03  0.13344545806E+04  0.50400001928E-02 0.  1.
       -1    1    3    3    0  502  0.10080449264E+04  0.71648590589E+03  0.80920656738E+03  0.14779451599E+04  0.50400001928E-02 0. -1.
</event>
<event>
 5   0  0.2422083E-06  0.3111194E+04  0.7818609E-02  0.8212673E-01
        1   -1    0    0  501    0  0.00000000000E+00  0.00000000000E+00  0.26242268936E+04  0.26242268936E+04  0.50400001928E-02 0.  1.
       -1   -1    0    0    0  501  0.00000000000E+00  0.00000000000E+00 -0.92213129961E+03  0.92213129963E+03  0.50400001928E-02 0. -1.
    10030    2    1    2    0    0  0.00000000000E+00  0.00000000000E+00  0.17020955940E+04  0.35463581932E+04  0.31111938261E+04 0.  0.
        2    1    3    3  502    0 -0.11590943509E+04 -0.10284490480E+04  0.10068168397E+04  0.18479413701E+04  0.25500000920E-02 0.  1.
       -2    1    3    3    0  502  0.11590943509E+04  0.10284490480E+04  0.69527875431E+03  0.16984168231E+04  0.25500000920E-02 0. -1.
</event>
<event>
 5   0  0.7193153E-06  0.2988445E+04  0.7818609E-02  0.8247038E-01
        2   -1    0    0  501    0  0.00000000000E+00  0.00000000000E+00  0.17541215843E+04  0.17541215843E+04  0.25500000920E-02 0. -1.
       -2   -1    0    0    0  501  0.00000000000E+00  0.00000000000E+00 -0.12728309818E+04  0.12728309818E+04  0.25500000920E-02 0.  1.
    10030    2    1    2    0    0  0.00000000000E+00  0.00000000000E+00  0.48129060251E+03  0.30269525661E+04  0.29884446111E+04 0.  0.
        4    1    3    3  502    0 -0.16822403382E+03  0.12075958661E+04  0.11155531165E+04  0.16525881126E+04  0.12699999809E+01 0. -1.
       -4    1    3    3    0  502  0.16822403382E+03 -0.12075958661E+04 -0.63426251396E+03  0.13743644535E+04  0.12699999809E+01 0.  1.
</event>
<event>
 5   0  0.7193153E-06  0.2968237E+04  0.7818609E-02  0.8252859E-01
        2   -1    0    0  501    0  0.00000000000E+00  0.00000000000E+00  0.25024561775E+04  0.25024561775E+04  0.25500000920E-02 0.  1.
       -2   -1    0    0    0  501  0.00000000000E+00  0.00000000000E+00 -0.88017855151E+03  0.88017855151E+03  0.25500000920E-02 0. -1.
    10030    2    1    2    0    0  0.00000000000E+00  0.00000000000E+00  0.16222776260E+04  0.33826347290E+04  0.29682373581E+04 0.  0.
        4    1    3    3  502    0 -0.13682481274E+04 -0.18671601369E+03  0.19149989754E+03  0.13941447670E+04  0.12699999809E+01 0. -1.
       -4    1    3    3    0  502  0.13682481274E+04  0.18671601369E+03  0.14307777285E+04  0.19884899620E+04  0.12699999809E+01 0.  1.
</event>
<event>
 5   0  0.6780150E-06  0.3074510E+04  0.7818609E-02  0.8222768E-01
       -2   -1    0    0    0  501  0.00000000000E+00  0.00000000000E+00  0.12140417095E+04  0.12140417095E+04  0.25500000920E-02 0. -1.
        2   -1    0    0  501    0  0.00000000000E+00  0.00000000000E+00 -0.19465166972E+04  0.19465166972E+04  0.25500000920E-02 0.  1.
    10030    2    1    2    0    0  0.00000000000E+00  0.00000000000E+00 -0.73247498772E+03  0.31605584067E+04  0.30745096902E+04 0.  0.
        5    1    3    3  502    0 -0.57735243749E+03  0.83830439148E+03  0.81797600348E+03  0.13058318889E+04  0.46999998093E+01 0. -1.
       -5    1    3    3    0  502  0.57735243749E+03 -0.83830439148E+03 -0.15504509912E+04  0.18547265178E+04  0.46999998093E+01 0.  1.
</event>
<event>
 5   0  0.2552990E-06  0.3032836E+04  0.7818609E-02  0.8234416E-01
        1   -1    0    0  501    0  0.00000000000E+00  0.00000000000E+00  0.24576931960E+04  0.24576931960E+04  0.50400001928E-02 0.  1.
       -1   -1    0    0    0  501  0.00000000000E+00  0.00000000000E+00 -0.93564304865E+03  0.93564304866E+03  0.50400001928E-02 0. -1.
    10030    2    1    2    0    0  0.00000000000E+00  0.00000000000E+00  0.15220501474E+04  0.33933362447E+04  0.30328360026E+04 0.  0.
        3    1    3    3  502    0  0.29024752340E+03 -0.13740586271E+04  0.14010737810E+04  0.19837561558E+04  0.10100000352E+00 0.  1.
       -3    1    3    3    0  502 -0.29024752340E+03  0.13740586271E+04  0.12097636642E+03  0.14095800889E+04  0.10100000352E+00 0. -1.
</event>
<event>
 5   0  0.2422083E-06  0.2991096E+04  0.7818609E-02  0.8246278E-01
        1   -1    0    0  501    0  0.00000000000E+00  0.00000000000E+00  0.14427170905E+04  0.14427170905E+04  0.50400001928E-02 0.  1.
       -1   -1    0    0    0  501  0.00000000000E+00  0.00000000000E+00 -0.15503132918E+04  0.15503132918E+04  0.50400001928E-02 0. -1.
    10030    2    1    2    0    0  0.00000000000E+00  0.00000000000E+00 -0.10759620125E+03  0.29930303823E+04  0.29910957736E+04 0.  0.
        2    1    3    3  502    0 -0.57386841567E+03 -0.89759764654E+03  0.99647925746E+03  0.14587588574E+04  0.25500000920E-02 0.  1.
       -2    1    3    3    0  502  0.57386841567E+03  0.89759764654E+03 -0.11040754587E+04  0.15342715249E+04  0.25500000920E-02 0. -1.
</event>
<event>
 5   0  0.7217255E-06  0.3154332E+04  0.7818609E-02  0.8200983E-01
        2   -1    0    0  501    0  0.00000000000E+00  0.00000000000E+00  0.15388655907E+04  0.15388655907E+04  0.25500000920E-02 0.  1.
       -2   -1    0    0    0  501  0.00000000000E+00  0.00000000000E+00 -0.16164201210E+04  0.16164201210E+04  0.25500000920E-02 0. -1.
    10030    2    1    2    0    0  0.00000000000E+00  0.00000000000E+00 -0.77554530289E+02  0.31552857117E+04  0.31543324519E+04 0.  0.
        1    1    3    3  502    0  0.13609785445E+03 -0.15075352117E+04 -0.48193289089E+03  0.15885352851E+04  0.50400001928E-02 0. -1.
       -1    1    3    3    0  502 -0.13609785445E+03  0.15075352117E+04  0.40437836060E+03  0.15667504266E+04  0.50400001928E-02 0.  1.
</event>
<event>
 5   0  0.2504260E-06  0.3038235E+04  0.7818609E-02  0.8232896E-01
       -1   -1    0    0    0  501  0.00000000000E+00  0.00000000000E+00  0.10309081973E+04  0.10309081973E+04  0.50400001928E-02 0. -1.
        1   -1    0    0  501    0  0.00000000000E+00  0.00000000000E+00 -0.22385285720E+04  0.22385285720E+04  0.50400001928E-02 0.  1.
    10030    2    1    2    0    0  0.00000000000E+00  0.00000000000E+00 -0.12076203747E+04  0.32694367693E+04  0.30382346550E+04 0.  0.
        4    1    3    3  502    0 -0.90294994121E+02 -0.42023812362E+03  0.96410583653E+03  0.10555827506E+04  0.12699999809E+01 0. -1.
       -4    1    3    3    0  502  0.90294994121E+02  0.42023812362E+03 -0.21717262112E+04  0.22138540186E+04  0.12699999809E+01 0.  1.
</event>
<event>
 5   0  0.7193153E-06  0.2973371E+04  0.7818609E-02  0.8251376E-01
        2   -1    0    0  501    0  0.00000000000E+00  0.00000000000E+00  0.20150904147E+04  0.20150904147E+04  0.25500000920E-02 0.  1.
       -2   -1    0    0    0  501  0.00000000000E+00  0.00000000000E+00 -0.10968413384E+04  0.10968413384E+04  0.25500000920E-02 0. -1.
    10030    2    1    2    0    0  0.00000000000E+00  0.00000000000E+00  0.91824907634E+03  0.31119317531E+04  0.29733714651E+04 0.  0.
        4    1    3    3  502    0  0.10964277734E+04  0.91421717981E+03  0.89354053942E+03  0.16841505938E+04  0.12699999809E+01 0.  1.
       -4    1    3    3    0  502 -0.10964277734E+04 -0.91421717981E+03  0.24708536918E+02  0.14277811593E+04  0.12699999809E+01 0. -1.
</event>
<event>
 5   0  0.6792811E-06  0.2838147E+04  0.7818609E-02  0.8291522E-01
        2   -1    0    0  501    0  0.00000000000E+00  0.00000000000E+00  0.15403180523E+04  0.15403180523E+04  0.25500000920E-02 0.  1.
       -2   -1    0    0    0  501  0.00000000000E+00  0.00000000000E+00 -0.13073725023E+04  0.13073725023E+04  0.25500000920E-02 0. -1.
    10030    2    1    2    0    0  0.00000000000E+00  0.00000000000E+00  0.23294555002E+03  0.28476905545E+04  0.28381469069E+04 0.  0.
        2    1    3    3  502    0 -0.59867609655E+03 -0.12833103141E+04  0.20882049355E+03  0.14313994654E+04  0.25500000920E-02 0.  1.
       -2    1    3    3    0  502  0.59867609655E+03  0.12833103141E+04  0.24125056467E+02  0.14162910892E+04  0.25500000920E-02 0. -1.
</event>
<event>
 5   0  0.2504260E-06  0.2980908E+04  0.7818609E-02  0.8249204E-01
       -1   -1    0    0    0  501  0.00000000000E+00  0.00000000000E+00  0.15119983909E+04  0.15119983909E+04  0.50400001928E-02 0. -1.
        1   -1    0    0  501    0  0.00000000000E+00  0.00000000000E+00 -0.14692166206E+04  0.14692166206E+04  0.50400001928E-02 0.  1.
    10030    2    1    2    0    0  0.00000000000E+00  0.00000000000E+00  0.42781770358E+02  0.29812150115E+04  0.29809080269E+04 0.  0.
        4    1    3    3  502    0  0.27609871052E+03  0.10890369001E+04 -0.95810759034E+03  0.14765512640E+04  0.12699999809E+01 0.  1.
       -4    1    3    3    0  502 -0.27609871052E+03 -0.10890369001E+04  0.10008893607E+04  0.15046637475E+04  0.12699999809E+01 0. -1.
</event>
<event>
 5   0  0.7193153E-06  0.3105757E+04  0.7818609E-02  0.8214160E-01
       -2   -1    0    0    0  501  0.00000000000E+00  0.00000000000E+00  0.78822959728E+03  0.78822959729E+03  0.25500000920E-02 0. -1.
        2   -1    0    0  501    0  0.00000000000E+00  0.00000000000E+00 -0.30593015658E+04  0.30593015658E+04  0.25500000920E-02 0.  1.
    10030    2    1    2    0    0  0.00000000000E+00  0.00000000000E+00 -0.22710719685E+04  0.38475311631E+04  0.31057572611E+04 0.  0.
        4    1    3    3  502    0 -0.26582937683E+03  0.44809918180E+03  0.67671653498E+03  0.85405211546E+03  0.12699999809E+01 0. -1.
       -4    1    3    3    0  502  0.26582937683E+03 -0.44809918180E+03 -0.29477885035E+04  0.29934790476E+04  0.12699999809E+01 0.  1.
</event>
<event>
 5   0  0.2552990E-06  0.2951927E+04  0.7818609E-02  0.8257593E-01
        1   -1    0    0  501    0  0.00000000000E+00  0.00000000000E+00  0.25176427164E+04  0.25176427164E+04  0.50400001928E-02 0.  1.
       -1   -1    0    0    0  501  0.00000000000E+00  0.00000000000E+00 -0.86528106552E+03  0.86528106554E+03  0.50400001928E-02 0. -1.
    10030    2    1    2    0    0  0.00000000000E+00  0.00000000000E+00  0.16523616509E+04  0.33829237820E+04  0.29519272161E+04 0.  0.
        3    1    3    3  502    0 -0.10337941471E+04 -0.72783293854E+03 -0.46588763752E+02  0.12651646723E+04  0.10100000352E+00 0. -1.
       -3    1    3    3    0  502  0.10337941471E+04  0.72783293854E+03  0.16989504147E+04  0.21177591097E+04  0.10100000352E+00 0.  1.
</event>
<event>
 5   0  0.6780150E-06  0.2745549E+04  0.7818609E-02  0.8320375E-01
       -2   -1    0    0    0  501  0.00000000000E+00  0.00000000000E+00  0.13744928924E+04  0.13744928924E+04  0.25500000920E-02 0.  1.
        2   -1    0    0  501    0  0.00000000000E+00  0.00000000000E+00 -0.13710584705E+04  0.13710584705E+04  0.25500000920E-02 0. -1.
    10030    2    1    2    0    0  0.00000000000E+00  0.00000000000E+00  0.34344218938E+01  0.27455513629E+04  0.27455492148E+04 0.  0.
        5    1    3    3  502    0 -0.59690156516E+03  0.11527716070E+04  0.44816372319E+03  0.13733341433E+04  0.46999998093E+01 0.  1.
       -5    1    3    3    0  502  0.59690156516E+03 -0.11527716070E+04 -0.44472930129E+03  0.13722172196E+04  0.46999998093E+01 0. -1.
</event>
<event>
 5   0  0.6780150E-06  0.3004822E+04  0.7818609E-02  0.8242355E-01
       -2   -1    0    0    0  501  0.00000000000E+00  0.00000000000E+00  0.95633452792E+03  0.95633452792E+03  0.25500000920E-02 0.  1.
        2   -1    0    0  501    0  0.00000000000E+00  0.00000000000E+00 -0.23603024223E+04  0.23603024223E+04  0.25500000920E-02 0. -1.
    10030    2    1    2    0    0  0.00000000000E+00  0.00000000000E+00 -0.14039678944E+04  0.33166369502E+04  0.30048219267E+04 0.  0.
        5    1    3    3  502    0 -0.12516665820E+04 -0.52496404439E+03 -0.14130048721E+04  0.19593012374E+04  0.46999998093E+01 0. -1.
       -5    1    3    3    0  502  0.12516665820E+04  0.52496404439E+03  0.90369776542E+01  0.13573357128E+04  0.46999998093E+01 0.  1.
</event>
<event>
 5   0  0.7217255E-06  0.3023432E+04  0.7818609E-02  0.8237071E-01
       -2   -1    0    0    0  501  0.00000000000E+00  0.00000000000E+00  0.10162370063E+04  0.10162370064E+04  0.25500000920E-02 0.  1.
        2   -1    0    0  501    0  0.00000000000E+00  0.00000000000E+00 -0.22487723468E+04  0.22487723468E+04  0.25500000920E-02 0. -1.
    10030    2    1    2    0    0  0.00000000000E+00  0.00000000000E+00 -0.12325353404E+04  0.32650093531E+04  0.30234322732E+04 0.  0.
        1    1    3    3  502    0  0.61585309601E+03 -0.13459809927E+04 -0.94796768569E+03  0.17577208543E+04  0.50400001928E-02 0. -1.
       -1    1    3    3    0  502 -0.61585309601E+03  0.13459809927E+04 -0.28456765475E+03  0.15072884988E+04  0.50400001928E-02 0.  1.
</event>
<event>
 5   0  0.2504260E-06  0.2846178E+04  0.7818609E-02  0.8289074E-01
        1   -1    0    0  501    0  0.00000000000E+00  0.00000000000E+00  0.16805959773E+04  0.16805959774E+04  0.50400001928E-02 0. -1.
       -1   -1    0    0    0  501  0.00000000000E+00  0.00000000000E+00 -0.12050379044E+04  0.12050379044E+04  0.50400001928E-02 0.  1.
    10030    2    1    2    0    0  0.00000000000E+00  0.00000000000E+00  0.47555807298E+03  0.28856338817E+04  0.28461776857E+04 0.  0.
        4    1    3    3  502    0  0.64454724980E+03 -0.11893817346E+04  0.68561521708E+03  0.15166212140E+04  0.12699999809E+01 0. -1.
       -4    1    3    3    0  502 -0.64454724980E+03  0.11893817346E+04 -0.21005714410E+03  0.13690126678E+04  0.12699999809E+01 0.  1.
</event>
<event>
 5   0  0.2552990E-06  0.3062886E+04  0.7818609E-02  0.8225998E-01
        1   -1    0    0  501    0  0.00000000000E+00  0.00000000000E+00  0.21677101191E+04  0.21677101192E+04  0.50400001928E-02 0. -1.
       -1   -1    0    0    0  501  0.00000000000E+00  0.00000000000E+00 -0.10819334086E+04  0.10819334086E+04  0.50400001928E-02 0.  1.
    10030    2    1    2    0    0  0.00000000000E+00  0.00000000000E+00  0.10857767106E+04  0.32496435277E+04  0.30628862193E+04 0.  0.
        3    1    3    3  502    0  0.89817188552E+03 -0.19694751958E+03 -0.75645516435E+03  0.11906827820E+04  0.10100000352E+00 0.  1.
       -3    1    3    3    0  502 -0.89817188552E+03  0.19694751958E+03  0.18422318749E+04  0.20589607458E+04  0.10100000352E+00 0. -1.
</event>
<event>
 5   0  0.2552990E-06  0.3039691E+04  0.7818609E-02  0.8232487E-01
       -1   -1    0    0    0  501  0.00000000000E+00  0.00000000000E+00  0.15427601171E+04  0.15427601171E+04  0.50400001928E-02 0. -1.
        1   -1    0    0  501    0  0.00000000000E+00  0.00000000000E+00 -0.14972717125E+04  0.14972717125E+04  0.50400001928E-02 0.  1.
    10030    2    1    2    0    0  0.00000000000E+00  0.00000000000E+00  0.45488404549E+02  0.30400318296E+04  0.30396914860E+04 0.  0.
        3    1    3    3  502    0  0.53241186085E+03 -0.88072982654E+03  0.11412538190E+04  0.15367523244E+04  0.10100000352E+00 0. -1.
       -3    1    3    3    0  502 -0.53241186085E+03  0.88072982654E+03 -0.10957654145E+04  0.15032795052E+04  0.10100000352E+00 0.  1.
</event>
<event>
 5   0  0.7193153E-06  0.3014536E+04  0.7818609E-02  0.8239592E-01
       -2   -1    0    0    0  501  0.00000000000E+00  0.00000000000E+00  0.29545398670E+04  0.29545398670E+04  0.25500000920E-02 0.  1.
        2   -1    0    0  501    0  0.00000000000E+00  0.00000000000E+00 -0.76893786343E+03  0.76893786344E+03  0.25500000920E-02 0. -1.
    10030    2    1    2    0    0  0.00000000000E+00  0.00000000000E+00  0.21856020035E+04  0.37234777304E+04  0.30145364969E+04 0.  0.
        4    1    3    3  502    0 -0.18332832861E+03  0.47848493573E+03 -0.65805521419E+03  0.83402361334E+03  0.12699999809E+01 0. -1.
       -4    1    3    3    0  502  0.18332832861E+03 -0.47848493573E+03  0.28436572177E+04  0.28894541171E+04  0.12699999809E+01 0.  1.
</event>
<event>
 5   0  0.2672155E-06  0.2876262E+04  0.7818609E-02  0.8279975E-01
       -1   -1    0    0    0  501  0.00000000000E+00  0.00000000000E+00  0.14476203081E+04  0.14476203082E+04  0.50400001928E-02 0.  1.
        1   -1    0    0  501    0  0.00000000000E+00  0.00000000000E+00 -0.14287041937E+04  0.14287041937E+04  0.50400001928E-02 0. -1.
    10030    2    1    2    0    0  0.00000000000E+00  0.00000000000E+00  0.18916114483E+02  0.28763245018E+04  0.28762623004E+04 0.  0.
        5    1    3    3  502    0 -0.11845700668E+04 -0.32961202602E+03 -0.73644598983E+03  0.14332568217E+04  0.46999998093E+01 0.  1.
       -5    1    3    3    0  502  0.11845700668E+04  0.32961202602E+03  0.75536210431E+03  0.14430676802E+04  0.46999998093E+01 0. -1.
</event>
<event>
 5   0  0.2504260E-06  0.2951555E+04  0.7818609E-02  0.8257702E-01
        1   -1    0    0  501    0  0.00000000000E+00  0.00000000000E+00  0.11053753046E+04  0.11053753046E+04  0.50400001928E-02 0.  1.
       -1   -1    0    0    0  501  0.00000000000E+00  0.00000000000E+00 -0.19702980299E+04  0.19702980299E+04  0.50400001928E-02 0. -1.
    10030    2    1    2    0    0  0.00000000000E+00  0.00000000000E+00 -0.86492272527E+03  0.30756733345E+04  0.29515546988E+04 0.  0.
        4    1    3    3  502    0  0.13792885605E+03  0.12233566747E+04  0.41557383842E+03  0.12993572068E+04  0.12699999809E+01 0.  1.
       -4    1    3    3    0  502 -0.13792885605E+03 -0.12233566747E+04 -0.12804965637E+04  0.17763161277E+04  0.12699999809E+01 0. -1.
</event>
<event>
 5   0  0.2422083E-06  0.3014296E+04  0.7818609E-02  0.8239660E-01
        1   -1    0    0  501    0  0.00000000000E+00  0.00000000000E+00  0.15460469675E+04  0.15460469676E+04  0.50400001928E-02 0.  1.
       -1   -1    0    0    0  501  0.00000000000E+00  0.00000000000E+00 -0.14692277853E+04  0.14692277853E+04  0.50400001928E-02 0. -1.
    10030    2    1    2    0    0  0.00000000000E+00  0.00000000000E+00  0.76819182247E+02  0.30152747529E+04  0.30142960453E+04 0.  0.
        2    1    3    3  502    0 -0.11076111208E+04  0.46616272530E+03  0.94831203265E+03  0.15308186674E+04  0.25500000920E-02 0.  1.
       -2    1    3    3    0  502  0.11076111208E+04 -0.46616272530E+03 -0.87149285040E+03  0.14844560854E+04  0.25500000920E-02 0. -1.
</event>
<event>
 5   0  0.7201538E-06  0.2910416E+04  0.7818609E-02  0.8269785E-01
       -2   -1    0    0    0  501  0.00000000000E+00  0.00000000000E+00  0.13315315084E+04  0.13315315084E+04  0.25500000920E-02 0. -1.
        2   -1    0    0  501    0  0.00000000000E+00  0.00000000000E+00 -0.15903723285E+04  0.15903723285E+04  0.25500000920E-02 0.  1.
    10030    2    1    2    0    0  0.00000000000E+00  0.00000000000E+00 -0.25884082009E+03  0.29219038368E+04  0.29104163726E+04 0.  0.
        3    1    3    3  502    0  0.73529089935E+03  0.48863837805E+03  0.10319561068E+04  0.13580698022E+04  0.10100000352E+00 0. -1.
       -3    1    3    3    0  502 -0.73529089935E+03 -0.48863837805E+03 -0.12907969269E+04  0.15638340346E+04  0.10100000352E+00 0.  1.
</event>
<event>
 5   0  0.7193153E-06  0.3043165E+04  0.7818609E-02  0.8231511E-01
        2   -1    0    0  501    0  0.00000000000E+00  0.00000000000E+00  0.24611805971E+04  0.24611805971E+04  0.25500000920E-02 0. -1.
       -2   -1    0    0    0  501  0.00000000000E+00  0.00000000000E+00 -0.94069206046E+03  0.94069206046E+03  0.25500000920E-02 0.  1.
    10030    2    1    2    0    0  0.00000000000E+00  0.00000000000E+00  0.15204885366E+04  0.34018726576E+04  0.30431648309E+04 0.  0.
        4    1    3    3  502    0 -0.62876306783E+03 -0.12096028038E+04  0.15157227626E+04  0.20386022281E+04  0.12699999809E+01 0. -1.
       -4    1    3    3    0  502  0.62876306783E+03  0.12096028038E+04  0.47657739851E+01  0.13632704295E+04  0.12699999809E+01 0.  1.
</event>
<event>
 5   0  0.7217255E-06  0.3035465E+04  0.7818609E-02  0.8233676E-01
        2   -1    0    0  501    0  0.00000000000E+00  0.00000000000E+00  0.12827494172E+04  0.12827494172E+04  0.25500000920E-02 0. -1.
       -2   -1    0    0    0  501  0.00000000000E+00  0.00000000000E+00 -0.17957612187E+04  0.17957612187E+04  0.25500000920E-02 0.  1.
    10030    2    1    2    0    0  0.00000000000E+00  0.00000000000E+00 -0.51301180151E+03  0.30785106360E+04  0.30354648124E+04 0.  0.
        1    1    3    3  502    0 -0.61621991697E+03  0.12753310438E+04  0.29649285932E+03  0.14471020258E+04  0.50400001928E-02 0. -1.
       -1    1    3    3    0  502  0.61621991697E+03 -0.12753310438E+04 -0.80950466083E+03  0.16314086102E+04  0.50400001928E-02 0.  1.
</event>
<event>
 5   0  0.7201538E-06  0.3008894E+04  0.7818609E-02  0.8241196E-01
        2   -1    0    0  501    0  0.00000000000E+00  0.00000000000E+00  0.21347369104E+04  0.21347369104E+04  0.25500000920E-02 0. -1.
       -2   -1    0    0    0  501  0.00000000000E+00  0.00000000000E+00 -0.10602526153E+04  0.10602526153E+04  0.25500000920E-02 0.  1.
    10030    2    1    2    0    0  0.00000000000E+00  0.00000000000E+00  0.10744842951E+04  0.31949895257E+04  0.30088937450E+04 0.  0.
        3    1    3    3  502    0 -0.56430141613E+03  0.89285226894E+03 -0.60034369733E+03  0.12149213256E+04  0.10100000352E+00 0.  1.
       -3    1    3    3    0  502  0.56430141613E+03 -0.89285226894E+03  0.16748279925E+04  0.19800682001E+04  0.10100000352E+00 0. -1.
</event>
<event>
 5   0  0.2672155E-06  0.3013173E+04  0.7818609E-02  0.8239979E-01
       -1   -1    0    0    0  501  0.00000000000E+00  0.00000000000E+00  0.11987595004E+04  0.11987595004E+04  0.50400001928E-02 0. -1.
        1   -1    0    0  501    0  0.00000000000E+00  0.00000000000E+00 -0.18934602701E+04  0.18934602701E+04  0.50400001928E-02 0.  1.
    10030    2    1    2    0    0  0.00000000000E+00  0.00000000000E+00 -0.69470076971E+03  0.30922197705E+04  0.30131734019E+04 0.  0.
        5    1    3    3  502    0  0.12685160466E+04 -0.80110676331E+03 -0.20635473715E+03  0.15144336810E+04  0.46999998093E+01 0. -1.
       -5    1    3    3    0  502 -0.12685160466E+04  0.80110676331E+03 -0.48834603256E+03  0.15777860895E+04  0.46999998093E+01 0.  1.
</event>
<event>
 5   0  0.2504260E-06  0.2996776E+04  0.7818609E-02  0.8244652E-01
       -1   -1    0    0    0  501  0.00000000000E+00  0.00000000000E+00  0.32085051161E+04  0.32085051161E+04  0.50400001928E-02 0.  1.
        1   -1    0    0  501    0  0.00000000000E+00  0.00000000000E+00 -0.69975490655E+03  0.69975490657E+03  0.50400001928E-02 0. -1.
    10030    2    1    2    0    0  0.00000000000E+00  0.00000000000E+00  0.25087502095E+04  0.39082600226E+04  0.29967763999E+04 0.  0.
        4    1    3    3  502    0 -0.12046402756E+04 -0.89309685207E+02  0.24106177810E+04  0.26963334572E+04  0.12699999809E+01 0.  1.
       -4    1    3    3    0  502  0.12046402756E+04  0.89309685207E+02  0.98132428538E+02  0.12119265654E+04  0.12699999809E+01 0. -1.
</event>
<event>
 5   0  0.2672155E-06  0.2905220E+04  0.7818609E-02  0.8271326E-01
        1   -1    0    0  501    0  0.00000000000E+00  0.00000000000E+00  0.20482973401E+04  0.20482973401E+04  0.50400001928E-02 0. -1.
       -1   -1    0    0    0  501  0.00000000000E+00  0.00000000000E+00 -0.10301612336E+04  0.10301612337E+04  0.50400001928E-02 0.  1.
    10030    2    1    2    0    0  0.00000000000E+00  0.00000000000E+00  0.10181361065E+04  0.30784585738E+04  0.29052204837E+04 0.  0.
        5    1    3    3  502    0 -0.11524811386E+04 -0.31288978172E+03  0.13853900984E+04  0.18290545659E+04  0.46999998093E+01 0. -1.
       -5    1    3    3    0  502  0.11524811386E+04  0.31288978172E+03 -0.36725399194E+03  0.12494040079E+04  0.46999998093E+01 0.  1.
</event>
<event>
 5   0  0.2628425E-06  0.2827454E+04  0.7818609E-02  0.8294795E-01
       -1   -1    0    0    0  501  0.00000000000E+00  0.00000000000E+00  0.19811952428E+04  0.19811952428E+04  0.50400001928E-02 0.  1.
        1   -1    0    0  501    0  0.00000000000E+00  0.00000000000E+00 -0.10087971814E+04  0.10087971814E+04  0.50400001928E-02 0. -1.
    10030    2    1    2    0    0  0.00000000000E+00  0.00000000000E+00  0.97239806144E+03  0.29899924242E+04  0.28274541035E+04 0.  0.
        1    1    3    3  502    0  0.79369131629E+03 -0.53073428819E+03 -0.61632781612E+03  0.11364351135E+04  0.50400001928E-02 0.  1.
       -1    1    3    3    0  502 -0.79369131629E+03  0.53073428819E+03  0.15887258776E+04  0.18535573108E+04  0.50400001928E-02 0. -1.
</event>
<event>
 5   0  0.7193153E-06  0.2920455E+04  0.7818609E-02  0.8266817E-01
        2   -1    0    0  501    0  0.00000000000E+00  0.00000000000E+00  0.19994329783E+04  0.19994329784E+04  0.25500000920E-02 0.  1.
       -2   -1    0    0    0  501  0.00000000000E+00  0.00000000000E+00 -0.10664347153E+04  0.10664347153E+04  0.25500000920E-02 0. -1.
    10030    2    1    2    0    0  0.00000000000E+00  0.00000000000E+00  0.93299826306E+03  0.30658676936E+04  0.29204552652E+04 0.  0.
        4    1    3    3  502    0  0.78188442374E+03  0.11669709763E+04  0.47767229563E+02  0.14055062549E+04  0.12699999809E+01 0. -1.
       -4    1    3    3    0  502 -0.78188442374E+03 -0.11669709763E+04  0.88523103349E+03  0.16603614387E+04  0.12699999809E+01 0.  1.
</event>
<event>
 5   0  0.7217255E-06  0.2887404E+04  0.7818609E-02  0.8276635E-01
       -2   -1    0    0    0  501  0.00000000000E+00  0.00000000000E+00  0.13461467922E+04  0.13461467922E+04  0.25500000920E-02 0.  1.
        2   -1    0    0  501    0  0.00000000000E+00  0.00000000000E+00 -0.15483274854E+04  0.15483274854E+04  0.25500000920E-02 0. -1.
    10030    2    1    2    0    0  0.00000000000E+00  0.00000000000E+00 -0.20218069322E+03  0.28944742776E+04  0.28874044246E+04 0.  0.
        1    1    3    3  502    0  0.79227613835E+03 -0.21207612780E+03 -0.12921064743E+04  0.15304303004E+04  0.50400001928E-02 0. -1.
       -1    1    3    3    0  502 -0.79227613835E+03  0.21207612780E+03  0.10899257811E+04  0.13640439772E+04  0.50400001928E-02 0.  1.
</event>
<event>
 5   0  0.6792811E-06  0.2872826E+04  0.7818609E-02  0.8281009E-01
        2   -1    0    0  501    0  0.00000000000E+00  0.00000000000E+00  0.19675907998E+04  0.19675907998E+04  0.25500000920E-02 0. -1.
       -2   -1    0    0    0  501  0.00000000000E+00  0.00000000000E+00 -0.10486342006E+04  0.10486342006E+04  0.25500000920E-02 0.  1.
    10030    2    1    2    0    0  0.00000000000E+00  0.00000000000E+00  0.91895659919E+03  0.30162250004E+04  0.28728264866E+04 0.  0.
        2    1    3    3  502    0 -0.31568479623E+03  0.69484047940E+03 -0.81815401829E+03  0.11188548521E+04  0.25500000920E-02 0.  1.
       -2    1    3    3    0  502  0.31568479623E+03 -0.69484047940E+03  0.17371106175E+04  0.18973701483E+04  0.25500000920E-02 0. -1.
</event>
<event>
 5   0  0.2552990E-06  0.2734269E+04  0.7818609E-02  0.8323971E-01
        1   -1    0    0  501    0  0.00000000000E+00  0.00000000000E+00  0.13600165432E+04  0.13600165433E+04  0.50400001928E-02 0.  1.
       -1   -1    0    0    0  501  0.00000000000E+00  0.00000000000E+00 -0.13742900679E+04  0.13742900679E+04  0.50400001928E-02 0. -1.
    10030    2    1    2    0    0  0.00000000000E+00  0.00000000000E+00 -0.14273524621E+02  0.27343066111E+04  0.27342693558E+04 0.  0.
        3    1    3    3  502    0 -0.53327167629E+03 -0.12391196916E+03  0.12456070766E+04  0.13606137793E+04  0.10100000352E+00 0.  1.
       -3    1    3    3    0  502  0.53327167629E+03  0.12391196916E+03 -0.12598806012E+04  0.13736928319E+04  0.10100000352E+00 0. -1.
</event>
<event>
 5   0  0.7201538E-06  0.2985925E+04  0.7818609E-02  0.8247762E-01
        2   -1    0    0  501    0  0.00000000000E+00  0.00000000000E+00  0.18373931041E+04  0.18373931041E+04  0.25500000920E-02 0. -1.
       -2   -1    0    0    0  501  0.00000000000E+00  0.00000000000E+00 -0.12130974580E+04  0.12130974580E+04  0.25500000920E-02 0.  1.
    10030    2    1    2    0    0  0.00000000000E+00  0.00000000000E+00  0.62429564609E+03  0.30504905621E+04  0.29859249180E+04 0.  0.
        3    1    3    3  502    0 -0.16397655657E+03 -0.73709075430E+03 -0.10036244218E+04  0.12559669906E+04  0.10100000352E+00 0.  1.
       -3    1    3    3    0  502  0.16397655657E+03  0.73709075430E+03  0.16279200679E+04  0.17945235715E+04  0.10100000352E+00 0. -1.
</event>
<event>
 5   0  0.6780150E-06  0.2977484E+04  0.7818609E-02  0.8250190E-01
        2   -1    0    0  501    0  0.00000000000E+00  0.00000000000E+00  0.14406802435E+04  0.14406802435E+04  0.25500000920E-02 0. -1.
       -2   -1    0    0    0  501  0.00000000000E+00  0.00000000000E+00 -0.15384070880E+04  0.15384070880E+04  0.25500000920E-02 0.  1.
    10030    2    1    2    0    0  0.00000000000E+00  0.00000000000E+00 -0.97726844525E+02  0.29790873315E+04  0.29774839701E+04 0.  0.
        5    1    3    3  502    0  0.31836643627E+03  0.68542597059E+03 -0.13321938409E+04  0.15316424088E+04  0.46999998093E+01 0.  1.
       -5    1    3    3    0  502 -0.31836643627E+03 -0.68542597059E+03  0.12344669964E+04  0.14474449226E+04  0.46999998093E+01 0. -1.
</event>
<event>
 5   0  0.7217255E-06  0.2999663E+04  0.7818609E-02  0.8243827E-01
       -2   -1    0    0    0  501  0.00000000000E+00  0.00000000000E+00  0.10778153344E+04  0.10778153344E+04  0.25500000920E-02 0.  1.
        2   -1    0    0  501    0  0.00000000000E+00  0.00000000000E+00 -0.20870871077E+04  0.20870871077E+04  0.25500000920E-02 0. -1.
    10030    2    1    2    0    0  0.00000000000E+00  0.00000000000E+00 -0.10092717734E+04  0.31649024421E+04  0.29996629737E+04 0.  0.
        1    1    3    3  502    0  0.75520423164E+03 -0.10519207804E+04 -0.13030395767E+04  0.18370582185E+04  0.50400001928E-02 0. -1.
       -1    1    3    3    0  502 -0.75520423164E+03  0.10519207804E+04  0.29376780335E+03  0.13278442236E+04  0.50400001928E-02 0.  1.
</event>
<event>
 5   0  0.2552990E-06  0.3090046E+04  0.7818609E-02  0.8218475E-01
       -1   -1    0    0    0  501  0.00000000000E+00  0.00000000000E+00  0.15040065543E+04  0.15040065543E+04  0.50400001928E-02 0. -1.
        1   -1    0    0  501    0  0.00000000000E+00  0.00000000000E+00 -0.15871583779E+04  0.15871583779E+04  0.50400001928E-02 0.  1.
    10030    2    1    2    0    0  0.00000000000E+00  0.00000000000E+00 -0.83151823575E+02  0.30911649322E+04  0.30900463447E+04 0.  0.
        3    1    3    3  502    0  0.99607381743E+03 -0.10496936659E+03 -0.12184009212E+04  0.15772388635E+04  0.10100000352E+00 0.  1.
       -3    1    3    3    0  502 -0.99607381743E+03  0.10496936659E+03  0.11352490976E+04  0.15139260687E+04  0.10100000352E+00 0. -1.
</event>
<event>
 5   0  0.2504260E-06  0.2942102E+04  0.7818609E-02  0.8260460E-01
       -1   -1    0    0    0  501  0.00000000000E+00  0.00000000000E+00  0.12340786994E+04  0.12340786994E+04  0.50400001928E-02 0. -1.
        1   -1    0    0  501    0  0.00000000000E+00  0.00000000000E+00 -0.17535276068E+04  0.17535276068E+04  0.50400001928E-02 0.  1.
    10030    2    1    2    0    0  0.00000000000E+00  0.00000000000E+00 -0.51944890737E+03  0.29876063062E+04  0.29421020162E+04 0.  0.
        4    1    3    3  502    0  0.69092520122E+03 -0.22158110394E+03  0.10397211449E+04  0.12678712440E+04  0.12699999809E+01 0. -1.
       -4    1    3    3    0  502 -0.69092520122E+03  0.22158110394E+03 -0.15591700523E+04  0.17197350622E+04  0.12699999809E+01 0.  1.
</event>
<event>
 5   0  0.2552990E-06  0.2668145E+04  0.7818609E-02  0.8345415E-01
        1   -1    0    0  501    0  0.00000000000E+00  0.00000000000E+00  0.14086535595E+04  0.14086535595E+04  0.50400001928E-02 0. -1.
       -1   -1    0    0    0  501  0.00000000000E+00  0.00000000000E+00 -0.12634404007E+04  0.12634404007E+04  0.50400001928E-02 0.  1.
    10030    2    1    2    0    0  0.00000000000E+00  0.00000000000E+00  0.14521315876E+03  0.26720939602E+04  0.26681452867E+04 0.  0.
        3    1    3    3  502    0 -0.16812857390E+03  0.11862343722E+04  0.66027190111E+03  0.13679832589E+04  0.10100000352E+00 0. -1.
       -3    1    3    3    0  502  0.16812857390E+03 -0.11862343722E+04 -0.51505874235E+03  0.13041107013E+04  0.10100000352E+00 0.  1.
</event>
<event>
 5   0  0.7193153E-06  0.3006683E+04  0.7818609E-02  0.8241825E-01
       -2   -1    0    0    0  501  0.00000000000E+00  0.00000000000E+00  0.16012713157E+04  0.16012713157E+04  0.25500000920E-02 0.  1.
        2   -1    0    0  501    0  0.00000000000E+00  0.00000000000E+00 -0.14114011230E+04  0.14114011230E+04  0.25500000920E-02 0. -1.
    10030    2    1    2    0    0  0.00000000000E+00  0.00000000000E+00  0.18987019270E+03  0.30126724386E+04  0.30066833109E+04 0.  0.
        4    1    3    3  502    0 -0.38819126741E+03  0.26840143656E+02 -0.13600668012E+04  0.14146364092E+04  0.12699999809E+01 0. -1.
       -4    1    3    3    0  502  0.38819126741E+03 -0.26840143656E+02  0.15499369939E+04  0.15980360295E+04  0.12699999809E+01 0.  1.
</event>
<event>
 5   0  0.6780150E-06  0.3043520E+04  0.7818609E-02  0.8231412E-01
        2   -1    0    0  501    0  0.00000000000E+00  0.00000000000E+00  0.14082585833E+04  0.14082585833E+04  0.25500000920E-02 0.  1.
       -2   -1    0    0    0  501  0.00000000000E+00  0.00000000000E+00 -0.16444089846E+04  0.16444089846E+04  0.25500000920E-02 0. -1.
    10030    2    1    2    0    0  0.00000000000E+00  0.00000000000E+00 -0.23615040124E+03  0.30526675679E+04  0.30435197171E+04 0.  0.
        5    1    3    3  502    0  0.44919269687E+03  0.14203563206E+04  0.19357533911E+03  0.15022249027E+04  0.46999998093E+01 0. -1.
       -5    1    3    3    0  502 -0.44919269687E+03 -0.14203563206E+04 -0.42972574035E+03  0.15504426652E+04  0.46999998093E+01 0.  1.
</event>
<event>
 5   0  0.6792811E-06  0.2778811E+04  0.7818609E-02  0.8309877E-01
       -2   -1    0    0    0  501  0.00000000000E+00  0.00000000000E+00  0.72991263505E+03  0.72991263506E+03  0.25500000920E-02 0.  1.
        2   -1    0    0  501    0  0.00000000000E+00  0.00000000000E+00 -0.26447657102E+04  0.26447657102E+04  0.25500000920E-02 0. -1.
    10030    2    1    2    0    0  0.00000000000E+00  0.00000000000E+00 -0.19148530751E+04  0.33746783452E+04  0.27788111909E+04 0.  0.
        2    1    3    3  502    0 -0.10883881154E+03 -0.60052626896E+03 -0.24732649975E+04  0.25474531270E+04  0.25500000920E-02 0. -1.
       -2    1    3    3    0  502  0.10883881154E+03  0.60052626896E+03  0.55841192236E+03  0.82722521821E+03  0.25500000920E-02 0.  1.
</event>
<event>
 5   0  0.7201538E-06  0.2996159E+04  0.7818609E-02  0.8244828E-01
       -2   -1    0    0    0  501  0.00000000000E+00  0.00000000000E+00  0.20257752480E+04  0.20257752480E+04  0.25500000920E-02 0. -1.
        2   -1    0    0  501    0  0.00000000000E+00  0.00000000000E+00 -0.11078438480E+04  0.11078438480E+04  0.25500000920E-02 0.  1.
    10030    2    1    2    0    0  0.00000000000E+00  0.00000000000E+00  0.91793140004E+03  0.31336190960E+04  0.29961593055E+04 0.  0.
        3    1    3    3  502    0  0.91365744323E+03  0.56596060154E+03  0.15504749156E+04  0.18865454673E+04  0.10100000352E+00 0. -1.
       -3    1    3    3    0  502 -0.91365744323E+03 -0.56596060154E+03 -0.63254351559E+03  0.12470736287E+04  0.10100000352E+00 0.  1.
</event>
<event>
 5   0  0.6792811E-06  0.2647235E+04  0.7818609E-02  0.8352331E-01
        2   -1    0    0  501    0  0.00000000000E+00  0.00000000000E+00  0.26352848455E+04  0.26352848455E+04  0.25500000920E-02 0. -1.
       -2   -1    0    0    0  501  0.00000000000E+00  0.00000000000E+00 -0.66480965932E+03  0.66480965932E+03  0.25500000920E-02 0.  1.
    10030    2    1    2    0    0  0.00000000000E+00  0.00000000000E+00  0.19704751861E+04  0.33000945048E+04  0.26472346479E+04 0.  0.
        2    1    3    3  502    0  0.85091869795E+03  0.19947457666E+03 -0.25394870891E+03  0.91013333310E+03  0.25500000920E-02 0.  1.
       -2    1    3    3    0  502 -0.85091869795E+03 -0.19947457666E+03  0.22244238950E+04  0.23899611717E+04  0.25500000920E-02 0. -1.
</event>
<event>
 5   0  0.7201538E-06  0.2955360E+04  0.7818609E-02  0.8256594E-01
       -2   -1    0    0    0  501  0.00000000000E+00  0.00000000000E+00  0.10825889116E+04  0.10825889116E+04  0.25500000920E-02 0. -1.
        2   -1    0    0  501    0  0.00000000000E+00  0.00000000000E+00 -0.20169602166E+04  0.20169602166E+04  0.25500000920E-02 0.  1.
    10030    2    1    2    0    0  0.00000000000E+00  0.00000000000E+00 -0.93437130501E+03  0.30995491282E+04  0.29553603946E+04 0.  0.
        3    1    3    3  502    0  0.38837109697E+03  0.10136658388E+04  0.58432038153E+03  0.12327939244E+04  0.10100000352E+00 0. -1.
       -3    1    3    3    0  502 -0.38837109697E+03 -0.10136658388E+04 -0.15186916865E+04  0.18667552037E+04  0.10100000352E+00 0.  1.
</event>
<event>
 5   0  0.7201538E-06  0.3001454E+04  0.7818609E-02  0.8243316E-01
       -2   -1    0    0    0  501  0.00000000000E+00  0.00000000000E+00  0.12487038799E+04  0.12487038799E+04  0.25500000920E-02 0.  1.
        2   -1    0    0  501    0  0.00000000000E+00  0.00000000000E+00 -0.18036150606E+04  0.18036150606E+04  0.25500000920E-02 0. -1.
    10030    2    1    2    0    0  0.00000000000E+00  0.00000000000E+00 -0.55491118064E+03  0.30523189405E+04  0.30014537305E+04 0.  0.
        3    1    3    3  502    0 -0.10750080337E+04 -0.10402808939E+04 -0.39929627811E+03  0.15483100912E+04  0.10100000352E+00 0.  1.
       -3    1    3    3    0  502  0.10750080337E+04  0.10402808939E+04 -0.15561490253E+03  0.15040088493E+04  0.10100000352E+00 0. -1.
</event>
<event>
 5   0  0.7193153E-06  0.3002451E+04  0.7818609E-02  0.8243031E-01
       -2   -1    0    0    0  501  0.00000000000E+00  0.00000000000E+00  0.97369126046E+03  0.97369126047E+03  0.25500000920E-02 0. -1.
        2   -1    0    0  501    0  0.00000000000E+00  0.00000000000E+00 -0.23145714102E+04  0.23145714102E+04  0.25500000920E-02 0.  1.
    10030    2    1    2    0    0  0.00000000000E+00  0.00000000000E+00 -0.13408801497E+04  0.32882626706E+04  0.30024509680E+04 0.  0.
        4    1    3    3  502    0 -0.56793993456E+03  0.13879866059E+04 -0.59604952447E+03  0.16137965287E+04  0.12699999809E+01 0. -1.
       -4    1    3    3    0  502  0.56793993456E+03 -0.13879866059E+04 -0.74483062524E+03  0.16744661420E+04  0.12699999809E+01 0.  1.
</event>
<event>
 5   0  0.2672155E-06  0.2989891E+04  0.7818609E-02  0.8246623E-01
       -1   -1    0    0    0  501  0.00000000000E+00  0.00000000000E+00  0.10451136362E+04  0.10451136362E+04  0.50400001928E-02 0. -1.
        1   -1    0    0  501    0  0.00000000000E+00  0.00000000000E+00 -0.21383918811E+04  0.21383918811E+04  0.50400001928E-02 0.  1.
    10030    2    1    2    0    0  0.00000000000E+00  0.00000000000E+00 -0.10932782449E+04  0.31835055173E+04  0.29898913121E+04 0.  0.
        5    1    3    3  502    0 -0.13269112499E+04 -0.64069652159E+03 -0.27800188249E+03  0.14994974607E+04  0.46999998093E+01 0. -1.
       -5    1    3    3    0  502  0.13269112499E+04  0.64069652159E+03 -0.81527636237E+03  0.16840080567E+04  0.46999998093E+01 0.  1.
</event>
<event>
 5   0  0.2422083E-06  0.2990717E+04  0.7818609E-02  0.8246387E-01
       -1   -1    0    0    0  501  0.00000000000E+00  0.00000000000E+00  0.12468730342E+04  0.12468730342E+04  0.50400001928E-02 0. -1.
        1   -1    0    0  501    0  0.00000000000E+00  0.00000000000E+00 -0.17933639556E+04  0.17933639556E+04  0.50400001928E-02 0.  1.
    10030    2    1    2    0    0  0.00000000000E+00  0.00000000000E+00 -0.54649092138E+03  0.30402369898E+04  0.29907170757E+04 0.  0.
        2    1    3    3  502    0  0.46132239444E+03 -0.58729670566E+03  0.10437214028E+04  0.12833900961E+04  0.25500000920E-02 0. -1.
       -2    1    3    3    0  502 -0.46132239444E+03  0.58729670566E+03 -0.15902123241E+04  0.17568468937E+04  0.25500000920E-02 0.  1.
</event>
<event>
 5   0  0.2422083E-06  0.3032402E+04  0.7818609E-02  0.8234538E-01
        1   -1    0    0  501    0  0.00000000000E+00  0.00000000000E+00  0.18842256479E+04  0.18842256479E+04  0.50400001928E-02 0. -1.
       -1   -1    0    0    0  501  0.00000000000E+00  0.00000000000E+00 -0.12200587357E+04  0.12200587358E+04  0.50400001928E-02 0.  1.
    10030    2    1    2    0    0  0.00000000000E+00  0.00000000000E+00  0.66416691217E+03  0.31042843837E+04  0.30324023228E+04 0.  0.
        2    1    3    3  502    0  0.12392865143E+04  0.78648356285E+03 -0.57030041110E+02  0.14688906987E+04  0.25500000920E-02 0.  1.
       -2    1    3    3    0  502 -0.12392865143E+04 -0.78648356285E+03  0.72119695328E+03  0.16353936849E+04  0.25500000920E-02 0. -1.
</event>
<event>
 5   0  0.2552990E-06  0.3035053E+04  0.7818609E-02  0.8233791E-01
        1   -1    0    0  501    0  0.00000000000E+00  0.00000000000E+00  0.16166451422E+04  0.16166451422E+04  0.50400001928E-02 0.  1.
       -1   -1    0    0    0  501  0.00000000000E+00  0.00000000000E+00 -0.14244852997E+04  0.14244852997E+04  0.50400001928E-02 0. -1.
    10030    2    1    2    0    0  0.00000000000E+00  0.00000000000E+00  0.19215984248E+03  0.30411304419E+04  0.30350533701E+04 0.  0.
        3    1    3    3  502    0  0.49275556041E+02 -0.11240814187E+04 -0.92424190543E+03  0.14560941681E+04  0.10100000352E+00 0. -1.
       -3    1    3    3    0  502 -0.49275556041E+02  0.11240814187E+04  0.11164017479E+04  0.15850362738E+04  0.10100000352E+00 0.  1.
</event>
<event>
 5   0  0.7217255E-06  0.2982667E+04  0.7818609E-02  0.8248698E-01
        2   -1    0    0  501    0  0.00000000000E+00  0.00000000000E+00  0.15676274271E+04  0.15676274271E+04  0.25500000920E-02 0. -1.
       -2   -1    0    0    0  501  0.00000000000E+00  0.00000000000E+00 -0.14187526001E+04  0.14187526001E+04  0.25500000920E-02 0.  1.
    10030    2    1    2    0    0  0.00000000000E+00  0.00000000000E+00  0.14887482697E+03  0.29863800272E+04  0.29826669196E+04 0.  0.
        1    1    3    3  502    0 -0.48060067286E+02 -0.10939044217E+04  0.10881892588E+04  0.15437268272E+04  0.50400001928E-02 0. -1.
       -1    1    3    3    0  502  0.48060067286E+02  0.10939044217E+04 -0.93931443180E+03  0.14426532001E+04  0.50400001928E-02 0.  1.
</event>
<event>
 5   0  0.2552990E-06  0.3011727E+04  0.7818609E-02  0.8240390E-01
        1   -1    0    0  501    0  0.00000000000E+00  0.00000000000E+00  0.28023639807E+04  0.28023639807E+04  0.50400001928E-02 0. -1.
       -1   -1    0    0    0  501  0.00000000000E+00  0.00000000000E+00 -0.80918292864E+03  0.80918292866E+03  0.50400001928E-02 0.  1.
    10030    2    1    2    0    0  0.00000000000E+00  0.00000000000E+00  0.19931810520E+04  0.36115469093E+04  0.30117271410E+04 0.  0.
        3    1    3    3  502    0  0.73056901822E+03 -0.10573350761E+04  0.19377118594E+04  0.23251700613E+04  0.10100000352E+00 0. -1.
       -3    1    3    3    0  502 -0.73056901822E+03  0.10573350761E+04  0.55469192608E+02  0.12863768480E+04  0.10100000352E+00 0.  1.
</event>
<event>
 5   0  0.7201538E-06  0.3014562E+04  0.7818609E-02  0.8239585E-01
       -2   -1    0    0    0  501  0.00000000000E+00  0.00000000000E+00  0.27967839783E+04  0.27967839783E+04  0.25500000920E-02 0. -1.
        2   -1    0    0  501    0  0.00000000000E+00  0.00000000000E+00 -0.81232427121E+03  0.81232427121E+03  0.25500000920E-02 0.  1.
    10030    2    1    2    0    0  0.00000000000E+00  0.00000000000E+00  0.19844597071E+04  0.36091082495E+04  0.30145616643E+04 0.  0.
        3    1    3    3  502    0 -0.83854544430E+03 -0.93929045793E+03  0.19841727376E+04  0.23499715933E+04  0.10100000352E+00 0. -1.
       -3    1    3    3    0  502  0.83854544430E+03  0.93929045793E+03  0.28696951640E+00  0.12591366562E+04  0.10100000352E+00 0.  1.
</event>
<event>
 5   0  0.2628425E-06  0.2992244E+04  0.7818609E-02  0.8245949E-01
        1   -1    0    0  501    0  0.00000000000E+00  0.00000000000E+00  0.11180001733E+04  0.11180001733E+04  0.50400001928E-02 0. -1.
       -1   -1    0    0    0  501  0.00000000000E+00  0.00000000000E+00 -0.20021295072E+04  0.20021295072E+04  0.50400001928E-02 0.  1.
    10030    2    1    2    0    0  0.00000000000E+00  0.00000000000E+00 -0.88412933385E+03  0.31201296805E+04  0.29922440649E+04 0.  0.
        1    1    3    3  502    0 -0.62528219525E+02 -0.10323647877E+04  0.68520051743E+03  0.12406395860E+04  0.50400001928E-02 0. -1.
       -1    1    3    3    0  502  0.62528219525E+02  0.10323647877E+04 -0.15693298513E+04  0.18794900945E+04  0.50400001928E-02 0.  1.
</event>
<event>
 5   0  0.7193153E-06  0.2998461E+04  0.7818609E-02  0.8244170E-01
        2   -1    0    0  501    0  0.00000000000E+00  0.00000000000E+00  0.18425017457E+04  0.18425017457E+04  0.25500000920E-02 0. -1.
       -2   -1    0    0    0  501  0.00000000000E+00  0.00000000000E+00 -0.12199132113E+04  0.12199132113E+04  0.25500000920E-02 0.  1.
    10030    2    1    2    0    0  0.00000000000E+00  0.00000000000E+00  0.62258853438E+03  0.30624149569E+04  0.29984610862E+04 0.  0.
        4    1    3    3  502    0 -0.32679807790E+03 -0.57617265038E+03 -0.10623527411E+04  0.12519452329E+04  0.12699999809E+01 0.  1.
       -4    1    3    3    0  502  0.32679807790E+03  0.57617265038E+03  0.16849412755E+04  0.18104697240E+04  0.12699999809E+01 0. -1.
</event>
<event>
 5   0  0.7193153E-06  0.2819132E+04  0.7818609E-02  0.8297353E-01
        2   -1    0    0  501    0  0.00000000000E+00  0.00000000000E+00  0.15260533583E+04  0.15260533583E+04  0.25500000920E-02 0. -1.
       -2   -1    0    0    0  501  0.00000000000E+00  0.00000000000E+00 -0.13019705623E+04  0.13019705623E+04  0.25500000920E-02 0.  1.
    10030    2    1    2    0    0  0.00000000000E+00  0.00000000000E+00  0.22408279601E+03  0.28280239206E+04  0.28191321708E+04 0.  0.
        4    1    3    3  502    0  0.39300250353E+03  0.95990427553E+03 -0.84543632172E+03  0.13381447504E+04  0.12699999809E+01 0.  1.
       -4    1    3    3    0  502 -0.39300250353E+03 -0.95990427553E+03  0.10695191177E+04  0.14898791703E+04  0.12699999809E+01 0. -1.
</event>
<event>
 5   0  0.2672155E-06  0.2368474E+04  0.7818609E-02  0.8451402E-01
        1   -1    0    0  501    0  0.00000000000E+00  0.00000000000E+00  0.21514283674E+04  0.21514283674E+04  0.50400001928E-02 0. -1.
       -1   -1    0    0    0  501  0.00000000000E+00  0.00000000000E+00 -0.65185391239E+03  0.65185391241E+03  0.50400001928E-02 0.  1.
    10030    2    1    2    0    0  0.00000000000E+00  0.00000000000E+00  0.14995744550E+04  0.28032822798E+04  0.23684737690E+04 0.  0.
        5    1    3    3  502    0  0.11176354987E+04  0.31433843833E+03  0.10260392265E+04  0.15494180669E+04  0.46999998093E+01 0. -1.
       -5    1    3    3    0  502 -0.11176354987E+04 -0.31433843833E+03  0.47353522859E+03  0.12538642130E+04  0.46999998093E+01 0.  1.
</event>
<event>
 5   0  0.2552990E-06  0.3106630E+04  0.7818609E-02  0.8213921E-01
       -1   -1    0    0    0  501  0.00000000000E+00  0.00000000000E+00  0.88703720961E+03  0.88703720962E+03  0.50400001928E-02 0. -1.
        1   -1    0    0  501    0  0.00000000000E+00  0.00000000000E+00 -0.27200523036E+04  0.27200523036E+04  0.50400001928E-02 0.  1.
    10030    2    1    2    0    0  0.00000000000E+00  0.00000000000E+00 -0.18330150940E+04  0.36070895132E+04  0.31066300748E+04 0.  0.
        3    1    3    3  502    0 -0.10963446852E+04 -0.87947253762E+03 -0.14865300937E+03  0.14133440277E+04  0.10100000352E+00 0. -1.
       -3    1    3    3    0  502  0.10963446852E+04  0.87947253762E+03 -0.16843620846E+04  0.21937454856E+04  0.10100000352E+00 0.  1.
</event>
<event>
 5   0  0.2422083E-06  0.2939633E+04  0.7818609E-02  0.8261182E-01
       -1   -1    0    0    0  501  0.00000000000E+00  0.00000000000E+00  0.13245477378E+04  0.13245477378E+04  0.50400001928E-02 0.  1.
        1   -1    0    0  501    0  0.00000000000E+00  0.00000000000E+00 -0.16310179306E+04  0.16310179306E+04  0.50400001928E-02 0. -1.
    10030    2    1    2    0    0  0.00000000000E+00  0.00000000000E+00 -0.30647019281E+03  0.29555656684E+04  0.29396333855E+04 0.  0.
        2    1    3    3  502    0 -0.77288244768E+03  0.10860886929E+04  0.46933428702E+03  0.14132270163E+04  0.25500000920E-02 0.  1.
       -2    1    3    3    0  502  0.77288244768E+03 -0.10860886929E+04 -0.77580447984E+03  0.15423386521E+04  0.25500000920E-02 0. -1.
</event>
<event>
 5   0  0.7193153E-06  0.2986793E+04  0.7818609E-02  0.8247512E-01
       -2   -1    0    0    0  501  0.00000000000E+00  0.00000000000E+00  0.15025056976E+04  0.15025056976E+04  0.25500000920E-02 0. -1.
        2   -1    0    0  501    0  0.00000000000E+00  0.00000000000E+00 -0.14843423737E+04  0.14843423737E+04  0.25500000920E-02 0.  1.
    10030    2    1    2    0    0  0.00000000000E+00  0.00000000000E+00  0.18163323878E+02  0.29868480713E+04  0.29867928443E+04 0.  0.
        4    1    3    3  502    0  0.86492926196E+03  0.69352800305E+03  0.10096737692E+04  0.14995087370E+04  0.12699999809E+01 0. -1.
       -4    1    3    3    0  502 -0.86492926196E+03 -0.69352800305E+03 -0.99151044535E+03  0.14873393343E+04  0.12699999809E+01 0.  1.
</event>
<event>
 5   0  0.2552990E-06  0.2964721E+04  0.7818609E-02  0.8253877E-01
       -1   -1    0    0    0  501  0.00000000000E+00  0.00000000000E+00  0.10474869989E+04  0.10474869989E+04  0.50400001928E-02 0. -1.
        1   -1    0    0  501    0  0.00000000000E+00  0.00000000000E+00 -0.20977753446E+04  0.20977753446E+04  0.50400001928E-02 0.  1.
    10030    2    1    2    0    0  0.00000000000E+00  0.00000000000E+00 -0.10502883456E+04  0.31452623435E+04  0.29647208301E+04 0.  0.
        3    1    3    3  502    0 -0.69519913168E+03  0.31534274519E+03 -0.18732134256E+04  0.20227880333E+04  0.10100000352E+00 0.  1.
       -3    1    3    3    0  502  0.69519913168E+03 -0.31534274519E+03  0.82292507996E+03  0.11224743102E+04  0.10100000352E+00 0. -1.
</event>
<event>
 5   0  0.6792811E-06  0.2913804E+04  0.7818609E-02  0.8268782E-01
       -2   -1    0    0    0  501  0.00000000000E+00  0.00000000000E+00  0.13662917789E+04  0.13662917789E+04  0.25500000920E-02 0.  1.
        2   -1    0    0  501    0  0.00000000000E+00  0.00000000000E+00 -0.15535215018E+04  0.15535215018E+04  0.25500000920E-02 0. -1.
    10030    2    1    2    0    0  0.00000000000E+00  0.00000000000E+00 -0.18722972289E+03  0.29198132807E+04  0.29138041500E+04 0.  0.
        2    1    3    3  502    0 -0.14057577902E+03  0.11884489076E+04 -0.92622630807E+03  0.15132969073E+04  0.25500000920E-02 0. -1.
       -2    1    3    3    0  502  0.14057577902E+03 -0.11884489076E+04  0.73899658518E+03  0.14065163734E+04  0.25500000920E-02 0.  1.
</event>
<event>
 5   0  0.7193153E-06  0.2977687E+04  0.7818609E-02  0.8250131E-01
        2   -1    0    0  501    0  0.00000000000E+00  0.00000000000E+00  0.26893150960E+04  0.26893150960E+04  0.25500000920E-02 0. -1.
       -2   -1    0    0    0  501  0.00000000000E+00  0.00000000000E+00 -0.82424533552E+03  0.82424533552E+03  0.25500000920E-02 0.  1.
    10030    2    1    2    0    0  0.00000000000E+00  0.00000000000E+00  0.18650697605E+04  0.35135604316E+04  0.29776873064E+04 0.  0.
        4    1    3    3  502    0 -0.87964177594E+03  0.41663992224E+03 -0.39684676888E+03  0.10511172388E+04  0.12699999809E+01 0.  1.
       -4    1    3    3    0  502  0.87964177594E+03 -0.41663992224E+03  0.22619165294E+04  0.24624431928E+04  0.12699999809E+01 0. -1.
</event>
<event>
 5   0  0.2672155E-06  0.3028448E+04  0.7818609E-02  0.8235654E-01
        1   -1    0    0  501    0  0.00000000000E+00  0.00000000000E+00  0.16163987658E+04  0.16163987658E+04  0.50400001928E-02 0. -1.
       -1   -1    0    0    0  501  0.00000000000E+00  0.00000000000E+00 -0.14185081091E+04  0.14185081091E+04  0.50400001928E-02 0.  1.
    10030    2    1    2    0    0  0.00000000000E+00  0.00000000000E+00  0.19789065674E+03  0.30349068750E+04  0.30284482871E+04 0.  0.
        5    1    3    3  502    0 -0.99102145344E+03  0.11299942498E+04 -0.85409333063E+02  0.15054326189E+04  0.46999998093E+01 0.  1.
       -5    1    3    3    0  502  0.99102145344E+03 -0.11299942498E+04  0.28329998980E+03  0.15294742561E+04  0.46999998093E+01 0. -1.
</event>
<event>
 5   0  0.2422083E-06  0.3082345E+04  0.7818609E-02  0.8220600E-01
       -1   -1    0    0    0  501  0.00000000000E+00  0.00000000000E+00  0.15682515063E+04  0.15682515064E+04  0.50400001928E-02 0. -1.
        1   -1    0    0  501    0  0.00000000000E+00  0.00000000000E+00 -0.15145609695E+04  0.15145609695E+04  0.50400001928E-02 0.  1.
    10030    2    1    2    0    0  0.00000000000E+00  0.00000000000E+00  0.53690536858E+02  0.30828124758E+04  0.30823449008E+04 0.  0.
        2    1    3    3  502    0 -0.36738927886E+02 -0.13905944203E+04 -0.63666318358E+03  0.15298505156E+04  0.25500000920E-02 0.  1.
       -2    1    3    3    0  502  0.36738927886E+02  0.13905944203E+04  0.69035372044E+03  0.15529619603E+04  0.25500000920E-02 0. -1.
</event>
<event>
 5   0  0.6792811E-06  0.3121220E+04  0.7818609E-02  0.8209938E-01
        2   -1    0    0  501    0  0.00000000000E+00  0.00000000000E+00  0.16998742472E+04  0.16998742472E+04  0.25500000920E-02 0.  1.
       -2   -1    0    0    0  501  0.00000000000E+00  0.00000000000E+00 -0.14327550409E+04  0.14327550409E+04  0.25500000920E-02 0. -1.
    10030    2    1    2    0    0  0.00000000000E+00  0.00000000000E+00  0.26711920629E+03  0.31326292881E+04  0.31212198876E+04 0.  0.
        2    1    3    3  502    0  0.71471455443E+03 -0.13710890017E+04 -0.78877652516E+02  0.15482001256E+04  0.25500000920E-02 0. -1.
       -2    1    3    3    0  502 -0.71471455443E+03  0.13710890017E+04  0.34599685880E+03  0.15844291625E+04  0.25500000920E-02 0.  1.
</event>
<event>
 5   0  0.7201538E-06  0.2961313E+04  0.7818609E-02  0.8254865E-01
       -2   -1    0    0    0  501  0.00000000000E+00  0.00000000000E+00  0.10240642226E+04  0.10240642226E+04  0.25500000920E-02 0. -1.
        2   -1    0    0  501    0  0.00000000000E+00  0.00000000000E+00 -0.21408265426E+04  0.21408265426E+04  0.25500000920E-02 0.  1.
    10030    2    1    2    0    0  0.00000000000E+00  0.00000000000E+00 -0.11167623201E+04  0.31648907652E+04  0.29613131338E+04 0.  0.
        3    1    3    3  502    0 -0.10382757289E+03  0.89957955096E+03  0.69361253045E+03  0.11406672986E+04  0.10100000352E+00 0. -1.
       -3    1    3    3    0  502  0.10382757289E+03 -0.89957955096E+03 -0.18103748505E+04  0.20242234667E+04  0.10100000352E+00 0.  1.
</event>
<event>
 5   0  0.6780150E-06  0.2987478E+04  0.7818609E-02  0.8247316E-01
        2   -1    0    0  501    0  0.00000000000E+00  0.00000000000E+00  0.17698797974E+04  0.17698797974E+04  0.25500000920E-02 0. -1.
       -2   -1    0    0    0  501  0.00000000000E+00  0.00000000000E+00 -0.12606819324E+04  0.12606819324E+04  0.25500000920E-02 0.  1.
    10030    2    1    2    0    0  0.00000000000E+00  0.00000000000E+00  0.50919786504E+03  0.30305617298E+04  0.29874775200E+04 0.  0.
        5    1    3    3  502    0  0.76835798046E+03  0.12369965016E+03 -0.10387618774E+04  0.12979691512E+04  0.46999998093E+01 0.  1.
       -5    1    3    3    0  502 -0.76835798046E+03 -0.12369965016E+03  0.15479597424E+04  0.17325925787E+04  0.46999998093E+01 0. -1.
</event>
<event>
 5   0  0.2422083E-06  0.3003845E+04  0.7818609E-02  0.8242634E-01
       -1   -1    0    0    0  501  0.00000000000E+00  0.00000000000E+00  0.11645870045E+04  0.11645870045E+04  0.50400001928E-02 0.  1.
        1   -1    0    0  501    0  0.00000000000E+00  0.00000000000E+00 -0.19369712660E+04  0.19369712660E+04  0.50400001928E-02 0. -1.
    10030    2    1    2    0    0  0.00000000000E+00  0.00000000000E+00 -0.77238426142E+03  0.31015582705E+04  0.30038452454E+04 0.  0.
        2    1    3    3  502    0 -0.55267576331E+03  0.13954778746E+04 -0.32999211344E+03  0.15367835869E+04  0.25500000920E-02 0.  1.
       -2    1    3    3    0  502  0.55267576331E+03 -0.13954778746E+04 -0.44239214799E+03  0.15647746836E+04  0.25500000920E-02 0. -1.
</event>
<event>
 5   0  0.6792811E-06  0.3087579E+04  0.7818609E-02  0.8219155E-01
        2   -1    0    0  501    0  0.00000000000E+00  0.00000000000E+00  0.19776945357E+04  0.19776945357E+04  0.25500000920E-02 0. -1.
       -2   -1    0    0    0  501  0.00000000000E+00  0.00000000000E+00 -0.12050828689E+04  0.12050828689E+04  0.25500000920E-02 0.  1.
    10030    2    1    2    0    0  0.00000000000E+00  0.00000000000E+00  0.77261166681E+03  0.31827774046E+04  0.30875788605E+04 0.  0.
        2    1    3    3  502    0  0.26490434152E+03  0.14559351148E+04 -0.66984552442E+02  0.14813535362E+04  0.25500000920E-02 0.  1.
       -2    1    3    3    0  502 -0.26490434152E+03 -0.14559351148E+04  0.83959621925E+03  0.17014238685E+04  0.25500000920E-02 0. -1.
</event>
<event>
 5   0  0.2422083E-06  0.2898277E+04  0.7818609E-02  0.8273390E-01
        1   -1    0    0  501    0  0.00000000000E+00  0.00000000000E+00  0.20133497807E+04  0.20133497807E+04  0.50400001928E-02 0.  1.
       -1   -1    0    0    0  501  0.00000000000E+00  0.00000000000E+00 -0.10430390279E+04  0.10430390279E+04  0.50400001928E-02 0. -1.
    10030    2    1    2    0    0  0.00000000000E+00  0.00000000000E+00  0.97031075282E+03  0.30563888087E+04  0.28982770041E+04 0.  0.
        2    1    3    3  502    0 -0.27246669412E+03 -0.51166361518E+03 -0.91544309425E+03  0.10835468672E+04  0.25500000920E-02 0. -1.
       -2    1    3    3    0  502  0.27246669412E+03  0.51166361518E+03  0.18857538471E+04  0.19728419415E+04  0.25500000920E-02 0.  1.
</event>
<event>
 5   0  0.6780150E-06  0.3024064E+04  0.7818609E-02  0.8236892E-01
       -2   -1    0    0    0  501  0.00000000000E+00  0.00000000000E+00  0.14931305259E+04  0.14931305259E+04  0.25500000920E-02 0. -1.
        2   -1    0    0  501    0  0.00000000000E+00  0.00000000000E+00 -0.15311732464E+04  0.15311732464E+04  0.25500000920E-02 0.  1.
    10030    2    1    2    0    0  0.00000000000E+00  0.00000000000E+00 -0.38042720453E+02  0.30243037723E+04  0.30240644932E+04 0.  0.
        5    1    3    3  502    0  0.52002321058E+03  0.78294375214E+03  0.11654685584E+04  0.14972521862E+04  0.46999998093E+01 0. -1.
       -5    1    3    3    0  502 -0.52002321058E+03 -0.78294375214E+03 -0.12035112788E+04  0.15270515862E+04  0.46999998093E+01 0.  1.
</event>
<event>
 5   0  0.2628425E-06  0.2900160E+04  0.7818609E-02  0.8272830E-01
        1   -1    0    0  501    0  0.00000000000E+00  0.00000000000E+00  0.18084102859E+04  0.18084102860E+04  0.50400001928E-02 0.  1.
       -1   -1    0    0    0  501  0.00000000000E+00  0.00000000000E+00 -0.11627514584E+04  0.11627514584E+04  0.50400001928E-02 0. -1.
    10030    2    1    2    0    0  0.00000000000E+00  0.00000000000E+00  0.64565882753E+03  0.29711617444E+04  0.29001597869E+04 0.  0.
        1    1    3    3  502    0  0.62542250322E+03  0.11800417678E+04  0.90153014986E+03  0.16113374856E+04  0.50400001928E-02 0.  1.
       -1    1    3    3    0  502 -0.62542250322E+03 -0.11800417678E+04 -0.25587132233E+03  0.13598242588E+04  0.50400001928E-02 0. -1.
</event>
<event>
 5   0  0.2422083E-06  0.2877216E+04  0.7818609E-02  0.8279689E-01
        1   -1    0    0  501    0  0.00000000000E+00  0.00000000000E+00  0.19873030691E+04  0.19873030691E+04  0.50400001928E-02 0. -1.
       -1   -1    0    0    0  501  0.00000000000E+00  0.00000000000E+00 -0.10414080779E+04  0.10414080779E+04  0.50400001928E-02 0.  1.
    10030    2    1    2    0    0  0.00000000000E+00  0.00000000000E+00  0.94589499114E+03  0.30287111470E+04  0.28772163418E+04 0.  0.
        2    1    3    3  502    0  0.96492822610E+03 -0.15308180578E+03  0.15845179064E+04  0.18615094726E+04  0.25500000920E-02 0. -1.
       -2    1    3    3    0  502 -0.96492822610E+03  0.15308180578E+03 -0.63862291529E+03  0.11672016744E+04  0.25500000920E-02 0.  1.
</event>
<event>
 5   0  0.2628425E-06  0.2972483E+04  0.7818609E-02  0.8251632E-01
        1   -1    0    0  501    0  0.00000000000E+00  0.00000000000E+00  0.18175612380E+04  0.18175612380E+04  0.50400001928E-02 0. -1.
       -1   -1    0    0    0  501  0.00000000000E+00  0.00000000000E+00 -0.12153175182E+04  0.12153175182E+04  0.50400001928E-02 0.  1.
    10030    2    1    2    0    0  0.00000000000E+00  0.00000000000E+00  0.60224371984E+03  0.30328787562E+04  0.29724831458E+04 0.  0.
        1    1    3    3  502    0  0.14147591082E+04 -0.31786748490E+03  0.63383157030E+03  0.15825060922E+04  0.50400001928E-02 0. -1.
       -1    1    3    3    0  502 -0.14147591082E+04  0.31786748490E+03 -0.31587850459E+02  0.14503726640E+04  0.50400001928E-02 0.  1.
</event>
<event>
 5   0  0.6780150E-06  0.2811472E+04  0.7818609E-02  0.8299716E-01
        2   -1    0    0  501    0  0.00000000000E+00  0.00000000000E+00  0.15778807414E+04  0.15778807414E+04  0.25500000920E-02 0.  1.
       -2   -1    0    0    0  501  0.00000000000E+00  0.00000000000E+00 -0.12523718464E+04  0.12523718464E+04  0.25500000920E-02 0. -1.
    10030    2    1    2    0    0  0.00000000000E+00  0.00000000000E+00  0.32550889499E+03  0.28302525877E+04  0.28114717978E+04 0.  0.
        5    1    3    3  502    0 -0.13360417126E+04  0.40957611915E+03  0.90542404475E+01  0.13974491492E+04  0.46999998093E+01 0. -1.
       -5    1    3    3    0  502  0.13360417126E+04 -0.40957611915E+03  0.31645465454E+03  0.14328034386E+04  0.46999998093E+01 0.  1.
</event>
<event>
 5   0  0.2672155E-06  0.3004220E+04  0.7818609E-02  0.8242527E-01
        1   -1    0    0  501    0  0.00000000000E+00  0.00000000000E+00  0.21743003908E+04  0.21743003908E+04  0.50400001928E-02 0. -1.
       -1   -1    0    0    0  501  0.00000000000E+00  0.00000000000E+00 -0.10377292702E+04  0.10377292702E+04  0.50400001928E-02 0.  1.
    10030    2    1    2    0    0  0.00000000000E+00  0.00000000000E+00  0.11365711206E+04  0.32120296610E+04  0.30042204698E+04 0.  0.
        5    1    3    3  502    0  0.71373527516E+03  0.95840756986E+03  0.15413792865E+04  0.19503423565E+04  0.46999998093E+01 0. -1.
       -5    1    3    3    0  502 -0.71373527516E+03 -0.95840756986E+03 -0.40480816591E+03  0.12616873044E+04  0.46999998093E+01 0.  1.
</event>
<event>
 5   0  0.2552990E-06  0.2993506E+04  0.7818609E-02  0.8245588E-01
        1   -1    0    0  501    0  0.00000000000E+00  0.00000000000E+00  0.19279323425E+04  0.19279323426E+04  0.50400001928E-02 0.  1.
       -1   -1    0    0    0  501  0.00000000000E+00  0.00000000000E+00 -0.11620060736E+04  0.11620060736E+04  0.50400001928E-02 0. -1.
    10030    2    1    2    0    0  0.00000000000E+00  0.00000000000E+00  0.76592626897E+03  0.30899384161E+04  0.29935056984E+04 0.  0.
        3    1    3    3  502    0  0.72598544661E+03  0.72537947111E+02  0.17319496969E+04  0.18793526505E+04  0.10100000352E+00 0.  1.
       -3    1    3    3    0  502 -0.72598544661E+03 -0.72537947111E+02 -0.96602342788E+03  0.12105857656E+04  0.10100000352E+00 0. -1.
</event>
<event>
 5   0  0.7217255E-06  0.3031792E+04  0.7818609E-02  0.8234710E-01
       -2   -1    0    0    0  501  0.00000000000E+00  0.00000000000E+00  0.16167976231E+04  0.16167976231E+04  0.25500000920E-02 0.  1.
        2   -1    0    0  501    0  0.00000000000E+00  0.00000000000E+00 -0.14212917430E+04  0.14212917430E+04  0.25500000920E-02 0. -1.
    10030    2    1    2    0    0  0.00000000000E+00  0.00000000000E+00  0.19550588015E+03  0.30380893661E+04  0.30317922830E+04 0.  0.
        1    1    3    3  502    0  0.81414338889E+03  0.11426096042E+04 -0.47750817500E+03  0.14820257159E+04  0.50400001928E-02 0. -1.
       -1    1    3    3    0  502 -0.81414338889E+03 -0.11426096042E+04  0.67301405515E+03  0.15560636503E+04  0.50400001928E-02 0.  1.
</event>
<event>
 5   0  0.2552990E-06  0.2987757E+04  0.7818609E-02  0.8247236E-01
       -1   -1    0    0    0  501  0.00000000000E+00  0.00000000000E+00  0.18632745664E+04  0.18632745664E+04  0.50400001928E-02 0.  1.
        1   -1    0    0  501    0  0.00000000000E+00  0.00000000000E+00 -0.11977157651E+04  0.11977157651E+04  0.50400001928E-02 0. -1.
    10030    2    1    2    0    0  0.00000000000E+00  0.00000000000E+00  0.66555880135E+03  0.30609903315E+04  0.29877572344E+04 0.  0.
        3    1    3    3  502    0 -0.82183351242E+02 -0.14710848122E+04  0.58545939847E+03  0.15854360111E+04  0.10100000352E+00 0.  1.
       -3    1    3    3    0  502  0.82183351242E+02  0.14710848122E+04  0.80099402883E+02  0.14755543204E+04  0.10100000352E+00 0. -1.
</event>
<event>
 5   0  0.7201538E-06  0.2989146E+04  0.7818609E-02  0.8246837E-01
       -2   -1    0    0    0  501  0.00000000000E+00  0.00000000000E+00  0.11447853656E+04  0.11447853656E+04  0.25500000920E-02 0.  1.
        2   -1    0    0  501    0  0.00000000000E+00  0.00000000000E+00 -0.19512377499E+04  0.19512377499E+04  0.25500000920E-02 0. -1.
    10030    2    1    2    0    0  0.00000000000E+00  0.00000000000E+00 -0.80645238428E+03  0.30960231155E+04  0.29891459790E+04 0.  0.
        3    1    3    3  502    0 -0.10356796332E+04 -0.10282192973E+04 -0.69396073613E+02  0.14610554579E+04  0.10100000352E+00 0. -1.
       -3    1    3    3    0  502  0.10356796332E+04  0.10282192973E+04 -0.73705631067E+03  0.16349676576E+04  0.10100000352E+00 0.  1.
</event>
<event>
 5   0  0.2628425E-06  0.3003789E+04  0.7818609E-02  0.8242650E-01
       -1   -1    0    0    0  501  0.00000000000E+00  0.00000000000E+00  0.84253218444E+03  0.84253218445E+03  0.50400001928E-02 0.  1.
        1   -1    0    0  501    0  0.00000000000E+00  0.00000000000E+00 -0.26772719096E+04  0.26772719096E+04  0.50400001928E-02 0. -1.
    10030    2    1    2    0    0  0.00000000000E+00  0.00000000000E+00 -0.18347397252E+04  0.35198040941E+04  0.30037894403E+04 0.  0.
        1    1    3    3  502    0  0.66199257648E+03  0.12081716897E+04 -0.16182662923E+04  0.21252526428E+04  0.50400001928E-02 0. -1.
       -1    1    3    3    0  502 -0.66199257648E+03 -0.12081716897E+04 -0.21647343288E+03  0.13945514513E+04  0.50400001928E-02 0.  1.
</event>
<event>
 5   0  0.2628425E-06  0.2848070E+04  0.7818609E-02  0.8288498E-01
       -1   -1    0    0    0  501  0.00000000000E+00  0.00000000000E+00  0.13444281491E+04  0.13444281491E+04  0.50400001928E-02 0. -1.
        1   -1    0    0  501    0  0.00000000000E+00  0.00000000000E+00 -0.15083556232E+04  0.15083556232E+04  0.50400001928E-02 0.  1.
    10030    2    1    2    0    0  0.00000000000E+00  0.00000000000E+00 -0.16392747411E+03  0.28527837723E+04  0.28480700544E+04 0.  0.
        1    1    3    3  502    0  0.11617660643E+04 -0.68314295274E+03  0.37867898300E+03  0.13999223029E+04  0.50400001928E-02 0. -1.
       -1    1    3    3    0  502 -0.11617660643E+04  0.68314295274E+03 -0.54260645711E+03  0.14528614694E+04  0.50400001928E-02 0.  1.
</event>
<event>
 5   0  0.7217255E-06  0.2981804E+04  0.7818609E-02  0.8248946E-01
       -2   -1    0    0    0  501  0.00000000000E+00  0.00000000000E+00  0.68184330919E+03  0.68184330919E+03  0.25500000920E-02 0. -1.
        2   -1    0    0  501    0  0.00000000000E+00  0.00000000000E+00 -0.32599710068E+04  0.32599710068E+04  0.25500000920E-02 0.  1.
    10030    2    1    2    0    0  0.00000000000E+00  0.00000000000E+00 -0.25781276976E+04  0.39418143160E+04  0.29818044330E+04 0.  0.
        1    1    3    3  502    0  0.17966848741E+03  0.13820421865E+04 -0.58896606541E+03  0.15130110366E+04  0.50400001928E-02 0. -1.
       -1    1    3    3    0  502 -0.17966848741E+03 -0.13820421865E+04 -0.19891616322E+04  0.24288032794E+04  0.50400001928E-02 0.  1.
</event>
<event>
 5   0  0.2552990E-06  0.2979606E+04  0.7818609E-02  0.8249579E-01
       -1   -1    0    0    0  501  0.00000000000E+00  0.00000000000E+00  0.10971035649E+04  0.10971035649E+04  0.50400001928E-02 0. -1.
        1   -1    0    0  501    0  0.00000000000E+00  0.00000000000E+00 -0.20230656630E+04  0.20230656630E+04  0.50400001928E-02 0.  1.
    10030    2    1    2    0    0  0.00000000000E+00  0.00000000000E+00 -0.92596209804E+03  0.31201692279E+04  0.29796057128E+04 0.  0.
        3    1    3    3  502    0  0.38378470832E+00  0.84804710255E+03 -0.17456439435E+04  0.19407361550E+04  0.10100000352E+00 0.  1.
       -3    1    3    3    0  502 -0.38378470832E+00 -0.84804710255E+03  0.81968184551E+03  0.11794330729E+04  0.10100000352E+00 0. -1.
</event>
<event>
 5   0  0.2628425E-06  0.2885972E+04  0.7818609E-02  0.8277064E-01
       -1   -1    0    0    0  501  0.00000000000E+00  0.00000000000E+00  0.13079692742E+04  0.13079692742E+04  0.50400001928E-02 0.  1.
        1   -1    0    0  501    0  0.00000000000E+00  0.00000000000E+00 -0.15919394886E+04  0.15919394886E+04  0.50400001928E-02 0. -1.
    10030    2    1    2    0    0  0.00000000000E+00  0.00000000000E+00 -0.28397021439E+03  0.28999087628E+04  0.28859715435E+04 0.  0.
        1    1    3    3  502    0  0.24880671678E+03 -0.11496643300E+03 -0.15655434373E+04  0.15893546858E+04  0.50400001928E-02 0. -1.
       -1    1    3    3    0  502 -0.24880671678E+03  0.11496643300E+03  0.12815732229E+04  0.13105540770E+04  0.50400001928E-02 0.  1.
</event>
<event>
 5   0  0.7201538E-06  0.3206360E+04  0.7818609E-02  0.8187139E-01
       -2   -1    0    0    0  501  0.00000000000E+00  0.00000000000E+00  0.23898808070E+04  0.23898808070E+04  0.25500000920E-02 0.  1.
        2   -1    0    0  501    0  0.00000000000E+00  0.00000000000E+00 -0.10754454105E+04  0.10754454105E+04  0.25500000920E-02 0. -1.
    10030    2    1    2    0    0  0.00000000000E+00  0.00000000000E+00  0.13144353964E+04  0.34653262175E+04  0.32063601455E+04 0.  0.
        3    1    3    3  502    0 -0.51023603705E+03 -0.81402643486E+03 -0.72987614600E+03  0.12065235385E+04  0.10100000352E+00 0. -1.
       -3    1    3    3    0  502  0.51023603705E+03  0.81402643486E+03  0.20443115424E+04  0.22588026790E+04  0.10100000352E+00 0.  1.
</event>
<event>
 5   0  0.6780150E-06  0.2985210E+04  0.7818609E-02  0.8247967E-01
        2   -1    0    0  501    0  0.00000000000E+00  0.00000000000E+00  0.10597268011E+04  0.10597268011E+04  0.25500000920E-02 0.  1.
       -2   -1    0    0    0  501  0.00000000000E+00  0.00000000000E+00 -0.21023053325E+04  0.21023053325E+04  0.25500000920E-02 0. -1.
    10030    2    1    2    0    0  0.00000000000E+00  0.00000000000E+00 -0.10425785314E+04  0.31620321336E+04  0.29852097446E+04 0.  0.
        5    1    3    3  502    0 -0.11478730992E+04  0.21119102656E+02 -0.15316155719E+04  0.19141387145E+04  0.46999998093E+01 0. -1.
       -5    1    3    3    0  502  0.11478730992E+04 -0.21119102656E+02  0.48903704046E+03  0.12478934191E+04  0.46999998093E+01 0.  1.
</event>
<event>
 5   0  0.6792811E-06  0.2700578E+04  0.7818609E-02  0.8334817E-01
        2   -1    0    0  501    0  0.00000000000E+00  0.00000000000E+00  0.16389245032E+04  0.16389245032E+04  0.25500000920E-02 0. -1.
       -2   -1    0    0    0  501  0.00000000000E+00  0.00000000000E+00 -0.11124860292E+04  0.11124860292E+04  0.25500000920E-02 0.  1.
    10030    2    1    2    0    0  0.00000000000E+00  0.00000000000E+00  0.52643847400E+03  0.27514105324E+04  0.27005781697E+04 0.  0.
        2    1    3    3  502    0 -0.12055442735E+04 -0.28050117612E+03  0.81306525455E+03  0.14809095223E+04  0.25500000920E-02 0. -1.
       -2    1    3    3    0  502  0.12055442735E+04  0.28050117612E+03 -0.28662678056E+03  0.12705010101E+04  0.25500000920E-02 0.  1.
</event>
<event>
 5   0  0.6792811E-06  0.2991307E+04  0.7818609E-02  0.8246218E-01
       -2   -1    0    0    0  501  0.00000000000E+00  0.00000000000E+00  0.16040873144E+04  0.16040873144E+04  0.25500000920E-02 0.  1.
        2   -1    0    0  501    0  0.00000000000E+00  0.00000000000E+00 -0.13945493888E+04  0.13945493888E+04  0.25500000920E-02 0. -1.
    10030    2    1    2    0    0  0.00000000000E+00  0.00000000000E+00  0.20953792557E+03  0.29986367032E+04  0.29913067271E+04 0.  0.
        2    1    3    3  502    0  0.19649388616E+03  0.23782564776E+03 -0.13623089641E+04  0.13968022765E+04  0.25500000920E-02 0. -1.
       -2    1    3    3    0  502 -0.19649388616E+03 -0.23782564776E+03  0.15718468896E+04  0.16018344267E+04  0.25500000920E-02 0.  1.
</event>
<event>
 5   0  0.7201538E-06  0.3037115E+04  0.7818609E-02  0.8233211E-01
       -2   -1    0    0    0  501  0.00000000000E+00  0.00000000000E+00  0.15769571856E+04  0.15769571856E+04  0.25500000920E-02 0.  1.
        2   -1    0    0  501    0  0.00000000000E+00  0.00000000000E+00 -0.14623202825E+04  0.14623202825E+04  0.25500000920E-02 0. -1.
    10030    2    1    2    0    0  0.00000000000E+00  0.00000000000E+00  0.11463690312E+03  0.30392774682E+04  0.30371147342E+04 0.  0.
        3    1    3    3  502    0  0.14526770795E+04  0.43679217797E+03  0.12778423972E+03  0.15222965960E+04  0.10100000352E+00 0. -1.
       -3    1    3    3    0  502 -0.14526770795E+04 -0.43679217797E+03 -0.13147336600E+02  0.15169808722E+04  0.10100000352E+00 0.  1.
</event>
<event>
 5   0  0.2422083E-06  0.3008425E+04  0.7818609E-02  0.8241329E-01
       -1   -1    0    0    0  501  0.00000000000E+00  0.00000000000E+00  0.14749745687E+04  0.14749745687E+04  0.50400001928E-02 0.  1.
        1   -1    0    0  501    0  0.00000000000E+00  0.00000000000E+00 -0.15340296988E+04  0.15340296988E+04  0.50400001928E-02 0. -1.
    10030    2    1    2    0    0  0.00000000000E+00  0.00000000000E+00 -0.59055130136E+02  0.30090042675E+04  0.30084246996E+04 0.  0.
        2    1    3    3  502    0  0.63961888805E+02 -0.11014846698E+04 -0.10521213161E+04  0.15245716989E+04  0.25500000920E-02 0. -1.
       -2    1    3    3    0  502 -0.63961888805E+02  0.11014846698E+04  0.99306618601E+03  0.14844325686E+04  0.25500000920E-02 0.  1.
</event>
<event>
 5   0  0.7217255E-06  0.2982332E+04  0.7818609E-02  0.8248794E-01
        2   -1    0    0  501    0  0.00000000000E+00  0.00000000000E+00  0.15354195293E+04  0.15354195293E+04  0.25500000920E-02 0. -1.
       -2   -1    0    0    0  501  0.00000000000E+00  0.00000000000E+00 -0.14481878813E+04  0.14481878813E+04  0.25500000920E-02 0.  1.
    10030    2    1    2    0    0  0.00000000000E+00  0.00000000000E+00  0.87231648032E+02  0.29836074106E+04  0.29823319433E+04 0.  0.
        1    1    3    3  502    0 -0.93449490634E+03  0.93455166457E+03  0.73449672665E+03  0.15120029713E+04  0.50400001928E-02 0.  1.
       -1    1    3    3    0  502  0.93449490634E+03 -0.93455166457E+03 -0.64726507862E+03  0.14716044393E+04  0.50400001928E-02 0. -1.
</event>
<event>
 5   0  0.2552990E-06  0.3012659E+04  0.7818609E-02  0.8240125E-01
       -1   -1    0    0    0  501  0.00000000000E+00  0.00000000000E+00  0.11071203731E+04  0.11071203732E+04  0.50400001928E-02 0.  1.
        1   -1    0    0  501    0  0.00000000000E+00  0.00000000000E+00 -0.20494865662E+04  0.20494865662E+04  0.50400001928E-02 0. -1.
    10030    2    1    2    0    0  0.00000000000E+00  0.00000000000E+00 -0.94236619305E+03  0.31566069394E+04  0.30126588469E+04 0.  0.
        3    1    3    3  502    0 -0.50502785884E+03 -0.81567980069E+03 -0.16879820716E+04  0.19415638438E+04  0.10100000352E+00 0. -1.
       -3    1    3    3    0  502  0.50502785884E+03  0.81567980069E+03  0.74561587854E+03  0.12150430955E+04  0.10100000352E+00 0.  1.
</event>
<event>
 5   0  0.2552990E-06  0.3009468E+04  0.7818609E-02  0.8241032E-01
       -1   -1    0    0    0  501  0.00000000000E+00  0.00000000000E+00  0.10359365284E+04  0.10359365284E+04  0.50400001928E-02 0.  1.
        1   -1    0    0  501    0  0.00000000000E+00  0.00000000000E+00 -0.21856790735E+04  0.21856790735E+04  0.50400001928E-02 0. -1.
    10030    2    1    2    0    0  0.00000000000E+00  0.00000000000E+00 -0.11497425452E+04  0.32216156019E+04  0.30094682531E+04 0.  0.
        3    1    3    3  502    0  0.49176287554E+02 -0.20762105048E+03  0.10196607395E+04  0.10417450944E+04  0.10100000352E+00 0.  1.
       -3    1    3    3    0  502 -0.49176287554E+02  0.20762105048E+03 -0.21694032847E+04  0.21798705075E+04  0.10100000352E+00 0. -1.
</event>
<event>
 5   0  0.2504260E-06  0.2948503E+04  0.7818609E-02  0.8258591E-01
       -1   -1    0    0    0  501  0.00000000000E+00  0.00000000000E+00  0.12329792342E+04  0.12329792342E+04  0.50400001928E-02 0. -1.
        1   -1    0    0  501    0  0.00000000000E+00  0.00000000000E+00 -0.17627362645E+04  0.17627362645E+04  0.50400001928E-02 0.  1.
    10030    2    1    2    0    0  0.00000000000E+00  0.00000000000E+00 -0.52975703030E+03  0.29957154987E+04  0.29485028130E+04 0.  0.
        4    1    3    3  502    0 -0.12163093751E+04 -0.21205640441E+03  0.55365125163E+03  0.13531103931E+04  0.12699999809E+01 0. -1.
       -4    1    3    3    0  502  0.12163093751E+04  0.21205640441E+03 -0.10834082819E+04  0.16426051056E+04  0.12699999809E+01 0.  1.
</event>
<event>
 5   0  0.7193153E-06  0.3002362E+04  0.7818609E-02  0.8243057E-01
        2   -1    0    0  501    0  0.00000000000E+00  0.00000000000E+00  0.12539078088E+04  0.12539078088E+04  0.25500000920E-02 0. -1.
       -2   -1    0    0    0  501  0.00000000000E+00  0.00000000000E+00 -0.17972174657E+04  0.17972174657E+04  0.25500000920E-02 0.  1.
    10030    2    1    2    0    0  0.00000000000E+00  0.00000000000E+00 -0.54330965689E+03  0.30511252746E+04  0.30023624128E+04 0.  0.
        4    1    3    3  502    0 -0.14848912794E+03  0.16498226761E+03  0.12371387793E+04  0.12568938467E+04  0.12699999809E+01 0. -1.
       -4    1    3    3    0  502  0.14848912794E+03 -0.16498226761E+03 -0.17804484362E+04  0.17942314278E+04  0.12699999809E+01 0.  1.
</event>
<event>
 5   0  0.2552990E-06  0.3101525E+04  0.7818609E-02  0.8215320E-01
        1   -1    0    0  501    0  0.00000000000E+00  0.00000000000E+00  0.19458588472E+04  0.19458588473E+04  0.50400001928E-02 0. -1.
       -1   -1    0    0    0  501  0.00000000000E+00  0.00000000000E+00 -0.12358881428E+04  0.12358881428E+04  0.50400001928E-02 0.  1.
    10030    2    1    2    0    0  0.00000000000E+00  0.00000000000E+00  0.70997070448E+03  0.31817469900E+04  0.31015247069E+04 0.  0.
        3    1    3    3  502    0  0.10244444478E+04 -0.85968739841E+03  0.11603485346E+04  0.17705811423E+04  0.10100000352E+00 0. -1.
       -3    1    3    3    0  502 -0.10244444478E+04  0.85968739841E+03 -0.45037783009E+03  0.14111658477E+04  0.10100000352E+00 0.  1.
</event>
<event>
 5   0  0.6780150E-06  0.2380446E+04  0.7818609E-02  0.8446861E-01
       -2   -1    0    0    0  501  0.00000000000E+00  0.00000000000E+00  0.10430631630E+04  0.10430631630E+04  0.25500000920E-02 0. -1.
        2   -1    0    0  501    0  0.00000000000E+00  0.00000000000E+00 -0.13581447836E+04  0.13581447836E+04  0.25500000920E-02 0.  1.
    10030    2    1    2    0    0  0.00000000000E+00  0.00000000000E+00 -0.31508162065E+03  0.24012079466E+04  0.23804460034E+04 0.  0.
        5    1    3    3  502    0  0.41321814169E+03  0.10734559634E+04 -0.46607083375E+03  0.12410886552E+04  0.46999998093E+01 0. -1.
       -5    1    3    3    0  502 -0.41321814169E+03 -0.10734559634E+04  0.15098921310E+03  0.11601192914E+04  0.46999998093E+01 0.  1.
</event>
<event>
 5   0  0.2552990E-06  0.2988387E+04  0.7818609E-02  0.8247055E-01
        1   -1    0    0  501    0  0.00000000000E+00  0.00000000000E+00  0.15828113266E+04  0.15828113267E+04  0.50400001928E-02 0.  1.
       -1   -1    0    0    0  501  0.00000000000E+00  0.00000000000E+00 -0.14105372617E+04  0.14105372617E+04  0.50400001928E-02 0. -1.
    10030    2    1    2    0    0  0.00000000000E+00  0.00000000000E+00  0.17227406495E+03  0.29933485884E+04  0.29883870931E+04 0.  0.
        3    1    3    3  502    0 -0.12441113690E+04 -0.31922060870E+03  0.85088312309E+03  0.15406871827E+04  0.10100000352E+00 0.  1.
       -3    1    3    3    0  502  0.12441113690E+04  0.31922060870E+03 -0.67860905814E+03  0.14526614057E+04  0.10100000352E+00 0. -1.
</event>
<event>
 5   0  0.7217255E-06  0.2999078E+04  0.7818609E-02  0.8243994E-01
       -2   -1    0    0    0  501  0.00000000000E+00  0.00000000000E+00  0.14307164417E+04  0.14307164417E+04  0.25500000920E-02 0.  1.
        2   -1    0    0  501    0  0.00000000000E+00  0.00000000000E+00 -0.15716719844E+04  0.15716719844E+04  0.25500000920E-02 0. -1.
    10030    2    1    2    0    0  0.00000000000E+00  0.00000000000E+00 -0.14095554277E+03  0.30023884261E+04  0.29990778243E+04 0.  0.
        1    1    3    3  502    0  0.25181616694E+03 -0.48183702991E+03  0.13285764941E+04  0.14355116879E+04  0.50400001928E-02 0.  1.
       -1    1    3    3    0  502 -0.25181616694E+03  0.48183702991E+03 -0.14695320369E+04  0.15668767382E+04  0.50400001928E-02 0. -1.
</event>
<event>
 5   0  0.2552990E-06  0.2181432E+04  0.7818609E-02  0.8526197E-01
        1   -1    0    0  501    0  0.00000000000E+00  0.00000000000E+00  0.21163997064E+04  0.21163997064E+04  0.50400001928E-02 0.  1.
       -1   -1    0    0    0  501  0.00000000000E+00  0.00000000000E+00 -0.56211540651E+03  0.56211540653E+03  0.50400001928E-02 0. -1.
    10030    2    1    2    0    0  0.00000000000E+00  0.00000000000E+00  0.15542842999E+04  0.26785151129E+04  0.21814315312E+04 0.  0.
        3    1    3    3  502    0 -0.71370336832E+03  0.21798061682E+03  0.17538764166E+04  0.19060352941E+04  0.10100000352E+00 0.  1.
       -3    1    3    3    0  502  0.71370336832E+03 -0.21798061682E+03 -0.19959211674E+03  0.77247981885E+03  0.10100000352E+00 0. -1.
</event>
<event>
 5   0  0.6780150E-06  0.2988027E+04  0.7818609E-02  0.8247158E-01
        2   -1    0    0  501    0  0.00000000000E+00  0.00000000000E+00  0.15922655369E+04  0.15922655369E+04  0.25500000920E-02 0.  1.
       -2   -1    0    0    0  501  0.00000000000E+00  0.00000000000E+00 -0.14018241052E+04  0.14018241053E+04  0.25500000920E-02 0. -1.
    10030    2    1    2    0    0  0.00000000000E+00  0.00000000000E+00  0.19044143164E+03  0.29940896421E+04  0.29880269153E+04 0.  0.
        5    1    3    3  502    0 -0.60693055031E+03 -0.65234668680E+03  0.12968758717E+04  0.15734770444E+04  0.46999998093E+01 0.  1.
       -5    1    3    3    0  502  0.60693055031E+03  0.65234668680E+03 -0.11064344401E+04  0.14206125977E+04  0.46999998093E+01 0. -1.
</event>
<event>
 5   0  0.7201538E-06  0.3010772E+04  0.7818609E-02  0.8240661E-01
       -2   -1    0    0    0  501  0.00000000000E+00  0.00000000000E+00  0.18135889832E+04  0.18135889832E+04  0.25500000920E-02 0. -1.
        2   -1    0    0  501    0  0.00000000000E+00  0.00000000000E+00 -0.12495595626E+04  0.12495595626E+04  0.25500000920E-02 0.  1.
    10030    2    1    2    0    0  0.00000000000E+00  0.00000000000E+00  0.56402942061E+03  0.30631485459E+04  0.30107722974E+04 0.  0.
        3    1    3    3  502    0 -0.11716865105E+04 -0.87827572086E+03  0.63733215215E+03  0.15970002514E+04  0.10100000352E+00 0. -1.
       -3    1    3    3    0  502  0.11716865105E+04  0.87827572086E+03 -0.73302731539E+02  0.14661482945E+04  0.10100000352E+00 0.  1.
</event>
<event>
 5   0  0.7201538E-06  0.2975987E+04  0.7818609E-02  0.8250621E-01
        2   -1    0    0  501    0  0.00000000000E+00  0.00000000000E+00  0.14580516731E+04  0.14580516731E+04  0.25500000920E-02 0. -1.
       -2   -1    0    0    0  501  0.00000000000E+00  0.00000000000E+00 -0.15185502486E+04  0.15185502486E+04  0.25500000920E-02 0.  1.
    10030    2    1    2    0    0  0.00000000000E+00  0.00000000000E+00 -0.60498575506E+02  0.29766019217E+04  0.29759870501E+04 0.  0.
        3    1    3    3  502    0 -0.14363606101E+04  0.36757339964E+03  0.95803391203E+02  0.14857389765E+04  0.10100000352E+00 0.  1.
       -3    1    3    3    0  502  0.14363606101E+04 -0.36757339964E+03 -0.15630196671E+03  0.14908629452E+04  0.10100000352E+00 0. -1.
</event>
<event>
 5   0  0.2628425E-06  0.2839929E+04  0.7818609E-02  0.8290978E-01
       -1   -1    0    0    0  501  0.00000000000E+00  0.00000000000E+00  0.11463326434E+04  0.11463326434E+04  0.50400001928E-02 0. -1.
        1   -1    0    0  501    0  0.00000000000E+00  0.00000000000E+00 -0.17589124007E+04  0.17589124007E+04  0.50400001928E-02 0.  1.
    10030    2    1    2    0    0  0.00000000000E+00  0.00000000000E+00 -0.61257975733E+03  0.29052450442E+04  0.28399286624E+04 0.  0.
        1    1    3    3  502    0 -0.20802452606E+03 -0.13704596144E+04  0.87954739158E+01  0.13861858168E+04  0.50400001928E-02 0. -1.
       -1    1    3    3    0  502  0.20802452606E+03  0.13704596144E+04 -0.62137523124E+03  0.15190592274E+04  0.50400001928E-02 0.  1.
</event>
<event>
 5   0  0.2504260E-06  0.3046331E+04  0.7818609E-02  0.8230623E-01
        1   -1    0    0  501    0  0.00000000000E+00  0.00000000000E+00  0.13598311626E+04  0.13598311626E+04  0.50400001928E-02 0. -1.
       -1   -1    0    0    0  501  0.00000000000E+00  0.00000000000E+00 -0.17061182488E+04  0.17061182488E+04  0.50400001928E-02 0.  1.
    10030    2    1    2    0    0  0.00000000000E+00  0.00000000000E+00 -0.34628708622E+03  0.30659494114E+04  0.30463307515E+04 0.  0.
        4    1    3    3  502    0 -0.90265512906E+03  0.86035749612E+03  0.70714919531E+03  0.14335490576E+04  0.12699999809E+01 0. -1.
       -4    1    3    3    0  502  0.90265512906E+03 -0.86035749612E+03 -0.10534362815E+04  0.16324003539E+04  0.12699999809E+01 0.  1.
</event>
<event>
 5   0  0.2628425E-06  0.3061937E+04  0.7818609E-02  0.8226262E-01
        1   -1    0    0  501    0  0.00000000000E+00  0.00000000000E+00  0.17228427787E+04  0.17228427787E+04  0.50400001928E-02 0. -1.
       -1   -1    0    0    0  501  0.00000000000E+00  0.00000000000E+00 -0.13604630460E+04  0.13604630460E+04  0.50400001928E-02 0.  1.
    10030    2    1    2    0    0  0.00000000000E+00  0.00000000000E+00  0.36237973274E+03  0.30833058247E+04  0.30619365992E+04 0.  0.
        1    1    3    3  502    0 -0.16216667736E+03 -0.12893130513E+04  0.99630671004E+03  0.16374532775E+04  0.50400001928E-02 0. -1.
       -1    1    3    3    0  502  0.16216667736E+03  0.12893130513E+04 -0.63392697730E+03  0.14458525472E+04  0.50400001928E-02 0.  1.
</event>
<event>
 5   0  0.2298500E-06  0.2973139E+04  0.7818609E-02  0.8251443E-01
        3   -1    0    0  501    0  0.00000000000E+00  0.00000000000E+00  0.10489056951E+04  0.10489057000E+04  0.10100000352E+00 0. -1.
       -3   -1    0    0    0  501  0.00000000000E+00  0.00000000000E+00 -0.21068521834E+04  0.21068521858E+04  0.10100000352E+00 0.  1.
    10030    2    1    2    0    0  0.00000000000E+00  0.00000000000E+00 -0.10579464883E+04  0.31557578859E+04  0.29731392605E+04 0.  0.
        1    1    3    3  502    0 -0.72793625515E+03 -0.85734544907E+03 -0.15607706086E+04  0.19237820311E+04  0.50400001928E-02 0.  1.
       -1    1    3    3    0  502  0.72793625515E+03  0.85734544907E+03  0.50282412033E+03  0.12319758547E+04  0.50400001928E-02 0. -1.
</event>
<event>
 5   0  0.2552990E-06  0.3029094E+04  0.7818609E-02  0.8235471E-01
        1   -1    0    0  501    0  0.00000000000E+00  0.00000000000E+00  0.17797688426E+04  0.17797688426E+04  0.50400001928E-02 0. -1.
       -1   -1    0    0    0  501  0.00000000000E+00  0.00000000000E+00 -0.12888484983E+04  0.12888484983E+04  0.50400001928E-02 0.  1.
    10030    2    1    2    0    0  0.00000000000E+00  0.00000000000E+00  0.49092034426E+03  0.30686173409E+04  0.30290938580E+04 0.  0.
        3    1    3    3  502    0 -0.32281518450E+03 -0.84229092705E+03 -0.98704443897E+03  0.13371314011E+04  0.10100000352E+00 0.  1.
       -3    1    3    3    0  502  0.32281518450E+03  0.84229092705E+03  0.14779647832E+04  0.17314859398E+04  0.10100000352E+00 0. -1.
</event>
<event>
 5   0  0.2504260E-06  0.3016664E+04  0.7818609E-02  0.8238988E-01
       -1   -1    0    0    0  501  0.00000000000E+00  0.00000000000E+00  0.17437712698E+04  0.17437712698E+04  0.50400001928E-02 0.  1.
        1   -1    0    0  501    0  0.00000000000E+00  0.00000000000E+00 -0.13046814899E+04  0.13046814899E+04  0.50400001928E-02 0. -1.
    10030    2    1    2    0    0  0.00000000000E+00  0.00000000000E+00  0.43908977992E+03  0.30484527598E+04  0.30166644483E+04 0.  0.
        4    1    3    3  502    0 -0.13071266742E+04  0.33605724082E+03 -0.46101286877E+03  0.14262009289E+04  0.12699999809E+01 0. -1.
       -4    1    3    3    0  502  0.13071266742E+04 -0.33605724082E+03  0.90010264870E+03  0.16222518308E+04  0.12699999809E+01 0.  1.
</event>
<event>
 5   0  0.2422083E-06  0.2959765E+04  0.7818609E-02  0.8255315E-01
        1   -1    0    0  501    0  0.00000000000E+00  0.00000000000E+00  0.17835987206E+04  0.17835987206E+04  0.50400001928E-02 0.  1.
       -1   -1    0    0    0  501  0.00000000000E+00  0.00000000000E+00 -0.12278836778E+04  0.12278836778E+04  0.50400001928E-02 0. -1.
    10030    2    1    2    0    0  0.00000000000E+00  0.00000000000E+00  0.55571504283E+03  0.30114823985E+04  0.29597646912E+04 0.  0.
        2    1    3    3  502    0  0.14346382222E+04 -0.32666737219E+03  0.11648814724E+03  0.14759633766E+04  0.25500000920E-02 0.  1.
       -2    1    3    3    0  502 -0.14346382222E+04  0.32666737219E+03  0.43922689559E+03  0.15355190219E+04  0.25500000920E-02 0. -1.
</event>
<event>
 5   0  0.6792811E-06  0.3020576E+04  0.7818609E-02  0.8237880E-01
        2   -1    0    0  501    0  0.00000000000E+00  0.00000000000E+00  0.18782787753E+04  0.18782787753E+04  0.25500000920E-02 0. -1.
       -2   -1    0    0    0  501  0.00000000000E+00  0.00000000000E+00 -0.12143938823E+04  0.12143938823E+04  0.25500000920E-02 0.  1.
    10030    2    1    2    0    0  0.00000000000E+00  0.00000000000E+00  0.66388489299E+03  0.30926726576E+04  0.30205762721E+04 0.  0.
        2    1    3    3  502    0  0.88232221181E+03  0.11245779659E+04 -0.16734661577E+03  0.14391570368E+04  0.25500000920E-02 0. -1.
       -2    1    3    3    0  502 -0.88232221181E+03 -0.11245779659E+04  0.83123150876E+03  0.16535156207E+04  0.25500000920E-02 0.  1.
</event>
<event>
 5   0  0.2672155E-06  0.2873423E+04  0.7818609E-02  0.8280829E-01
       -1   -1    0    0    0  501  0.00000000000E+00  0.00000000000E+00  0.15795758263E+04  0.15795758263E+04  0.50400001928E-02 0.  1.
        1   -1    0    0  501    0  0.00000000000E+00  0.00000000000E+00 -0.13067686671E+04  0.13067686671E+04  0.50400001928E-02 0. -1.
    10030    2    1    2    0    0  0.00000000000E+00  0.00000000000E+00  0.27280715913E+03  0.28863444934E+04  0.28734231830E+04 0.  0.
        5    1    3    3  502    0  0.11703519983E+04  0.58290467585E+03  0.73457823672E+03  0.14997096175E+04  0.46999998093E+01 0.  1.
       -5    1    3    3    0  502 -0.11703519983E+04 -0.58290467585E+03 -0.46177107758E+03  0.13866348759E+04  0.46999998093E+01 0. -1.
</event>
<event>
 5   0  0.2552990E-06  0.3009358E+04  0.7818609E-02  0.8241064E-01
        1   -1    0    0  501    0  0.00000000000E+00  0.00000000000E+00  0.18107286063E+04  0.18107286063E+04  0.50400001928E-02 0. -1.
       -1   -1    0    0    0  501  0.00000000000E+00  0.00000000000E+00 -0.12503577610E+04  0.12503577610E+04  0.50400001928E-02 0.  1.
    10030    2    1    2    0    0  0.00000000000E+00  0.00000000000E+00  0.56037084528E+03  0.30610863673E+04  0.30093577826E+04 0.  0.
        3    1    3    3  502    0  0.80975685303E+02 -0.37043782216E+03  0.17613321811E+04  0.18016859616E+04  0.10100000352E+00 0. -1.
       -3    1    3    3    0  502 -0.80975685303E+02  0.37043782216E+03 -0.12009613358E+04  0.12594004058E+04  0.10100000352E+00 0.  1.
</event>
<event>
 5   0  0.6792811E-06  0.2986244E+04  0.7818609E-02  0.8247670E-01
        2   -1    0    0  501    0  0.00000000000E+00  0.00000000000E+00  0.11012569267E+04  0.11012569267E+04  0.25500000920E-02 0.  1.
       -2   -1    0    0    0  501  0.00000000000E+00  0.00000000000E+00 -0.20244263048E+04  0.20244263048E+04  0.25500000920E-02 0. -1.
    10030    2    1    2    0    0  0.00000000000E+00  0.00000000000E+00 -0.92316937808E+03  0.31256832315E+04  0.29862441232E+04 0.  0.
        2    1    3    3  502    0 -0.94044898157E+03  0.98908892162E+03 -0.10953941410E+04  0.17500370013E+04  0.25500000920E-02 0. -1.
       -2    1    3    3    0  502  0.94044898157E+03 -0.98908892162E+03  0.17222476288E+03  0.13756462302E+04  0.25500000920E-02 0.  1.
</event>
<event>
 5   0  0.2422083E-06  0.2994330E+04  0.7818609E-02  0.8245352E-01
        1   -1    0    0  501    0  0.00000000000E+00  0.00000000000E+00  0.22706925663E+04  0.22706925664E+04  0.50400001928E-02 0.  1.
       -1   -1    0    0    0  501  0.00000000000E+00  0.00000000000E+00 -0.98714533664E+03  0.98714533666E+03  0.50400001928E-02 0. -1.
    10030    2    1    2    0    0  0.00000000000E+00  0.00000000000E+00  0.12835472297E+04  0.32578379030E+04  0.29943303611E+04 0.  0.
        2    1    3    3  502    0 -0.66918702614E+03  0.65956020655E+03 -0.62642470125E+03  0.11292647379E+04  0.25500000920E-02 0. -1.
       -2    1    3    3    0  502  0.66918702614E+03 -0.65956020655E+03  0.19099719309E+04  0.21285731651E+04  0.25500000920E-02 0.  1.
</event>
<event>
 5   0  0.2672155E-06  0.2892931E+04  0.7818609E-02  0.8274984E-01
        1   -1    0    0  501    0  0.00000000000E+00  0.00000000000E+00  0.11376035477E+04  0.11376035478E+04  0.50400001928E-02 0.  1.
       -1   -1    0    0    0  501  0.00000000000E+00  0.00000000000E+00 -0.18391845959E+04  0.18391845959E+04  0.50400001928E-02 0. -1.
    10030    2    1    2    0    0  0.00000000000E+00  0.00000000000E+00 -0.70158104818E+03  0.29767881437E+04  0.28929313309E+04 0.  0.
        5    1    3    3  502    0 -0.89147205805E+01 -0.12853057393E+04 -0.10334598820E+04  0.16492882506E+04  0.46999998093E+01 0. -1.
       -5    1    3    3    0  502  0.89147205805E+01  0.12853057393E+04  0.33187883382E+03  0.13274998931E+04  0.46999998093E+01 0.  1.
</event>
<event>
 5   0  0.7217255E-06  0.3201780E+04  0.7818609E-02  0.8188347E-01
       -2   -1    0    0    0  501  0.00000000000E+00  0.00000000000E+00  0.20532052294E+04  0.20532052294E+04  0.25500000920E-02 0.  1.
        2   -1    0    0  501    0  0.00000000000E+00  0.00000000000E+00 -0.12482185096E+04  0.12482185096E+04  0.25500000920E-02 0. -1.
    10030    2    1    2    0    0  0.00000000000E+00  0.00000000000E+00  0.80498671985E+03  0.33014237390E+04  0.32017799870E+04 0.  0.
        1    1    3    3  502    0  0.11486767253E+04 -0.77641492595E+03  0.12277579714E+04  0.18519362821E+04  0.50400001928E-02 0.  1.
       -1    1    3    3    0  502 -0.11486767253E+04  0.77641492595E+03 -0.42277125160E+03  0.14494874569E+04  0.50400001928E-02 0. -1.
</event>
<event>
 5   0  0.6792811E-06  0.3037442E+04  0.7818609E-02  0.8233119E-01
       -2   -1    0    0    0  501  0.00000000000E+00  0.00000000000E+00  0.90888242478E+03  0.90888242478E+03  0.25500000920E-02 0.  1.
        2   -1    0    0  501    0  0.00000000000E+00  0.00000000000E+00 -0.25377476275E+04  0.25377476275E+04  0.25500000920E-02 0. -1.
    10030    2    1    2    0    0  0.00000000000E+00  0.00000000000E+00 -0.16288652027E+04  0.34466300522E+04  0.30374424881E+04 0.  0.
        2    1    3    3  502    0 -0.88630002615E+03  0.10898817914E+04 -0.15949079985E+03  0.14137918414E+04  0.25500000920E-02 0.  1.
       -2    1    3    3    0  502  0.88630002615E+03 -0.10898817914E+04 -0.14693744028E+04  0.20328382108E+04  0.25500000920E-02 0. -1.
</event>
<event>
 5   0  0.7193153E-06  0.2985222E+04  0.7818609E-02  0.8247964E-01
        2   -1    0    0  501    0  0.00000000000E+00  0.00000000000E+00  0.11272467504E+04  0.11272467504E+04  0.25500000920E-02 0. -1.
       -2   -1    0    0    0  501  0.00000000000E+00  0.00000000000E+00 -0.19763968802E+04  0.19763968802E+04  0.25500000920E-02 0.  1.
    10030    2    1    2    0    0  0.00000000000E+00  0.00000000000E+00 -0.84915012978E+03  0.31036436306E+04  0.29852215735E+04 0.  0.
        4    1    3    3  502    0 -0.22809102279E+03 -0.12970750295E+04 -0.11549058077E+04  0.17516387140E+04  0.12699999809E+01 0.  1.
       -4    1    3    3    0  502  0.22809102279E+03  0.12970750295E+04  0.30575567792E+03  0.13520049166E+04  0.12699999809E+01 0. -1.
</event>
<event>
 5   0  0.6780150E-06  0.3057162E+04  0.7818609E-02  0.8227594E-01
        2   -1    0    0  501    0  0.00000000000E+00  0.00000000000E+00  0.17337205551E+04  0.17337205551E+04  0.25500000920E-02 0. -1.
       -2   -1    0    0    0  501  0.00000000000E+00  0.00000000000E+00 -0.13477142822E+04  0.13477142822E+04  0.25500000920E-02 0.  1.
    10030    2    1    2    0    0  0.00000000000E+00  0.00000000000E+00  0.38600627289E+03  0.30814348372E+04  0.30571620522E+04 0.  0.
        5    1    3    3  502    0  0.27072361324E+03  0.12656695831E+04  0.10126800179E+04  0.16433969931E+04  0.46999998093E+01 0. -1.
       -5    1    3    3    0  502 -0.27072361324E+03 -0.12656695831E+04 -0.62667374505E+03  0.14380378441E+04  0.46999998093E+01 0.  1.
</event>
<event>
 5   0  0.7193153E-06  0.2938097E+04  0.7818609E-02  0.8261632E-01
        2   -1    0    0  501    0  0.00000000000E+00  0.00000000000E+00  0.21215394694E+04  0.21215394694E+04  0.25500000920E-02 0.  1.
       -2   -1    0    0    0  501  0.00000000000E+00  0.00000000000E+00 -0.10172348903E+04  0.10172348903E+04  0.25500000920E-02 0. -1.
    10030    2    1    2    0    0  0.00000000000E+00  0.00000000000E+00  0.11043045791E+04  0.31387743597E+04  0.29380973227E+04 0.  0.
        4    1    3    3  502    0 -0.48340135579E+03 -0.11197569929E+04 -0.32266206764E+03  0.12616041442E+04  0.12699999809E+01 0. -1.
       -4    1    3    3    0  502  0.48340135579E+03  0.11197569929E+04  0.14269666468E+04  0.18771702155E+04  0.12699999809E+01 0.  1.
</event>
<event>
 5   0  0.7217255E-06  0.2920478E+04  0.7818609E-02  0.8266811E-01
       -2   -1    0    0    0  501  0.00000000000E+00  0.00000000000E+00  0.13733545545E+04  0.13733545545E+04  0.25500000920E-02 0. -1.
        2   -1    0    0  501    0  0.00000000000E+00  0.00000000000E+00 -0.15526204185E+04  0.15526204185E+04  0.25500000920E-02 0.  1.
    10030    2    1    2    0    0  0.00000000000E+00  0.00000000000E+00 -0.17926586403E+03  0.29259749730E+04  0.29204782644E+04 0.  0.
        1    1    3    3  502    0  0.69233326429E+02 -0.12404145908E+04  0.67919440825E+03  0.14158837010E+04  0.50400001928E-02 0. -1.
       -1    1    3    3    0  502 -0.69233326429E+02  0.12404145908E+04 -0.85846027228E+03  0.15100912720E+04  0.50400001928E-02 0.  1.
</event>
<event>
 5   0  0.2422083E-06  0.2986852E+04  0.7818609E-02  0.8247495E-01
       -1   -1    0    0    0  501  0.00000000000E+00  0.00000000000E+00  0.10729072476E+04  0.10729072476E+04  0.50400001928E-02 0.  1.
        1   -1    0    0  501    0  0.00000000000E+00  0.00000000000E+00 -0.20787640105E+04  0.20787640106E+04  0.50400001928E-02 0. -1.
    10030    2    1    2    0    0  0.00000000000E+00  0.00000000000E+00 -0.10058567629E+04  0.31516712582E+04  0.29868518363E+04 0.  0.
        2    1    3    3  502    0 -0.98728243431E+03 -0.62306724712E+03 -0.14856541120E+04  0.18894728207E+04  0.25500000920E-02 0.  1.
       -2    1    3    3    0  502  0.98728243431E+03  0.62306724712E+03  0.47979734905E+03  0.12621984375E+04  0.25500000920E-02 0. -1.
</event>
<event>
 5   0  0.6792811E-06  0.2931997E+04  0.7818609E-02  0.8263421E-01
       -2   -1    0    0    0  501  0.00000000000E+00  0.00000000000E+00  0.12508948850E+04  0.12508948850E+04  0.25500000920E-02 0. -1.
        2   -1    0    0  501    0  0.00000000000E+00  0.00000000000E+00 -0.17180912923E+04  0.17180912923E+04  0.25500000920E-02 0.  1.
    10030    2    1    2    0    0  0.00000000000E+00  0.00000000000E+00 -0.46719640731E+03  0.29689861774E+04  0.29319970052E+04 0.  0.
        2    1    3    3  502    0 -0.12494178262E+04 -0.32990268039E+03  0.46742952368E+03  0.13741801347E+04  0.25500000920E-02 0. -1.
       -2    1    3    3    0  502  0.12494178262E+04  0.32990268039E+03 -0.93462593100E+03  0.15948060427E+04  0.25500000920E-02 0.  1.
</event>
<event>
 5   0  0.7201538E-06  0.3012358E+04  0.7818609E-02  0.8240211E-01
        2   -1    0    0  501    0  0.00000000000E+00  0.00000000000E+00  0.20692498614E+04  0.20692498614E+04  0.25500000920E-02 0.  1.
       -2   -1    0    0    0  501  0.00000000000E+00  0.00000000000E+00 -0.10963274058E+04  0.10963274058E+04  0.25500000920E-02 0. -1.
    10030    2    1    2    0    0  0.00000000000E+00  0.00000000000E+00  0.97292245563E+03  0.31655772672E+04  0.30123581012E+04 0.  0.
        3    1    3    3  502    0 -0.60485090530E+02  0.16933047457E+03  0.20579305988E+04  0.20657709494E+04  0.10100000352E+00 0.  1.
       -3    1    3    3    0  502  0.60485090530E+02 -0.16933047457E+03 -0.10850081431E+04  0.10998063178E+04  0.10100000352E+00 0. -1.
</event>
<event>
 5   0  0.2298500E-06  0.2977324E+04  0.7818609E-02  0.8250236E-01
       -4   -1    0    0    0  501  0.00000000000E+00  0.00000000000E+00  0.17990725494E+04  0.17990729976E+04  0.12699999809E+01 0. -1.
        4   -1    0    0  501    0  0.00000000000E+00  0.00000000000E+00 -0.12318085611E+04  0.12318092158E+04  0.12699999809E+01 0.  1.
    10030    2    1    2    0    0  0.00000000000E+00  0.00000000000E+00  0.56726398826E+03  0.30308822134E+04  0.29773240601E+04 0.  0.
        1    1    3    3  502    0 -0.13371950539E+04  0.10691661584E+03  0.94068266910E+03  0.16384155940E+04  0.50400001928E-02 0. -1.
       -1    1    3    3    0  502  0.13371950539E+04 -0.10691661584E+03 -0.37341868084E+03  0.13924666194E+04  0.50400001928E-02 0.  1.
</event>
<event>
 5   0  0.7217255E-06  0.3021336E+04  0.7818609E-02  0.8237664E-01
       -2   -1    0    0    0  501  0.00000000000E+00  0.00000000000E+00  0.11174881663E+04  0.11174881663E+04  0.25500000920E-02 0. -1.
        2   -1    0    0  501    0  0.00000000000E+00  0.00000000000E+00 -0.20421850255E+04  0.20421850256E+04  0.25500000920E-02 0.  1.
    10030    2    1    2    0    0  0.00000000000E+00  0.00000000000E+00 -0.92469685928E+03  0.31596731918E+04  0.30213358631E+04 0.  0.
        1    1    3    3  502    0  0.31857787807E+03 -0.12138639509E+04 -0.13417799281E+04  0.18372073730E+04  0.50400001928E-02 0. -1.
       -1    1    3    3    0  502 -0.31857787807E+03  0.12138639509E+04  0.41708306886E+03  0.13224658189E+04  0.50400001928E-02 0.  1.
</event>
<event>
 5   0  0.2628425E-06  0.2997973E+04  0.7818609E-02  0.8244310E-01
        1   -1    0    0  501    0  0.00000000000E+00  0.00000000000E+00  0.13655107331E+04  0.13655107331E+04  0.50400001928E-02 0. -1.
       -1   -1    0    0    0  501  0.00000000000E+00  0.00000000000E+00 -0.16455088394E+04  0.16455088394E+04  0.50400001928E-02 0.  1.
    10030    2    1    2    0    0  0.00000000000E+00  0.00000000000E+00 -0.27999810638E+03  0.30110195725E+04  0.29979726360E+04 0.  0.
        1    1    3    3  502    0  0.13289651586E+04  0.58950586417E+03 -0.50668300791E+03  0.15396081408E+04  0.50400001928E-02 0.  1.
       -1    1    3    3    0  502 -0.13289651586E+04 -0.58950586417E+03  0.22668490152E+03  0.14714114317E+04  0.50400001928E-02 0. -1.
</event>
<event>
 5   0  0.6792811E-06  0.3025565E+04  0.7818609E-02  0.8236468E-01
       -2   -1    0    0    0  501  0.00000000000E+00  0.00000000000E+00  0.21020973158E+04  0.21020973158E+04  0.25500000920E-02 0.  1.
        2   -1    0    0  501    0  0.00000000000E+00  0.00000000000E+00 -0.10886797981E+04  0.10886797981E+04  0.25500000920E-02 0. -1.
    10030    2    1    2    0    0  0.00000000000E+00  0.00000000000E+00  0.10134175177E+04  0.31907771139E+04  0.30255649928E+04 0.  0.
        2    1    3    3  502    0 -0.13113421462E+04 -0.10803165254E+03 -0.28052559639E+03  0.13453563367E+04  0.25500000920E-02 0.  1.
       -2    1    3    3    0  502  0.13113421462E+04  0.10803165254E+03  0.12939431141E+04  0.18454207772E+04  0.25500000920E-02 0. -1.
</event>
<event>
 5   0  0.2672155E-06  0.3029421E+04  0.7818609E-02  0.8235379E-01
       -1   -1    0    0    0  501  0.00000000000E+00  0.00000000000E+00  0.16695618288E+04  0.16695618288E+04  0.50400001928E-02 0.  1.
        1   -1    0    0  501    0  0.00000000000E+00  0.00000000000E+00 -0.13742213138E+04  0.13742213138E+04  0.50400001928E-02 0. -1.
    10030    2    1    2    0    0  0.00000000000E+00  0.00000000000E+00  0.29534051499E+03  0.30437831426E+04  0.30294207036E+04 0.  0.
        5    1    3    3  502    0  0.11363337199E+04 -0.11063385471E+03  0.11477944948E+04  0.16189343610E+04  0.46999998093E+01 0.  1.
       -5    1    3    3    0  502 -0.11363337199E+04  0.11063385471E+03 -0.85245397980E+03  0.14248487816E+04  0.46999998093E+01 0. -1.
</event>
<event>
 5   0  0.6780150E-06  0.3001833E+04  0.7818609E-02  0.8243208E-01
        2   -1    0    0  501    0  0.00000000000E+00  0.00000000000E+00  0.27403557742E+04  0.27403557742E+04  0.25500000920E-02 0.  1.
       -2   -1    0    0    0  501  0.00000000000E+00  0.00000000000E+00 -0.82206472342E+03  0.82206472343E+03  0.25500000920E-02 0. -1.
    10030    2    1    2    0    0  0.00000000000E+00  0.00000000000E+00  0.19182910508E+04  0.35624204976E+04  0.30018326480E+04 0.  0.
        5    1    3    3  502    0  0.41784958345E+02 -0.51194181184E+03 -0.71450541397E+03  0.87998322600E+03  0.46999998093E+01 0. -1.
       -5    1    3    3    0  502 -0.41784958345E+02  0.51194181184E+03  0.26327964647E+04  0.26824372716E+04  0.46999998093E+01 0.  1.
</event>
<event>
 5   0  0.2504260E-06  0.2956488E+04  0.7818609E-02  0.8256266E-01
        1   -1    0    0  501    0  0.00000000000E+00  0.00000000000E+00  0.82322597376E+03  0.82322597378E+03  0.50400001928E-02 0.  1.
       -1   -1    0    0    0  501  0.00000000000E+00  0.00000000000E+00 -0.26544423114E+04  0.26544423114E+04  0.50400001928E-02 0. -1.
    10030    2    1    2    0    0  0.00000000000E+00  0.00000000000E+00 -0.18312163376E+04  0.34776682852E+04  0.29564883606E+04 0.  0.
        4    1    3    3  502    0  0.12397118619E+04  0.80023697803E+03 -0.81079661386E+03  0.16836441083E+04  0.12699999809E+01 0.  1.
       -4    1    3    3    0  502 -0.12397118619E+04 -0.80023697803E+03 -0.10204197238E+04  0.17940241768E+04  0.12699999809E+01 0. -1.
</event>
<event>
 5   0  0.7193153E-06  0.3014689E+04  0.7818609E-02  0.8239549E-01
       -2   -1    0    0    0  501  0.00000000000E+00  0.00000000000E+00  0.16165392047E+04  0.16165392047E+04  0.25500000920E-02 0. -1.
        2   -1    0    0  501    0  0.00000000000E+00  0.00000000000E+00 -0.14055256776E+04  0.14055256776E+04  0.25500000920E-02 0.  1.
    10030    2    1    2    0    0  0.00000000000E+00  0.00000000000E+00  0.21101352711E+03  0.30220648822E+04  0.30146889465E+04 0.  0.
        4    1    3    3  502    0  0.80064027713E+03 -0.10059374937E+04 -0.68327968986E+03  0.14559559890E+04  0.12699999809E+01 0.  1.
       -4    1    3    3    0  502 -0.80064027713E+03  0.10059374937E+04  0.89429321696E+03  0.15661088932E+04  0.12699999809E+01 0. -1.
</event>
<event>
 5   0  0.2628425E-06  0.3168880E+04  0.7818609E-02  0.8197085E-01
       -1   -1    0    0    0  501  0.00000000000E+00  0.00000000000E+00  0.23206272359E+04  0.23206272359E+04  0.50400001928E-02 0. -1.
        1   -1    0    0  501    0  0.00000000000E+00  0.00000000000E+00 -0.10817978164E+04  0.10817978164E+04  0.50400001928E-02 0.  1.
    10030    2    1    2    0    0  0.00000000000E+00  0.00000000000E+00  0.12388294195E+04  0.34024250523E+04  0.31688795979E+04 0.  0.
        1    1    3    3  502    0 -0.14728470211E+04 -0.13974726041E+03  0.12283471239E+04  0.19229259739E+04  0.50400001928E-02 0. -1.
       -1    1    3    3    0  502  0.14728470211E+04  0.13974726041E+03  0.10482295683E+02  0.14794990784E+04  0.50400001928E-02 0.  1.
</event>
<event>
 5   0  0.7217255E-06  0.2547103E+04  0.7818609E-02  0.8386394E-01
        2   -1    0    0  501    0  0.00000000000E+00  0.00000000000E+00  0.10694231818E+04  0.10694231818E+04  0.25500000920E-02 0. -1.
       -2   -1    0    0    0  501  0.00000000000E+00  0.00000000000E+00 -0.15166434950E+04  0.15166434950E+04  0.25500000920E-02 0.  1.
    10030    2    1    2    0    0  0.00000000000E+00  0.00000000000E+00 -0.44722031319E+03  0.25860666769E+04  0.25471032269E+04 0.  0.
        1    1    3    3  502    0  0.62381324930E+03 -0.11075932755E+04 -0.30243722999E+03  0.13066652640E+04  0.50400001928E-02 0.  1.
       -1    1    3    3    0  502 -0.62381324930E+03  0.11075932755E+04 -0.14478308320E+03  0.12794014129E+04  0.50400001928E-02 0. -1.
</event>
<event>
 5   0  0.2504260E-06  0.2970781E+04  0.7818609E-02  0.8252124E-01
        1   -1    0    0  501    0  0.00000000000E+00  0.00000000000E+00  0.17874736767E+04  0.17874736767E+04  0.50400001928E-02 0.  1.
       -1   -1    0    0    0  501  0.00000000000E+00  0.00000000000E+00 -0.12343594844E+04  0.12343594844E+04  0.50400001928E-02 0. -1.
    10030    2    1    2    0    0  0.00000000000E+00  0.00000000000E+00  0.55311419231E+03  0.30218331612E+04  0.29707811000E+04 0.  0.
        4    1    3    3  502    0  0.11712762817E+04 -0.11048371307E+03  0.11989415828E+04  0.16797491809E+04  0.12699999809E+01 0.  1.
       -4    1    3    3    0  502 -0.11712762817E+04  0.11048371307E+03 -0.64582739051E+03  0.13420839803E+04  0.12699999809E+01 0. -1.
</event>
<event>
 5   0  0.7201538E-06  0.3018960E+04  0.7818609E-02  0.8238337E-01
       -2   -1    0    0    0  501  0.00000000000E+00  0.00000000000E+00  0.13460818976E+04  0.13460818977E+04  0.25500000920E-02 0. -1.
        2   -1    0    0  501    0  0.00000000000E+00  0.00000000000E+00 -0.16927129752E+04  0.16927129752E+04  0.25500000920E-02 0.  1.
    10030    2    1    2    0    0  0.00000000000E+00  0.00000000000E+00 -0.34663107756E+03  0.30387948729E+04  0.30189602805E+04 0.  0.
        3    1    3    3  502    0 -0.13015882321E+04 -0.75042250266E+03 -0.32009686620E+03  0.15361405770E+04  0.10100000352E+00 0. -1.
       -3    1    3    3    0  502  0.13015882321E+04  0.75042250266E+03 -0.26534211362E+02  0.15026542959E+04  0.10100000352E+00 0.  1.
</event>
<event>
 5   0  0.2552990E-06  0.3013199E+04  0.7818609E-02  0.8239972E-01
        1   -1    0    0  501    0  0.00000000000E+00  0.00000000000E+00  0.15169130024E+04  0.15169130024E+04  0.50400001928E-02 0. -1.
       -1   -1    0    0    0  501  0.00000000000E+00  0.00000000000E+00 -0.14963561559E+04  0.14963561559E+04  0.50400001928E-02 0.  1.
    10030    2    1    2    0    0  0.00000000000E+00  0.00000000000E+00  0.20556846511E+02  0.30132691583E+04  0.30131990369E+04 0.  0.
        3    1    3    3  502    0  0.96129492086E+03 -0.32087212087E+03 -0.11045547929E+04  0.14990290669E+04  0.10100000352E+00 0.  1.
       -3    1    3    3    0  502 -0.96129492086E+03  0.32087212087E+03  0.11251116394E+04  0.15142400913E+04  0.10100000352E+00 0. -1.
</event>
<event>
 5   0  0.7217255E-06  0.3033650E+04  0.7818609E-02  0.8234187E-01
        2   -1    0    0  501    0  0.00000000000E+00  0.00000000000E+00  0.17927826825E+04  0.17927826825E+04  0.25500000920E-02 0.  1.
       -2   -1    0    0    0  501  0.00000000000E+00  0.00000000000E+00 -0.12833442511E+04  0.12833442511E+04  0.25500000920E-02 0. -1.
    10030    2    1    2    0    0  0.00000000000E+00  0.00000000000E+00  0.50943843140E+03  0.30761269336E+04  0.30336495177E+04 0.  0.
        1    1    3    3  502    0 -0.47061109949E+03 -0.13641294810E+04  0.72863183403E+03  0.16165482973E+04  0.50400001928E-02 0.  1.
       -1    1    3    3    0  502  0.47061109949E+03  0.13641294810E+04 -0.21919340264E+03  0.14595786363E+04  0.50400001928E-02 0. -1.
</event>
<event>
 5   0  0.2504260E-06  0.2997310E+04  0.7818609E-02  0.8244499E-01
       -1   -1    0    0    0  501  0.00000000000E+00  0.00000000000E+00  0.88370428281E+03  0.88370428282E+03  0.50400001928E-02 0.  1.
        1   -1    0    0  501    0  0.00000000000E+00  0.00000000000E+00 -0.25415367575E+04  0.25415367575E+04  0.50400001928E-02 0. -1.
    10030    2    1    2    0    0  0.00000000000E+00  0.00000000000E+00 -0.16578324747E+04  0.34252410403E+04  0.29973100724E+04 0.  0.
        4    1    3    3  502    0 -0.84007828647E+03 -0.67831717573E+03 -0.20165851435E+04  0.22874577531E+04  0.12699999809E+01 0. -1.
       -4    1    3    3    0  502  0.84007828647E+03  0.67831717573E+03  0.35875266886E+03  0.11377832872E+04  0.12699999809E+01 0.  1.
</event>
<event>
 5   0  0.7201538E-06  0.3034072E+04  0.7818609E-02  0.8234068E-01
       -2   -1    0    0    0  501  0.00000000000E+00  0.00000000000E+00  0.11733733336E+04  0.11733733336E+04  0.25500000920E-02 0. -1.
        2   -1    0    0  501    0  0.00000000000E+00  0.00000000000E+00 -0.19613519223E+04  0.19613519223E+04  0.25500000920E-02 0.  1.
    10030    2    1    2    0    0  0.00000000000E+00  0.00000000000E+00 -0.78797858874E+03  0.31347252559E+04  0.30340718801E+04 0.  0.
        3    1    3    3  502    0 -0.17252954796E+03  0.59389370910E+03  0.10372170791E+04  0.12075990486E+04  0.10100000352E+00 0. -1.
       -3    1    3    3    0  502  0.17252954796E+03 -0.59389370910E+03 -0.18251956679E+04  0.19271262073E+04  0.10100000352E+00 0.  1.
</event>
<event>
 5   0  0.2504260E-06  0.2955117E+04  0.7818609E-02  0.8256665E-01
        1   -1    0    0  501    0  0.00000000000E+00  0.00000000000E+00  0.14401690844E+04  0.14401690845E+04  0.50400001928E-02 0. -1.
       -1   -1    0    0    0  501  0.00000000000E+00  0.00000000000E+00 -0.15159185238E+04  0.15159185238E+04  0.50400001928E-02 0.  1.
    10030    2    1    2    0    0  0.00000000000E+00  0.00000000000E+00 -0.75749439327E+02  0.29560876082E+04  0.29551169131E+04 0.  0.
        4    1    3    3  502    0 -0.32550455616E+03  0.89616781226E+03 -0.11670091623E+04  0.15069777575E+04  0.12699999809E+01 0.  1.
       -4    1    3    3    0  502  0.32550455616E+03 -0.89616781226E+03  0.10912597229E+04  0.14491098508E+04  0.12699999809E+01 0. -1.
</event>
<event>
 5   0  0.2298500E-06  0.3092969E+04  0.7818609E-02  0.8217670E-01
       -3   -1    0    0    0  501  0.00000000000E+00  0.00000000000E+00  0.13060030885E+04  0.13060030924E+04  0.10100000352E+00 0. -1.
        3   -1    0    0  501    0  0.00000000000E+00  0.00000000000E+00 -0.18312466029E+04  0.18312466057E+04  0.10100000352E+00 0.  1.
    10030    2    1    2    0    0  0.00000000000E+00  0.00000000000E+00 -0.52524351438E+03  0.31372496981E+04  0.30929686256E+04 0.  0.
        1    1    3    3  502    0  0.13007166402E+04 -0.76409543359E+02  0.58231776436E+03  0.14271636820E+04  0.50400001928E-02 0. -1.
       -1    1    3    3    0  502 -0.13007166402E+04  0.76409543359E+02 -0.11075612787E+04  0.17100860161E+04  0.50400001928E-02 0.  1.
</event>
<event>
 5   0  0.2504260E-06  0.3079217E+04  0.7818609E-02  0.8221465E-01
       -1   -1    0    0    0  501  0.00000000000E+00  0.00000000000E+00  0.10484521804E+04  0.10484521804E+04  0.50400001928E-02 0.  1.
        1   -1    0    0  501    0  0.00000000000E+00  0.00000000000E+00 -0.22608509001E+04  0.22608509001E+04  0.50400001928E-02 0. -1.
    10030    2    1    2    0    0  0.00000000000E+00  0.00000000000E+00 -0.12123987197E+04  0.33093030805E+04  0.30792168198E+04 0.  0.
        4    1    3    3  502    0  0.68042794320E+03  0.48569093542E+03  0.78327762249E+03  0.11456017272E+04  0.12699999809E+01 0.  1.
       -4    1    3    3    0  502 -0.68042794320E+03 -0.48569093542E+03 -0.19956763422E+04  0.21637013533E+04  0.12699999809E+01 0. -1.
</event>
<event>
 5   0  0.2672155E-06  0.2976551E+04  0.7818609E-02  0.8250459E-01
        1   -1    0    0  501    0  0.00000000000E+00  0.00000000000E+00  0.13884043632E+04  0.13884043632E+04  0.50400001928E-02 0.  1.
       -1   -1    0    0    0  501  0.00000000000E+00  0.00000000000E+00 -0.15953302046E+04  0.15953302046E+04  0.50400001928E-02 0. -1.
    10030    2    1    2    0    0  0.00000000000E+00  0.00000000000E+00 -0.20692584143E+03  0.29837345678E+04  0.29765506324E+04 0.  0.
        5    1    3    3  502    0 -0.23124487545E+03 -0.14112425728E+04 -0.51660024597E+03  0.15205188904E+04  0.46999998093E+01 0. -1.
       -5    1    3    3    0  502  0.23124487545E+03  0.14112425728E+04  0.30967440454E+03  0.14632156774E+04  0.46999998093E+01 0.  1.
</event>
<event>
 5   0  0.6792811E-06  0.2978487E+04  0.7818609E-02  0.8249901E-01
       -2   -1    0    0    0  501  0.00000000000E+00  0.00000000000E+00  0.13680817408E+04  0.13680817408E+04  0.25500000920E-02 0.  1.
        2   -1    0    0  501    0  0.00000000000E+00  0.00000000000E+00 -0.16211355786E+04  0.16211355786E+04  0.25500000920E-02 0. -1.
    10030    2    1    2    0    0  0.00000000000E+00  0.00000000000E+00 -0.25305383776E+03  0.29892173194E+04  0.29784868537E+04 0.  0.
        2    1    3    3  502    0 -0.99504907373E+03  0.72458573374E+02  0.98311142254E+03  0.14006716150E+04  0.25500000920E-02 0.  1.
       -2    1    3    3    0  502  0.99504907373E+03 -0.72458573374E+02 -0.12361652603E+04  0.15885457043E+04  0.25500000920E-02 0. -1.
</event>
<event>
 5   0  0.7193153E-06  0.2990708E+04  0.7818609E-02  0.8246389E-01
        2   -1    0    0  501    0  0.00000000000E+00  0.00000000000E+00  0.28593609023E+04  0.28593609023E+04  0.25500000920E-02 0.  1.
       -2   -1    0    0    0  501  0.00000000000E+00  0.00000000000E+00 -0.78202210916E+03  0.78202210916E+03  0.25500000920E-02 0. -1.
    10030    2    1    2    0    0  0.00000000000E+00  0.00000000000E+00  0.20773387931E+04  0.36413830114E+04  0.29907079053E+04 0.  0.
        4    1    3    3  502    0  0.14708157557E+04 -0.88751876247E+02  0.13488642668E+04  0.19976516979E+04  0.12699999809E+01 0. -1.
       -4    1    3    3    0  502 -0.14708157557E+04  0.88751876247E+02  0.72847452631E+03  0.16437313136E+04  0.12699999809E+01 0.  1.
</event>
<event>
 5   0  0.6780150E-06  0.3074987E+04  0.7818609E-02  0.8222636E-01
       -2   -1    0    0    0  501  0.00000000000E+00  0.00000000000E+00  0.95498723161E+03  0.95498723162E+03  0.25500000920E-02 0.  1.
        2   -1    0    0  501    0  0.00000000000E+00  0.00000000000E+00 -0.24753071273E+04  0.24753071273E+04  0.25500000920E-02 0. -1.
    10030    2    1    2    0    0  0.00000000000E+00  0.00000000000E+00 -0.15203198957E+04  0.34302943589E+04  0.30749872851E+04 0.  0.
        5    1    3    3  502    0  0.11309280897E+03 -0.78559521007E+03  0.70877289409E+03  0.10641103904E+04  0.46999998093E+01 0.  1.
       -5    1    3    3    0  502 -0.11309280897E+03  0.78559521007E+03 -0.22290927898E+04  0.23661839685E+04  0.46999998093E+01 0. -1.
</event>
<event>
 5   0  0.6780150E-06  0.2452951E+04  0.7818609E-02  0.8419941E-01
        2   -1    0    0  501    0  0.00000000000E+00  0.00000000000E+00  0.16017484386E+04  0.16017484386E+04  0.25500000920E-02 0.  1.
       -2   -1    0    0    0  501  0.00000000000E+00  0.00000000000E+00 -0.93912483470E+03  0.93912483470E+03  0.25500000920E-02 0. -1.
    10030    2    1    2    0    0  0.00000000000E+00  0.00000000000E+00  0.66262360389E+03  0.25408732733E+04  0.24529506621E+04 0.  0.
        5    1    3    3  502    0 -0.35429489440E+03  0.67828752216E+03  0.13241130911E+04  0.15293450895E+04  0.46999998093E+01 0.  1.
       -5    1    3    3    0  502  0.35429489440E+03 -0.67828752216E+03 -0.66148948717E+03  0.10115281838E+04  0.46999998093E+01 0. -1.
</event>
<event>
 5   0  0.2504260E-06  0.3015142E+04  0.7818609E-02  0.8239420E-01
        1   -1    0    0  501    0  0.00000000000E+00  0.00000000000E+00  0.15583523911E+04  0.15583523911E+04  0.50400001928E-02 0. -1.
       -1   -1    0    0    0  501  0.00000000000E+00  0.00000000000E+00 -0.14584441905E+04  0.14584441905E+04  0.50400001928E-02 0.  1.
    10030    2    1    2    0    0  0.00000000000E+00  0.00000000000E+00  0.99908200665E+02  0.30167965816E+04  0.30151417821E+04 0.  0.
        4    1    3    3  502    0 -0.14411850148E+04  0.17927662102E+03  0.45466840291E+03  0.15218013416E+04  0.12699999809E+01 0. -1.
       -4    1    3    3    0  502  0.14411850148E+04 -0.17927662102E+03 -0.35476020225E+03  0.14949952400E+04  0.12699999809E+01 0.  1.
</event>
<event>
 5   0  0.2628425E-06  0.3014328E+04  0.7818609E-02  0.8239651E-01
       -1   -1    0    0    0  501  0.00000000000E+00  0.00000000000E+00  0.16027348566E+04  0.16027348566E+04  0.50400001928E-02 0.  1.
        1   -1    0    0  501    0  0.00000000000E+00  0.00000000000E+00 -0.14172920680E+04  0.14172920680E+04  0.50400001928E-02 0. -1.
    10030    2    1    2    0    0  0.00000000000E+00  0.00000000000E+00  0.18544278862E+03  0.30200269246E+04  0.30143280508E+04 0.  0.
        1    1    3    3  502    0  0.21497835081E+03  0.55040021061E+02 -0.14008344902E+04  0.14183026349E+04  0.50400001928E-02 0. -1.
       -1    1    3    3    0  502 -0.21497835081E+03 -0.55040021061E+02  0.15862772788E+04  0.16017242898E+04  0.50400001928E-02 0.  1.
</event>
<event>
 5   0  0.7201538E-06  0.2978040E+04  0.7818609E-02  0.8250030E-01
       -2   -1    0    0    0  501  0.00000000000E+00  0.00000000000E+00  0.10002112612E+04  0.10002112612E+04  0.25500000920E-02 0. -1.
        2   -1    0    0  501    0  0.00000000000E+00  0.00000000000E+00 -0.22167122401E+04  0.22167122401E+04  0.25500000920E-02 0.  1.
    10030    2    1    2    0    0  0.00000000000E+00  0.00000000000E+00 -0.12165009789E+04  0.32169235013E+04  0.29780399899E+04 0.  0.
        3    1    3    3  502    0 -0.66155666680E+03 -0.79243790709E+03  0.55093924416E+03  0.11701064571E+04  0.10100000352E+00 0. -1.
       -3    1    3    3    0  502  0.66155666680E+03  0.79243790709E+03 -0.17674402231E+04  0.20468170442E+04  0.10100000352E+00 0.  1.
</event>
<event>
 5   0  0.7217255E-06  0.3017359E+04  0.7818609E-02  0.8238791E-01
       -2   -1    0    0    0  501  0.00000000000E+00  0.00000000000E+00  0.10647476986E+04  0.10647476986E+04  0.25500000920E-02 0. -1.
        2   -1    0    0  501    0  0.00000000000E+00  0.00000000000E+00 -0.21377021424E+04  0.21377021424E+04  0.25500000920E-02 0.  1.
    10030    2    1    2    0    0  0.00000000000E+00  0.00000000000E+00 -0.10729544438E+04  0.32024498410E+04  0.30173587366E+04 0.  0.
        1    1    3    3  502    0 -0.79452294077E+03  0.45876617125E+03 -0.18076001436E+04  0.20271041864E+04  0.50400001928E-02 0.  1.
       -1    1    3    3    0  502  0.79452294077E+03 -0.45876617125E+03  0.73464569984E+03  0.11753456545E+04  0.50400001928E-02 0. -1.
</event>
<event>
 5   0  0.6780150E-06  0.2987354E+04  0.7818609E-02  0.8247351E-01
       -2   -1    0    0    0  501  0.00000000000E+00  0.00000000000E+00  0.93078889755E+03  0.93078889755E+03  0.25500000920E-02 0. -1.
        2   -1    0    0  501    0  0.00000000000E+00  0.00000000000E+00 -0.23969670539E+04  0.23969670539E+04  0.25500000920E-02 0.  1.
    10030    2    1    2    0    0  0.00000000000E+00  0.00000000000E+00 -0.14661781563E+04  0.33277559514E+04  0.29873535589E+04 0.  0.
        5    1    3    3  502    0 -0.72502249778E+03  0.15934205456E+03  0.71075261098E+03  0.10277348280E+04  0.46999998093E+01 0. -1.
       -5    1    3    3    0  502  0.72502249778E+03 -0.15934205456E+03 -0.21769307673E+04  0.23000211234E+04  0.46999998093E+01 0.  1.
</event>
<event>
 5   0  0.2552990E-06  0.2397421E+04  0.7818609E-02  0.8440470E-01
       -1   -1    0    0    0  501  0.00000000000E+00  0.00000000000E+00  0.83929554897E+03  0.83929554898E+03  0.50400001928E-02 0.  1.
        1   -1    0    0  501    0  0.00000000000E+00  0.00000000000E+00 -0.17120396500E+04  0.17120396500E+04  0.50400001928E-02 0. -1.
    10030    2    1    2    0    0  0.00000000000E+00  0.00000000000E+00 -0.87274410105E+03  0.25513351990E+04  0.23974213296E+04 0.  0.
        3    1    3    3  502    0 -0.51221451398E+02 -0.10171363861E+04 -0.11091930917E+04  0.15058218321E+04  0.10100000352E+00 0.  1.
       -3    1    3    3    0  502  0.51221451398E+02  0.10171363861E+04  0.23644899069E+03  0.10455133669E+04  0.10100000352E+00 0. -1.
</event>
<event>
 5   0  0.6792811E-06  0.2993768E+04  0.7818609E-02  0.8245513E-01
        2   -1    0    0  501    0  0.00000000000E+00  0.00000000000E+00  0.16466981820E+04  0.16466981820E+04  0.25500000920E-02 0. -1.
       -2   -1    0    0    0  501  0.00000000000E+00  0.00000000000E+00 -0.13606993372E+04  0.13606993372E+04  0.25500000920E-02 0.  1.
    10030    2    1    2    0    0  0.00000000000E+00  0.00000000000E+00  0.28599884475E+03  0.30073975191E+04  0.29937676094E+04 0.  0.
        2    1    3    3  502    0  0.22573319911E+03 -0.50293662121E+03 -0.12550119378E+04  0.13707500451E+04  0.25500000920E-02 0.  1.
       -2    1    3    3    0  502 -0.22573319911E+03  0.50293662121E+03  0.15410107826E+04  0.16366474740E+04  0.25500000920E-02 0. -1.
</event>
<event>
 5   0  0.2628425E-06  0.3013545E+04  0.7818609E-02  0.8239873E-01
       -1   -1    0    0    0  501  0.00000000000E+00  0.00000000000E+00  0.10374167220E+04  0.10374167220E+04  0.50400001928E-02 0. -1.
        1   -1    0    0  501    0  0.00000000000E+00  0.00000000000E+00 -0.21884783858E+04  0.21884783858E+04  0.50400001928E-02 0.  1.
    10030    2    1    2    0    0  0.00000000000E+00  0.00000000000E+00 -0.11510616638E+04  0.32258951078E+04  0.30135454689E+04 0.  0.
        1    1    3    3  502    0 -0.58072614994E+03  0.11352215143E+04 -0.14348371600E+04  0.19195646443E+04  0.50400001928E-02 0. -1.
       -1    1    3    3    0  502  0.58072614994E+03 -0.11352215143E+04  0.28377549628E+03  0.13063304636E+04  0.50400001928E-02 0.  1.
</event>
<event>
 5   0  0.7201538E-06  0.3021712E+04  0.7818609E-02  0.8237558E-01
        2   -1    0    0  501    0  0.00000000000E+00  0.00000000000E+00  0.22270097791E+04  0.22270097791E+04  0.25500000920E-02 0.  1.
       -2   -1    0    0    0  501  0.00000000000E+00  0.00000000000E+00 -0.10250002115E+04  0.10250002115E+04  0.25500000920E-02 0. -1.
    10030    2    1    2    0    0  0.00000000000E+00  0.00000000000E+00  0.12020095676E+04  0.32520099906E+04  0.30217117629E+04 0.  0.
        3    1    3    3  502    0 -0.54786201259E+03 -0.10899871441E+04  0.15602619497E+04  0.19805661112E+04  0.10100000352E+00 0.  1.
       -3    1    3    3    0  502  0.54786201259E+03  0.10899871441E+04 -0.35825238206E+03  0.12714438794E+04  0.10100000352E+00 0. -1.
</event>
<event>
 5   0  0.6792811E-06  0.2969735E+04  0.7818609E-02  0.8252426E-01
        2   -1    0    0  501    0  0.00000000000E+00  0.00000000000E+00  0.24591804189E+04  0.24591804189E+04  0.25500000920E-02 0. -1.
       -2   -1    0    0    0  501  0.00000000000E+00  0.00000000000E+00 -0.89657187497E+03  0.89657187498E+03  0.25500000920E-02 0.  1.
    10030    2    1    2    0    0  0.00000000000E+00  0.00000000000E+00  0.15626085439E+04  0.33557522939E+04  0.29697353411E+04 0.  0.
        2    1    3    3  502    0 -0.22321317808E+03  0.14497505248E+04  0.52059549487E+03  0.15564769116E+04  0.25500000920E-02 0.  1.
       -2    1    3    3    0  502  0.22321317808E+03 -0.14497505248E+04  0.10420130491E+04  0.17992753823E+04  0.25500000920E-02 0. -1.
</event>
<event>
 5   0  0.2628425E-06  0.2963656E+04  0.7818609E-02  0.8254186E-01
       -1   -1    0    0    0  501  0.00000000000E+00  0.00000000000E+00  0.12093397132E+04  0.12093397132E+04  0.50400001928E-02 0. -1.
        1   -1    0    0  501    0  0.00000000000E+00  0.00000000000E+00 -0.18157137766E+04  0.18157137766E+04  0.50400001928E-02 0.  1.
    10030    2    1    2    0    0  0.00000000000E+00  0.00000000000E+00 -0.60637406341E+03  0.30250534898E+04  0.29636563754E+04 0.  0.
        1    1    3    3  502    0  0.75976915770E+03  0.12149113493E+04  0.82200792058E+02  0.14352754892E+04  0.50400001928E-02 0. -1.
       -1    1    3    3    0  502 -0.75976915770E+03 -0.12149113493E+04 -0.68857485547E+03  0.15897780006E+04  0.50400001928E-02 0.  1.
</event>
<event>
 5   0  0.6780150E-06  0.2986017E+04  0.7818609E-02  0.8247735E-01
        2   -1    0    0  501    0  0.00000000000E+00  0.00000000000E+00  0.15783233329E+04  0.15783233329E+04  0.25500000920E-02 0.  1.
       -2   -1    0    0    0  501  0.00000000000E+00  0.00000000000E+00 -0.14123053496E+04  0.14123053496E+04  0.25500000920E-02 0. -1.
    10030    2    1    2    0    0  0.00000000000E+00  0.00000000000E+00  0.16601798325E+03  0.29906286825E+04  0.29860170705E+04 0.  0.
        5    1    3    3  502    0  0.36050719451E+03  0.53013738111E+03 -0.12674210241E+04  0.14203482751E+04  0.46999998093E+01 0. -1.
       -5    1    3    3    0  502 -0.36050719451E+03 -0.53013738111E+03  0.14334390073E+04  0.15702804074E+04  0.46999998093E+01 0.  1.
</event>
<event>
 5   0  0.6792811E-06  0.2889891E+04  0.7818609E-02  0.8275892E-01
        2   -1    0    0  501    0  0.00000000000E+00  0.00000000000E+00  0.14446835170E+04  0.14446835170E+04  0.25500000920E-02 0. -1.
       -2   -1    0    0    0  501  0.00000000000E+00  0.00000000000E+00 -0.14452076111E+04  0.14452076111E+04  0.25500000920E-02 0.  1.
    10030    2    1    2    0    0  0.00000000000E+00  0.00000000000E+00 -0.52409406316E+00  0.28898911281E+04  0.28898910806E+04 0.  0.
        2    1    3    3  502    0  0.23816636178E+03  0.13674850494E+04 -0.40167087059E+03  0.14450183613E+04  0.25500000920E-02 0.  1.
       -2    1    3    3    0  502 -0.23816636178E+03 -0.13674850494E+04  0.40114677653E+03  0.14448727669E+04  0.25500000920E-02 0. -1.
</event>
<event>
 5   0  0.6780150E-06  0.2989378E+04  0.7818609E-02  0.8246771E-01
       -2   -1    0    0    0  501  0.00000000000E+00  0.00000000000E+00  0.13856297636E+04  0.13856297636E+04  0.25500000920E-02 0.  1.
        2   -1    0    0  501    0  0.00000000000E+00  0.00000000000E+00 -0.16123320180E+04  0.16123320180E+04  0.25500000920E-02 0. -1.
    10030    2    1    2    0    0  0.00000000000E+00  0.00000000000E+00 -0.22670225442E+03  0.29979617815E+04  0.29893780175E+04 0.  0.
        5    1    3    3  502    0  0.74457737117E+03  0.11224228889E+04 -0.76316579496E+03  0.15481190923E+04  0.46999998093E+01 0. -1.
       -5    1    3    3    0  502 -0.74457737117E+03 -0.11224228889E+04  0.53646354055E+03  0.14498426893E+04  0.46999998093E+01 0.  1.
</event>
<event>
 5   0  0.2628425E-06  0.2954216E+04  0.7818609E-02  0.8256927E-01
       -1   -1    0    0    0  501  0.00000000000E+00  0.00000000000E+00  0.13620676657E+04  0.13620676658E+04  0.50400001928E-02 0. -1.
        1   -1    0    0  501    0  0.00000000000E+00  0.00000000000E+00 -0.16018651375E+04  0.16018651375E+04  0.50400001928E-02 0.  1.
    10030    2    1    2    0    0  0.00000000000E+00  0.00000000000E+00 -0.23979747177E+03  0.29639328033E+04  0.29542164502E+04 0.  0.
        1    1    3    3  502    0 -0.11850169773E+04 -0.56139183921E+03  0.56235449664E+03  0.14267685915E+04  0.50400001928E-02 0. -1.
       -1    1    3    3    0  502  0.11850169773E+04  0.56139183921E+03 -0.80215196841E+03  0.15371642118E+04  0.50400001928E-02 0.  1.
</event>
<event>
 5   0  0.7193153E-06  0.3074083E+04  0.7818609E-02  0.8222887E-01
       -2   -1    0    0    0  501  0.00000000000E+00  0.00000000000E+00  0.20918108285E+04  0.20918108285E+04  0.25500000920E-02 0.  1.
        2   -1    0    0  501    0  0.00000000000E+00  0.00000000000E+00 -0.11294027080E+04  0.11294027080E+04  0.25500000920E-02 0. -1.
    10030    2    1    2    0    0  0.00000000000E+00  0.00000000000E+00  0.96240812050E+03  0.32212135365E+04  0.30740831572E+04 0.  0.
        4    1    3    3  502    0 -0.10775322612E+04  0.58795565192E+03 -0.48812597200E+03  0.13209981832E+04  0.12699999809E+01 0. -1.
       -4    1    3    3    0  502  0.10775322612E+04 -0.58795565192E+03  0.14505340925E+04  0.19002153533E+04  0.12699999809E+01 0.  1.
</event>
<event>
 5   0  0.7201538E-06  0.3012128E+04  0.7818609E-02  0.8240276E-01
       -2   -1    0    0    0  501  0.00000000000E+00  0.00000000000E+00  0.11569901352E+04  0.11569901352E+04  0.25500000920E-02 0.  1.
        2   -1    0    0  501    0  0.00000000000E+00  0.00000000000E+00 -0.19604560227E+04  0.19604560227E+04  0.25500000920E-02 0. -1.
    10030    2    1    2    0    0  0.00000000000E+00  0.00000000000E+00 -0.80346588751E+03  0.31174461580E+04  0.30121276725E+04 0.  0.
        3    1    3    3  502    0  0.20770354473E+02  0.12826917032E+04 -0.12183056584E+04  0.17691800645E+04  0.10100000352E+00 0.  1.
       -3    1    3    3    0  502 -0.20770354473E+02 -0.12826917032E+04  0.41483977089E+03  0.13482660935E+04  0.10100000352E+00 0. -1.
</event>
<event>
 5   0  0.6780150E-06  0.2957212E+04  0.7818609E-02  0.8256056E-01
       -2   -1    0    0    0  501  0.00000000000E+00  0.00000000000E+00  0.10134960301E+04  0.10134960302E+04  0.25500000920E-02 0. -1.
        2   -1    0    0  501    0  0.00000000000E+00  0.00000000000E+00 -0.21571627005E+04  0.21571627005E+04  0.25500000920E-02 0.  1.
    10030    2    1    2    0    0  0.00000000000E+00  0.00000000000E+00 -0.11436666703E+04  0.31706587306E+04  0.29572120880E+04 0.  0.
        5    1    3    3  502    0  0.13283489966E+04 -0.79217050559E+02 -0.12629247130E+04  0.18346082194E+04  0.46999998093E+01 0. -1.
       -5    1    3    3    0  502 -0.13283489966E+04  0.79217050559E+02  0.11925804262E+03  0.13360505113E+04  0.46999998093E+01 0.  1.
</event>
<event>
 5   0  0.7201538E-06  0.2977254E+04  0.7818609E-02  0.8250256E-01
       -2   -1    0    0    0  501  0.00000000000E+00  0.00000000000E+00  0.19919847899E+04  0.19919847899E+04  0.25500000920E-02 0.  1.
        2   -1    0    0  501    0  0.00000000000E+00  0.00000000000E+00 -0.11124637364E+04  0.11124637364E+04  0.25500000920E-02 0. -1.
    10030    2    1    2    0    0  0.00000000000E+00  0.00000000000E+00  0.87952105348E+03  0.31044485263E+04  0.29772543340E+04 0.  0.
        3    1    3    3  502    0 -0.21105896334E+03 -0.11279325710E+04  0.14285518804E+04  0.18323586592E+04  0.10100000352E+00 0. -1.
       -3    1    3    3    0  502  0.21105896334E+03  0.11279325710E+04 -0.54903082697E+03  0.12720898671E+04  0.10100000352E+00 0.  1.
</event>
<event>
 5   0  0.2552990E-06  0.2819856E+04  0.7818609E-02  0.8297130E-01
        1   -1    0    0  501    0  0.00000000000E+00  0.00000000000E+00  0.21649185043E+04  0.21649185043E+04  0.50400001928E-02 0.  1.
       -1   -1    0    0    0  501  0.00000000000E+00  0.00000000000E+00 -0.91823172448E+03  0.91823172450E+03  0.50400001928E-02 0. -1.
    10030    2    1    2    0    0  0.00000000000E+00  0.00000000000E+00  0.12466867798E+04  0.30831502288E+04  0.28198559194E+04 0.  0.
        3    1    3    3  502    0 -0.13251656966E+04  0.34070507548E+03  0.25135150692E+03  0.13911583885E+04  0.10100000352E+00 0.  1.
       -3    1    3    3    0  502  0.13251656966E+04 -0.34070507548E+03  0.99533527287E+03  0.16919918402E+04  0.10100000352E+00 0. -1.
</event>
<event>
 5   0  0.2552990E-06  0.3010995E+04  0.7818609E-02  0.8240598E-01
       -1   -1    0    0    0  501  0.00000000000E+00  0.00000000000E+00  0.10320883407E+04  0.10320883408E+04  0.50400001928E-02 0.  1.
        1   -1    0    0  501    0  0.00000000000E+00  0.00000000000E+00 -0.21960546967E+04  0.21960546967E+04  0.50400001928E-02 0. -1.
    10030    2    1    2    0    0  0.00000000000E+00  0.00000000000E+00 -0.11639663559E+04  0.32281430374E+04  0.30109948177E+04 0.  0.
        3    1    3    3  502    0 -0.85621704413E+03  0.11268514152E+04 -0.11324517334E+04  0.18125530826E+04  0.10100000352E+00 0. -1.
       -3    1    3    3    0  502  0.85621704413E+03 -0.11268514152E+04 -0.31514622554E+02  0.14155899548E+04  0.10100000352E+00 0.  1.
</event>
<event>
 5   0  0.7193153E-06  0.3005407E+04  0.7818609E-02  0.8242189E-01
        2   -1    0    0  501    0  0.00000000000E+00  0.00000000000E+00  0.21879731082E+04  0.21879731082E+04  0.25500000920E-02 0.  1.
       -2   -1    0    0    0  501  0.00000000000E+00  0.00000000000E+00 -0.10320592952E+04  0.10320592952E+04  0.25500000920E-02 0. -1.
    10030    2    1    2    0    0  0.00000000000E+00  0.00000000000E+00  0.11559138130E+04  0.32200324035E+04  0.30054071165E+04 0.  0.
        4    1    3    3  502    0 -0.25219299312E+03 -0.14296835048E+03 -0.10018143374E+04  0.10429165041E+04  0.12699999809E+01 0. -1.
       -4    1    3    3    0  502  0.25219299312E+03  0.14296835048E+03  0.21577281504E+04  0.21771158993E+04  0.12699999809E+01 0.  1.
</event>
<event>
 5   0  0.2672155E-06  0.3031611E+04  0.7818609E-02  0.8234761E-01
       -1   -1    0    0    0  501  0.00000000000E+00  0.00000000000E+00  0.15970485277E+04  0.15970485277E+04  0.50400001928E-02 0.  1.
        1   -1    0    0  501    0  0.00000000000E+00  0.00000000000E+00 -0.14386950009E+04  0.14386950009E+04  0.50400001928E-02 0. -1.
    10030    2    1    2    0    0  0.00000000000E+00  0.00000000000E+00  0.15835352683E+03  0.30357435286E+04  0.30316106168E+04 0.  0.
        5    1    3    3  502    0  0.15184276409E+03 -0.14141049834E+03  0.15827531406E+04  0.15963028372E+04  0.46999998093E+01 0.  1.
       -5    1    3    3    0  502 -0.15184276409E+03  0.14141049834E+03 -0.14243996138E+04  0.14394406913E+04  0.46999998093E+01 0. -1.
</event>
<event>
 5   0  0.2552990E-06  0.2990544E+04  0.7818609E-02  0.8246436E-01
        1   -1    0    0  501    0  0.00000000000E+00  0.00000000000E+00  0.22628594817E+04  0.22628594817E+04  0.50400001928E-02 0.  1.
       -1   -1    0    0    0  501  0.00000000000E+00  0.00000000000E+00 -0.98805882098E+03  0.98805882099E+03  0.50400001928E-02 0. -1.
    10030    2    1    2    0    0  0.00000000000E+00  0.00000000000E+00  0.12748006607E+04  0.32509183027E+04  0.29905439449E+04 0.  0.
        3    1    3    3  502    0 -0.48602102192E+03 -0.13439295276E+04  0.11155551945E+04  0.18129606755E+04  0.10100000352E+00 0.  1.
       -3    1    3    3    0  502  0.48602102192E+03  0.13439295276E+04  0.15924546620E+03  0.14379576272E+04  0.10100000352E+00 0. -1.
</event>
<event>
 5   0  0.2298500E-06  0.2861165E+04  0.7818609E-02  0.8284527E-01
       -3   -1    0    0    0  501  0.00000000000E+00  0.00000000000E+00  0.14075919870E+04  0.14075919906E+04  0.10100000352E+00 0. -1.
        3   -1    0    0  501    0  0.00000000000E+00  0.00000000000E+00 -0.14539489665E+04  0.14539489700E+04  0.10100000352E+00 0.  1.
    10030    2    1    2    0    0  0.00000000000E+00  0.00000000000E+00 -0.46356979505E+02  0.28615409607E+04  0.28611654444E+04 0.  0.
        5    1    3    3  502    0  0.11322535392E+03  0.24816876869E+03 -0.14276907967E+04  0.14535235875E+04  0.46999998093E+01 0.  1.
       -5    1    3    3    0  502 -0.11322535392E+03 -0.24816876869E+03  0.13813338172E+04  0.14080173731E+04  0.46999998093E+01 0. -1.
</event>
<event>
 5   0  0.2552990E-06  0.3080061E+04  0.7818609E-02  0.8221231E-01
       -1   -1    0    0    0  501  0.00000000000E+00  0.00000000000E+00  0.13138032526E+04  0.13138032526E+04  0.50400001928E-02 0.  1.
        1   -1    0    0  501    0  0.00000000000E+00  0.00000000000E+00 -0.18052128254E+04  0.18052128254E+04  0.50400001928E-02 0. -1.
    10030    2    1    2    0    0  0.00000000000E+00  0.00000000000E+00 -0.49140957287E+03  0.31190160780E+04  0.30800613511E+04 0.  0.
        3    1    3    3  502    0  0.11041456258E+04  0.93859788117E+03  0.28203018442E+03  0.14763619410E+04  0.10100000352E+00 0. -1.
       -3    1    3    3    0  502 -0.11041456258E+04 -0.93859788117E+03 -0.77343975729E+03  0.16426541371E+04  0.10100000352E+00 0.  1.
</event>
<event>
 5   0  0.7217255E-06  0.2954572E+04  0.7818609E-02  0.8256824E-01
        2   -1    0    0  501    0  0.00000000000E+00  0.00000000000E+00  0.27603918403E+04  0.27603918403E+04  0.25500000920E-02 0. -1.
       -2   -1    0    0    0  501  0.00000000000E+00  0.00000000000E+00 -0.79060270674E+03  0.79060270675E+03  0.25500000920E-02 0.  1.
    10030    2    1    2    0    0  0.00000000000E+00  0.00000000000E+00  0.19697891336E+04  0.35509945471E+04  0.29545715498E+04 0.  0.
        1    1    3    3  502    0 -0.14059201594E+04 -0.15780895058E+03  0.47377268146E+03  0.14919704130E+04  0.50400001928E-02 0.  1.
       -1    1    3    3    0  502  0.14059201594E+04  0.15780895058E+03  0.14960164521E+04  0.20590241341E+04  0.50400001928E-02 0. -1.
</event>
<event>
 5   0  0.2422083E-06  0.2233227E+04  0.7818609E-02  0.8504724E-01
       -1   -1    0    0    0  501  0.00000000000E+00  0.00000000000E+00  0.12004177758E+04  0.12004177758E+04  0.50400001928E-02 0.  1.
        1   -1    0    0  501    0  0.00000000000E+00  0.00000000000E+00 -0.10386597726E+04  0.10386597726E+04  0.50400001928E-02 0. -1.
    10030    2    1    2    0    0  0.00000000000E+00  0.00000000000E+00  0.16175800318E+03  0.22390775484E+04  0.22332269513E+04 0.  0.
        2    1    3    3  502    0  0.83420930661E+02 -0.63983475708E+03 -0.83281413654E+03  0.10535307086E+04  0.25500000920E-02 0. -1.
       -2    1    3    3    0  502 -0.83420930661E+02  0.63983475708E+03  0.99457213972E+03  0.11855468397E+04  0.25500000920E-02 0.  1.
</event>
<event>
 5   0  0.2552990E-06  0.2996196E+04  0.7818609E-02  0.8244818E-01
        1   -1    0    0  501    0  0.00000000000E+00  0.00000000000E+00  0.16938039295E+04  0.16938039295E+04  0.50400001928E-02 0. -1.
       -1   -1    0    0    0  501  0.00000000000E+00  0.00000000000E+00 -0.13250044883E+04  0.13250044883E+04  0.50400001928E-02 0.  1.
    10030    2    1    2    0    0  0.00000000000E+00  0.00000000000E+00  0.36879944118E+03  0.30188084177E+04  0.29961961276E+04 0.  0.
        3    1    3    3  502    0  0.14622781429E+04 -0.55830519703E+02 -0.13883822898E+03  0.14699151262E+04  0.10100000352E+00 0.  1.
       -3    1    3    3    0  502 -0.14622781429E+04  0.55830519703E+02  0.50763767016E+03  0.15488932915E+04  0.10100000352E+00 0. -1.
</event>
<event>
 5   0  0.2422083E-06  0.2974743E+04  0.7818609E-02  0.8250980E-01
       -1   -1    0    0    0  501  0.00000000000E+00  0.00000000000E+00  0.20308410074E+04  0.20308410074E+04  0.50400001928E-02 0. -1.
        1   -1    0    0  501    0  0.00000000000E+00  0.00000000000E+00 -0.10893388226E+04  0.10893388227E+04  0.50400001928E-02 0.  1.
    10030    2    1    2    0    0  0.00000000000E+00  0.00000000000E+00  0.94150218476E+03  0.31201798301E+04  0.29747429818E+04 0.  0.
        2    1    3    3  502    0  0.47339031961E+02 -0.15037180920E+03 -0.10805510547E+04  0.10919904976E+04  0.25500000920E-02 0.  1.
       -2    1    3    3    0  502 -0.47339031961E+02  0.15037180920E+03  0.20220532395E+04  0.20281893325E+04  0.25500000920E-02 0. -1.
</event>
<event>
 5   0  0.2552990E-06  0.2997218E+04  0.7818609E-02  0.8244526E-01
       -1   -1    0    0    0  501  0.00000000000E+00  0.00000000000E+00  0.20507596218E+04  0.20507596218E+04  0.50400001928E-02 0.  1.
        1   -1    0    0  501    0  0.00000000000E+00  0.00000000000E+00 -0.10951205751E+04  0.10951205751E+04  0.50400001928E-02 0. -1.
    10030    2    1    2    0    0  0.00000000000E+00  0.00000000000E+00  0.95563904671E+03  0.31458801970E+04  0.29972180812E+04 0.  0.
        3    1    3    3  502    0 -0.81846541225E+03 -0.95468384241E+03  0.13334348885E+04  0.18328544629E+04  0.10100000352E+00 0.  1.
       -3    1    3    3    0  502  0.81846541225E+03  0.95468384241E+03 -0.37779584181E+03  0.13130257341E+04  0.10100000352E+00 0. -1.
</event>
<event>
 5   0  0.6780150E-06  0.2935178E+04  0.7818609E-02  0.8262487E-01
       -2   -1    0    0    0  501  0.00000000000E+00  0.00000000000E+00  0.11068754066E+04  0.11068754066E+04  0.25500000920E-02 0. -1.
        2   -1    0    0  501    0  0.00000000000E+00  0.00000000000E+00 -0.19458531396E+04  0.19458531396E+04  0.25500000920E-02 0.  1.
    10030    2    1    2    0    0  0.00000000000E+00  0.00000000000E+00 -0.83897773301E+03  0.30527285463E+04  0.29351776676E+04 0.  0.
        5    1    3    3  502    0  0.21103865769E+03 -0.17241323871E+02  0.10908972933E+04  0.11112666524E+04  0.46999998093E+01 0. -1.
       -5    1    3    3    0  502 -0.21103865769E+03  0.17241323871E+02 -0.19298750263E+04  0.19414618939E+04  0.46999998093E+01 0.  1.
</event>
<event>
 5   0  0.7217255E-06  0.3004709E+04  0.7818609E-02  0.8242388E-01
        2   -1    0    0  501    0  0.00000000000E+00  0.00000000000E+00  0.15710556689E+04  0.15710556689E+04  0.25500000920E-02 0.  1.
       -2   -1    0    0    0  501  0.00000000000E+00  0.00000000000E+00 -0.14366572334E+04  0.14366572334E+04  0.25500000920E-02 0. -1.
    10030    2    1    2    0    0  0.00000000000E+00  0.00000000000E+00  0.13439843550E+03  0.30077129023E+04  0.30047086320E+04 0.  0.
        1    1    3    3  502    0  0.32590944151E+03 -0.11879473301E+04  0.92807810384E+03  0.15423244762E+04  0.50400001928E-02 0.  1.
       -1    1    3    3    0  502 -0.32590944151E+03  0.11879473301E+04 -0.79367966833E+03  0.14653884260E+04  0.50400001928E-02 0. -1.
</event>
<event>
 5   0  0.2628425E-06  0.3004215E+04  0.7818609E-02  0.8242528E-01
        1   -1    0    0  501    0  0.00000000000E+00  0.00000000000E+00  0.19118915760E+04  0.19118915760E+04  0.50400001928E-02 0.  1.
       -1   -1    0    0    0  501  0.00000000000E+00  0.00000000000E+00 -0.11801539146E+04  0.11801539146E+04  0.50400001928E-02 0. -1.
    10030    2    1    2    0    0  0.00000000000E+00  0.00000000000E+00  0.73173766144E+03  0.30920454906E+04  0.30042145913E+04 0.  0.
        1    1    3    3  502    0 -0.19157398216E+03  0.14530692805E+04  0.70444739929E+03  0.16261479216E+04  0.50400001928E-02 0.  1.
       -1    1    3    3    0  502  0.19157398216E+03 -0.14530692805E+04  0.27290262150E+02  0.14658975690E+04  0.50400001928E-02 0. -1.
</event>
<event>
 5   0  0.6792811E-06  0.3044849E+04  0.7818609E-02  0.8231039E-01
        2   -1    0    0  501    0  0.00000000000E+00  0.00000000000E+00  0.16907871788E+04  0.16907871788E+04  0.25500000920E-02 0.  1.
       -2   -1    0    0    0  501  0.00000000000E+00  0.00000000000E+00 -0.13708272320E+04  0.13708272320E+04  0.25500000920E-02 0. -1.
    10030    2    1    2    0    0  0.00000000000E+00  0.00000000000E+00  0.31995994677E+03  0.30616144108E+04  0.30448494926E+04 0.  0.
        2    1    3    3  502    0 -0.63327092324E+03  0.78815033383E+03  0.13044755416E+04  0.16504149325E+04  0.25500000920E-02 0.  1.
       -2    1    3    3    0  502  0.63327092324E+03 -0.78815033383E+03 -0.98451559481E+03  0.14111994782E+04  0.25500000920E-02 0. -1.
</event>
<event>
 5   0  0.6780150E-06  0.2937096E+04  0.7818609E-02  0.8261925E-01
       -2   -1    0    0    0  501  0.00000000000E+00  0.00000000000E+00  0.13881851135E+04  0.13881851135E+04  0.25500000920E-02 0.  1.
        2   -1    0    0  501    0  0.00000000000E+00  0.00000000000E+00 -0.15535627358E+04  0.15535627358E+04  0.25500000920E-02 0. -1.
    10030    2    1    2    0    0  0.00000000000E+00  0.00000000000E+00 -0.16537762234E+03  0.29417478493E+04  0.29370956149E+04 0.  0.
        5    1    3    3  502    0 -0.34556038568E+03  0.12984657382E+04 -0.67623638779E+03  0.15042416679E+04  0.46999998093E+01 0.  1.
       -5    1    3    3    0  502  0.34556038568E+03 -0.12984657382E+04  0.51085876545E+03  0.14375061814E+04  0.46999998093E+01 0. -1.
</event>
<event>
 5   0  0.2422083E-06  0.2994488E+04  0.7818609E-02  0.8245307E-01
        1   -1    0    0  501    0  0.00000000000E+00  0.00000000000E+00  0.13468330630E+04  0.13468330630E+04  0.50400001928E-02 0.  1.
       -1   -1    0    0    0  501  0.00000000000E+00  0.00000000000E+00 -0.16644528161E+04  0.16644528161E+04  0.50400001928E-02 0. -1.
    10030    2    1    2    0    0  0.00000000000E+00  0.00000000000E+00 -0.31761975318E+03  0.30112858791E+04  0.29944883266E+04 0.  0.
        2    1    3    3  502    0 -0.94773278217E+03 -0.12036005445E+03 -0.13181237211E+04  0.16279232517E+04  0.25500000920E-02 0. -1.
       -2    1    3    3    0  502  0.94773278217E+03  0.12036005445E+03  0.10005039679E+04  0.13833626274E+04  0.25500000920E-02 0.  1.
</event>
<event>
 5   0  0.6792811E-06  0.2971865E+04  0.7818609E-02  0.8251811E-01
        2   -1    0    0  501    0  0.00000000000E+00  0.00000000000E+00  0.23535942038E+04  0.23535942038E+04  0.25500000920E-02 0.  1.
       -2   -1    0    0    0  501  0.00000000000E+00  0.00000000000E+00 -0.93813753682E+03  0.93813753683E+03  0.25500000920E-02 0. -1.
    10030    2    1    2    0    0  0.00000000000E+00  0.00000000000E+00  0.14154566670E+04  0.32917317406E+04  0.29718647809E+04 0.  0.
        2    1    3    3  502    0  0.14225931420E+04 -0.92765295244E+02  0.11719019210E+04  0.18454622077E+04  0.25500000920E-02 0.  1.
       -2    1    3    3    0  502 -0.14225931420E+04  0.92765295244E+02  0.24355474596E+03  0.14462695329E+04  0.25500000920E-02 0. -1.
</event>
<event>
 5   0  0.7201538E-06  0.3001445E+04  0.7818609E-02  0.8243318E-01
        2   -1    0    0  501    0  0.00000000000E+00  0.00000000000E+00  0.17342438770E+04  0.17342438770E+04  0.25500000920E-02 0. -1.
       -2   -1    0    0    0  501  0.00000000000E+00  0.00000000000E+00 -0.12986457232E+04  0.12986457232E+04  0.25500000920E-02 0.  1.
    10030    2    1    2    0    0  0.00000000000E+00  0.00000000000E+00  0.43559815373E+03  0.30328896002E+04  0.30014452478E+04 0.  0.
        3    1    3    3  502    0  0.52251674923E+02  0.99193287547E+03 -0.91893402455E+03  0.13531817390E+04  0.10100000352E+00 0.  1.
       -3    1    3    3    0  502 -0.52251674923E+02 -0.99193287547E+03  0.13545321783E+04  0.16797078613E+04  0.10100000352E+00 0. -1.
</event>
<event>
 5   0  0.2298500E-06  0.2996492E+04  0.7818609E-02  0.8244733E-01
       -3   -1    0    0    0  501  0.00000000000E+00  0.00000000000E+00  0.18456241478E+04  0.18456241505E+04  0.10100000352E+00 0. -1.
        3   -1    0    0  501    0  0.00000000000E+00  0.00000000000E+00 -0.12162507074E+04  0.12162507116E+04  0.10100000352E+00 0.  1.
    10030    2    1    2    0    0  0.00000000000E+00  0.00000000000E+00  0.62937344037E+03  0.30618748621E+04  0.29964924068E+04 0.  0.
        1    1    3    3  502    0  0.56225779547E+03  0.89088556355E+03 -0.77388974588E+03  0.13071787386E+04  0.50400001928E-02 0.  1.
       -1    1    3    3    0  502 -0.56225779547E+03 -0.89088556355E+03  0.14032631863E+04  0.17546961235E+04  0.50400001928E-02 0. -1.
</event>
<event>
 5   0  0.2672155E-06  0.3003795E+04  0.7818609E-02  0.8242648E-01
       -1   -1    0    0    0  501  0.00000000000E+00  0.00000000000E+00  0.22569953147E+04  0.22569953147E+04  0.50400001928E-02 0.  1.
        1   -1    0    0  501    0  0.00000000000E+00  0.00000000000E+00 -0.99942413736E+03  0.99942413737E+03  0.50400001928E-02 0. -1.
    10030    2    1    2    0    0  0.00000000000E+00  0.00000000000E+00  0.12575711773E+04  0.32564194521E+04  0.30037946637E+04 0.  0.
        5    1    3    3  502    0  0.36294296750E+03  0.61385148267E+03 -0.80417085898E+03  0.10748274749E+04  0.46999998093E+01 0. -1.
       -5    1    3    3    0  502 -0.36294296750E+03 -0.61385148267E+03  0.20617420363E+04  0.21815919771E+04  0.46999998093E+01 0.  1.
</event>
<event>
 5   0  0.7217255E-06  0.3003511E+04  0.7818609E-02  0.8242729E-01
        2   -1    0    0  501    0  0.00000000000E+00  0.00000000000E+00  0.18167004065E+04  0.18167004065E+04  0.25500000920E-02 0. -1.
       -2   -1    0    0    0  501  0.00000000000E+00  0.00000000000E+00 -0.12414099342E+04  0.12414099342E+04  0.25500000920E-02 0.  1.
    10030    2    1    2    0    0  0.00000000000E+00  0.00000000000E+00  0.57529047233E+03  0.30581103407E+04  0.30035112332E+04 0.  0.
        1    1    3    3  502    0  0.14831496002E+04 -0.16568572495E+03  0.45827880535E+03  0.15611546879E+04  0.50400001928E-02 0. -1.
       -1    1    3    3    0  502 -0.14831496002E+04  0.16568572495E+03  0.11701166698E+03  0.14969556528E+04  0.50400001928E-02 0.  1.
</event>
<event>
 5   0  0.2504260E-06  0.3006451E+04  0.7818609E-02  0.8241891E-01
        1   -1    0    0  501    0  0.00000000000E+00  0.00000000000E+00  0.12286208100E+04  0.12286208100E+04  0.50400001928E-02 0.  1.
       -1   -1    0    0    0  501  0.00000000000E+00  0.00000000000E+00 -0.18392065438E+04  0.18392065438E+04  0.50400001928E-02 0. -1.
    10030    2    1    2    0    0  0.00000000000E+00  0.00000000000E+00 -0.61058573385E+03  0.30678273538E+04  0.30064513524E+04 0.  0.
        4    1    3    3  502    0 -0.10095781260E+04  0.10395819432E+04 -0.71308514544E+03  0.16150760498E+04  0.12699999809E+01 0.  1.
       -4    1    3    3    0  502  0.10095781260E+04 -0.10395819432E+04  0.10249941159E+03  0.14527513040E+04  0.12699999809E+01 0. -1.
</event>
<event>
 5   0  0.2422083E-06  0.2564211E+04  0.7818609E-02  0.8380460E-01
       -1   -1    0    0    0  501  0.00000000000E+00  0.00000000000E+00  0.10838064653E+04  0.10838064653E+04  0.50400001928E-02 0.  1.
        1   -1    0    0  501    0  0.00000000000E+00  0.00000000000E+00 -0.15166867869E+04  0.15166867869E+04  0.50400001928E-02 0. -1.
    10030    2    1    2    0    0  0.00000000000E+00  0.00000000000E+00 -0.43288032160E+03  0.26004932522E+04  0.25642113373E+04 0.  0.
        2    1    3    3  502    0 -0.88426491897E+03 -0.90352385876E+03 -0.43280158623E+03  0.13362623333E+04  0.25500000920E-02 0. -1.
       -2    1    3    3    0  502  0.88426491897E+03  0.90352385876E+03 -0.78735367464E-01  0.12642309190E+04  0.25500000920E-02 0.  1.
</event>
<event>
 5   0  0.7193153E-06  0.2160013E+04  0.7818609E-02  0.8535258E-01
       -2   -1    0    0    0  501  0.00000000000E+00  0.00000000000E+00  0.13154999367E+04  0.13154999367E+04  0.25500000920E-02 0. -1.
        2   -1    0    0  501    0  0.00000000000E+00  0.00000000000E+00 -0.88666974553E+03  0.88666974553E+03  0.25500000920E-02 0.  1.
    10030    2    1    2    0    0  0.00000000000E+00  0.00000000000E+00  0.42883019116E+03  0.22021696822E+04  0.21600129575E+04 0.  0.
        4    1    3    3  502    0  0.52000569179E+03  0.93634739517E+03  0.72926068904E+02  0.10735325744E+04  0.12699999809E+01 0. -1.
       -4    1    3    3    0  502 -0.52000569179E+03 -0.93634739517E+03  0.35590412226E+03  0.11286371078E+04  0.12699999809E+01 0.  1.
</event>
<event>
 5   0  0.6792811E-06  0.2979043E+04  0.7818609E-02  0.8249741E-01
       -2   -1    0    0    0  501  0.00000000000E+00  0.00000000000E+00  0.14446884566E+04  0.14446884566E+04  0.25500000920E-02 0. -1.
        2   -1    0    0  501    0  0.00000000000E+00  0.00000000000E+00 -0.15357460547E+04  0.15357460547E+04  0.25500000920E-02 0.  1.
    10030    2    1    2    0    0  0.00000000000E+00  0.00000000000E+00 -0.91057598181E+02  0.29804345113E+04  0.29790432004E+04 0.  0.
        2    1    3    3  502    0  0.44911683260E+03 -0.63546159956E+03 -0.13162232432E+04  0.15290392407E+04  0.25500000920E-02 0.  1.
       -2    1    3    3    0  502 -0.44911683260E+03  0.63546159956E+03  0.12251656450E+04  0.14513952706E+04  0.25500000920E-02 0. -1.
</event>
<event>
 5   0  0.6780150E-06  0.3077629E+04  0.7818609E-02  0.8221904E-01
        2   -1    0    0  501    0  0.00000000000E+00  0.00000000000E+00  0.12822814858E+04  0.12822814858E+04  0.25500000920E-02 0. -1.
       -2   -1    0    0    0  501  0.00000000000E+00  0.00000000000E+00 -0.18466691181E+04  0.18466691181E+04  0.25500000920E-02 0.  1.
    10030    2    1    2    0    0  0.00000000000E+00  0.00000000000E+00 -0.56438763232E+03  0.31289506039E+04  0.30776287109E+04 0.  0.
        5    1    3    3  502    0 -0.48374822008E+03 -0.76341266706E+03 -0.15484006750E+04  0.17928686458E+04  0.46999998093E+01 0.  1.
       -5    1    3    3    0  502  0.48374822008E+03  0.76341266706E+03  0.98401304266E+03  0.13360819581E+04  0.46999998093E+01 0. -1.
</event>
<event>
 5   0  0.2422083E-06  0.3020453E+04  0.7818609E-02  0.8237915E-01
       -1   -1    0    0    0  501  0.00000000000E+00  0.00000000000E+00  0.12420628446E+04  0.12420628446E+04  0.50400001928E-02 0.  1.
        1   -1    0    0  501    0  0.00000000000E+00  0.00000000000E+00 -0.18362867511E+04  0.18362867511E+04  0.50400001928E-02 0. -1.
    10030    2    1    2    0    0  0.00000000000E+00  0.00000000000E+00 -0.59422390647E+03  0.30783495957E+04  0.30204526453E+04 0.  0.
        2    1    3    3  502    0  0.23199582615E+03  0.13926665423E+04  0.24930045870E+03  0.14336990200E+04  0.25500000920E-02 0.  1.
       -2    1    3    3    0  502 -0.23199582615E+03 -0.13926665423E+04 -0.84352436517E+03  0.16446505757E+04  0.25500000920E-02 0. -1.
</event>
<event>
 5   0  0.7193153E-06  0.2964023E+04  0.7818609E-02  0.8254080E-01
       -2   -1    0    0    0  501  0.00000000000E+00  0.00000000000E+00  0.14845915916E+04  0.14845915916E+04  0.25500000920E-02 0. -1.
        2   -1    0    0  501    0  0.00000000000E+00  0.00000000000E+00 -0.14794358456E+04  0.14794358456E+04  0.25500000920E-02 0.  1.
    10030    2    1    2    0    0  0.00000000000E+00  0.00000000000E+00  0.51557460384E+01  0.29640274372E+04  0.29640229532E+04 0.  0.
        4    1    3    3  502    0 -0.10932239225E+04  0.84934575646E+03 -0.52641219475E+03  0.14810935725E+04  0.12699999809E+01 0.  1.
       -4    1    3    3    0  502  0.10932239225E+04 -0.84934575646E+03  0.53156794079E+03  0.14829338648E+04  0.12699999809E+01 0. -1.
</event>
<event>
 5   0  0.7201538E-06  0.3008831E+04  0.7818609E-02  0.8241214E-01
       -2   -1    0    0    0  501  0.00000000000E+00  0.00000000000E+00  0.16924582866E+04  0.16924582866E+04  0.25500000920E-02 0.  1.
        2   -1    0    0  501    0  0.00000000000E+00  0.00000000000E+00 -0.13372650874E+04  0.13372650874E+04  0.25500000920E-02 0. -1.
    10030    2    1    2    0    0  0.00000000000E+00  0.00000000000E+00  0.35519319925E+03  0.30297233740E+04  0.30088305891E+04 0.  0.
        3    1    3    3  502    0  0.83584731410E+03  0.94115540188E+03  0.10072420183E+04  0.16121261478E+04  0.10100000352E+00 0.  1.
       -3    1    3    3    0  502 -0.83584731410E+03 -0.94115540188E+03 -0.65204881904E+03  0.14175972261E+04  0.10100000352E+00 0. -1.
</event>
<event>
 5   0  0.2552990E-06  0.3000383E+04  0.7818609E-02  0.8243621E-01
        1   -1    0    0  501    0  0.00000000000E+00  0.00000000000E+00  0.15215629271E+04  0.15215629271E+04  0.50400001928E-02 0. -1.
       -1   -1    0    0    0  501  0.00000000000E+00  0.00000000000E+00 -0.14791206250E+04  0.14791206250E+04  0.50400001928E-02 0.  1.
    10030    2    1    2    0    0  0.00000000000E+00  0.00000000000E+00  0.42442302110E+02  0.30006835521E+04  0.30003833807E+04 0.  0.
        3    1    3    3  502    0 -0.10466173879E+04 -0.42927918575E+03  0.10066554688E+04  0.15142799673E+04  0.10100000352E+00 0.  1.
       -3    1    3    3    0  502  0.10466173879E+04  0.42927918575E+03 -0.96421316674E+03  0.14864035849E+04  0.10100000352E+00 0. -1.
</event>
<event>
 5   0  0.7201538E-06  0.3014640E+04  0.7818609E-02  0.8239563E-01
       -2   -1    0    0    0  501  0.00000000000E+00  0.00000000000E+00  0.13397103513E+04  0.13397103513E+04  0.25500000920E-02 0. -1.
        2   -1    0    0  501    0  0.00000000000E+00  0.00000000000E+00 -0.16958994891E+04  0.16958994891E+04  0.25500000920E-02 0.  1.
    10030    2    1    2    0    0  0.00000000000E+00  0.00000000000E+00 -0.35618913780E+03  0.30356098404E+04  0.30146403436E+04 0.  0.
        3    1    3    3  502    0  0.20514999259E+03 -0.14672168552E+04  0.10169111063E+03  0.14849757277E+04  0.10100000352E+00 0. -1.
       -3    1    3    3    0  502 -0.20514999259E+03  0.14672168552E+04 -0.45788024843E+03  0.15506341128E+04  0.10100000352E+00 0.  1.
</event>
<event>
 5   0  0.2422083E-06  0.2943932E+04  0.7818609E-02  0.8259925E-01
       -1   -1    0    0    0  501  0.00000000000E+00  0.00000000000E+00  0.12324754515E+04  0.12324754516E+04  0.50400001928E-02 0. -1.
        1   -1    0    0  501    0  0.00000000000E+00  0.00000000000E+00 -0.17579930677E+04  0.17579930677E+04  0.50400001928E-02 0.  1.
    10030    2    1    2    0    0  0.00000000000E+00  0.00000000000E+00 -0.52551761614E+03  0.29904685193E+04  0.29439315888E+04 0.  0.
        2    1    3    3  502    0  0.96030969586E+03  0.53402375102E+03  0.73216627075E+03  0.13203952161E+04  0.25500000920E-02 0. -1.
       -2    1    3    3    0  502 -0.96030969586E+03 -0.53402375102E+03 -0.12576838869E+04  0.16700733032E+04  0.25500000920E-02 0.  1.
</event>
<event>
 5   0  0.2628425E-06  0.2949968E+04  0.7818609E-02  0.8258164E-01
        1   -1    0    0  501    0  0.00000000000E+00  0.00000000000E+00  0.20839777388E+04  0.20839777389E+04  0.50400001928E-02 0. -1.
       -1   -1    0    0    0  501  0.00000000000E+00  0.00000000000E+00 -0.10439546139E+04  0.10439546139E+04  0.50400001928E-02 0.  1.
    10030    2    1    2    0    0  0.00000000000E+00  0.00000000000E+00  0.10400231250E+04  0.31279323527E+04  0.29499682546E+04 0.  0.
        1    1    3    3  502    0 -0.10836807295E+04 -0.44215837837E+03 -0.43175281498E+03  0.12475088971E+04  0.50400001928E-02 0.  1.
       -1    1    3    3    0  502  0.10836807295E+04  0.44215837837E+03  0.14717759399E+04  0.18804234556E+04  0.50400001928E-02 0. -1.
</event>
<event>
 5   0  0.7193153E-06  0.3250482E+04  0.7818609E-02  0.8175611E-01
       -2   -1    0    0    0  501  0.00000000000E+00  0.00000000000E+00  0.79707713420E+03  0.79707713421E+03  0.25500000920E-02 0. -1.
        2   -1    0    0  501    0  0.00000000000E+00  0.00000000000E+00 -0.33138677493E+04  0.33138677493E+04  0.25500000920E-02 0.  1.
    10030    2    1    2    0    0  0.00000000000E+00  0.00000000000E+00 -0.25167906151E+04  0.41109448835E+04  0.32504819389E+04 0.  0.
        4    1    3    3  502    0 -0.12012459773E+04  0.61109036890E+03 -0.24071213441E+04  0.27587421255E+04  0.12699999809E+01 0.  1.
       -4    1    3    3    0  502  0.12012459773E+04 -0.61109036890E+03 -0.10966927102E+03  0.13522027580E+04  0.12699999809E+01 0. -1.
</event>
<event>
 5   0  0.7193153E-06  0.2984575E+04  0.7818609E-02  0.8248149E-01
        2   -1    0    0  501    0  0.00000000000E+00  0.00000000000E+00  0.23297029568E+04  0.23297029568E+04  0.25500000920E-02 0.  1.
       -2   -1    0    0    0  501  0.00000000000E+00  0.00000000000E+00 -0.95588212390E+03  0.95588212391E+03  0.25500000920E-02 0. -1.
    10030    2    1    2    0    0  0.00000000000E+00  0.00000000000E+00  0.13738208329E+04  0.32855850807E+04  0.29845746165E+04 0.  0.
        4    1    3    3  502    0  0.79126713275E+03  0.44584229512E+03  0.19904091036E+04  0.21878320411E+04  0.12699999809E+01 0.  1.
       -4    1    3    3    0  502 -0.79126713275E+03 -0.44584229512E+03 -0.61658827071E+03  0.10977530396E+04  0.12699999809E+01 0. -1.
</event>
<event>
 5   0  0.7193153E-06  0.3020523E+04  0.7818609E-02  0.8237895E-01
       -2   -1    0    0    0  501  0.00000000000E+00  0.00000000000E+00  0.12497216475E+04  0.12497216475E+04  0.25500000920E-02 0.  1.
        2   -1    0    0  501    0  0.00000000000E+00  0.00000000000E+00 -0.18251181439E+04  0.18251181439E+04  0.25500000920E-02 0. -1.
    10030    2    1    2    0    0  0.00000000000E+00  0.00000000000E+00 -0.57539649639E+03  0.30748397914E+04  0.30205229042E+04 0.  0.
        4    1    3    3  502    0 -0.80881144345E+02  0.11575147989E+04  0.69638389957E+03  0.13532680509E+04  0.12699999809E+01 0.  1.
       -4    1    3    3    0  502  0.80881144345E+02 -0.11575147989E+04 -0.12717803960E+04  0.17215717405E+04  0.12699999809E+01 0. -1.
</event>
<event>
 5   0  0.2628425E-06  0.3015099E+04  0.7818609E-02  0.8239432E-01
        1   -1    0    0  501    0  0.00000000000E+00  0.00000000000E+00  0.12500489522E+04  0.12500489523E+04  0.50400001928E-02 0. -1.
       -1   -1    0    0    0  501  0.00000000000E+00  0.00000000000E+00 -0.18180927521E+04  0.18180927521E+04  0.50400001928E-02 0.  1.
    10030    2    1    2    0    0  0.00000000000E+00  0.00000000000E+00 -0.56804379986E+03  0.30681417044E+04  0.30150986318E+04 0.  0.
        1    1    3    3  502    0  0.12143782014E+04  0.12327531098E+02  0.62491011423E+03  0.13657887958E+04  0.50400001928E-02 0. -1.
       -1    1    3    3    0  502 -0.12143782014E+04 -0.12327531098E+02 -0.11929539141E+04  0.17023529085E+04  0.50400001928E-02 0.  1.
</event>
<event>
 5   0  0.7201538E-06  0.2616918E+04  0.7818609E-02  0.8362477E-01
        2   -1    0    0  501    0  0.00000000000E+00  0.00000000000E+00  0.13082589619E+04  0.13082589619E+04  0.25500000920E-02 0. -1.
       -2   -1    0    0    0  501  0.00000000000E+00  0.00000000000E+00 -0.13086586953E+04  0.13086586953E+04  0.25500000920E-02 0.  1.
    10030    2    1    2    0    0  0.00000000000E+00  0.00000000000E+00 -0.39973343841E+00  0.26169176572E+04  0.26169176267E+04 0.  0.
        3    1    3    3  502    0  0.55548434479E+02  0.84530103258E+03  0.99701877277E+03  0.13083065037E+04  0.10100000352E+00 0. -1.
       -3    1    3    3    0  502 -0.55548434479E+02 -0.84530103258E+03 -0.99741850621E+03  0.13086111535E+04  0.10100000352E+00 0.  1.
</event>
<event>
 5   0  0.7217255E-06  0.2972126E+04  0.7818609E-02  0.8251735E-01
       -2   -1    0    0    0  501  0.00000000000E+00  0.00000000000E+00  0.12902750046E+04  0.12902750046E+04  0.25500000920E-02 0.  1.
        2   -1    0    0  501    0  0.00000000000E+00  0.00000000000E+00 -0.17115603790E+04  0.17115603790E+04  0.25500000920E-02 0. -1.
    10030    2    1    2    0    0  0.00000000000E+00  0.00000000000E+00 -0.42128537430E+03  0.30018353836E+04  0.29721262261E+04 0.  0.
        1    1    3    3  502    0  0.96952429324E+03 -0.76773875609E+03 -0.10428838805E+04  0.16177165824E+04  0.50400001928E-02 0. -1.
       -1    1    3    3    0  502 -0.96952429324E+03  0.76773875609E+03  0.62159850623E+03  0.13841188012E+04  0.50400001928E-02 0.  1.
</event>
<event>
 5   0  0.2422083E-06  0.3017402E+04  0.7818609E-02  0.8238779E-01
        1   -1    0    0  501    0  0.00000000000E+00  0.00000000000E+00  0.12220139282E+04  0.12220139282E+04  0.50400001928E-02 0.  1.
       -1   -1    0    0    0  501  0.00000000000E+00  0.00000000000E+00 -0.18626458607E+04  0.18626458607E+04  0.50400001928E-02 0. -1.
    10030    2    1    2    0    0  0.00000000000E+00  0.00000000000E+00 -0.64063193245E+03  0.30846597889E+04  0.30174023166E+04 0.  0.
        2    1    3    3  502    0 -0.57018925843E+03 -0.23424322906E+03 -0.17280330460E+04  0.18346890442E+04  0.25500000920E-02 0. -1.
       -2    1    3    3    0  502  0.57018925843E+03  0.23424322906E+03  0.10874011136E+04  0.12499707447E+04  0.25500000920E-02 0.  1.
</event>
<event>
 5   0  0.2628425E-06  0.3001589E+04  0.7818609E-02  0.8243277E-01
        1   -1    0    0  501    0  0.00000000000E+00  0.00000000000E+00  0.16045149115E+04  0.16045149115E+04  0.50400001928E-02 0. -1.
       -1   -1    0    0    0  501  0.00000000000E+00  0.00000000000E+00 -0.14037785545E+04  0.14037785546E+04  0.50400001928E-02 0.  1.
    10030    2    1    2    0    0  0.00000000000E+00  0.00000000000E+00  0.20073635691E+03  0.30082934660E+04  0.30015886615E+04 0.  0.
        1    1    3    3  502    0 -0.11437056078E+04  0.96841354836E+03  0.19588478574E+02  0.14987564934E+04  0.50400001928E-02 0.  1.
       -1    1    3    3    0  502  0.11437056078E+04 -0.96841354836E+03  0.18114787833E+03  0.15095369726E+04  0.50400001928E-02 0. -1.
</event>
<event>
 5   0  0.2422083E-06  0.3028493E+04  0.7818609E-02  0.8235641E-01
       -1   -1    0    0    0  501  0.00000000000E+00  0.00000000000E+00  0.15439312302E+04  0.15439312302E+04  0.50400001928E-02 0.  1.
        1   -1    0    0  501    0  0.00000000000E+00  0.00000000000E+00 -0.14851323379E+04  0.14851323379E+04  0.50400001928E-02 0. -1.
    10030    2    1    2    0    0  0.00000000000E+00  0.00000000000E+00  0.58798892304E+02  0.30290635681E+04  0.30284928248E+04 0.  0.
        2    1    3    3  502    0 -0.80173222822E+03 -0.21443663901E+02  0.13140510178E+04  0.15394688934E+04  0.25500000920E-02 0.  1.
       -2    1    3    3    0  502  0.80173222822E+03  0.21443663901E+02 -0.12552521255E+04  0.14895946747E+04  0.25500000920E-02 0. -1.
</event>
<event>
 5   0  0.7201538E-06  0.2862496E+04  0.7818609E-02  0.8284124E-01
       -2   -1    0    0    0  501  0.00000000000E+00  0.00000000000E+00  0.70924829707E+03  0.70924829707E+03  0.25500000920E-02 0. -1.
        2   -1    0    0  501    0  0.00000000000E+00  0.00000000000E+00 -0.28882280683E+04  0.28882280683E+04  0.25500000920E-02 0.  1.
    10030    2    1    2    0    0  0.00000000000E+00  0.00000000000E+00 -0.21789797713E+04  0.35974763654E+04  0.28624960011E+04 0.  0.
        3    1    3    3  502    0  0.10745138099E+04 -0.27485110718E+03 -0.22263892205E+04  0.24873544239E+04  0.10100000352E+00 0.  1.
       -3    1    3    3    0  502 -0.10745138099E+04  0.27485110718E+03  0.47409449242E+02  0.11101219415E+04  0.10100000352E+00 0. -1.
</event>
<event>
 5   0  0.2422083E-06  0.3031569E+04  0.7818609E-02  0.8234773E-01
        1   -1    0    0  501    0  0.00000000000E+00  0.00000000000E+00  0.13779328277E+04  0.13779328277E+04  0.50400001928E-02 0. -1.
       -1   -1    0    0    0  501  0.00000000000E+00  0.00000000000E+00 -0.16674276009E+04  0.16674276009E+04  0.50400001928E-02 0.  1.
    10030    2    1    2    0    0  0.00000000000E+00  0.00000000000E+00 -0.28949477326E+03  0.30453604286E+04  0.30315693818E+04 0.  0.
        2    1    3    3  502    0  0.82029673398E+02  0.72551331368E+02  0.13739537400E+04  0.13783110834E+04  0.25500000920E-02 0. -1.
       -2    1    3    3    0  502 -0.82029673398E+02 -0.72551331368E+02 -0.16634485133E+04  0.16670493452E+04  0.25500000920E-02 0.  1.
</event>
<event>
 5   0  0.6792811E-06  0.2998918E+04  0.7818609E-02  0.8244040E-01
        2   -1    0    0  501    0  0.00000000000E+00  0.00000000000E+00  0.25663975605E+04  0.25663975605E+04  0.25500000920E-02 0.  1.
       -2   -1    0    0    0  501  0.00000000000E+00  0.00000000000E+00 -0.87608282432E+03  0.87608282432E+03  0.25500000920E-02 0. -1.
    10030    2    1    2    0    0  0.00000000000E+00  0.00000000000E+00  0.16903147362E+04  0.34424803848E+04  0.29989176869E+04 0.  0.
        2    1    3    3  502    0  0.29108209903E+03  0.10909783619E+04 -0.28738844343E+03  0.11651414901E+04  0.25500000920E-02 0. -1.
       -2    1    3    3    0  502 -0.29108209903E+03 -0.10909783619E+04  0.19777031796E+04  0.22773388947E+04  0.25500000920E-02 0.  1.
</event>
<event>
 5   0  0.2552990E-06  0.2973071E+04  0.7818609E-02  0.8251463E-01
       -1   -1    0    0    0  501  0.00000000000E+00  0.00000000000E+00  0.19973879130E+04  0.19973879130E+04  0.50400001928E-02 0.  1.
        1   -1    0    0  501    0  0.00000000000E+00  0.00000000000E+00 -0.11063385004E+04  0.11063385004E+04  0.50400001928E-02 0. -1.
    10030    2    1    2    0    0  0.00000000000E+00  0.00000000000E+00  0.89104941257E+03  0.31037264134E+04  0.29730705665E+04 0.  0.
        3    1    3    3  502    0  0.78396445885E+03  0.45524163400E+03 -0.78435847135E+03  0.11987758088E+04  0.10100000352E+00 0. -1.
       -3    1    3    3    0  502 -0.78396445885E+03 -0.45524163400E+03  0.16754078839E+04  0.19049506045E+04  0.10100000352E+00 0.  1.
</event>
<event>
 5   0  0.2628425E-06  0.2964700E+04  0.7818609E-02  0.8253883E-01
        1   -1    0    0  501    0  0.00000000000E+00  0.00000000000E+00  0.17753148293E+04  0.17753148293E+04  0.50400001928E-02 0. -1.
       -1   -1    0    0    0  501  0.00000000000E+00  0.00000000000E+00 -0.12377307399E+04  0.12377307399E+04  0.50400001928E-02 0.  1.
    10030    2    1    2    0    0  0.00000000000E+00  0.00000000000E+00  0.53758408938E+03  0.30130455693E+04  0.29647001449E+04 0.  0.
        1    1    3    3  502    0 -0.12803770935E+04  0.15923652672E+03 -0.47293104668E+03  0.13741854125E+04  0.50400001928E-02 0.  1.
       -1    1    3    3    0  502  0.12803770935E+04 -0.15923652672E+03  0.10105151361E+04  0.16388601567E+04  0.50400001928E-02 0. -1.
</event>
<event>
 5   0  0.7193153E-06  0.2981886E+04  0.7818609E-02  0.8248922E-01
        2   -1    0    0  501    0  0.00000000000E+00  0.00000000000E+00  0.19965110214E+04  0.19965110214E+04  0.25500000920E-02 0. -1.
       -2   -1    0    0    0  501  0.00000000000E+00  0.00000000000E+00 -0.11133979347E+04  0.11133979347E+04  0.25500000920E-02 0.  1.
    10030    2    1    2    0    0  0.00000000000E+00  0.00000000000E+00  0.88311308669E+03  0.31099089561E+04  0.29818861466E+04 0.  0.
        4    1    3    3  502    0  0.12113219723E+04  0.50123776299E+03  0.11822371799E+04  0.17652837103E+04  0.12699999809E+01 0. -1.
       -4    1    3    3    0  502 -0.12113219723E+04 -0.50123776299E+03 -0.29912409317E+03  0.13446252458E+04  0.12699999809E+01 0.  1.
</event>
<event>
 5   0  0.6780150E-06  0.3103292E+04  0.7818609E-02  0.8214835E-01
        2   -1    0    0  501    0  0.00000000000E+00  0.00000000000E+00  0.14375802167E+04  0.14375802167E+04  0.25500000920E-02 0. -1.
       -2   -1    0    0    0  501  0.00000000000E+00  0.00000000000E+00 -0.16747628559E+04  0.16747628559E+04  0.25500000920E-02 0.  1.
    10030    2    1    2    0    0  0.00000000000E+00  0.00000000000E+00 -0.23718263916E+03  0.31123430726E+04  0.31032924124E+04 0.  0.
        5    1    3    3  502    0  0.17399635636E+03 -0.89372105299E+03  0.11414852453E+04  0.14601447557E+04  0.46999998093E+01 0. -1.
       -5    1    3    3    0  502 -0.17399635636E+03  0.89372105299E+03 -0.13786678844E+04  0.16521983168E+04  0.46999998093E+01 0.  1.
</event>
<event>
 5   0  0.2422083E-06  0.2889261E+04  0.7818609E-02  0.8276080E-01
       -1   -1    0    0    0  501  0.00000000000E+00  0.00000000000E+00  0.22855857493E+04  0.22855857493E+04  0.50400001928E-02 0.  1.
        1   -1    0    0  501    0  0.00000000000E+00  0.00000000000E+00 -0.91309521913E+03  0.91309521914E+03  0.50400001928E-02 0. -1.
    10030    2    1    2    0    0  0.00000000000E+00  0.00000000000E+00  0.13724905301E+04  0.31986809684E+04  0.28892610963E+04 0.  0.
        2    1    3    3  502    0  0.83516875692E+03  0.91040328747E+03  0.15151737127E+04  0.19550172321E+04  0.25500000920E-02 0.  1.
       -2    1    3    3    0  502 -0.83516875692E+03 -0.91040328747E+03 -0.14268318254E+03  0.12436637363E+04  0.25500000920E-02 0. -1.
</event>
<event>
 5   0  0.2422083E-06  0.3069489E+04  0.7818609E-02  0.8224161E-01
        1   -1    0    0  501    0  0.00000000000E+00  0.00000000000E+00  0.18124524190E+04  0.18124524190E+04  0.50400001928E-02 0.  1.
       -1   -1    0    0    0  501  0.00000000000E+00  0.00000000000E+00 -0.12995879029E+04  0.12995879029E+04  0.50400001928E-02 0. -1.
    10030    2    1    2    0    0  0.00000000000E+00  0.00000000000E+00  0.51286451609E+03  0.31120403219E+04  0.30694893636E+04 0.  0.
        2    1    3    3  502    0  0.56160233463E+03  0.14227131693E+04  0.12846330724E+03  0.15349308667E+04  0.25500000920E-02 0. -1.
       -2    1    3    3    0  502 -0.56160233463E+03 -0.14227131693E+04  0.38440120884E+03  0.15771094552E+04  0.25500000920E-02 0.  1.
</event>
<event>
 5   0  0.2628425E-06  0.2830017E+04  0.7818609E-02  0.8294010E-01
       -1   -1    0    0    0  501  0.00000000000E+00  0.00000000000E+00  0.85899239471E+03  0.85899239473E+03  0.50400001928E-02 0. -1.
        1   -1    0    0  501    0  0.00000000000E+00  0.00000000000E+00 -0.23309270783E+04  0.23309270783E+04  0.50400001928E-02 0.  1.
    10030    2    1    2    0    0  0.00000000000E+00  0.00000000000E+00 -0.14719346836E+04  0.31899194730E+04  0.28300167016E+04 0.  0.
        1    1    3    3  502    0 -0.12373541708E+04  0.60627710132E+03 -0.37310965214E+03  0.14275251592E+04  0.50400001928E-02 0. -1.
       -1    1    3    3    0  502  0.12373541708E+04 -0.60627710132E+03 -0.10988250314E+04  0.17623943138E+04  0.50400001928E-02 0.  1.
</event>
<event>
 5   0  0.2672155E-06  0.3031617E+04  0.7818609E-02  0.8234760E-01
       -1   -1    0    0    0  501  0.00000000000E+00  0.00000000000E+00  0.14536169401E+04  0.14536169401E+04  0.50400001928E-02 0. -1.
        1   -1    0    0  501    0  0.00000000000E+00  0.00000000000E+00 -0.15806607285E+04  0.15806607285E+04  0.50400001928E-02 0.  1.
    10030    2    1    2    0    0  0.00000000000E+00  0.00000000000E+00 -0.12704378846E+03  0.30342776686E+04  0.30316168699E+04 0.  0.
        5    1    3    3  502    0 -0.31239445716E+03  0.36946089652E+03  0.13742490771E+04  0.14569400354E+04  0.46999998093E+01 0. -1.
       -5    1    3    3    0  502  0.31239445716E+03 -0.36946089652E+03 -0.15012928656E+04  0.15773376332E+04  0.46999998093E+01 0.  1.
</event>
<event>
 5   0  0.2552990E-06  0.2962495E+04  0.7818609E-02  0.8254522E-01
        1   -1    0    0  501    0  0.00000000000E+00  0.00000000000E+00  0.26920619443E+04  0.26920619443E+04  0.50400001928E-02 0. -1.
       -1   -1    0    0    0  501  0.00000000000E+00  0.00000000000E+00 -0.81502378079E+03  0.81502378081E+03  0.50400001928E-02 0.  1.
    10030    2    1    2    0    0  0.00000000000E+00  0.00000000000E+00  0.18770381635E+04  0.35070857251E+04  0.29624952348E+04 0.  0.
        3    1    3    3  502    0 -0.10007973452E+04 -0.52734560640E+03 -0.19351161164E+03  0.11476652250E+04  0.10100000352E+00 0.  1.
       -3    1    3    3    0  502  0.10007973452E+04  0.52734560640E+03  0.20705497751E+04  0.23594205001E+04  0.10100000352E+00 0. -1.
</event>
<event>
 5   0  0.7217255E-06  0.3066109E+04  0.7818609E-02  0.8225101E-01
        2   -1    0    0  501    0  0.00000000000E+00  0.00000000000E+00  0.88083366554E+03  0.88083366554E+03  0.25500000920E-02 0.  1.
       -2   -1    0    0    0  501  0.00000000000E+00  0.00000000000E+00 -0.26682178215E+04  0.26682178215E+04  0.25500000920E-02 0. -1.
    10030    2    1    2    0    0  0.00000000000E+00  0.00000000000E+00 -0.17873841560E+04  0.35490514871E+04  0.30661089897E+04 0.  0.
        1    1    3    3  502    0 -0.46196558683E+03 -0.13254555287E+04 -0.16072399146E+04  0.21338848856E+04  0.50400001928E-02 0. -1.
       -1    1    3    3    0  502  0.46196558683E+03  0.13254555287E+04 -0.18014424138E+03  0.14151666014E+04  0.50400001928E-02 0.  1.
</event>
<event>
 5   0  0.2672155E-06  0.2296383E+04  0.7818609E-02  0.8479349E-01
       -1   -1    0    0    0  501  0.00000000000E+00  0.00000000000E+00  0.79443678701E+03  0.79443678703E+03  0.50400001928E-02 0.  1.
        1   -1    0    0  501    0  0.00000000000E+00  0.00000000000E+00 -0.16594692476E+04  0.16594692476E+04  0.50400001928E-02 0. -1.
    10030    2    1    2    0    0  0.00000000000E+00  0.00000000000E+00 -0.86503246058E+03  0.24539060346E+04  0.22963827357E+04 0.  0.
        5    1    3    3  502    0  0.74990755332E+02 -0.10140155027E+04 -0.10024601189E+04  0.14278653413E+04  0.46999998093E+01 0. -1.
       -5    1    3    3    0  502 -0.74990755332E+02  0.10140155027E+04  0.13742765828E+03  0.10260406933E+04  0.46999998093E+01 0.  1.
</event>
<event>
 5   0  0.2628425E-06  0.2981806E+04  0.7818609E-02  0.8248946E-01
        1   -1    0    0  501    0  0.00000000000E+00  0.00000000000E+00  0.19491986797E+04  0.19491986797E+04  0.50400001928E-02 0. -1.
       -1   -1    0    0    0  501  0.00000000000E+00  0.00000000000E+00 -0.11403615399E+04  0.11403615399E+04  0.50400001928E-02 0.  1.
    10030    2    1    2    0    0  0.00000000000E+00  0.00000000000E+00  0.80883713978E+03  0.30895602196E+04  0.29818056328E+04 0.  0.
        1    1    3    3  502    0  0.62631626044E+03  0.49867906683E+03 -0.89874335452E+03  0.12036164203E+04  0.50400001928E-02 0.  1.
       -1    1    3    3    0  502 -0.62631626044E+03 -0.49867906683E+03  0.17075804943E+04  0.18859437994E+04  0.50400001928E-02 0. -1.
</event>
<event>
 5   0  0.2628425E-06  0.3079350E+04  0.7818609E-02  0.8221428E-01
       -1   -1    0    0    0  501  0.00000000000E+00  0.00000000000E+00  0.12671224103E+04  0.12671224104E+04  0.50400001928E-02 0.  1.
        1   -1    0    0  501    0  0.00000000000E+00  0.00000000000E+00 -0.18708522538E+04  0.18708522538E+04  0.50400001928E-02 0. -1.
    10030    2    1    2    0    0  0.00000000000E+00  0.00000000000E+00 -0.60372984342E+03  0.31379746641E+04  0.30793498127E+04 0.  0.
        1    1    3    3  502    0  0.94525242675E+03 -0.25969653208E+03 -0.15117572632E+04  0.18017642637E+04  0.50400001928E-02 0. -1.
       -1    1    3    3    0  502 -0.94525242675E+03  0.25969653208E+03  0.90802741979E+03  0.13362104004E+04  0.50400001928E-02 0.  1.
</event>
<event>
 5   0  0.2504260E-06  0.3033139E+04  0.7818609E-02  0.8234331E-01
        1   -1    0    0  501    0  0.00000000000E+00  0.00000000000E+00  0.14691101497E+04  0.14691101497E+04  0.50400001928E-02 0. -1.
       -1   -1    0    0    0  501  0.00000000000E+00  0.00000000000E+00 -0.15655616792E+04  0.15655616792E+04  0.50400001928E-02 0.  1.
    10030    2    1    2    0    0  0.00000000000E+00  0.00000000000E+00 -0.96451529480E+02  0.30346718289E+04  0.30331386733E+04 0.  0.
        4    1    3    3  502    0  0.62026953268E+03  0.13087519564E+04 -0.49835868257E+03  0.15316425712E+04  0.12699999809E+01 0.  1.
       -4    1    3    3    0  502 -0.62026953268E+03 -0.13087519564E+04  0.40190715309E+03  0.15030292576E+04  0.12699999809E+01 0. -1.
</event>
<event>
 5   0  0.2552990E-06  0.2990505E+04  0.7818609E-02  0.8246447E-01
        1   -1    0    0  501    0  0.00000000000E+00  0.00000000000E+00  0.21771584901E+04  0.21771584901E+04  0.50400001928E-02 0.  1.
       -1   -1    0    0    0  501  0.00000000000E+00  0.00000000000E+00 -0.10269259939E+04  0.10269259939E+04  0.50400001928E-02 0. -1.
    10030    2    1    2    0    0  0.00000000000E+00  0.00000000000E+00  0.11502324962E+04  0.32040844840E+04  0.29905054064E+04 0.  0.
        3    1    3    3  502    0  0.17210057713E+03  0.27740073776E+03 -0.98827869587E+03  0.10407999658E+04  0.10100000352E+00 0. -1.
       -3    1    3    3    0  502 -0.17210057713E+03 -0.27740073776E+03  0.21385111920E+04  0.21632845182E+04  0.10100000352E+00 0.  1.
</event>
<event>
 5   0  0.7217255E-06  0.3017209E+04  0.7818609E-02  0.8238834E-01
       -2   -1    0    0    0  501  0.00000000000E+00  0.00000000000E+00  0.13519227306E+04  0.13519227306E+04  0.25500000920E-02 0. -1.
        2   -1    0    0  501    0  0.00000000000E+00  0.00000000000E+00 -0.16834447762E+04  0.16834447762E+04  0.25500000920E-02 0.  1.
    10030    2    1    2    0    0  0.00000000000E+00  0.00000000000E+00 -0.33152204562E+03  0.30353675069E+04  0.30172088153E+04 0.  0.
        1    1    3    3  502    0  0.11418500551E+04 -0.42926865752E+03  0.72715842729E+03  0.14201593245E+04  0.50400001928E-02 0. -1.
       -1    1    3    3    0  502 -0.11418500551E+04  0.42926865752E+03 -0.10586804729E+04  0.16152081824E+04  0.50400001928E-02 0.  1.
</event>
<event>
 5   0  0.6780150E-06  0.3091568E+04  0.7818609E-02  0.8218056E-01
       -2   -1    0    0    0  501  0.00000000000E+00  0.00000000000E+00  0.12234385319E+04  0.12234385319E+04  0.25500000920E-02 0. -1.
        2   -1    0    0  501    0  0.00000000000E+00  0.00000000000E+00 -0.19530595734E+04  0.19530595734E+04  0.25500000920E-02 0.  1.
    10030    2    1    2    0    0  0.00000000000E+00  0.00000000000E+00 -0.72962104142E+03  0.31764981053E+04  0.30915681052E+04 0.  0.
        5    1    3    3  502    0 -0.18706609853E+02  0.14644376196E+04  0.14324142658E+03  0.14715528109E+04  0.46999998093E+01 0. -1.
       -5    1    3    3    0  502  0.18706609853E+02 -0.14644376196E+04 -0.87286246800E+03  0.17049452944E+04  0.46999998093E+01 0.  1.
</event>
<event>
 5   0  0.2552990E-06  0.2735426E+04  0.7818609E-02  0.8323601E-01
       -1   -1    0    0    0  501  0.00000000000E+00  0.00000000000E+00  0.85903960383E+03  0.85903960384E+03  0.50400001928E-02 0. -1.
        1   -1    0    0  501    0  0.00000000000E+00  0.00000000000E+00 -0.21775931411E+04  0.21775931411E+04  0.50400001928E-02 0.  1.
    10030    2    1    2    0    0  0.00000000000E+00  0.00000000000E+00 -0.13185535373E+04  0.30366327449E+04  0.27354259261E+04 0.  0.
        3    1    3    3  502    0 -0.50875153161E+03  0.22733305526E+03 -0.20458657600E+04  0.21203950474E+04  0.10100000352E+00 0.  1.
       -3    1    3    3    0  502  0.50875153161E+03 -0.22733305526E+03  0.72731222271E+03  0.91623769756E+03  0.10100000352E+00 0. -1.
</event>
<event>
 5   0  0.2298500E-06  0.2995633E+04  0.7818609E-02  0.8244979E-01
        4   -1    0    0  501    0  0.00000000000E+00  0.00000000000E+00  0.13727523031E+04  0.13727528905E+04  0.12699999809E+01 0.  1.
       -4   -1    0    0    0  501  0.00000000000E+00  0.00000000000E+00 -0.16342730084E+04  0.16342735019E+04  0.12699999809E+01 0. -1.
    10030    2    1    2    0    0  0.00000000000E+00  0.00000000000E+00 -0.26152070539E+03  0.30070263924E+04  0.29956325952E+04 0.  0.
        3    1    3    3  502    0 -0.30658083460E+03 -0.11573593732E+04  0.77265224339E+03  0.14249435169E+04  0.10100000352E+00 0.  1.
       -3    1    3    3    0  502  0.30658083460E+03  0.11573593732E+04 -0.10341729488E+04  0.15820828755E+04  0.10100000352E+00 0. -1.
</event>
<event>
 5   0  0.2504260E-06  0.2627007E+04  0.7818609E-02  0.8359085E-01
        1   -1    0    0  501    0  0.00000000000E+00  0.00000000000E+00  0.18584595889E+04  0.18584595889E+04  0.50400001928E-02 0.  1.
       -1   -1    0    0    0  501  0.00000000000E+00  0.00000000000E+00 -0.92834493522E+03  0.92834493523E+03  0.50400001928E-02 0. -1.
    10030    2    1    2    0    0  0.00000000000E+00  0.00000000000E+00  0.93011465372E+03  0.27868045242E+04  0.26270070778E+04 0.  0.
        4    1    3    3  502    0 -0.11100535094E+04 -0.45901882087E+03 -0.98653974892E+02  0.12052598439E+04  0.12699999809E+01 0. -1.
       -4    1    3    3    0  502  0.11100535094E+04  0.45901882087E+03  0.10287686286E+04  0.15815446803E+04  0.12699999809E+01 0.  1.
</event>
<event>
 5   0  0.2422083E-06  0.2659336E+04  0.7818609E-02  0.8348321E-01
        1   -1    0    0  501    0  0.00000000000E+00  0.00000000000E+00  0.20940352091E+04  0.20940352091E+04  0.50400001928E-02 0. -1.
       -1   -1    0    0    0  501  0.00000000000E+00  0.00000000000E+00 -0.84431122602E+03  0.84431122603E+03  0.50400001928E-02 0.  1.
    10030    2    1    2    0    0  0.00000000000E+00  0.00000000000E+00  0.12497239831E+04  0.29383464351E+04  0.26593363343E+04 0.  0.
        2    1    3    3  502    0  0.12880421416E+04 -0.29315659240E+03  0.79251870744E+03  0.15404802004E+04  0.25500000920E-02 0. -1.
       -2    1    3    3    0  502 -0.12880421416E+04  0.29315659240E+03  0.45720527563E+03  0.13978662347E+04  0.25500000920E-02 0.  1.
</event>
<event>
 5   0  0.2628425E-06  0.2975986E+04  0.7818609E-02  0.8250622E-01
       -1   -1    0    0    0  501  0.00000000000E+00  0.00000000000E+00  0.18643650706E+04  0.18643650706E+04  0.50400001928E-02 0.  1.
        1   -1    0    0  501    0  0.00000000000E+00  0.00000000000E+00 -0.11876015259E+04  0.11876015260E+04  0.50400001928E-02 0. -1.
    10030    2    1    2    0    0  0.00000000000E+00  0.00000000000E+00  0.67676354461E+03  0.30519665965E+04  0.29759857545E+04 0.  0.
        1    1    3    3  502    0  0.31830707270E+03  0.14010369318E+04 -0.58670959463E+02  0.14379381622E+04  0.50400001928E-02 0. -1.
       -1    1    3    3    0  502 -0.31830707270E+03 -0.14010369318E+04  0.73543450407E+03  0.16140284343E+04  0.50400001928E-02 0.  1.
</event>
<event>
 5   0  0.2672155E-06  0.2987546E+04  0.7818609E-02  0.8247296E-01
        1   -1    0    0  501    0  0.00000000000E+00  0.00000000000E+00  0.13816879223E+04  0.13816879223E+04  0.50400001928E-02 0.  1.
       -1   -1    0    0    0  501  0.00000000000E+00  0.00000000000E+00 -0.16149506817E+04  0.16149506818E+04  0.50400001928E-02 0. -1.
    10030    2    1    2    0    0  0.00000000000E+00  0.00000000000E+00 -0.23326275946E+03  0.29966386040E+04  0.29875460512E+04 0.  0.
        5    1    3    3  502    0 -0.11050759927E+04 -0.81800790055E+03 -0.70236573818E+03  0.15439137266E+04  0.46999998093E+01 0. -1.
       -5    1    3    3    0  502  0.11050759927E+04  0.81800790055E+03  0.46910297872E+03  0.14527248775E+04  0.46999998093E+01 0.  1.
</event>
<event>
 5   0  0.6780150E-06  0.3031698E+04  0.7818609E-02  0.8234737E-01
        2   -1    0    0  501    0  0.00000000000E+00  0.00000000000E+00  0.20230506666E+04  0.20230506666E+04  0.25500000920E-02 0. -1.
       -2   -1    0    0    0  501  0.00000000000E+00  0.00000000000E+00 -0.11358087715E+04  0.11358087715E+04  0.25500000920E-02 0.  1.
    10030    2    1    2    0    0  0.00000000000E+00  0.00000000000E+00  0.88724189506E+03  0.31588594381E+04  0.30316983308E+04 0.  0.
        5    1    3    3  502    0 -0.15351542552E+03  0.13310018082E+04 -0.29508991106E+03  0.13719449496E+04  0.46999998093E+01 0.  1.
       -5    1    3    3    0  502  0.15351542552E+03 -0.13310018082E+04  0.11823318061E+04  0.17869144884E+04  0.46999998093E+01 0. -1.
</event>
<event>
 5   0  0.7193153E-06  0.2951639E+04  0.7818609E-02  0.8257677E-01
        2   -1    0    0  501    0  0.00000000000E+00  0.00000000000E+00  0.15069133374E+04  0.15069133374E+04  0.25500000920E-02 0. -1.
       -2   -1    0    0    0  501  0.00000000000E+00  0.00000000000E+00 -0.14453676103E+04  0.14453676103E+04  0.25500000920E-02 0.  1.
    10030    2    1    2    0    0  0.00000000000E+00  0.00000000000E+00  0.61545727132E+02  0.29522809477E+04  0.29516393610E+04 0.  0.
        4    1    3    3  502    0  0.41279346641E+03  0.19996653437E+03 -0.13722640401E+04  0.14468915887E+04  0.12699999809E+01 0.  1.
       -4    1    3    3    0  502 -0.41279346641E+03 -0.19996653437E+03  0.14338097672E+04  0.15053893590E+04  0.12699999809E+01 0. -1.
</event>
<event>
 5   0  0.2672155E-06  0.3005871E+04  0.7818609E-02  0.8242056E-01
       -1   -1    0    0    0  501  0.00000000000E+00  0.00000000000E+00  0.17941092732E+04  0.17941092732E+04  0.50400001928E-02 0. -1.
        1   -1    0    0  501    0  0.00000000000E+00  0.00000000000E+00 -0.12590177704E+04  0.12590177704E+04  0.50400001928E-02 0.  1.
    10030    2    1    2    0    0  0.00000000000E+00  0.00000000000E+00  0.53509150286E+03  0.30531270436E+04  0.30058712261E+04 0.  0.
        5    1    3    3  502    0 -0.90526259242E+03  0.71509100131E+03 -0.71089369545E+03  0.13550820778E+04  0.46999998093E+01 0.  1.
       -5    1    3    3    0  502  0.90526259242E+03 -0.71509100131E+03  0.12459851983E+04  0.16980449658E+04  0.46999998093E+01 0. -1.
</event>
<event>
 5   0  0.2298500E-06  0.2993692E+04  0.7818609E-02  0.8245534E-01
        3   -1    0    0  501    0  0.00000000000E+00  0.00000000000E+00  0.13563026076E+04  0.13563026113E+04  0.10100000352E+00 0.  1.
       -3   -1    0    0    0  501  0.00000000000E+00  0.00000000000E+00 -0.16519531500E+04  0.16519531531E+04  0.10100000352E+00 0. -1.
    10030    2    1    2    0    0  0.00000000000E+00  0.00000000000E+00 -0.29565054241E+03  0.30082557644E+04  0.29936922856E+04 0.  0.
        3    1    3    3  502    0 -0.10018863114E+04 -0.80769778680E+02  0.96673615506E+03  0.13945890943E+04  0.10100000352E+00 0.  1.
       -3    1    3    3    0  502  0.10018863114E+04  0.80769778680E+02 -0.12623866975E+04  0.16136666701E+04  0.10100000352E+00 0. -1.
</event>
<event>
 5   0  0.7201538E-06  0.3042887E+04  0.7818609E-02  0.8231589E-01
       -2   -1    0    0    0  501  0.00000000000E+00  0.00000000000E+00  0.13876441057E+04  0.13876441057E+04  0.25500000920E-02 0.  1.
        2   -1    0    0  501    0  0.00000000000E+00  0.00000000000E+00 -0.16681439615E+04  0.16681439615E+04  0.25500000920E-02 0. -1.
    10030    2    1    2    0    0  0.00000000000E+00  0.00000000000E+00 -0.28049985580E+03  0.30557880673E+04  0.30428868765E+04 0.  0.
        3    1    3    3  502    0 -0.10776264045E+04  0.66179375312E+03 -0.98973260964E+03  0.16058705701E+04  0.10100000352E+00 0.  1.
       -3    1    3    3    0  502  0.10776264045E+04 -0.66179375312E+03  0.70923275384E+03  0.14499174972E+04  0.10100000352E+00 0. -1.
</event>
<event>
 5   0  0.7193153E-06  0.3002572E+04  0.7818609E-02  0.8242997E-01
       -2   -1    0    0    0  501  0.00000000000E+00  0.00000000000E+00  0.11514264202E+04  0.11514264202E+04  0.25500000920E-02 0. -1.
        2   -1    0    0  501    0  0.00000000000E+00  0.00000000000E+00 -0.19574498598E+04  0.19574498598E+04  0.25500000920E-02 0.  1.
    10030    2    1    2    0    0  0.00000000000E+00  0.00000000000E+00 -0.80602343959E+03  0.31088762799E+04  0.30025718874E+04 0.  0.
        4    1    3    3  502    0 -0.20640163430E+03 -0.49647774804E+03  0.10483158706E+04  0.11781593977E+04  0.12699999809E+01 0. -1.
       -4    1    3    3    0  502  0.20640163430E+03  0.49647774804E+03 -0.18543393102E+04  0.19307168822E+04  0.12699999809E+01 0.  1.
</event>
<event>
 5   0  0.7193153E-06  0.2373867E+04  0.7818609E-02  0.8449352E-01
       -2   -1    0    0    0  501  0.00000000000E+00  0.00000000000E+00  0.65143048060E+03  0.65143048060E+03  0.25500000920E-02 0. -1.
        2   -1    0    0  501    0  0.00000000000E+00  0.00000000000E+00 -0.21626432183E+04  0.21626432183E+04  0.25500000920E-02 0.  1.
    10030    2    1    2    0    0  0.00000000000E+00  0.00000000000E+00 -0.15112127377E+04  0.28140736989E+04  0.23738674866E+04 0.  0.
        4    1    3    3  502    0 -0.19655141462E+03 -0.76608046333E+03  0.29355575709E+03  0.84361622217E+03  0.12699999809E+01 0. -1.
       -4    1    3    3    0  502  0.19655141462E+03  0.76608046333E+03 -0.18047684948E+04  0.19704574767E+04  0.12699999809E+01 0.  1.
</event>
<event>
 5   0  0.2504260E-06  0.2957300E+04  0.7818609E-02  0.8256030E-01
        1   -1    0    0  501    0  0.00000000000E+00  0.00000000000E+00  0.20079189830E+04  0.20079189830E+04  0.50400001928E-02 0.  1.
       -1   -1    0    0    0  501  0.00000000000E+00  0.00000000000E+00 -0.10888912972E+04  0.10888912972E+04  0.50400001928E-02 0. -1.
    10030    2    1    2    0    0  0.00000000000E+00  0.00000000000E+00  0.91902768583E+03  0.30968102802E+04  0.29572997860E+04 0.  0.
        4    1    3    3  502    0  0.40892681883E+03  0.75273706463E+03  0.17215963077E+04  0.19229481770E+04  0.12699999809E+01 0.  1.
       -4    1    3    3    0  502 -0.40892681883E+03 -0.75273706463E+03 -0.80256862191E+03  0.11738621032E+04  0.12699999809E+01 0. -1.
</event>
<event>
 5   0  0.2552990E-06  0.3072985E+04  0.7818609E-02  0.8223191E-01
       -1   -1    0    0    0  501  0.00000000000E+00  0.00000000000E+00  0.10507142778E+04  0.10507142778E+04  0.50400001928E-02 0. -1.
        1   -1    0    0  501    0  0.00000000000E+00  0.00000000000E+00 -0.22468606785E+04  0.22468606785E+04  0.50400001928E-02 0.  1.
    10030    2    1    2    0    0  0.00000000000E+00  0.00000000000E+00 -0.11961464007E+04  0.32975749563E+04  0.30729846047E+04 0.  0.
        3    1    3    3  502    0  0.14893274938E+04 -0.37284895757E+03 -0.53283652517E+03  0.16251238419E+04  0.10100000352E+00 0.  1.
       -3    1    3    3    0  502 -0.14893274938E+04  0.37284895757E+03 -0.66330987549E+03  0.16724511144E+04  0.10100000352E+00 0. -1.
</event>
<event>
 5   0  0.2552990E-06  0.2173599E+04  0.7818609E-02  0.8529498E-01
        1   -1    0    0  501    0  0.00000000000E+00  0.00000000000E+00  0.81821187063E+03  0.81821187065E+03  0.50400001928E-02 0.  1.
       -1   -1    0    0    0  501  0.00000000000E+00  0.00000000000E+00 -0.14435547582E+04  0.14435547583E+04  0.50400001928E-02 0. -1.
    10030    2    1    2    0    0  0.00000000000E+00  0.00000000000E+00 -0.62534288762E+03  0.22617666289E+04  0.21735994471E+04 0.  0.
        3    1    3    3  502    0  0.10785299045E+04 -0.74597014428E+02 -0.42827304667E+03  0.11628453388E+04  0.10100000352E+00 0.  1.
       -3    1    3    3    0  502 -0.10785299045E+04  0.74597014428E+02 -0.19706984095E+03  0.10989212901E+04  0.10100000352E+00 0. -1.
</event>
<event>
 5   0  0.7193153E-06  0.3038255E+04  0.7818609E-02  0.8232891E-01
       -2   -1    0    0    0  501  0.00000000000E+00  0.00000000000E+00  0.15428230658E+04  0.15428230658E+04  0.25500000920E-02 0.  1.
        2   -1    0    0  501    0  0.00000000000E+00  0.00000000000E+00 -0.14957956223E+04  0.14957956223E+04  0.25500000920E-02 0. -1.
    10030    2    1    2    0    0  0.00000000000E+00  0.00000000000E+00  0.47027443502E+02  0.30386186882E+04  0.30382547542E+04 0.  0.
        4    1    3    3  502    0  0.49025979981E+03 -0.14041118386E+04  0.33316613187E+03  0.15241017062E+04  0.12699999809E+01 0.  1.
       -4    1    3    3    0  502 -0.49025979981E+03  0.14041118386E+04 -0.28613868837E+03  0.15145169819E+04  0.12699999809E+01 0. -1.
</event>
<event>
 5   0  0.2504260E-06  0.2998197E+04  0.7818609E-02  0.8244246E-01
        1   -1    0    0  501    0  0.00000000000E+00  0.00000000000E+00  0.19935457929E+04  0.19935457929E+04  0.50400001928E-02 0.  1.
       -1   -1    0    0    0  501  0.00000000000E+00  0.00000000000E+00 -0.11272858631E+04  0.11272858631E+04  0.50400001928E-02 0. -1.
    10030    2    1    2    0    0  0.00000000000E+00  0.00000000000E+00  0.86625992984E+03  0.31208316560E+04  0.29981967846E+04 0.  0.
        4    1    3    3  502    0  0.63698951981E+03 -0.11118682283E+04  0.12429549255E+04  0.17852017155E+04  0.12699999809E+01 0.  1.
       -4    1    3    3    0  502 -0.63698951981E+03  0.11118682283E+04 -0.37669499562E+03  0.13356299405E+04  0.12699999809E+01 0. -1.
</event>
<event>
 5   0  0.7201538E-06  0.3025018E+04  0.7818609E-02  0.8236623E-01
        2   -1    0    0  501    0  0.00000000000E+00  0.00000000000E+00  0.14202635424E+04  0.14202635424E+04  0.25500000920E-02 0. -1.
       -2   -1    0    0    0  501  0.00000000000E+00  0.00000000000E+00 -0.16107457606E+04  0.16107457606E+04  0.25500000920E-02 0.  1.
    10030    2    1    2    0    0  0.00000000000E+00  0.00000000000E+00 -0.19048221817E+03  0.30310093030E+04  0.30250180031E+04 0.  0.
        3    1    3    3  502    0 -0.77363430497E+03 -0.21117063411E+03 -0.13801929770E+04  0.15962567897E+04  0.10100000352E+00 0.  1.
       -3    1    3    3    0  502  0.77363430497E+03  0.21117063411E+03  0.11897107588E+04  0.14347525133E+04  0.10100000352E+00 0. -1.
</event>
<event>
 5   0  0.2672155E-06  0.3026493E+04  0.7818609E-02  0.8236206E-01
        1   -1    0    0  501    0  0.00000000000E+00  0.00000000000E+00  0.14297616048E+04  0.14297616048E+04  0.50400001928E-02 0.  1.
       -1   -1    0    0    0  501  0.00000000000E+00  0.00000000000E+00 -0.16016058413E+04  0.16016058413E+04  0.50400001928E-02 0. -1.
    10030    2    1    2    0    0  0.00000000000E+00  0.00000000000E+00 -0.17184423647E+03  0.30313674461E+04  0.30264927146E+04 0.  0.
        5    1    3    3  502    0  0.99965412690E+03  0.88859546392E+03 -0.79486310751E+03  0.15558726560E+04  0.46999998093E+01 0.  1.
       -5    1    3    3    0  502 -0.99965412690E+03 -0.88859546392E+03  0.62301887104E+03  0.14754947901E+04  0.46999998093E+01 0. -1.
</event>
<event>
 5   0  0.7201538E-06  0.3045332E+04  0.7818609E-02  0.8230903E-01
       -2   -1    0    0    0  501  0.00000000000E+00  0.00000000000E+00  0.12923061516E+04  0.12923061516E+04  0.25500000920E-02 0. -1.
        2   -1    0    0  501    0  0.00000000000E+00  0.00000000000E+00 -0.17940885066E+04  0.17940885066E+04  0.25500000920E-02 0.  1.
    10030    2    1    2    0    0  0.00000000000E+00  0.00000000000E+00 -0.50178235498E+03  0.30863946582E+04  0.30453319121E+04 0.  0.
        3    1    3    3  502    0 -0.35240193424E+03 -0.50014860904E+03  0.11622468946E+04  0.13134510302E+04  0.10100000352E+00 0. -1.
       -3    1    3    3    0  502  0.35240193424E+03  0.50014860904E+03 -0.16640292496E+04  0.17729436280E+04  0.10100000352E+00 0.  1.
</event>
<event>
 5   0  0.7217255E-06  0.2988542E+04  0.7818609E-02  0.8247010E-01
        2   -1    0    0  501    0  0.00000000000E+00  0.00000000000E+00  0.17118290658E+04  0.17118290658E+04  0.25500000920E-02 0. -1.
       -2   -1    0    0    0  501  0.00000000000E+00  0.00000000000E+00 -0.13043629545E+04  0.13043629545E+04  0.25500000920E-02 0.  1.
    10030    2    1    2    0    0  0.00000000000E+00  0.00000000000E+00  0.40746611134E+03  0.30161920203E+04  0.29885423992E+04 0.  0.
        1    1    3    3  502    0 -0.79649000957E+03  0.16956785840E+03  0.14681999250E+04  0.16789164999E+04  0.50400001928E-02 0. -1.
       -1    1    3    3    0  502  0.79649000957E+03 -0.16956785840E+03 -0.10607338137E+04  0.13372755204E+04  0.50400001928E-02 0.  1.
</event>
<event>
 5   0  0.2672155E-06  0.2904986E+04  0.7818609E-02  0.8271395E-01
       -1   -1    0    0    0  501  0.00000000000E+00  0.00000000000E+00  0.87757825828E+03  0.87757825829E+03  0.50400001928E-02 0.  1.
        1   -1    0    0  501    0  0.00000000000E+00  0.00000000000E+00 -0.24040437225E+04  0.24040437225E+04  0.50400001928E-02 0. -1.
    10030    2    1    2    0    0  0.00000000000E+00  0.00000000000E+00 -0.15264654643E+04  0.32816219808E+04  0.29049864047E+04 0.  0.
        5    1    3    3  502    0  0.10652422694E+04  0.33370766683E+03  0.28656084418E+03  0.11524934303E+04  0.46999998093E+01 0.  1.
       -5    1    3    3    0  502 -0.10652422694E+04 -0.33370766683E+03 -0.18130263084E+04  0.21291285505E+04  0.46999998093E+01 0. -1.
</event>
<event>
 5   0  0.2422083E-06  0.2943793E+04  0.7818609E-02  0.8259966E-01
       -1   -1    0    0    0  501  0.00000000000E+00  0.00000000000E+00  0.20653927538E+04  0.20653927539E+04  0.50400001928E-02 0.  1.
        1   -1    0    0  501    0  0.00000000000E+00  0.00000000000E+00 -0.10489428070E+04  0.10489428070E+04  0.50400001928E-02 0. -1.
    10030    2    1    2    0    0  0.00000000000E+00  0.00000000000E+00  0.10164499469E+04  0.31143355608E+04  0.29437927052E+04 0.  0.
        2    1    3    3  502    0  0.13818204742E+04  0.13520222438E+03 -0.87259798377E+01  0.13884464726E+04  0.25500000920E-02 0. -1.
       -2    1    3    3    0  502 -0.13818204742E+04 -0.13520222438E+03  0.10251759267E+04  0.17258890883E+04  0.25500000920E-02 0.  1.
</event>
<event>
 5   0  0.6792811E-06  0.3013904E+04  0.7818609E-02  0.8239772E-01
        2   -1    0    0  501    0  0.00000000000E+00  0.00000000000E+00  0.22315628652E+04  0.22315628652E+04  0.25500000920E-02 0. -1.
       -2   -1    0    0    0  501  0.00000000000E+00  0.00000000000E+00 -0.10176296170E+04  0.10176296170E+04  0.25500000920E-02 0.  1.
    10030    2    1    2    0    0  0.00000000000E+00  0.00000000000E+00  0.12139332482E+04  0.32491924821E+04  0.30139040885E+04 0.  0.
        2    1    3    3  502    0 -0.58808082719E+03 -0.11037949202E+04 -0.29931719713E+03  0.12859988607E+04  0.25500000920E-02 0.  1.
       -2    1    3    3    0  502  0.58808082719E+03  0.11037949202E+04  0.15132504453E+04  0.19631936215E+04  0.25500000920E-02 0. -1.
</event>
<event>
 5   0  0.6792811E-06  0.3091322E+04  0.7818609E-02  0.8218124E-01
        2   -1    0    0  501    0  0.00000000000E+00  0.00000000000E+00  0.12452572476E+04  0.12452572476E+04  0.25500000920E-02 0.  1.
       -2   -1    0    0    0  501  0.00000000000E+00  0.00000000000E+00 -0.19185333122E+04  0.19185333122E+04  0.25500000920E-02 0. -1.
    10030    2    1    2    0    0  0.00000000000E+00  0.00000000000E+00 -0.67327606464E+03  0.31637905598E+04  0.30913217314E+04 0.  0.
        2    1    3    3  502    0 -0.13345830819E+04 -0.21095362887E+03 -0.11048707187E+04  0.17453804001E+04  0.25500000920E-02 0. -1.
       -2    1    3    3    0  502  0.13345830819E+04  0.21095362887E+03  0.43159465407E+03  0.14184101598E+04  0.25500000920E-02 0.  1.
</event>
<event>
 5   0  0.2552990E-06  0.2986768E+04  0.7818609E-02  0.8247520E-01
       -1   -1    0    0    0  501  0.00000000000E+00  0.00000000000E+00  0.10059165453E+04  0.10059165453E+04  0.50400001928E-02 0.  1.
        1   -1    0    0  501    0  0.00000000000E+00  0.00000000000E+00 -0.22170776559E+04  0.22170776559E+04  0.50400001928E-02 0. -1.
    10030    2    1    2    0    0  0.00000000000E+00  0.00000000000E+00 -0.12111611106E+04  0.32229942013E+04  0.29867675480E+04 0.  0.
        3    1    3    3  502    0  0.37589246331E+02  0.13552274815E+04 -0.12813195932E+04  0.18654314215E+04  0.10100000352E+00 0.  1.
       -3    1    3    3    0  502 -0.37589246331E+02 -0.13552274815E+04  0.70158482598E+02  0.13575627798E+04  0.10100000352E+00 0. -1.
</event>
<event>
 5   0  0.2422083E-06  0.2896350E+04  0.7818609E-02  0.8273964E-01
        1   -1    0    0  501    0  0.00000000000E+00  0.00000000000E+00  0.25236509046E+04  0.25236509046E+04  0.50400001928E-02 0. -1.
       -1   -1    0    0    0  501  0.00000000000E+00  0.00000000000E+00 -0.83102279443E+03  0.83102279444E+03  0.50400001928E-02 0.  1.
    10030    2    1    2    0    0  0.00000000000E+00  0.00000000000E+00  0.16926281101E+04  0.33546736990E+04  0.28963504117E+04 0.  0.
        2    1    3    3  502    0  0.37438858141E+03 -0.13465036821E+04  0.40683429405E+03  0.14555937341E+04  0.25500000920E-02 0.  1.
       -2    1    3    3    0  502 -0.37438858141E+03  0.13465036821E+04  0.12857938161E+04  0.18990799650E+04  0.25500000920E-02 0. -1.
</event>
<event>
 5   0  0.7217255E-06  0.2984270E+04  0.7818609E-02  0.8248237E-01
        2   -1    0    0  501    0  0.00000000000E+00  0.00000000000E+00  0.12054704330E+04  0.12054704330E+04  0.25500000920E-02 0.  1.
       -2   -1    0    0    0  501  0.00000000000E+00  0.00000000000E+00 -0.18469690573E+04  0.18469690573E+04  0.25500000920E-02 0. -1.
    10030    2    1    2    0    0  0.00000000000E+00  0.00000000000E+00 -0.64149862433E+03  0.30524394902E+04  0.29842698197E+04 0.  0.
        1    1    3    3  502    0 -0.38464316447E+03 -0.15408366276E+03  0.11454433953E+04  0.12180856747E+04  0.50400001928E-02 0.  1.
       -1    1    3    3    0  502  0.38464316447E+03  0.15408366276E+03 -0.17869420196E+04  0.18343538155E+04  0.50400001928E-02 0. -1.
</event>
<event>
 5   0  0.2504260E-06  0.2973934E+04  0.7818609E-02  0.8251213E-01
        1   -1    0    0  501    0  0.00000000000E+00  0.00000000000E+00  0.13745155194E+04  0.13745155194E+04  0.50400001928E-02 0. -1.
       -1   -1    0    0    0  501  0.00000000000E+00  0.00000000000E+00 -0.16086188484E+04  0.16086188484E+04  0.50400001928E-02 0.  1.
    10030    2    1    2    0    0  0.00000000000E+00  0.00000000000E+00 -0.23410332896E+03  0.29831343678E+04  0.29739344794E+04 0.  0.
        4    1    3    3  502    0 -0.47040636598E+03 -0.10521967043E+03  0.12939685040E+04  0.13808364967E+04  0.12699999809E+01 0. -1.
       -4    1    3    3    0  502  0.47040636598E+03  0.10521967043E+03 -0.15280718330E+04  0.16022978711E+04  0.12699999809E+01 0.  1.
</event>
<event>
 5   0  0.7217255E-06  0.2991559E+04  0.7818609E-02  0.8246145E-01
       -2   -1    0    0    0  501  0.00000000000E+00  0.00000000000E+00  0.19771902415E+04  0.19771902415E+04  0.25500000920E-02 0.  1.
        2   -1    0    0  501    0  0.00000000000E+00  0.00000000000E+00 -0.11315836267E+04  0.11315836267E+04  0.25500000920E-02 0. -1.
    10030    2    1    2    0    0  0.00000000000E+00  0.00000000000E+00  0.84560661477E+03  0.31087738681E+04  0.29915588606E+04 0.  0.
        1    1    3    3  502    0  0.33285004987E+03 -0.12164140675E+04 -0.41301411509E+03  0.13270391850E+04  0.50400001928E-02 0. -1.
       -1    1    3    3    0  502 -0.33285004987E+03  0.12164140675E+04  0.12586207299E+04  0.17817346831E+04  0.50400001928E-02 0.  1.
</event>
<event>
 5   0  0.2628425E-06  0.2940870E+04  0.7818609E-02  0.8260820E-01
       -1   -1    0    0    0  501  0.00000000000E+00  0.00000000000E+00  0.87500798290E+03  0.87500798292E+03  0.50400001928E-02 0.  1.
        1   -1    0    0  501    0  0.00000000000E+00  0.00000000000E+00 -0.24710386413E+04  0.24710386413E+04  0.50400001928E-02 0. -1.
    10030    2    1    2    0    0  0.00000000000E+00  0.00000000000E+00 -0.15960306584E+04  0.33460466243E+04  0.29408696246E+04 0.  0.
        1    1    3    3  502    0  0.13022927432E+04 -0.52947365461E+03 -0.30749091350E+03  0.14390480888E+04  0.50400001928E-02 0.  1.
       -1    1    3    3    0  502 -0.13022927432E+04  0.52947365461E+03 -0.12885397449E+04  0.19069985355E+04  0.50400001928E-02 0. -1.
</event>
<event>
 5   0  0.7193153E-06  0.2937769E+04  0.7818609E-02  0.8261728E-01
       -2   -1    0    0    0  501  0.00000000000E+00  0.00000000000E+00  0.14452765224E+04  0.14452765224E+04  0.25500000920E-02 0.  1.
        2   -1    0    0  501    0  0.00000000000E+00  0.00000000000E+00 -0.14928783866E+04  0.14928783866E+04  0.25500000920E-02 0. -1.
    10030    2    1    2    0    0  0.00000000000E+00  0.00000000000E+00 -0.47601864239E+02  0.29381549089E+04  0.29377692781E+04 0.  0.
        4    1    3    3  502    0  0.12264881420E+04  0.76052773412E+03  0.24999561624E+03  0.14646416005E+04  0.12699999809E+01 0.  1.
       -4    1    3    3    0  502 -0.12264881420E+04 -0.76052773412E+03 -0.29759748048E+03  0.14735133084E+04  0.12699999809E+01 0. -1.
</event>
<event>
 5   0  0.2298500E-06  0.2491640E+04  0.7818609E-02  0.8405970E-01
       -3   -1    0    0    0  501  0.00000000000E+00  0.00000000000E+00  0.16351657717E+04  0.16351657748E+04  0.10100000352E+00 0.  1.
        3   -1    0    0  501    0  0.00000000000E+00  0.00000000000E+00 -0.94918019131E+03  0.94918019669E+03  0.10100000352E+00 0. -1.
    10030    2    1    2    0    0  0.00000000000E+00  0.00000000000E+00  0.68598558041E+03  0.25843459715E+04  0.24916395975E+04 0.  0.
        3    1    3    3  502    0  0.77622563792E+03  0.93266359412E+03  0.50214889060E+02  0.12144583838E+04  0.10100000352E+00 0. -1.
       -3    1    3    3    0  502 -0.77622563792E+03 -0.93266359412E+03  0.63577069134E+03  0.13698875877E+04  0.10100000352E+00 0.  1.
</event>
<event>
 5   0  0.7201538E-06  0.2766124E+04  0.7818609E-02  0.8313863E-01
       -2   -1    0    0    0  501  0.00000000000E+00  0.00000000000E+00  0.13170072677E+04  0.13170072677E+04  0.25500000920E-02 0.  1.
        2   -1    0    0  501    0  0.00000000000E+00  0.00000000000E+00 -0.14524293025E+04  0.14524293025E+04  0.25500000920E-02 0. -1.
    10030    2    1    2    0    0  0.00000000000E+00  0.00000000000E+00 -0.13542203473E+03  0.27694365702E+04  0.27661236033E+04 0.  0.
        3    1    3    3  502    0 -0.18960985467E+03 -0.86800081523E+03  0.99350310378E+03  0.13328262226E+04  0.10100000352E+00 0.  1.
       -3    1    3    3    0  502  0.18960985467E+03  0.86800081523E+03 -0.11289251385E+04  0.14366103476E+04  0.10100000352E+00 0. -1.
</event>
<event>
 5   0  0.6792811E-06  0.2996998E+04  0.7818609E-02  0.8244589E-01
        2   -1    0    0  501    0  0.00000000000E+00  0.00000000000E+00  0.18126677727E+04  0.18126677727E+04  0.25500000920E-02 0.  1.
       -2   -1    0    0    0  501  0.00000000000E+00  0.00000000000E+00 -0.12387812334E+04  0.12387812334E+04  0.25500000920E-02 0. -1.
    10030    2    1    2    0    0  0.00000000000E+00  0.00000000000E+00  0.57388653932E+03  0.30514490061E+04  0.29969977105E+04 0.  0.
        2    1    3    3  502    0 -0.67820222972E+03  0.32189727912E+03 -0.10335090416E+04  0.12773868098E+04  0.25500000920E-02 0. -1.
       -2    1    3    3    0  502  0.67820222972E+03 -0.32189727912E+03  0.16073955809E+04  0.17740621963E+04  0.25500000920E-02 0.  1.
</event>
<event>
 5   0  0.7217255E-06  0.3015688E+04  0.7818609E-02  0.8239265E-01
        2   -1    0    0  501    0  0.00000000000E+00  0.00000000000E+00  0.14569286853E+04  0.14569286853E+04  0.25500000920E-02 0.  1.
       -2   -1    0    0    0  501  0.00000000000E+00  0.00000000000E+00 -0.15605385446E+04  0.15605385446E+04  0.25500000920E-02 0. -1.
    10030    2    1    2    0    0  0.00000000000E+00  0.00000000000E+00 -0.10360985927E+03  0.30174672300E+04  0.30156878951E+04 0.  0.
        1    1    3    3  502    0 -0.28860474533E+03  0.37193789194E+03 -0.14851175312E+04  0.15579488361E+04  0.50400001928E-02 0. -1.
       -1    1    3    3    0  502  0.28860474533E+03 -0.37193789194E+03  0.13815076719E+04  0.14595183939E+04  0.50400001928E-02 0.  1.
</event>
<event>
 5   0  0.2504260E-06  0.3164289E+04  0.7818609E-02  0.8198312E-01
        1   -1    0    0  501    0  0.00000000000E+00  0.00000000000E+00  0.13950102285E+04  0.13950102285E+04  0.50400001928E-02 0.  1.
       -1   -1    0    0    0  501  0.00000000000E+00  0.00000000000E+00 -0.17943824878E+04  0.17943824878E+04  0.50400001928E-02 0. -1.
    10030    2    1    2    0    0  0.00000000000E+00  0.00000000000E+00 -0.39937225935E+03  0.31893927163E+04  0.31642894459E+04 0.  0.
        4    1    3    3  502    0  0.52951346191E+03  0.10306707404E+04 -0.12855038329E+04  0.17306612606E+04  0.12699999809E+01 0. -1.
       -4    1    3    3    0  502 -0.52951346191E+03 -0.10306707404E+04  0.88613157358E+03  0.14587314558E+04  0.12699999809E+01 0.  1.
</event>
<event>
 5   0  0.6792811E-06  0.3025994E+04  0.7818609E-02  0.8236347E-01
        2   -1    0    0  501    0  0.00000000000E+00  0.00000000000E+00  0.24174322357E+04  0.24174322357E+04  0.25500000920E-02 0. -1.
       -2   -1    0    0    0  501  0.00000000000E+00  0.00000000000E+00 -0.94693869236E+03  0.94693869237E+03  0.25500000920E-02 0.  1.
    10030    2    1    2    0    0  0.00000000000E+00  0.00000000000E+00  0.14704935433E+04  0.33643709281E+04  0.30259941310E+04 0.  0.
        2    1    3    3  502    0 -0.35348785790E+03 -0.11474923292E+04 -0.28827573135E+03  0.12348259831E+04  0.25500000920E-02 0.  1.
       -2    1    3    3    0  502  0.35348785790E+03  0.11474923292E+04  0.17587692747E+04  0.21295449450E+04  0.25500000920E-02 0. -1.
</event>
<event>
 5   0  0.2552990E-06  0.2962720E+04  0.7818609E-02  0.8254457E-01
        1   -1    0    0  501    0  0.00000000000E+00  0.00000000000E+00  0.94927617777E+03  0.94927617779E+03  0.50400001928E-02 0.  1.
       -1   -1    0    0    0  501  0.00000000000E+00  0.00000000000E+00 -0.23116854467E+04  0.23116854467E+04  0.50400001928E-02 0. -1.
    10030    2    1    2    0    0  0.00000000000E+00  0.00000000000E+00 -0.13624092689E+04  0.32609616245E+04  0.29627203210E+04 0.  0.
        3    1    3    3  502    0 -0.10801262143E+04 -0.10135977911E+04 -0.65989621520E+03  0.16215782886E+04  0.10100000352E+00 0. -1.
       -3    1    3    3    0  502  0.10801262143E+04  0.10135977911E+04 -0.70251305371E+03  0.16393833359E+04  0.10100000352E+00 0.  1.
</event>
<event>
 5   0  0.2504260E-06  0.3000168E+04  0.7818609E-02  0.8243683E-01
        1   -1    0    0  501    0  0.00000000000E+00  0.00000000000E+00  0.15075608776E+04  0.15075608776E+04  0.50400001928E-02 0.  1.
       -1   -1    0    0    0  501  0.00000000000E+00  0.00000000000E+00 -0.14926441542E+04  0.14926441543E+04  0.50400001928E-02 0. -1.
    10030    2    1    2    0    0  0.00000000000E+00  0.00000000000E+00  0.14916723309E+02  0.30002050318E+04  0.30001679493E+04 0.  0.
        4    1    3    3  502    0 -0.90887491589E+03 -0.91123032095E+03  0.77808842076E+03  0.15039340125E+04  0.12699999809E+01 0.  1.
       -4    1    3    3    0  502  0.90887491589E+03  0.91123032095E+03 -0.76317169745E+03  0.14962710193E+04  0.12699999809E+01 0. -1.
</event>
<event>
 5   0  0.2422083E-06  0.2943184E+04  0.7818609E-02  0.8260144E-01
        1   -1    0    0  501    0  0.00000000000E+00  0.00000000000E+00  0.13115624153E+04  0.13115624153E+04  0.50400001928E-02 0. -1.
       -1   -1    0    0    0  501  0.00000000000E+00  0.00000000000E+00 -0.16511476423E+04  0.16511476423E+04  0.50400001928E-02 0.  1.
    10030    2    1    2    0    0  0.00000000000E+00  0.00000000000E+00 -0.33958522704E+03  0.29627100576E+04  0.29431841191E+04 0.  0.
        2    1    3    3  502    0 -0.11953711275E+02 -0.46664301390E+03 -0.15746461048E+04  0.16423790516E+04  0.25500000920E-02 0.  1.
       -2    1    3    3    0  502  0.11953711275E+02  0.46664301390E+03  0.12350608778E+04  0.13203310060E+04  0.25500000920E-02 0. -1.
</event>
<event>
 5   0  0.2672155E-06  0.2963653E+04  0.7818609E-02  0.8254187E-01
       -1   -1    0    0    0  501  0.00000000000E+00  0.00000000000E+00  0.14793449023E+04  0.14793449023E+04  0.50400001928E-02 0. -1.
        1   -1    0    0  501    0  0.00000000000E+00  0.00000000000E+00 -0.14843126800E+04  0.14843126800E+04  0.50400001928E-02 0.  1.
    10030    2    1    2    0    0  0.00000000000E+00  0.00000000000E+00 -0.49677776362E+01  0.29636575823E+04  0.29636534187E+04 0.  0.
        5    1    3    3  502    0 -0.24968572417E+03 -0.12955085281E+04  0.67213028104E+03  0.14806979813E+04  0.46999998093E+01 0. -1.
       -5    1    3    3    0  502  0.24968572417E+03  0.12955085281E+04 -0.67709805868E+03  0.14829596010E+04  0.46999998093E+01 0.  1.
</event>
<event>
 5   0  0.7201538E-06  0.2982195E+04  0.7818609E-02  0.8248834E-01
       -2   -1    0    0    0  501  0.00000000000E+00  0.00000000000E+00  0.17339361008E+04  0.17339361008E+04  0.25500000920E-02 0. -1.
        2   -1    0    0  501    0  0.00000000000E+00  0.00000000000E+00 -0.12822682204E+04  0.12822682204E+04  0.25500000920E-02 0.  1.
    10030    2    1    2    0    0  0.00000000000E+00  0.00000000000E+00  0.45166788047E+03  0.30162043212E+04  0.29821946001E+04 0.  0.
        3    1    3    3  502    0 -0.71813126166E+03 -0.49228723514E+03 -0.99847161238E+03  0.13247659423E+04  0.10100000352E+00 0.  1.
       -3    1    3    3    0  502  0.71813126166E+03  0.49228723514E+03  0.14501394929E+04  0.16914383789E+04  0.10100000352E+00 0. -1.
</event>
<event>
 5   0  0.7193153E-06  0.2985535E+04  0.7818609E-02  0.8247873E-01
       -2   -1    0    0    0  501  0.00000000000E+00  0.00000000000E+00  0.11256015880E+04  0.11256015880E+04  0.25500000920E-02 0.  1.
        2   -1    0    0  501    0  0.00000000000E+00  0.00000000000E+00 -0.19797018209E+04  0.19797018209E+04  0.25500000920E-02 0. -1.
    10030    2    1    2    0    0  0.00000000000E+00  0.00000000000E+00 -0.85410023293E+03  0.31053034090E+04  0.29855354719E+04 0.  0.
        4    1    3    3  502    0 -0.12556167908E+04  0.10424039997E+03  0.40563689458E+03  0.13236247540E+04  0.12699999809E+01 0.  1.
       -4    1    3    3    0  502  0.12556167908E+04 -0.10424039997E+03 -0.12597371275E+04  0.17816786550E+04  0.12699999809E+01 0. -1.
</event>
<event>
 5   0  0.6780150E-06  0.2713431E+04  0.7818609E-02  0.8330660E-01
        2   -1    0    0  501    0  0.00000000000E+00  0.00000000000E+00  0.20496887084E+04  0.20496887084E+04  0.25500000920E-02 0.  1.
       -2   -1    0    0    0  501  0.00000000000E+00  0.00000000000E+00 -0.89802766882E+03  0.89802766882E+03  0.25500000920E-02 0. -1.
    10030    2    1    2    0    0  0.00000000000E+00  0.00000000000E+00  0.11516610396E+04  0.29477163772E+04  0.27134311656E+04 0.  0.
        5    1    3    3  502    0 -0.10622154588E+04  0.35563489906E+02 -0.34023968043E+03  0.11159532127E+04  0.46999998093E+01 0. -1.
       -5    1    3    3    0  502  0.10622154588E+04 -0.35563489906E+02  0.14919007200E+04  0.18317631646E+04  0.46999998093E+01 0.  1.
</event>
<event>
 5   0  0.2422083E-06  0.3003331E+04  0.7818609E-02  0.8242780E-01
       -1   -1    0    0    0  501  0.00000000000E+00  0.00000000000E+00  0.11214133197E+04  0.11214133197E+04  0.50400001928E-02 0. -1.
        1   -1    0    0  501    0  0.00000000000E+00  0.00000000000E+00 -0.20108543984E+04  0.20108543984E+04  0.50400001928E-02 0.  1.
    10030    2    1    2    0    0  0.00000000000E+00  0.00000000000E+00 -0.88944107873E+03  0.31322677181E+04  0.30033307553E+04 0.  0.
        2    1    3    3  502    0  0.20958822884E+03 -0.33767505970E+03 -0.19550086986E+04  0.19949964118E+04  0.25500000920E-02 0.  1.
       -2    1    3    3    0  502 -0.20958822884E+03  0.33767505970E+03  0.10655676199E+04  0.11372713063E+04  0.25500000920E-02 0. -1.
</event>
<event>
 5   0  0.2422083E-06  0.2983333E+04  0.7818609E-02  0.8248506E-01
        1   -1    0    0  501    0  0.00000000000E+00  0.00000000000E+00  0.14448565681E+04  0.14448565681E+04  0.50400001928E-02 0. -1.
       -1   -1    0    0    0  501  0.00000000000E+00  0.00000000000E+00 -0.15399932364E+04  0.15399932364E+04  0.50400001928E-02 0.  1.
    10030    2    1    2    0    0  0.00000000000E+00  0.00000000000E+00 -0.95136668320E+02  0.29848498045E+04  0.29833332649E+04 0.  0.
        2    1    3    3  502    0  0.24644831602E+03 -0.12999253232E+04 -0.73677750850E+03  0.15143921934E+04  0.25500000920E-02 0.  1.
       -2    1    3    3    0  502 -0.24644831602E+03  0.12999253232E+04  0.64164084018E+03  0.14704576111E+04  0.25500000920E-02 0. -1.
</event>
<event>
 5   0  0.2298500E-06  0.2904901E+04  0.7818609E-02  0.8271421E-01
        3   -1    0    0  501    0  0.00000000000E+00  0.00000000000E+00  0.18716112911E+04  0.18716112938E+04  0.10100000352E+00 0.  1.
       -3   -1    0    0    0  501  0.00000000000E+00  0.00000000000E+00 -0.11271638632E+04  0.11271638678E+04  0.10100000352E+00 0. -1.
    10030    2    1    2    0    0  0.00000000000E+00  0.00000000000E+00  0.74444742785E+03  0.29987751616E+04  0.29049011166E+04 0.  0.
        3    1    3    3  502    0  0.60270663045E+02 -0.60379041510E+03 -0.99004871124E+03  0.11612027726E+04  0.10100000352E+00 0. -1.
       -3    1    3    3    0  502 -0.60270663045E+02  0.60379041510E+03  0.17344961391E+04  0.18375723890E+04  0.10100000352E+00 0.  1.
</event>
<event>
 5   0  0.2504260E-06  0.3022060E+04  0.7818609E-02  0.8237459E-01
       -1   -1    0    0    0  501  0.00000000000E+00  0.00000000000E+00  0.11742418308E+04  0.11742418308E+04  0.50400001928E-02 0. -1.
        1   -1    0    0  501    0  0.00000000000E+00  0.00000000000E+00 -0.19444139891E+04  0.19444139891E+04  0.50400001928E-02 0.  1.
    10030    2    1    2    0    0  0.00000000000E+00  0.00000000000E+00 -0.77017215829E+03  0.31186558199E+04  0.30220603849E+04 0.  0.
        4    1    3    3  502    0 -0.73508806391E+03  0.90292428273E+03  0.60880985234E+03  0.13138789028E+04  0.12699999809E+01 0. -1.
       -4    1    3    3    0  502  0.73508806391E+03 -0.90292428273E+03 -0.13789820106E+04  0.18047769171E+04  0.12699999809E+01 0.  1.
</event>
<event>
 5   0  0.2628425E-06  0.3075768E+04  0.7818609E-02  0.8222420E-01
        1   -1    0    0  501    0  0.00000000000E+00  0.00000000000E+00  0.11472628612E+04  0.11472628612E+04  0.50400001928E-02 0. -1.
       -1   -1    0    0    0  501  0.00000000000E+00  0.00000000000E+00 -0.20615045039E+04  0.20615045039E+04  0.50400001928E-02 0.  1.
    10030    2    1    2    0    0  0.00000000000E+00  0.00000000000E+00 -0.91424164269E+03  0.32087673652E+04  0.30757682329E+04 0.  0.
        1    1    3    3  502    0  0.72382767424E+03  0.12656118152E+04 -0.96755014903E+03  0.17498151502E+04  0.50400001928E-02 0. -1.
       -1    1    3    3    0  502 -0.72382767424E+03 -0.12656118152E+04  0.53308506343E+02  0.14589522150E+04  0.50400001928E-02 0.  1.
</event>
<event>
 5   0  0.7193153E-06  0.2932104E+04  0.7818609E-02  0.8263389E-01
       -2   -1    0    0    0  501  0.00000000000E+00  0.00000000000E+00  0.10246370065E+04  0.10246370065E+04  0.25500000920E-02 0.  1.
        2   -1    0    0  501    0  0.00000000000E+00  0.00000000000E+00 -0.20976293423E+04  0.20976293423E+04  0.25500000920E-02 0. -1.
    10030    2    1    2    0    0  0.00000000000E+00  0.00000000000E+00 -0.10729923358E+04  0.31222663488E+04  0.29321041250E+04 0.  0.
        4    1    3    3  502    0 -0.62079245274E+03 -0.12681543492E+04 -0.95668689199E+03  0.17055351492E+04  0.12699999809E+01 0. -1.
       -4    1    3    3    0  502  0.62079245274E+03  0.12681543492E+04 -0.11630544379E+03  0.14167311996E+04  0.12699999809E+01 0.  1.
</event>
<event>
 5   0  0.6780150E-06  0.3025393E+04  0.7818609E-02  0.8236517E-01
       -2   -1    0    0    0  501  0.00000000000E+00  0.00000000000E+00  0.15688762763E+04  0.15688762763E+04  0.25500000920E-02 0. -1.
        2   -1    0    0  501    0  0.00000000000E+00  0.00000000000E+00 -0.14585286070E+04  0.14585286070E+04  0.25500000920E-02 0.  1.
    10030    2    1    2    0    0  0.00000000000E+00  0.00000000000E+00  0.11034766934E+03  0.30274048833E+04  0.30253931512E+04 0.  0.
        5    1    3    3  502    0 -0.94880581899E+03  0.43188600817E+03 -0.10416712768E+04  0.14737228861E+04  0.46999998093E+01 0.  1.
       -5    1    3    3    0  502  0.94880581899E+03 -0.43188600817E+03  0.11520189461E+04  0.15536819972E+04  0.46999998093E+01 0. -1.
</event>
<event>
 5   0  0.2672155E-06  0.2990469E+04  0.7818609E-02  0.8246458E-01
       -1   -1    0    0    0  501  0.00000000000E+00  0.00000000000E+00  0.11160891325E+04  0.11160891326E+04  0.50400001928E-02 0.  1.
        1   -1    0    0  501    0  0.00000000000E+00  0.00000000000E+00 -0.20031791545E+04  0.20031791545E+04  0.50400001928E-02 0. -1.
    10030    2    1    2    0    0  0.00000000000E+00  0.00000000000E+00 -0.88709002198E+03  0.31192682871E+04  0.29904691839E+04 0.  0.
        5    1    3    3  502    0  0.31549367174E+03  0.48204774876E+03 -0.18827539362E+04  0.19689313760E+04  0.46999998093E+01 0. -1.
       -5    1    3    3    0  502 -0.31549367174E+03 -0.48204774876E+03  0.99566391423E+03  0.11503369111E+04  0.46999998093E+01 0.  1.
</event>
<event>
 5   0  0.7217255E-06  0.3002158E+04  0.7818609E-02  0.8243115E-01
        2   -1    0    0  501    0  0.00000000000E+00  0.00000000000E+00  0.33314994425E+04  0.33314994425E+04  0.25500000920E-02 0. -1.
       -2   -1    0    0    0  501  0.00000000000E+00  0.00000000000E+00 -0.67634333507E+03  0.67634333507E+03  0.25500000920E-02 0.  1.
    10030    2    1    2    0    0  0.00000000000E+00  0.00000000000E+00  0.26551561074E+04  0.40078427776E+04  0.30021575200E+04 0.  0.
        1    1    3    3  502    0 -0.25048676152E+03  0.33035381780E+03 -0.59839772807E+03  0.72798152697E+03  0.50400001928E-02 0.  1.
       -1    1    3    3    0  502  0.25048676152E+03 -0.33035381780E+03  0.32535538355E+04  0.32798612506E+04  0.50400001928E-02 0. -1.
</event>
<event>
 5   0  0.6792811E-06  0.2992185E+04  0.7818609E-02  0.8245966E-01
       -2   -1    0    0    0  501  0.00000000000E+00  0.00000000000E+00  0.18104413092E+04  0.18104413092E+04  0.25500000920E-02 0.  1.
        2   -1    0    0  501    0  0.00000000000E+00  0.00000000000E+00 -0.12363241390E+04  0.12363241390E+04  0.25500000920E-02 0. -1.
    10030    2    1    2    0    0  0.00000000000E+00  0.00000000000E+00  0.57411717026E+03  0.30467654482E+04  0.29921846820E+04 0.  0.
        2    1    3    3  502    0  0.39145527115E+02  0.61129615423E+03  0.16769024709E+04  0.17852779216E+04  0.25500000920E-02 0.  1.
       -2    1    3    3    0  502 -0.39145527115E+02 -0.61129615423E+03 -0.11027853006E+04  0.12614875266E+04  0.25500000920E-02 0. -1.
</event>
<event>
 5   0  0.6792811E-06  0.3036097E+04  0.7818609E-02  0.8233498E-01
       -2   -1    0    0    0  501  0.00000000000E+00  0.00000000000E+00  0.89774107183E+03  0.89774107184E+03  0.25500000920E-02 0. -1.
        2   -1    0    0  501    0  0.00000000000E+00  0.00000000000E+00 -0.25669663643E+04  0.25669663643E+04  0.25500000920E-02 0.  1.
    10030    2    1    2    0    0  0.00000000000E+00  0.00000000000E+00 -0.16692252925E+04  0.34647074361E+04  0.30360969255E+04 0.  0.
        2    1    3    3  502    0  0.12622228889E+04  0.74362504514E+03 -0.12886301622E+04  0.19510900861E+04  0.25500000920E-02 0.  1.
       -2    1    3    3    0  502 -0.12622228889E+04 -0.74362504514E+03 -0.38059513028E+03  0.15136173500E+04  0.25500000920E-02 0. -1.
</event>
<event>
 5   0  0.2504260E-06  0.2994546E+04  0.7818609E-02  0.8245290E-01
       -1   -1    0    0    0  501  0.00000000000E+00  0.00000000000E+00  0.82893785235E+03  0.82893785236E+03  0.50400001928E-02 0.  1.
        1   -1    0    0  501    0  0.00000000000E+00  0.00000000000E+00 -0.27044558188E+04  0.27044558188E+04  0.50400001928E-02 0. -1.
    10030    2    1    2    0    0  0.00000000000E+00  0.00000000000E+00 -0.18755179664E+04  0.35333936712E+04  0.29945455737E+04 0.  0.
        4    1    3    3  502    0 -0.11969335484E+04  0.13802461482E+03 -0.19865973885E+04  0.23234180662E+04  0.12699999809E+01 0. -1.
       -4    1    3    3    0  502  0.11969335484E+04 -0.13802461482E+03  0.11107942205E+03  0.12099756049E+04  0.12699999809E+01 0.  1.
</event>
<event>
 5   0  0.2628425E-06  0.2969602E+04  0.7818609E-02  0.8252465E-01
        1   -1    0    0  501    0  0.00000000000E+00  0.00000000000E+00  0.18180522883E+04  0.18180522883E+04  0.50400001928E-02 0. -1.
       -1   -1    0    0    0  501  0.00000000000E+00  0.00000000000E+00 -0.12126350198E+04  0.12126350199E+04  0.50400001928E-02 0.  1.
    10030    2    1    2    0    0  0.00000000000E+00  0.00000000000E+00  0.60541726843E+03  0.30306873081E+04  0.29696019078E+04 0.  0.
        1    1    3    3  502    0 -0.12206169570E+04 -0.31041388974E+03 -0.49983299828E+03  0.13550260384E+04  0.50400001928E-02 0.  1.
       -1    1    3    3    0  502  0.12206169570E+04  0.31041388974E+03  0.11052502667E+04  0.16756612697E+04  0.50400001928E-02 0. -1.
</event>
<event>
 5   0  0.6780150E-06  0.3021232E+04  0.7818609E-02  0.8237694E-01
       -2   -1    0    0    0  501  0.00000000000E+00  0.00000000000E+00  0.99219791509E+03  0.99219791510E+03  0.25500000920E-02 0. -1.
        2   -1    0    0  501    0  0.00000000000E+00  0.00000000000E+00 -0.22999045108E+04  0.22999045108E+04  0.25500000920E-02 0.  1.
    10030    2    1    2    0    0  0.00000000000E+00  0.00000000000E+00 -0.13077065957E+04  0.32921024259E+04  0.30212318418E+04 0.  0.
        5    1    3    3  502    0 -0.54011924793E+03 -0.37120278542E+03  0.82920693186E+03  0.10569420683E+04  0.46999998093E+01 0. -1.
       -5    1    3    3    0  502  0.54011924793E+03  0.37120278542E+03 -0.21369135275E+04  0.22351603576E+04  0.46999998093E+01 0.  1.
</event>
<event>
 5   0  0.2672155E-06  0.2989453E+04  0.7818609E-02  0.8246749E-01
        1   -1    0    0  501    0  0.00000000000E+00  0.00000000000E+00  0.11284946321E+04  0.11284946321E+04  0.50400001928E-02 0.  1.
       -1   -1    0    0    0  501  0.00000000000E+00  0.00000000000E+00 -0.19798119157E+04  0.19798119157E+04  0.50400001928E-02 0. -1.
    10030    2    1    2    0    0  0.00000000000E+00  0.00000000000E+00 -0.85131728355E+03  0.31083065478E+04  0.29894528726E+04 0.  0.
        5    1    3    3  502    0 -0.82803877247E+03  0.74570186897E+02 -0.17172101550E+04  0.19078893385E+04  0.46999998093E+01 0. -1.
       -5    1    3    3    0  502  0.82803877247E+03 -0.74570186897E+02  0.86589287146E+03  0.12004172093E+04  0.46999998093E+01 0.  1.
</event>
<event>
 5   0  0.6792811E-06  0.2661655E+04  0.7818609E-02  0.8347555E-01
       -2   -1    0    0    0  501  0.00000000000E+00  0.00000000000E+00  0.11135993084E+04  0.11135993084E+04  0.25500000920E-02 0. -1.
        2   -1    0    0  501    0  0.00000000000E+00  0.00000000000E+00 -0.15904298222E+04  0.15904298222E+04  0.25500000920E-02 0.  1.
    10030    2    1    2    0    0  0.00000000000E+00  0.00000000000E+00 -0.47683051378E+03  0.27040291306E+04  0.26616547861E+04 0.  0.
        2    1    3    3  502    0 -0.12906095181E+04  0.20204651243E+03  0.19808079950E+02  0.13064792695E+04  0.25500000920E-02 0. -1.
       -2    1    3    3    0  502  0.12906095181E+04 -0.20204651243E+03 -0.49663859373E+03  0.13975498611E+04  0.25500000920E-02 0.  1.
</event>
<event>
 5   0  0.7193153E-06  0.3008603E+04  0.7818609E-02  0.8241278E-01
        2   -1    0    0  501    0  0.00000000000E+00  0.00000000000E+00  0.10076448211E+04  0.10076448211E+04  0.25500000920E-02 0. -1.
       -2   -1    0    0    0  501  0.00000000000E+00  0.00000000000E+00 -0.22457549873E+04  0.22457549873E+04  0.25500000920E-02 0.  1.
    10030    2    1    2    0    0  0.00000000000E+00  0.00000000000E+00 -0.12381101662E+04  0.32533998084E+04  0.30086032523E+04 0.  0.
        4    1    3    3  502    0 -0.25072491798E+03 -0.13839055285E+04 -0.41901350673E+02  0.14070589299E+04  0.12699999809E+01 0. -1.
       -4    1    3    3    0  502  0.25072491798E+03  0.13839055285E+04 -0.11962088155E+04  0.18463408784E+04  0.12699999809E+01 0.  1.
</event>
<event>
 5   0  0.2504260E-06  0.3012343E+04  0.7818609E-02  0.8240215E-01
       -1   -1    0    0    0  501  0.00000000000E+00  0.00000000000E+00  0.12504833254E+04  0.12504833254E+04  0.50400001928E-02 0.  1.
        1   -1    0    0  501    0  0.00000000000E+00  0.00000000000E+00 -0.18141407470E+04  0.18141407470E+04  0.50400001928E-02 0. -1.
    10030    2    1    2    0    0  0.00000000000E+00  0.00000000000E+00 -0.56365742157E+03  0.30646240724E+04  0.30123431106E+04 0.  0.
        4    1    3    3  502    0  0.48866331163E+03  0.44427395354E+03 -0.16589764660E+04  0.17856023369E+04  0.12699999809E+01 0. -1.
       -4    1    3    3    0  502 -0.48866331163E+03 -0.44427395354E+03  0.10953190444E+04  0.12790217355E+04  0.12699999809E+01 0.  1.
</event>
<event>
 5   0  0.6780150E-06  0.2988534E+04  0.7818609E-02  0.8247013E-01
       -2   -1    0    0    0  501  0.00000000000E+00  0.00000000000E+00  0.12309005963E+04  0.12309005963E+04  0.25500000920E-02 0.  1.
        2   -1    0    0  501    0  0.00000000000E+00  0.00000000000E+00 -0.18139838969E+04  0.18139838969E+04  0.25500000920E-02 0. -1.
    10030    2    1    2    0    0  0.00000000000E+00  0.00000000000E+00 -0.58308330059E+03  0.30448844933E+04  0.29885339954E+04 0.  0.
        5    1    3    3  502    0  0.36219227769E+03  0.14288709233E+04 -0.42064698620E+02  0.14746684001E+04  0.46999998093E+01 0. -1.
       -5    1    3    3    0  502 -0.36219227769E+03 -0.14288709233E+04 -0.54101860198E+03  0.15702160931E+04  0.46999998093E+01 0.  1.
</event>
<event>
 5   0  0.7201538E-06  0.2347274E+04  0.7818609E-02  0.8459511E-01
       -2   -1    0    0    0  501  0.00000000000E+00  0.00000000000E+00  0.42821536985E+03  0.42821536986E+03  0.25500000920E-02 0.  1.
        2   -1    0    0  501    0  0.00000000000E+00  0.00000000000E+00 -0.32166619687E+04  0.32166619687E+04  0.25500000920E-02 0. -1.
    10030    2    1    2    0    0  0.00000000000E+00  0.00000000000E+00 -0.27884465989E+04  0.36448773386E+04  0.23472742444E+04 0.  0.
        3    1    3    3  502    0  0.47710215943E+03  0.52673970159E+02  0.26882613894E+03  0.55015317943E+03  0.10100000352E+00 0.  1.
       -3    1    3    3    0  502 -0.47710215943E+03 -0.52673970159E+02 -0.30572727378E+04  0.30947241592E+04  0.10100000352E+00 0. -1.
</event>
<event>
 5   0  0.7193153E-06  0.3025179E+04  0.7818609E-02  0.8236577E-01
       -2   -1    0    0    0  501  0.00000000000E+00  0.00000000000E+00  0.82159500962E+03  0.82159500963E+03  0.25500000920E-02 0. -1.
        2   -1    0    0  501    0  0.00000000000E+00  0.00000000000E+00 -0.27847387066E+04  0.27847387066E+04  0.25500000920E-02 0.  1.
    10030    2    1    2    0    0  0.00000000000E+00  0.00000000000E+00 -0.19631436970E+04  0.36063337162E+04  0.30251792836E+04 0.  0.
        4    1    3    3  502    0  0.59833148175E+03 -0.63355550843E+03 -0.24554180174E+04  0.26054697076E+04  0.12699999809E+01 0.  1.
       -4    1    3    3    0  502 -0.59833148175E+03  0.63355550843E+03  0.49227432040E+03  0.10008640086E+04  0.12699999809E+01 0. -1.
</event>
<event>
 5   0  0.2422083E-06  0.3002789E+04  0.7818609E-02  0.8242935E-01
        1   -1    0    0  501    0  0.00000000000E+00  0.00000000000E+00  0.14399979393E+04  0.14399979393E+04  0.50400001928E-02 0. -1.
       -1   -1    0    0    0  501  0.00000000000E+00  0.00000000000E+00 -0.15654087865E+04  0.15654087865E+04  0.50400001928E-02 0.  1.
    10030    2    1    2    0    0  0.00000000000E+00  0.00000000000E+00 -0.12541084718E+03  0.30054067258E+04  0.30027889880E+04 0.  0.
        2    1    3    3  502    0  0.68098085789E+03 -0.39124010559E+03 -0.13434230968E+04  0.15561456764E+04  0.25500000920E-02 0.  1.
       -2    1    3    3    0  502 -0.68098085789E+03  0.39124010559E+03  0.12180122496E+04  0.14492610494E+04  0.25500000920E-02 0. -1.
</event>
<event>
 5   0  0.6780150E-06  0.2998854E+04  0.7818609E-02  0.8244058E-01
       -2   -1    0    0    0  501  0.00000000000E+00  0.00000000000E+00  0.11296912161E+04  0.11296912161E+04  0.25500000920E-02 0.  1.
        2   -1    0    0  501    0  0.00000000000E+00  0.00000000000E+00 -0.19901733463E+04  0.19901733463E+04  0.25500000920E-02 0. -1.
    10030    2    1    2    0    0  0.00000000000E+00  0.00000000000E+00 -0.86048213023E+03  0.31198645624E+04  0.29988540130E+04 0.  0.
        5    1    3    3  502    0  0.11672925456E+04 -0.26040967090E+03  0.51061602945E+03  0.13004368125E+04  0.46999998093E+01 0.  1.
       -5    1    3    3    0  502 -0.11672925456E+04  0.26040967090E+03 -0.13710981597E+04  0.18194277499E+04  0.46999998093E+01 0. -1.
</event>
<event>
 5   0  0.2672155E-06  0.2966388E+04  0.7818609E-02  0.8253395E-01
       -1   -1    0    0    0  501  0.00000000000E+00  0.00000000000E+00  0.16146263833E+04  0.16146263833E+04  0.50400001928E-02 0.  1.
        1   -1    0    0  501    0  0.00000000000E+00  0.00000000000E+00 -0.13624599984E+04  0.13624599985E+04  0.50400001928E-02 0. -1.
    10030    2    1    2    0    0  0.00000000000E+00  0.00000000000E+00  0.25216638482E+03  0.29770863817E+04  0.29663876076E+04 0.  0.
        5    1    3    3  502    0 -0.12186180979E+04 -0.79810161965E+03  0.40609755668E+03  0.15122610817E+04  0.46999998093E+01 0.  1.
       -5    1    3    3    0  502  0.12186180979E+04  0.79810161965E+03 -0.15393117186E+03  0.14648253000E+04  0.46999998093E+01 0. -1.
</event>
<event>
 5   0  0.7193153E-06  0.2988173E+04  0.7818609E-02  0.8247116E-01
        2   -1    0    0  501    0  0.00000000000E+00  0.00000000000E+00  0.17098437388E+04  0.17098437388E+04  0.25500000920E-02 0.  1.
       -2   -1    0    0    0  501  0.00000000000E+00  0.00000000000E+00 -0.13055542889E+04  0.13055542889E+04  0.25500000920E-02 0. -1.
    10030    2    1    2    0    0  0.00000000000E+00  0.00000000000E+00  0.40428944990E+03  0.30153980277E+04  0.29881725697E+04 0.  0.
        4    1    3    3  502    0  0.13851389114E+03  0.50574221026E+03 -0.12096485259E+04  0.13184128528E+04  0.12699999809E+01 0. -1.
       -4    1    3    3    0  502 -0.13851389114E+03 -0.50574221026E+03  0.16139379758E+04  0.16969851749E+04  0.12699999809E+01 0.  1.
</event>
<event>
 5   0  0.2628425E-06  0.2974995E+04  0.7818609E-02  0.8250907E-01
        1   -1    0    0  501    0  0.00000000000E+00  0.00000000000E+00  0.24573814283E+04  0.24573814283E+04  0.50400001928E-02 0. -1.
       -1   -1    0    0    0  501  0.00000000000E+00  0.00000000000E+00 -0.90040931448E+03  0.90040931449E+03  0.50400001928E-02 0.  1.
    10030    2    1    2    0    0  0.00000000000E+00  0.00000000000E+00  0.15569721138E+04  0.33577907428E+04  0.29749952116E+04 0.  0.
        1    1    3    3  502    0 -0.16665125367E+03  0.75934104711E+03  0.22098427437E+04  0.23426003539E+04  0.50400001928E-02 0. -1.
       -1    1    3    3    0  502  0.16665125367E+03 -0.75934104711E+03 -0.65287062993E+03  0.10151903889E+04  0.50400001928E-02 0.  1.
</event>
<event>
 5   0  0.6780150E-06  0.3001492E+04  0.7818609E-02  0.8243305E-01
        2   -1    0    0  501    0  0.00000000000E+00  0.00000000000E+00  0.11104884262E+04  0.11104884262E+04  0.25500000920E-02 0.  1.
       -2   -1    0    0    0  501  0.00000000000E+00  0.00000000000E+00 -0.20281516779E+04  0.20281516779E+04  0.25500000920E-02 0. -1.
    10030    2    1    2    0    0  0.00000000000E+00  0.00000000000E+00 -0.91766325177E+03  0.31386401041E+04  0.30014922721E+04 0.  0.
        5    1    3    3  502    0 -0.20081951920E+03 -0.14219930899E+04 -0.32356228210E+01  0.14361146842E+04  0.46999998093E+01 0.  1.
       -5    1    3    3    0  502  0.20081951920E+03  0.14219930899E+04 -0.91442762895E+03  0.17025254199E+04  0.46999998093E+01 0. -1.
</event>
<event>
 5   0  0.2672155E-06  0.2803215E+04  0.7818609E-02  0.8302271E-01
        1   -1    0    0  501    0  0.00000000000E+00  0.00000000000E+00  0.24300079804E+04  0.24300079804E+04  0.50400001928E-02 0.  1.
       -1   -1    0    0    0  501  0.00000000000E+00  0.00000000000E+00 -0.80843525646E+03  0.80843525647E+03  0.50400001928E-02 0. -1.
    10030    2    1    2    0    0  0.00000000000E+00  0.00000000000E+00  0.16215727239E+04  0.32384432369E+04  0.28032153859E+04 0.  0.
        5    1    3    3  502    0  0.80938441124E+03  0.77986380228E+03  0.17781685774E+04  0.21036150443E+04  0.46999998093E+01 0.  1.
       -5    1    3    3    0  502 -0.80938441124E+03 -0.77986380228E+03 -0.15659585342E+03  0.11348281925E+04  0.46999998093E+01 0. -1.
</event>
<event>
 5   0  0.2672155E-06  0.2980034E+04  0.7818609E-02  0.8249455E-01
        1   -1    0    0  501    0  0.00000000000E+00  0.00000000000E+00  0.24696918258E+04  0.24696918258E+04  0.50400001928E-02 0. -1.
       -1   -1    0    0    0  501  0.00000000000E+00  0.00000000000E+00 -0.89895848111E+03  0.89895848112E+03  0.50400001928E-02 0.  1.
    10030    2    1    2    0    0  0.00000000000E+00  0.00000000000E+00  0.15707333447E+04  0.33686503069E+04  0.29800338337E+04 0.  0.
        5    1    3    3  502    0  0.81520586884E+03  0.10523681490E+04  0.15420547183E+04  0.20371534488E+04  0.46999998093E+01 0. -1.
       -5    1    3    3    0  502 -0.81520586884E+03 -0.10523681490E+04  0.28678626392E+02  0.13314968581E+04  0.46999998093E+01 0.  1.
</event>
<event>
 5   0  0.6780150E-06  0.2368352E+04  0.7818609E-02  0.8451448E-01
        2   -1    0    0  501    0  0.00000000000E+00  0.00000000000E+00  0.21465515444E+04  0.21465515444E+04  0.25500000920E-02 0. -1.
       -2   -1    0    0    0  501  0.00000000000E+00  0.00000000000E+00 -0.65326785385E+03  0.65326785386E+03  0.25500000920E-02 0.  1.
    10030    2    1    2    0    0  0.00000000000E+00  0.00000000000E+00  0.14932836905E+04  0.27998193982E+04  0.23683522716E+04 0.  0.
        5    1    3    3  502    0  0.16390984672E+03 -0.52513704101E+03  0.19863063893E+04  0.20610847901E+04  0.46999998093E+01 0. -1.
       -5    1    3    3    0  502 -0.16390984672E+03  0.52513704101E+03 -0.49302269881E+03  0.73873460812E+03  0.46999998093E+01 0.  1.
</event>
<event>
 5   0  0.2504260E-06  0.2872102E+04  0.7818609E-02  0.8281227E-01
        1   -1    0    0  501    0  0.00000000000E+00  0.00000000000E+00  0.13726202497E+04  0.13726202497E+04  0.50400001928E-02 0.  1.
       -1   -1    0    0    0  501  0.00000000000E+00  0.00000000000E+00 -0.15024129474E+04  0.15024129474E+04  0.50400001928E-02 0. -1.
    10030    2    1    2    0    0  0.00000000000E+00  0.00000000000E+00 -0.12979269774E+03  0.28750331971E+04  0.28721019724E+04 0.  0.
        4    1    3    3  502    0  0.38448653955E+03 -0.10768340174E+04 -0.93459800121E+03  0.14767790752E+04  0.12699999809E+01 0. -1.
       -4    1    3    3    0  502 -0.38448653955E+03  0.10768340174E+04  0.80480530347E+03  0.13982541219E+04  0.12699999809E+01 0.  1.
</event>
<event>
 5   0  0.2504260E-06  0.3011322E+04  0.7818609E-02  0.8240505E-01
       -1   -1    0    0    0  501  0.00000000000E+00  0.00000000000E+00  0.12091152853E+04  0.12091152853E+04  0.50400001928E-02 0.  1.
        1   -1    0    0  501    0  0.00000000000E+00  0.00000000000E+00 -0.18749367303E+04  0.18749367303E+04  0.50400001928E-02 0. -1.
    10030    2    1    2    0    0  0.00000000000E+00  0.00000000000E+00 -0.66582144506E+03  0.30840520156E+04  0.30113217428E+04 0.  0.
        4    1    3    3  502    0  0.27018193178E+03 -0.13777634002E+04  0.22408387152E+03  0.14217754596E+04  0.12699999809E+01 0. -1.
       -4    1    3    3    0  502 -0.27018193178E+03  0.13777634002E+04 -0.88990531657E+03  0.16622765560E+04  0.12699999809E+01 0.  1.
</event>
<event>
 5   0  0.2672155E-06  0.2172602E+04  0.7818609E-02  0.8529919E-01
       -1   -1    0    0    0  501  0.00000000000E+00  0.00000000000E+00  0.10685214160E+04  0.10685214160E+04  0.50400001928E-02 0. -1.
        1   -1    0    0  501    0  0.00000000000E+00  0.00000000000E+00 -0.11043762523E+04  0.11043762523E+04  0.50400001928E-02 0.  1.
    10030    2    1    2    0    0  0.00000000000E+00  0.00000000000E+00 -0.35854836276E+02  0.21728976683E+04  0.21726018290E+04 0.  0.
        5    1    3    3  502    0 -0.41107040233E+03 -0.72202393634E+03  0.68197509432E+03  0.10748997905E+04  0.46999998093E+01 0. -1.
       -5    1    3    3    0  502  0.41107040233E+03  0.72202393634E+03 -0.71782993060E+03  0.10979978778E+04  0.46999998093E+01 0.  1.
</event>
<event>
 5   0  0.2504260E-06  0.2975872E+04  0.7818609E-02  0.8250655E-01
        1   -1    0    0  501    0  0.00000000000E+00  0.00000000000E+00  0.25179968792E+04  0.25179968792E+04  0.50400001928E-02 0. -1.
       -1   -1    0    0    0  501  0.00000000000E+00  0.00000000000E+00 -0.87925170620E+03  0.87925170621E+03  0.50400001928E-02 0.  1.
    10030    2    1    2    0    0  0.00000000000E+00  0.00000000000E+00  0.16387451730E+04  0.33972485854E+04  0.29758716721E+04 0.  0.
        4    1    3    3  502    0  0.50020558140E+03 -0.37293190055E+03 -0.72270068264E+03  0.95476788577E+03  0.12699999809E+01 0.  1.
       -4    1    3    3    0  502 -0.50020558140E+03  0.37293190055E+03  0.23614458556E+04  0.24424806996E+04  0.12699999809E+01 0. -1.
</event>
<event>
 5   0  0.2504260E-06  0.2980896E+04  0.7818609E-02  0.8249207E-01
        1   -1    0    0  501    0  0.00000000000E+00  0.00000000000E+00  0.20679865645E+04  0.20679865645E+04  0.50400001928E-02 0. -1.
       -1   -1    0    0    0  501  0.00000000000E+00  0.00000000000E+00 -0.10742023236E+04  0.10742023236E+04  0.50400001928E-02 0.  1.
    10030    2    1    2    0    0  0.00000000000E+00  0.00000000000E+00  0.99378424089E+03  0.31421888881E+04  0.29808964912E+04 0.  0.
        4    1    3    3  502    0 -0.59976124333E+03  0.12625738351E+04 -0.48427678190E+02  0.13986254292E+04  0.12699999809E+01 0.  1.
       -4    1    3    3    0  502  0.59976124333E+03 -0.12625738351E+04  0.10422119191E+04  0.17435634589E+04  0.12699999809E+01 0. -1.
</event>
<event>
 5   0  0.2504260E-06  0.3010515E+04  0.7818609E-02  0.8240735E-01
        1   -1    0    0  501    0  0.00000000000E+00  0.00000000000E+00  0.13142718849E+04  0.13142718849E+04  0.50400001928E-02 0. -1.
       -1   -1    0    0    0  501  0.00000000000E+00  0.00000000000E+00 -0.17239959656E+04  0.17239959656E+04  0.50400001928E-02 0.  1.
    10030    2    1    2    0    0  0.00000000000E+00  0.00000000000E+00 -0.40972408070E+03  0.30382678505E+04  0.30105145256E+04 0.  0.
        4    1    3    3  502    0  0.13956345023E+04  0.28788927868E+03 -0.69422589124E+03  0.15851268409E+04  0.12699999809E+01 0.  1.
       -4    1    3    3    0  502 -0.13956345023E+04 -0.28788927868E+03  0.28450181054E+03  0.14531410096E+04  0.12699999809E+01 0. -1.
</event>
<event>
 5   0  0.2628425E-06  0.2916403E+04  0.7818609E-02  0.8268014E-01
        1   -1    0    0  501    0  0.00000000000E+00  0.00000000000E+00  0.12968050841E+04  0.12968050842E+04  0.50400001928E-02 0.  1.
       -1   -1    0    0    0  501  0.00000000000E+00  0.00000000000E+00 -0.16396849748E+04  0.16396849748E+04  0.50400001928E-02 0. -1.
    10030    2    1    2    0    0  0.00000000000E+00  0.00000000000E+00 -0.34287989065E+03  0.29364900589E+04  0.29164031352E+04 0.  0.
        1    1    3    3  502    0 -0.43301208083E+03  0.12920645086E+04  0.35119353620E+03  0.14072196191E+04  0.50400001928E-02 0.  1.
       -1    1    3    3    0  502  0.43301208083E+03 -0.12920645086E+04 -0.69407342685E+03  0.15292704399E+04  0.50400001928E-02 0. -1.
</event>
<event>
 5   0  0.6792811E-06  0.2961379E+04  0.7818609E-02  0.8254846E-01
        2   -1    0    0  501    0  0.00000000000E+00  0.00000000000E+00  0.20873168747E+04  0.20873168747E+04  0.25500000920E-02 0. -1.
       -2   -1    0    0    0  501  0.00000000000E+00  0.00000000000E+00 -0.10503631400E+04  0.10503631400E+04  0.25500000920E-02 0.  1.
    10030    2    1    2    0    0  0.00000000000E+00  0.00000000000E+00  0.10369537348E+04  0.31376800147E+04  0.29613785349E+04 0.  0.
        2    1    3    3  502    0 -0.76915659362E+03 -0.11803652740E+04  0.35747202303E+02  0.14093054701E+04  0.25500000920E-02 0.  1.
       -2    1    3    3    0  502  0.76915659362E+03  0.11803652740E+04  0.10012065324E+04  0.17283745446E+04  0.25500000920E-02 0. -1.
</event>
<event>
 5   0  0.2628425E-06  0.2988415E+04  0.7818609E-02  0.8247047E-01
        1   -1    0    0  501    0  0.00000000000E+00  0.00000000000E+00  0.23841253827E+04  0.23841253827E+04  0.50400001928E-02 0.  1.
       -1   -1    0    0    0  501  0.00000000000E+00  0.00000000000E+00 -0.93646763904E+03  0.93646763905E+03  0.50400001928E-02 0. -1.
    10030    2    1    2    0    0  0.00000000000E+00  0.00000000000E+00  0.14476577437E+04  0.33205930218E+04  0.29884151441E+04 0.  0.
        1    1    3    3  502    0 -0.12896866311E+04  0.71081800350E+03  0.10051562257E+04  0.17829450016E+04  0.50400001928E-02 0.  1.
       -1    1    3    3    0  502  0.12896866311E+04 -0.71081800350E+03  0.44250151797E+03  0.15376480202E+04  0.50400001928E-02 0. -1.
</event>
<event>
 5   0  0.2628425E-06  0.3016624E+04  0.7818609E-02  0.8239000E-01
        1   -1    0    0  501    0  0.00000000000E+00  0.00000000000E+00  0.17788035693E+04  0.17788035693E+04  0.50400001928E-02 0.  1.
       -1   -1    0    0    0  501  0.00000000000E+00  0.00000000000E+00 -0.12789527495E+04  0.12789527495E+04  0.50400001928E-02 0. -1.
    10030    2    1    2    0    0  0.00000000000E+00  0.00000000000E+00  0.49985081986E+03  0.30577563188E+04  0.30166244153E+04 0.  0.
        1    1    3    3  502    0  0.82844695086E+03  0.10034419065E+04 -0.52322351052E+03  0.14024916585E+04  0.50400001928E-02 0. -1.
       -1    1    3    3    0  502 -0.82844695086E+03 -0.10034419065E+04  0.10230743304E+04  0.16552646603E+04  0.50400001928E-02 0.  1.
</event>
<event>
 5   0  0.6780150E-06  0.3017364E+04  0.7818609E-02  0.8238790E-01
       -2   -1    0    0    0  501  0.00000000000E+00  0.00000000000E+00  0.12277521444E+04  0.12277521444E+04  0.25500000920E-02 0.  1.
        2   -1    0    0  501    0  0.00000000000E+00  0.00000000000E+00 -0.18538935691E+04  0.18538935691E+04  0.25500000920E-02 0. -1.
    10030    2    1    2    0    0  0.00000000000E+00  0.00000000000E+00 -0.62614142477E+03  0.30816457135E+04  0.30173642836E+04 0.  0.
        5    1    3    3  502    0 -0.14489364798E+04 -0.17701722939E+03  0.76296191644E+02  0.14617096910E+04  0.46999998093E+01 0.  1.
       -5    1    3    3    0  502  0.14489364798E+04  0.17701722939E+03 -0.70243761641E+03  0.16199360225E+04  0.46999998093E+01 0. -1.
</event>
<event>
 5   0  0.2422083E-06  0.2981314E+04  0.7818609E-02  0.8249087E-01
        1   -1    0    0  501    0  0.00000000000E+00  0.00000000000E+00  0.25122488160E+04  0.25122488160E+04  0.50400001928E-02 0. -1.
       -1   -1    0    0    0  501  0.00000000000E+00  0.00000000000E+00 -0.88448965379E+03  0.88448965381E+03  0.50400001928E-02 0.  1.
    10030    2    1    2    0    0  0.00000000000E+00  0.00000000000E+00  0.16277591622E+04  0.33967384698E+04  0.29813138617E+04 0.  0.
        2    1    3    3  502    0 -0.31237217942E+03 -0.14186503204E+04  0.11950284471E+04  0.18810204941E+04  0.25500000920E-02 0. -1.
       -2    1    3    3    0  502  0.31237217942E+03  0.14186503204E+04  0.43273071508E+03  0.15157179757E+04  0.25500000920E-02 0.  1.
</event>
<event>
 5   0  0.2552990E-06  0.2986563E+04  0.7818609E-02  0.8247578E-01
        1   -1    0    0  501    0  0.00000000000E+00  0.00000000000E+00  0.21864508545E+04  0.21864508545E+04  0.50400001928E-02 0.  1.
       -1   -1    0    0    0  501  0.00000000000E+00  0.00000000000E+00 -0.10198674518E+04  0.10198674519E+04  0.50400001928E-02 0. -1.
    10030    2    1    2    0    0  0.00000000000E+00  0.00000000000E+00  0.11665834026E+04  0.32063183063E+04  0.29865632835E+04 0.  0.
        3    1    3    3  502    0 -0.73147124602E+03  0.84499358629E+03  0.16465305412E+04  0.19900068287E+04  0.10100000352E+00 0.  1.
       -3    1    3    3    0  502  0.73147124602E+03 -0.84499358629E+03 -0.47994713864E+03  0.12163114777E+04  0.10100000352E+00 0. -1.
</event>
<event>
 5   0  0.2504260E-06  0.3080479E+04  0.7818609E-02  0.8221116E-01
        1   -1    0    0  501    0  0.00000000000E+00  0.00000000000E+00  0.10055526913E+04  0.10055526913E+04  0.50400001928E-02 0. -1.
       -1   -1    0    0    0  501  0.00000000000E+00  0.00000000000E+00 -0.23592372102E+04  0.23592372102E+04  0.50400001928E-02 0.  1.
    10030    2    1    2    0    0  0.00000000000E+00  0.00000000000E+00 -0.13536845189E+04  0.33647899015E+04  0.30804787460E+04 0.  0.
        4    1    3    3  502    0  0.28726733962E+03 -0.12081492112E+04 -0.16720829797E+04  0.20827890304E+04  0.12699999809E+01 0.  1.
       -4    1    3    3    0  502 -0.28726733962E+03  0.12081492112E+04  0.31839846085E+03  0.12820008712E+04  0.12699999809E+01 0. -1.
</event>
<event>
 5   0  0.2504260E-06  0.2993525E+04  0.7818609E-02  0.8245582E-01
       -1   -1    0    0    0  501  0.00000000000E+00  0.00000000000E+00  0.12318147442E+04  0.12318147442E+04  0.50400001928E-02 0.  1.
        1   -1    0    0  501    0  0.00000000000E+00  0.00000000000E+00 -0.18186974971E+04  0.18186974971E+04  0.50400001928E-02 0. -1.
    10030    2    1    2    0    0  0.00000000000E+00  0.00000000000E+00 -0.58688275289E+03  0.30505122414E+04  0.29935252745E+04 0.  0.
        4    1    3    3  502    0  0.12457130690E+04  0.58139951047E+03 -0.89671658270E+03  0.16413191900E+04  0.12699999809E+01 0. -1.
       -4    1    3    3    0  502 -0.12457130690E+04 -0.58139951047E+03  0.30983382981E+03  0.14091930514E+04  0.12699999809E+01 0.  1.
</event>
<event>
 5   0  0.7193153E-06  0.2310602E+04  0.7818609E-02  0.8473753E-01
       -2   -1    0    0    0  501  0.00000000000E+00  0.00000000000E+00  0.98076395638E+03  0.98076395638E+03  0.25500000920E-02 0.  1.
        2   -1    0    0  501    0  0.00000000000E+00  0.00000000000E+00 -0.13608985551E+04  0.13608985551E+04  0.25500000920E-02 0. -1.
    10030    2    1    2    0    0  0.00000000000E+00  0.00000000000E+00 -0.38013459869E+03  0.23416625114E+04  0.23106018706E+04 0.  0.
        4    1    3    3  502    0 -0.88485020268E+03  0.33847270759E+03 -0.86016290129E+03  0.12796114585E+04  0.12699999809E+01 0. -1.
       -4    1    3    3    0  502  0.88485020268E+03 -0.33847270759E+03  0.48002830260E+03  0.10620510530E+04  0.12699999809E+01 0.  1.
</event>
<event>
 5   0  0.2298500E-06  0.2961531E+04  0.7818609E-02  0.8254802E-01
       -3   -1    0    0    0  501  0.00000000000E+00  0.00000000000E+00  0.17348701223E+04  0.17348701253E+04  0.10100000352E+00 0.  1.
        3   -1    0    0  501    0  0.00000000000E+00  0.00000000000E+00 -0.12638789745E+04  0.12638789785E+04  0.10100000352E+00 0. -1.
    10030    2    1    2    0    0  0.00000000000E+00  0.00000000000E+00  0.47099114782E+03  0.29987491038E+04  0.29615306053E+04 0.  0.
        5    1    3    3  502    0  0.78025482942E+03 -0.12184445439E+04  0.55447691852E+03  0.15494745717E+04  0.46999998093E+01 0. -1.
       -5    1    3    3    0  502 -0.78025482942E+03  0.12184445439E+04 -0.83485770695E+02  0.14492745320E+04  0.46999998093E+01 0.  1.
</event>
<event>
 5   0  0.2552990E-06  0.2820457E+04  0.7818609E-02  0.8296945E-01
       -1   -1    0    0    0  501  0.00000000000E+00  0.00000000000E+00  0.16550820758E+04  0.16550820758E+04  0.50400001928E-02 0.  1.
        1   -1    0    0  501    0  0.00000000000E+00  0.00000000000E+00 -0.12015983283E+04  0.12015983283E+04  0.50400001928E-02 0. -1.
    10030    2    1    2    0    0  0.00000000000E+00  0.00000000000E+00  0.45348374751E+03  0.28566804042E+04  0.28204565982E+04 0.  0.
        3    1    3    3  502    0 -0.11978650761E+04  0.53545665012E+03 -0.29676120378E+03  0.13452367030E+04  0.10100000352E+00 0. -1.
       -3    1    3    3    0  502  0.11978650761E+04 -0.53545665012E+03  0.75024495129E+03  0.15114437012E+04  0.10100000352E+00 0.  1.
</event>
<event>
 5   0  0.6792811E-06  0.2993955E+04  0.7818609E-02  0.8245459E-01
       -2   -1    0    0    0  501  0.00000000000E+00  0.00000000000E+00  0.12162928275E+04  0.12162928275E+04  0.25500000920E-02 0. -1.
        2   -1    0    0  501    0  0.00000000000E+00  0.00000000000E+00 -0.18424356451E+04  0.18424356451E+04  0.25500000920E-02 0.  1.
    10030    2    1    2    0    0  0.00000000000E+00  0.00000000000E+00 -0.62614281765E+03  0.30587284726E+04  0.29939547493E+04 0.  0.
        2    1    3    3  502    0  0.52707308421E+03 -0.98883563694E+03 -0.13271896574E+04  0.17369612372E+04  0.25500000920E-02 0.  1.
       -2    1    3    3    0  502 -0.52707308421E+03  0.98883563694E+03  0.70104683971E+03  0.13217672353E+04  0.25500000920E-02 0. -1.
</event>
<event>
 5   0  0.6780150E-06  0.3023171E+04  0.7818609E-02  0.8237145E-01
        2   -1    0    0  501    0  0.00000000000E+00  0.00000000000E+00  0.22477357531E+04  0.22477357531E+04  0.25500000920E-02 0. -1.
       -2   -1    0    0    0  501  0.00000000000E+00  0.00000000000E+00 -0.10165298988E+04  0.10165298988E+04  0.25500000920E-02 0.  1.
    10030    2    1    2    0    0  0.00000000000E+00  0.00000000000E+00  0.12312058543E+04  0.32642656519E+04  0.30231709166E+04 0.  0.
        5    1    3    3  502    0  0.33422233691E+03  0.97044586185E+02  0.22038788850E+04  0.22311939521E+04  0.46999998093E+01 0. -1.
       -5    1    3    3    0  502 -0.33422233691E+03 -0.97044586185E+02 -0.97267303074E+03  0.10330716998E+04  0.46999998093E+01 0.  1.
</event>
<event>
 5   0  0.7201538E-06  0.2992622E+04  0.7818609E-02  0.8245841E-01
        2   -1    0    0  501    0  0.00000000000E+00  0.00000000000E+00  0.11591925206E+04  0.11591925206E+04  0.25500000920E-02 0. -1.
       -2   -1    0    0    0  501  0.00000000000E+00  0.00000000000E+00 -0.19314712289E+04  0.19314712289E+04  0.25500000920E-02 0.  1.
    10030    2    1    2    0    0  0.00000000000E+00  0.00000000000E+00 -0.77227870826E+03  0.30906637495E+04  0.29926222630E+04 0.  0.
        3    1    3    3  502    0 -0.10301631237E+04 -0.80445759230E+03  0.36611838285E+03  0.13573616908E+04  0.10100000352E+00 0.  1.
       -3    1    3    3    0  502  0.10301631237E+04  0.80445759230E+03 -0.11383970911E+04  0.17333020587E+04  0.10100000352E+00 0. -1.
</event>
<event>
 5   0  0.2422083E-06  0.3031590E+04  0.7818609E-02  0.8234767E-01
        1   -1    0    0  501    0  0.00000000000E+00  0.00000000000E+00  0.27314712007E+04  0.27314712007E+04  0.50400001928E-02 0.  1.
       -1   -1    0    0    0  501  0.00000000000E+00  0.00000000000E+00 -0.84117103427E+03  0.84117103428E+03  0.50400001928E-02 0. -1.
    10030    2    1    2    0    0  0.00000000000E+00  0.00000000000E+00  0.18903001665E+04  0.35726422350E+04  0.30315899822E+04 0.  0.
        2    1    3    3  502    0 -0.27324319466E+03  0.52324535803E+03 -0.70015260583E+03  0.91578448315E+03  0.25500000920E-02 0. -1.
       -2    1    3    3    0  502  0.27324319466E+03 -0.52324535803E+03  0.25904527723E+04  0.26568577519E+04  0.25500000920E-02 0.  1.
</event>
<event>
 5   0  0.7201538E-06  0.3023943E+04  0.7818609E-02  0.8236927E-01
        2   -1    0    0  501    0  0.00000000000E+00  0.00000000000E+00  0.13306954597E+04  0.13306954597E+04  0.25500000920E-02 0.  1.
       -2   -1    0    0    0  501  0.00000000000E+00  0.00000000000E+00 -0.17179420560E+04  0.17179420560E+04  0.25500000920E-02 0. -1.
    10030    2    1    2    0    0  0.00000000000E+00  0.00000000000E+00 -0.38724659632E+03  0.30486375157E+04  0.30239429188E+04 0.  0.
        3    1    3    3  502    0  0.13782807279E+04  0.57780616830E+03 -0.42471110502E+03  0.15536721875E+04  0.10100000352E+00 0. -1.
       -3    1    3    3    0  502 -0.13782807279E+04 -0.57780616830E+03  0.37464508700E+02  0.14949653283E+04  0.10100000352E+00 0.  1.
</event>
<event>
 5   0  0.2672155E-06  0.3006004E+04  0.7818609E-02  0.8242019E-01
       -1   -1    0    0    0  501  0.00000000000E+00  0.00000000000E+00  0.24952521930E+04  0.24952521930E+04  0.50400001928E-02 0.  1.
        1   -1    0    0  501    0  0.00000000000E+00  0.00000000000E+00 -0.90532521104E+03  0.90532521106E+03  0.50400001928E-02 0. -1.
    10030    2    1    2    0    0  0.00000000000E+00  0.00000000000E+00  0.15899269820E+04  0.34005774041E+04  0.30060038046E+04 0.  0.
        5    1    3    3  502    0  0.11303223558E+04 -0.37158791095E+03  0.18338083463E+04  0.21859966479E+04  0.46999998093E+01 0.  1.
       -5    1    3    3    0  502 -0.11303223558E+04  0.37158791095E+03 -0.24388136428E+03  0.12145807562E+04  0.46999998093E+01 0. -1.
</event>
<event>
 5   0  0.2552990E-06  0.3082585E+04  0.7818609E-02  0.8220534E-01
        1   -1    0    0  501    0  0.00000000000E+00  0.00000000000E+00  0.19051366634E+04  0.19051366634E+04  0.50400001928E-02 0.  1.
       -1   -1    0    0    0  501  0.00000000000E+00  0.00000000000E+00 -0.12469353969E+04  0.12469353969E+04  0.50400001928E-02 0. -1.
    10030    2    1    2    0    0  0.00000000000E+00  0.00000000000E+00  0.65820126643E+03  0.31520720603E+04  0.30825848514E+04 0.  0.
        3    1    3    3  502    0  0.61718871916E+02 -0.35511007372E+03 -0.12032355656E+04  0.12560605958E+04  0.10100000352E+00 0. -1.
       -3    1    3    3    0  502 -0.61718871916E+02  0.35511007372E+03  0.18614368321E+04  0.18960114645E+04  0.10100000352E+00 0.  1.
</event>
<event>
 5   0  0.2504260E-06  0.2962309E+04  0.7818609E-02  0.8254576E-01
       -1   -1    0    0    0  501  0.00000000000E+00  0.00000000000E+00  0.11291038633E+04  0.11291038633E+04  0.50400001928E-02 0. -1.
        1   -1    0    0  501    0  0.00000000000E+00  0.00000000000E+00 -0.19429731716E+04  0.19429731716E+04  0.50400001928E-02 0.  1.
    10030    2    1    2    0    0  0.00000000000E+00  0.00000000000E+00 -0.81386930828E+03  0.30720770349E+04  0.29623089065E+04 0.  0.
        4    1    3    3  502    0 -0.10310311117E+04  0.81073679962E+03 -0.11205441885E+04  0.17250913607E+04  0.12699999809E+01 0. -1.
       -4    1    3    3    0  502  0.10310311117E+04 -0.81073679962E+03  0.30667488017E+03  0.13469856742E+04  0.12699999809E+01 0.  1.
</event>
<event>
 5   0  0.7193153E-06  0.3027143E+04  0.7818609E-02  0.8236022E-01
        2   -1    0    0  501    0  0.00000000000E+00  0.00000000000E+00  0.21466868763E+04  0.21466868763E+04  0.25500000920E-02 0.  1.
       -2   -1    0    0    0  501  0.00000000000E+00  0.00000000000E+00 -0.10671787852E+04  0.10671787852E+04  0.25500000920E-02 0. -1.
    10030    2    1    2    0    0  0.00000000000E+00  0.00000000000E+00  0.10795080910E+04  0.32138656615E+04  0.30271430048E+04 0.  0.
        4    1    3    3  502    0 -0.65730798823E+03  0.35655661299E+03  0.19368699868E+04  0.20762113015E+04  0.12699999809E+01 0.  1.
       -4    1    3    3    0  502  0.65730798823E+03 -0.35655661299E+03 -0.85736189578E+03  0.11376543600E+04  0.12699999809E+01 0. -1.
</event>
<event>
 5   0  0.2504260E-06  0.2945167E+04  0.7818609E-02  0.8259565E-01
        1   -1    0    0  501    0  0.00000000000E+00  0.00000000000E+00  0.22922591386E+04  0.22922591386E+04  0.50400001928E-02 0.  1.
       -1   -1    0    0    0  501  0.00000000000E+00  0.00000000000E+00 -0.94601067833E+03  0.94601067835E+03  0.50400001928E-02 0. -1.
    10030    2    1    2    0    0  0.00000000000E+00  0.00000000000E+00  0.13462484602E+04  0.32382698169E+04  0.29451666320E+04 0.  0.
        4    1    3    3  502    0 -0.18539365666E+03  0.14600048844E+04  0.61798421027E+03  0.15962115046E+04  0.12699999809E+01 0.  1.
       -4    1    3    3    0  502  0.18539365666E+03 -0.14600048844E+04  0.72826424996E+03  0.16420583123E+04  0.12699999809E+01 0. -1.
</event>
<event>
 5   0  0.2298500E-06  0.3028807E+04  0.7818609E-02  0.8235552E-01
        4   -1    0    0  501    0  0.00000000000E+00  0.00000000000E+00  0.19703247903E+04  0.19703251996E+04  0.12699999809E+01 0.  1.
       -4   -1    0    0    0  501  0.00000000000E+00  0.00000000000E+00 -0.11639788907E+04  0.11639795835E+04  0.12699999809E+01 0. -1.
    10030    2    1    2    0    0  0.00000000000E+00  0.00000000000E+00  0.80634589964E+03  0.31343047831E+04  0.30288071519E+04 0.  0.
        2    1    3    3  502    0 -0.98628395854E+03 -0.38648265828E+03  0.15231327455E+04  0.18552784838E+04  0.25500000920E-02 0.  1.
       -2    1    3    3    0  502  0.98628395854E+03  0.38648265828E+03 -0.71678684585E+03  0.12790262993E+04  0.25500000920E-02 0. -1.
</event>
<event>
 5   0  0.2552990E-06  0.3095799E+04  0.7818609E-02  0.8216892E-01
        1   -1    0    0  501    0  0.00000000000E+00  0.00000000000E+00  0.17594649198E+04  0.17594649198E+04  0.50400001928E-02 0. -1.
       -1   -1    0    0    0  501  0.00000000000E+00  0.00000000000E+00 -0.13617739160E+04  0.13617739160E+04  0.50400001928E-02 0.  1.
    10030    2    1    2    0    0  0.00000000000E+00  0.00000000000E+00  0.39769100381E+03  0.31212388358E+04  0.30957993694E+04 0.  0.
        3    1    3    3  502    0  0.53102125415E+03  0.10036217481E+04  0.12595138160E+04  0.16957639130E+04  0.10100000352E+00 0. -1.
       -3    1    3    3    0  502 -0.53102125415E+03 -0.10036217481E+04 -0.86182281221E+03  0.14254749228E+04  0.10100000352E+00 0.  1.
</event>
<event>
 5   0  0.6792811E-06  0.3010552E+04  0.7818609E-02  0.8240724E-01
       -2   -1    0    0    0  501  0.00000000000E+00  0.00000000000E+00  0.90551435281E+03  0.90551435282E+03  0.25500000920E-02 0.  1.
        2   -1    0    0  501    0  0.00000000000E+00  0.00000000000E+00 -0.25022862994E+04  0.25022862994E+04  0.25500000920E-02 0. -1.
    10030    2    1    2    0    0  0.00000000000E+00  0.00000000000E+00 -0.15967719466E+04  0.34078006522E+04  0.30105522144E+04 0.  0.
        2    1    3    3  502    0  0.22384416241E+02 -0.78799880260E+03  0.65316892749E+03  0.10237542785E+04  0.25500000920E-02 0.  1.
       -2    1    3    3    0  502 -0.22384416241E+02  0.78799880260E+03 -0.22499408741E+04  0.23840463737E+04  0.25500000920E-02 0. -1.
</event>
<event>
 5   0  0.7193153E-06  0.3081426E+04  0.7818609E-02  0.8220854E-01
       -2   -1    0    0    0  501  0.00000000000E+00  0.00000000000E+00  0.99371855428E+03  0.99371855428E+03  0.25500000920E-02 0.  1.
        2   -1    0    0  501    0  0.00000000000E+00  0.00000000000E+00 -0.23888022486E+04  0.23888022486E+04  0.25500000920E-02 0. -1.
    10030    2    1    2    0    0  0.00000000000E+00  0.00000000000E+00 -0.13950836943E+04  0.33825208029E+04  0.30814263690E+04 0.  0.
        4    1    3    3  502    0  0.14719656365E+04  0.26491829278E+03 -0.11037414732E+04  0.18587929926E+04  0.12699999809E+01 0. -1.
       -4    1    3    3    0  502 -0.14719656365E+04 -0.26491829278E+03 -0.29134222111E+03  0.15237278102E+04  0.12699999809E+01 0.  1.
</event>
<event>
 5   0  0.6792811E-06  0.2896277E+04  0.7818609E-02  0.8273986E-01
       -2   -1    0    0    0  501  0.00000000000E+00  0.00000000000E+00  0.67943776194E+03  0.67943776194E+03  0.25500000920E-02 0.  1.
        2   -1    0    0  501    0  0.00000000000E+00  0.00000000000E+00 -0.30865304336E+04  0.30865304336E+04  0.25500000920E-02 0. -1.
    10030    2    1    2    0    0  0.00000000000E+00  0.00000000000E+00 -0.24070926717E+04  0.37659681956E+04  0.28962771483E+04 0.  0.
        2    1    3    3  502    0  0.13094830629E+04 -0.14413692733E+03 -0.42166450165E+03  0.13832289391E+04  0.25500000920E-02 0. -1.
       -2    1    3    3    0  502 -0.13094830629E+04  0.14413692733E+03 -0.19854281700E+04  0.23827392565E+04  0.25500000920E-02 0.  1.
</event>
<event>
 5   0  0.2504260E-06  0.2991909E+04  0.7818609E-02  0.8246045E-01
       -1   -1    0    0    0  501  0.00000000000E+00  0.00000000000E+00  0.20835949138E+04  0.20835949138E+04  0.50400001928E-02 0.  1.
        1   -1    0    0  501    0  0.00000000000E+00  0.00000000000E+00 -0.10740475577E+04  0.10740475577E+04  0.50400001928E-02 0. -1.
    10030    2    1    2    0    0  0.00000000000E+00  0.00000000000E+00  0.10095473561E+04  0.31576424715E+04  0.29919091085E+04 0.  0.
        4    1    3    3  502    0  0.34775385595E+03  0.97376279142E+03 -0.63619039714E+03  0.12140372946E+04  0.12699999809E+01 0. -1.
       -4    1    3    3    0  502 -0.34775385595E+03 -0.97376279142E+03  0.16457377533E+04  0.19436051769E+04  0.12699999809E+01 0.  1.
</event>
<event>
 5   0  0.6780150E-06  0.2967773E+04  0.7818609E-02  0.8252994E-01
        2   -1    0    0  501    0  0.00000000000E+00  0.00000000000E+00  0.21878759502E+04  0.21878759502E+04  0.25500000920E-02 0.  1.
       -2   -1    0    0    0  501  0.00000000000E+00  0.00000000000E+00 -0.10064183909E+04  0.10064183909E+04  0.25500000920E-02 0. -1.
    10030    2    1    2    0    0  0.00000000000E+00  0.00000000000E+00  0.11814575593E+04  0.31942943411E+04  0.29677726283E+04 0.  0.
        5    1    3    3  502    0  0.12594097562E+04 -0.56648221813E+03  0.11752066136E+04  0.18133250432E+04  0.46999998093E+01 0.  1.
       -5    1    3    3    0  502 -0.12594097562E+04  0.56648221813E+03  0.62509456726E+01  0.13809692979E+04  0.46999998093E+01 0. -1.
</event>
<event>
 5   0  0.2422083E-06  0.2922361E+04  0.7818609E-02  0.8266255E-01
        1   -1    0    0  501    0  0.00000000000E+00  0.00000000000E+00  0.16639791021E+04  0.16639791021E+04  0.50400001928E-02 0. -1.
       -1   -1    0    0    0  501  0.00000000000E+00  0.00000000000E+00 -0.12830985405E+04  0.12830985405E+04  0.50400001928E-02 0.  1.
    10030    2    1    2    0    0  0.00000000000E+00  0.00000000000E+00  0.38088056162E+03  0.29470776426E+04  0.29223614816E+04 0.  0.
        2    1    3    3  502    0 -0.14543584195E+04 -0.26416779485E+02  0.50730140753E+02  0.14554826711E+04  0.25500000920E-02 0.  1.
       -2    1    3    3    0  502  0.14543584195E+04  0.26416779485E+02  0.33015042087E+03  0.14915949715E+04  0.25500000920E-02 0. -1.
</event>
<event>
 5   0  0.2628425E-06  0.2970337E+04  0.7818609E-02  0.8252252E-01
       -1   -1    0    0    0  501  0.00000000000E+00  0.00000000000E+00  0.10496490119E+04  0.10496490119E+04  0.50400001928E-02 0.  1.
        1   -1    0    0  501    0  0.00000000000E+00  0.00000000000E+00 -0.21013932826E+04  0.21013932826E+04  0.50400001928E-02 0. -1.
    10030    2    1    2    0    0  0.00000000000E+00  0.00000000000E+00 -0.10517442706E+04  0.31510422945E+04  0.29703369390E+04 0.  0.
        1    1    3    3  502    0  0.15039213612E+03  0.53993854898E+03  0.93314428201E+03  0.10885355678E+04  0.50400001928E-02 0.  1.
       -1    1    3    3    0  502 -0.15039213612E+03 -0.53993854898E+03 -0.19848885526E+04  0.20625067267E+04  0.50400001928E-02 0. -1.
</event>
<event>
 5   0  0.2672155E-06  0.3006593E+04  0.7818609E-02  0.8241851E-01
        1   -1    0    0  501    0  0.00000000000E+00  0.00000000000E+00  0.19235037718E+04  0.19235037719E+04  0.50400001928E-02 0. -1.
       -1   -1    0    0    0  501  0.00000000000E+00  0.00000000000E+00 -0.11748871870E+04  0.11748871870E+04  0.50400001928E-02 0.  1.
    10030    2    1    2    0    0  0.00000000000E+00  0.00000000000E+00  0.74861658489E+03  0.30983909588E+04  0.30065927131E+04 0.  0.
        5    1    3    3  502    0 -0.10304775233E+04 -0.28846549967E+03  0.14623774682E+04  0.18120889107E+04  0.46999998093E+01 0. -1.
       -5    1    3    3    0  502  0.10304775233E+04  0.28846549967E+03 -0.71376088335E+03  0.12863020482E+04  0.46999998093E+01 0.  1.
</event>
<event>
 5   0  0.2504260E-06  0.2716512E+04  0.7818609E-02  0.8329667E-01
        1   -1    0    0  501    0  0.00000000000E+00  0.00000000000E+00  0.17539898825E+04  0.17539898825E+04  0.50400001928E-02 0. -1.
       -1   -1    0    0    0  501  0.00000000000E+00  0.00000000000E+00 -0.10518069653E+04  0.10518069653E+04  0.50400001928E-02 0.  1.
    10030    2    1    2    0    0  0.00000000000E+00  0.00000000000E+00  0.70218291721E+03  0.28057968478E+04  0.27165115685E+04 0.  0.
        4    1    3    3  502    0 -0.10107338711E+04  0.39423873769E+03 -0.49298956445E+03  0.11916574441E+04  0.12699999809E+01 0.  1.
       -4    1    3    3    0  502  0.10107338711E+04 -0.39423873769E+03  0.11951724817E+04  0.16141394036E+04  0.12699999809E+01 0. -1.
</event>
<event>
 5   0  0.7217255E-06  0.2999415E+04  0.7818609E-02  0.8243898E-01
        2   -1    0    0  501    0  0.00000000000E+00  0.00000000000E+00  0.17679830527E+04  0.17679830527E+04  0.25500000920E-02 0. -1.
       -2   -1    0    0    0  501  0.00000000000E+00  0.00000000000E+00 -0.12721406725E+04  0.12721406725E+04  0.25500000920E-02 0.  1.
    10030    2    1    2    0    0  0.00000000000E+00  0.00000000000E+00  0.49584238015E+03  0.30401237252E+04  0.29994153761E+04 0.  0.
        1    1    3    3  502    0 -0.10998777646E+02  0.14556963701E+04  0.61329987846E+03  0.15796549104E+04  0.50400001928E-02 0. -1.
       -1    1    3    3    0  502  0.10998777646E+02 -0.14556963701E+04 -0.11745749831E+03  0.14604688148E+04  0.50400001928E-02 0.  1.
</event>
<event>
 5   0  0.2628425E-06  0.3004340E+04  0.7818609E-02  0.8242493E-01
        1   -1    0    0  501    0  0.00000000000E+00  0.00000000000E+00  0.22391300994E+04  0.22391300995E+04  0.50400001928E-02 0. -1.
       -1   -1    0    0    0  501  0.00000000000E+00  0.00000000000E+00 -0.10077640863E+04  0.10077640863E+04  0.50400001928E-02 0.  1.
    10030    2    1    2    0    0  0.00000000000E+00  0.00000000000E+00  0.12313660132E+04  0.32468941857E+04  0.30043401264E+04 0.  0.
        1    1    3    3  502    0 -0.83501550799E+03  0.96999447536E+03  0.14655381356E+04  0.19457497803E+04  0.50400001928E-02 0. -1.
       -1    1    3    3    0  502  0.83501550799E+03 -0.96999447536E+03 -0.23417212239E+03  0.13011444054E+04  0.50400001928E-02 0.  1.
</event>
<event>
 5   0  0.7201538E-06  0.3003996E+04  0.7818609E-02  0.8242591E-01
       -2   -1    0    0    0  501  0.00000000000E+00  0.00000000000E+00  0.11144559537E+04  0.11144559537E+04  0.25500000920E-02 0.  1.
        2   -1    0    0  501    0  0.00000000000E+00  0.00000000000E+00 -0.20243047508E+04  0.20243047508E+04  0.25500000920E-02 0. -1.
    10030    2    1    2    0    0  0.00000000000E+00  0.00000000000E+00 -0.90984879712E+03  0.31387607045E+04  0.30039963259E+04 0.  0.
        3    1    3    3  502    0 -0.14343455658E+04 -0.26704489946E+03 -0.82070818162E+02  0.14612993567E+04  0.10100000352E+00 0.  1.
       -3    1    3    3    0  502  0.14343455658E+04  0.26704489946E+03 -0.82777797896E+03  0.16774613477E+04  0.10100000352E+00 0. -1.
</event>
<event>
 5   0  0.7217255E-06  0.3025442E+04  0.7818609E-02  0.8236503E-01
        2   -1    0    0  501    0  0.00000000000E+00  0.00000000000E+00  0.15798523531E+04  0.15798523531E+04  0.25500000920E-02 0. -1.
       -2   -1    0    0    0  501  0.00000000000E+00  0.00000000000E+00 -0.14484424244E+04  0.14484424244E+04  0.25500000920E-02 0.  1.
    10030    2    1    2    0    0  0.00000000000E+00  0.00000000000E+00  0.13140992872E+03  0.30282947776E+04  0.30254422306E+04 0.  0.
        1    1    3    3  502    0 -0.90503536996E+03  0.10457297520E+04  0.67921470656E+03  0.15407700518E+04  0.50400001928E-02 0. -1.
       -1    1    3    3    0  502  0.90503536996E+03 -0.10457297520E+04 -0.54780477784E+03  0.14875247257E+04  0.50400001928E-02 0.  1.
</event>
<event>
 5   0  0.7217255E-06  0.2999778E+04  0.7818609E-02  0.8243794E-01
       -2   -1    0    0    0  501  0.00000000000E+00  0.00000000000E+00  0.78100594295E+03  0.78100594296E+03  0.25500000920E-02 0. -1.
        2   -1    0    0  501    0  0.00000000000E+00  0.00000000000E+00 -0.28804734318E+04  0.28804734318E+04  0.25500000920E-02 0.  1.
    10030    2    1    2    0    0  0.00000000000E+00  0.00000000000E+00 -0.20994674888E+04  0.36614793747E+04  0.29997779043E+04 0.  0.
        1    1    3    3  502    0  0.12689838306E+03  0.14903774899E+04 -0.91415220854E+03  0.17529981525E+04  0.50400001928E-02 0. -1.
       -1    1    3    3    0  502 -0.12689838306E+03 -0.14903774899E+04 -0.11853152803E+04  0.19084812223E+04  0.50400001928E-02 0.  1.
</event>
<event>
 5   0  0.6780150E-06  0.3000369E+04  0.7818609E-02  0.8243626E-01
        2   -1    0    0  501    0  0.00000000000E+00  0.00000000000E+00  0.84333175014E+03  0.84333175014E+03  0.25500000920E-02 0. -1.
       -2   -1    0    0    0  501  0.00000000000E+00  0.00000000000E+00 -0.26686452172E+04  0.26686452173E+04  0.25500000920E-02 0.  1.
    10030    2    1    2    0    0  0.00000000000E+00  0.00000000000E+00 -0.18253134671E+04  0.35119769674E+04  0.30003688050E+04 0.  0.
        5    1    3    3  502    0 -0.99071309751E+03 -0.69815326710E+03 -0.19474878868E+04  0.22938312024E+04  0.46999998093E+01 0.  1.
       -5    1    3    3    0  502  0.99071309751E+03  0.69815326710E+03  0.12217441968E+03  0.12181457650E+04  0.46999998093E+01 0. -1.
</event>
<event>
 5   0  0.2672155E-06  0.2681539E+04  0.7818609E-02  0.8341020E-01
        1   -1    0    0  501    0  0.00000000000E+00  0.00000000000E+00  0.81420255333E+03  0.81420255335E+03  0.50400001928E-02 0. -1.
       -1   -1    0    0    0  501  0.00000000000E+00  0.00000000000E+00 -0.22078813321E+04  0.22078813321E+04  0.50400001928E-02 0.  1.
    10030    2    1    2    0    0  0.00000000000E+00  0.00000000000E+00 -0.13936787787E+04  0.30220838854E+04  0.26815388254E+04 0.  0.
        5    1    3    3  502    0 -0.97605033730E+02  0.89086840450E+03  0.42703473693E+03  0.99275073069E+03  0.46999998093E+01 0. -1.
       -5    1    3    3    0  502  0.97605033730E+02 -0.89086840450E+03 -0.18207135156E+04  0.20293331547E+04  0.46999998093E+01 0.  1.
</event>
<event>
 5   0  0.7201538E-06  0.3078525E+04  0.7818609E-02  0.8221656E-01
       -2   -1    0    0    0  501  0.00000000000E+00  0.00000000000E+00  0.25814564056E+04  0.25814564056E+04  0.25500000920E-02 0.  1.
        2   -1    0    0  501    0  0.00000000000E+00  0.00000000000E+00 -0.91782628212E+03  0.91782628213E+03  0.25500000920E-02 0. -1.
    10030    2    1    2    0    0  0.00000000000E+00  0.00000000000E+00  0.16636301235E+04  0.34992826878E+04  0.30785246695E+04 0.  0.
        3    1    3    3  502    0 -0.14629063589E+04  0.20680264770E+03  0.13226510762E+04  0.19829947629E+04  0.10100000352E+00 0. -1.
       -3    1    3    3    0  502  0.14629063589E+04 -0.20680264770E+03  0.34097904728E+03  0.15162879248E+04  0.10100000352E+00 0.  1.
</event>
<event>
 5   0  0.2422083E-06  0.3035750E+04  0.7818609E-02  0.8233595E-01
       -1   -1    0    0    0  501  0.00000000000E+00  0.00000000000E+00  0.15981351447E+04  0.15981351447E+04  0.50400001928E-02 0. -1.
        1   -1    0    0  501    0  0.00000000000E+00  0.00000000000E+00 -0.14416453491E+04  0.14416453491E+04  0.50400001928E-02 0.  1.
    10030    2    1    2    0    0  0.00000000000E+00  0.00000000000E+00  0.15648979562E+03  0.30397804938E+04  0.30357497253E+04 0.  0.
        2    1    3    3  502    0  0.80956943050E+03 -0.43546441559E+03 -0.11312132212E+04  0.14576265886E+04  0.25500000920E-02 0.  1.
       -2    1    3    3    0  502 -0.80956943050E+03  0.43546441559E+03  0.12877030168E+04  0.15821539052E+04  0.25500000920E-02 0. -1.
</event>
<event>
 5   0  0.2628425E-06  0.2906121E+04  0.7818609E-02  0.8271059E-01
       -1   -1    0    0    0  501  0.00000000000E+00  0.00000000000E+00  0.14887810628E+04  0.14887810628E+04  0.50400001928E-02 0. -1.
        1   -1    0    0  501    0  0.00000000000E+00  0.00000000000E+00 -0.14181973959E+04  0.14181973959E+04  0.50400001928E-02 0.  1.
    10030    2    1    2    0    0  0.00000000000E+00  0.00000000000E+00  0.70583666881E+02  0.29069784587E+04  0.29061214195E+04 0.  0.
        1    1    3    3  502    0  0.75983989801E+03  0.43863246767E+03 -0.11233374197E+04  0.14253568223E+04  0.50400001928E-02 0.  1.
       -1    1    3    3    0  502 -0.75983989801E+03 -0.43863246767E+03  0.11939210866E+04  0.14816216364E+04  0.50400001928E-02 0. -1.
</event>
<event>
 5   0  0.2552990E-06  0.2855139E+04  0.7818609E-02  0.8286351E-01
       -1   -1    0    0    0  501  0.00000000000E+00  0.00000000000E+00  0.16881956171E+04  0.16881956171E+04  0.50400001928E-02 0. -1.
        1   -1    0    0  501    0  0.00000000000E+00  0.00000000000E+00 -0.12071795243E+04  0.12071795243E+04  0.50400001928E-02 0.  1.
    10030    2    1    2    0    0  0.00000000000E+00  0.00000000000E+00  0.48101609275E+03  0.28953751414E+04  0.28551393535E+04 0.  0.
        3    1    3    3  502    0  0.53288090491E+03 -0.11187265015E+04 -0.47831404996E+03  0.13282678136E+04  0.10100000352E+00 0.  1.
       -3    1    3    3    0  502 -0.53288090491E+03  0.11187265015E+04  0.95933014271E+03  0.15671073278E+04  0.10100000352E+00 0. -1.
</event>
<event>
 5   0  0.2552990E-06  0.3036421E+04  0.7818609E-02  0.8233406E-01
       -1   -1    0    0    0  501  0.00000000000E+00  0.00000000000E+00  0.10396390363E+04  0.10396390363E+04  0.50400001928E-02 0. -1.
        1   -1    0    0  501    0  0.00000000000E+00  0.00000000000E+00 -0.22170803129E+04  0.22170803129E+04  0.50400001928E-02 0.  1.
    10030    2    1    2    0    0  0.00000000000E+00  0.00000000000E+00 -0.11774412766E+04  0.32567193492E+04  0.30364210775E+04 0.  0.
        3    1    3    3  502    0 -0.74044623840E+03 -0.64349032512E+02  0.83117036565E+03  0.11150092452E+04  0.10100000352E+00 0. -1.
       -3    1    3    3    0  502  0.74044623840E+03  0.64349032512E+02 -0.20086116423E+04  0.21417101040E+04  0.10100000352E+00 0.  1.
</event>
<event>
 5   0  0.6792811E-06  0.2969712E+04  0.7818609E-02  0.8252433E-01
       -2   -1    0    0    0  501  0.00000000000E+00  0.00000000000E+00  0.17211269264E+04  0.17211269265E+04  0.25500000920E-02 0. -1.
        2   -1    0    0  501    0  0.00000000000E+00  0.00000000000E+00 -0.12810192171E+04  0.12810192172E+04  0.25500000920E-02 0.  1.
    10030    2    1    2    0    0  0.00000000000E+00  0.00000000000E+00  0.44010770930E+03  0.30021461436E+04  0.29697115469E+04 0.  0.
        2    1    3    3  502    0  0.19842921332E+03  0.10587988304E+04  0.12531583402E+04  0.16525238097E+04  0.25500000920E-02 0. -1.
       -2    1    3    3    0  502 -0.19842921332E+03 -0.10587988304E+04 -0.81305063086E+03  0.13496223339E+04  0.25500000920E-02 0.  1.
</event>
<event>
 5   0  0.2672155E-06  0.3001509E+04  0.7818609E-02  0.8243300E-01
        1   -1    0    0  501    0  0.00000000000E+00  0.00000000000E+00  0.16231490423E+04  0.16231490423E+04  0.50400001928E-02 0.  1.
       -1   -1    0    0    0  501  0.00000000000E+00  0.00000000000E+00 -0.13875890290E+04  0.13875890290E+04  0.50400001928E-02 0. -1.
    10030    2    1    2    0    0  0.00000000000E+00  0.00000000000E+00  0.23556001333E+03  0.30107380713E+04  0.30015088229E+04 0.  0.
        5    1    3    3  502    0 -0.22265000047E+03 -0.11773051327E+03  0.16017912976E+04  0.16214780133E+04  0.46999998093E+01 0.  1.
       -5    1    3    3    0  502  0.22265000047E+03  0.11773051327E+03 -0.13662312843E+04  0.13892600580E+04  0.46999998093E+01 0. -1.
</event>
<event>
 5   0  0.6780150E-06  0.3065270E+04  0.7818609E-02  0.8225334E-01
       -2   -1    0    0    0  501  0.00000000000E+00  0.00000000000E+00  0.21430120006E+04  0.21430120006E+04  0.25500000920E-02 0.  1.
        2   -1    0    0  501    0  0.00000000000E+00  0.00000000000E+00 -0.10961071229E+04  0.10961071229E+04  0.25500000920E-02 0. -1.
    10030    2    1    2    0    0  0.00000000000E+00  0.00000000000E+00  0.10469048777E+04  0.32391191236E+04  0.30652704406E+04 0.  0.
        5    1    3    3  502    0  0.38605973424E+03  0.11505092852E+04  0.15126166507E+04  0.19392640242E+04  0.46999998093E+01 0.  1.
       -5    1    3    3    0  502 -0.38605973424E+03 -0.11505092852E+04 -0.46571177303E+03  0.12998550993E+04  0.46999998093E+01 0. -1.
</event>
<event>
 5   0  0.2422083E-06  0.2899326E+04  0.7818609E-02  0.8273078E-01
        1   -1    0    0  501    0  0.00000000000E+00  0.00000000000E+00  0.12035919382E+04  0.12035919382E+04  0.50400001928E-02 0.  1.
       -1   -1    0    0    0  501  0.00000000000E+00  0.00000000000E+00 -0.17460422485E+04  0.17460422485E+04  0.50400001928E-02 0. -1.
    10030    2    1    2    0    0  0.00000000000E+00  0.00000000000E+00 -0.54245031029E+03  0.29496341868E+04  0.28993256969E+04 0.  0.
        2    1    3    3  502    0 -0.73458960817E+03  0.17429788999E+03 -0.15302450501E+04  0.17063562231E+04  0.25500000920E-02 0. -1.
       -2    1    3    3    0  502  0.73458960817E+03 -0.17429788999E+03  0.98779473980E+03  0.12432779636E+04  0.25500000920E-02 0.  1.
</event>
<event>
 5   0  0.2422083E-06  0.2969638E+04  0.7818609E-02  0.8252454E-01
        1   -1    0    0  501    0  0.00000000000E+00  0.00000000000E+00  0.17356157557E+04  0.17356157557E+04  0.50400001928E-02 0.  1.
       -1   -1    0    0    0  501  0.00000000000E+00  0.00000000000E+00 -0.12702626257E+04  0.12702626257E+04  0.50400001928E-02 0. -1.
    10030    2    1    2    0    0  0.00000000000E+00  0.00000000000E+00  0.46535313003E+03  0.30058783814E+04  0.29696382454E+04 0.  0.
        2    1    3    3  502    0  0.13631335266E+03 -0.14293901482E+04  0.61537826774E+03  0.15621869089E+04  0.25500000920E-02 0.  1.
       -2    1    3    3    0  502 -0.13631335266E+03  0.14293901482E+04 -0.15002513772E+03  0.14436914725E+04  0.25500000920E-02 0. -1.
</event>
<event>
 5   0  0.2628425E-06  0.3042979E+04  0.7818609E-02  0.8231563E-01
       -1   -1    0    0    0  501  0.00000000000E+00  0.00000000000E+00  0.14736135497E+04  0.14736135497E+04  0.50400001928E-02 0. -1.
        1   -1    0    0  501    0  0.00000000000E+00  0.00000000000E+00 -0.15709207707E+04  0.15709207707E+04  0.50400001928E-02 0.  1.
    10030    2    1    2    0    0  0.00000000000E+00  0.00000000000E+00 -0.97307221012E+02  0.30445343204E+04  0.30429788912E+04 0.  0.
        1    1    3    3  502    0  0.13595352640E+04 -0.12454793103E+03 -0.72062315870E+03  0.15437441686E+04  0.50400001928E-02 0.  1.
       -1    1    3    3    0  502 -0.13595352640E+04  0.12454793103E+03  0.62331593769E+03  0.15007901517E+04  0.50400001928E-02 0. -1.
</event>
<event>
 5   0  0.2422083E-06  0.3004848E+04  0.7818609E-02  0.8242348E-01
       -1   -1    0    0    0  501  0.00000000000E+00  0.00000000000E+00  0.11059285949E+04  0.11059285949E+04  0.50400001928E-02 0. -1.
        1   -1    0    0  501    0  0.00000000000E+00  0.00000000000E+00 -0.20410700518E+04  0.20410700518E+04  0.50400001928E-02 0.  1.
    10030    2    1    2    0    0  0.00000000000E+00  0.00000000000E+00 -0.93514145688E+03  0.31469986467E+04  0.30048479060E+04 0.  0.
        2    1    3    3  502    0  0.14358162681E+04  0.15330558942E+03 -0.90218019143E+03  0.17026450180E+04  0.25500000920E-02 0.  1.
       -2    1    3    3    0  502 -0.14358162681E+04 -0.15330558942E+03 -0.32961265451E+02  0.14443536287E+04  0.25500000920E-02 0. -1.
</event>
<event>
 5   0  0.7217255E-06  0.3101495E+04  0.7818609E-02  0.8215328E-01
       -2   -1    0    0    0  501  0.00000000000E+00  0.00000000000E+00  0.82349392158E+03  0.82349392159E+03  0.25500000920E-02 0.  1.
        2   -1    0    0  501    0  0.00000000000E+00  0.00000000000E+00 -0.29202617998E+04  0.29202617998E+04  0.25500000920E-02 0. -1.
    10030    2    1    2    0    0  0.00000000000E+00  0.00000000000E+00 -0.20967678783E+04  0.37437557214E+04  0.31014950212E+04 0.  0.
        1    1    3    3  502    0 -0.35960334994E+03  0.49905645756E+03  0.66993558482E+03  0.90949744637E+03  0.50400001928E-02 0.  1.
       -1    1    3    3    0  502  0.35960334994E+03 -0.49905645756E+03 -0.27667034631E+04  0.28342582751E+04  0.50400001928E-02 0. -1.
</event>
<event>
 5   0  0.7217255E-06  0.3007155E+04  0.7818609E-02  0.8241691E-01
        2   -1    0    0  501    0  0.00000000000E+00  0.00000000000E+00  0.77014486236E+03  0.77014486237E+03  0.25500000920E-02 0. -1.
       -2   -1    0    0    0  501  0.00000000000E+00  0.00000000000E+00 -0.29354800521E+04  0.29354800521E+04  0.25500000920E-02 0.  1.
    10030    2    1    2    0    0  0.00000000000E+00  0.00000000000E+00 -0.21653351897E+04  0.37056249144E+04  0.30071547221E+04 0.  0.
        1    1    3    3  502    0  0.32028009141E+03  0.14323307971E+04 -0.68034712672E+03  0.16177215650E+04  0.50400001928E-02 0.  1.
       -1    1    3    3    0  502 -0.32028009141E+03 -0.14323307971E+04 -0.14849880630E+04  0.20879033494E+04  0.50400001928E-02 0. -1.
</event>
<event>
 5   0  0.2504260E-06  0.2976831E+04  0.7818609E-02  0.8250378E-01
        1   -1    0    0  501    0  0.00000000000E+00  0.00000000000E+00  0.81069083176E+03  0.81069083177E+03  0.50400001928E-02 0.  1.
       -1   -1    0    0    0  501  0.00000000000E+00  0.00000000000E+00 -0.27327079754E+04  0.27327079754E+04  0.50400001928E-02 0. -1.
    10030    2    1    2    0    0  0.00000000000E+00  0.00000000000E+00 -0.19220171436E+04  0.35433988071E+04  0.29768314037E+04 0.  0.
        4    1    3    3  502    0  0.18745101670E+03 -0.67913990409E+03 -0.25216570676E+04  0.26182293392E+04  0.12699999809E+01 0. -1.
       -4    1    3    3    0  502 -0.18745101670E+03  0.67913990409E+03  0.59963992404E+03  0.92516946793E+03  0.12699999809E+01 0.  1.
</event>
<event>
 5   0  0.6780150E-06  0.3075774E+04  0.7818609E-02  0.8222418E-01
        2   -1    0    0  501    0  0.00000000000E+00  0.00000000000E+00  0.17198772326E+04  0.17198772326E+04  0.25500000920E-02 0.  1.
       -2   -1    0    0    0  501  0.00000000000E+00  0.00000000000E+00 -0.13751545774E+04  0.13751545774E+04  0.25500000920E-02 0. -1.
    10030    2    1    2    0    0  0.00000000000E+00  0.00000000000E+00  0.34472265513E+03  0.30950318100E+04  0.30757744059E+04 0.  0.
        5    1    3    3  502    0  0.32614193141E+03 -0.80338974127E+03  0.14504598866E+04  0.16898697016E+04  0.46999998093E+01 0.  1.
       -5    1    3    3    0  502 -0.32614193141E+03  0.80338974127E+03 -0.11057372315E+04  0.14051621084E+04  0.46999998093E+01 0. -1.
</event>
<event>
 5   0  0.2672155E-06  0.2994350E+04  0.7818609E-02  0.8245346E-01
       -1   -1    0    0    0  501  0.00000000000E+00  0.00000000000E+00  0.71840921844E+03  0.71840921846E+03  0.50400001928E-02 0. -1.
        1   -1    0    0  501    0  0.00000000000E+00  0.00000000000E+00 -0.31201330153E+04  0.31201330153E+04  0.50400001928E-02 0.  1.
    10030    2    1    2    0    0  0.00000000000E+00  0.00000000000E+00 -0.24017237968E+04  0.38385422337E+04  0.29943495594E+04 0.  0.
        5    1    3    3  502    0 -0.42968793812E+03 -0.61809800679E+03  0.45815047996E+03  0.88124958011E+03  0.46999998093E+01 0. -1.
       -5    1    3    3    0  502  0.42968793812E+03  0.61809800679E+03 -0.28598742768E+04  0.29572926536E+04  0.46999998093E+01 0.  1.
</event>
<event>
 5   0  0.2422083E-06  0.2920890E+04  0.7818609E-02  0.8266689E-01
        1   -1    0    0  501    0  0.00000000000E+00  0.00000000000E+00  0.14544779806E+04  0.14544779806E+04  0.50400001928E-02 0.  1.
       -1   -1    0    0    0  501  0.00000000000E+00  0.00000000000E+00 -0.14664360117E+04  0.14664360117E+04  0.50400001928E-02 0. -1.
    10030    2    1    2    0    0  0.00000000000E+00  0.00000000000E+00 -0.11958031127E+02  0.29209139923E+04  0.29208895145E+04 0.  0.
        2    1    3    3  502    0 -0.38166200060E+03  0.11563805480E+04  0.80026408005E+03  0.14571562896E+04  0.25500000920E-02 0. -1.
       -2    1    3    3    0  502  0.38166200060E+03 -0.11563805480E+04 -0.81222211117E+03  0.14637577027E+04  0.25500000920E-02 0.  1.
</event>
<event>
 5   0  0.6780150E-06  0.3007348E+04  0.7818609E-02  0.8241636E-01
       -2   -1    0    0    0  501  0.00000000000E+00  0.00000000000E+00  0.91494558959E+03  0.91494558959E+03  0.25500000920E-02 0. -1.
        2   -1    0    0  501    0  0.00000000000E+00  0.00000000000E+00 -0.24712242365E+04  0.24712242365E+04  0.25500000920E-02 0.  1.
    10030    2    1    2    0    0  0.00000000000E+00  0.00000000000E+00 -0.15562786469E+04  0.33861698260E+04  0.30073481448E+04 0.  0.
        5    1    3    3  502    0  0.94573590445E+03  0.11313694402E+04 -0.11094878279E+04  0.18453721959E+04  0.46999998093E+01 0.  1.
       -5    1    3    3    0  502 -0.94573590445E+03 -0.11313694402E+04 -0.44679081893E+03  0.15407976301E+04  0.46999998093E+01 0. -1.
</event>
<event>
 5   0  0.7217255E-06  0.3009499E+04  0.7818609E-02  0.8241024E-01
       -2   -1    0    0    0  501  0.00000000000E+00  0.00000000000E+00  0.19735993453E+04  0.19735993453E+04  0.25500000920E-02 0.  1.
        2   -1    0    0  501    0  0.00000000000E+00  0.00000000000E+00 -0.11472798386E+04  0.11472798386E+04  0.25500000920E-02 0. -1.
    10030    2    1    2    0    0  0.00000000000E+00  0.00000000000E+00  0.82631950667E+03  0.31208791840E+04  0.30094987878E+04 0.  0.
        1    1    3    3  502    0  0.47749490597E+03 -0.26361334336E+03  0.18674811168E+04  0.19455022749E+04  0.50400001928E-02 0.  1.
       -1    1    3    3    0  502 -0.47749490597E+03  0.26361334336E+03 -0.10411616101E+04  0.11753769091E+04  0.50400001928E-02 0. -1.
</event>
<event>
 5   0  0.2422083E-06  0.2979944E+04  0.7818609E-02  0.8249481E-01
       -1   -1    0    0    0  501  0.00000000000E+00  0.00000000000E+00  0.13357930502E+04  0.13357930502E+04  0.50400001928E-02 0. -1.
        1   -1    0    0  501    0  0.00000000000E+00  0.00000000000E+00 -0.16619464796E+04  0.16619464796E+04  0.50400001928E-02 0.  1.
    10030    2    1    2    0    0  0.00000000000E+00  0.00000000000E+00 -0.32615342937E+03  0.29977395298E+04  0.29799439976E+04 0.  0.
        2    1    3    3  502    0  0.65981005358E+03 -0.10842910254E+04 -0.94810876270E+03  0.15842810863E+04  0.25500000920E-02 0.  1.
       -2    1    3    3    0  502 -0.65981005358E+03  0.10842910254E+04  0.62195533333E+03  0.14134584434E+04  0.25500000920E-02 0. -1.
</event>
<event>
 5   0  0.2298500E-06  0.3074804E+04  0.7818609E-02  0.8222687E-01
        3   -1    0    0  501    0  0.00000000000E+00  0.00000000000E+00  0.15143599092E+04  0.15143599125E+04  0.10100000352E+00 0. -1.
       -3   -1    0    0    0  501  0.00000000000E+00  0.00000000000E+00 -0.15607945846E+04  0.15607945879E+04  0.10100000352E+00 0.  1.
    10030    2    1    2    0    0  0.00000000000E+00  0.00000000000E+00 -0.46434675481E+02  0.30751545004E+04  0.30748038998E+04 0.  0.
        2    1    3    3  502    0 -0.87477700003E+03  0.84092916737E+01 -0.12876000917E+04  0.15566693651E+04  0.25500000920E-02 0.  1.
       -2    1    3    3    0  502  0.87477700003E+03 -0.84092916737E+01  0.12411654162E+04  0.15184851354E+04  0.25500000920E-02 0. -1.
</event>
<event>
 5   0  0.2552990E-06  0.2984930E+04  0.7818609E-02  0.8248047E-01
        1   -1    0    0  501    0  0.00000000000E+00  0.00000000000E+00  0.16271997625E+04  0.16271997626E+04  0.50400001928E-02 0.  1.
       -1   -1    0    0    0  501  0.00000000000E+00  0.00000000000E+00 -0.13688869459E+04  0.13688869459E+04  0.50400001928E-02 0. -1.
    10030    2    1    2    0    0  0.00000000000E+00  0.00000000000E+00  0.25831281668E+03  0.29960867084E+04  0.29849304939E+04 0.  0.
        3    1    3    3  502    0  0.17025275269E+03  0.82128452758E+02 -0.13568231368E+04  0.13699270481E+04  0.10100000352E+00 0. -1.
       -3    1    3    3    0  502 -0.17025275269E+03 -0.82128452758E+02  0.16151359534E+04  0.16261596603E+04  0.10100000352E+00 0.  1.
</event>
<event>
 5   0  0.2552990E-06  0.2746573E+04  0.7818609E-02  0.8320050E-01
       -1   -1    0    0    0  501  0.00000000000E+00  0.00000000000E+00  0.99880442401E+03  0.99880442402E+03  0.50400001928E-02 0.  1.
        1   -1    0    0  501    0  0.00000000000E+00  0.00000000000E+00 -0.18881733657E+04  0.18881733657E+04  0.50400001928E-02 0. -1.
    10030    2    1    2    0    0  0.00000000000E+00  0.00000000000E+00 -0.88936894166E+03  0.28869777897E+04  0.27465730727E+04 0.  0.
        3    1    3    3  502    0  0.28543465891E+03  0.60687841195E+03 -0.17043374216E+04  0.18315404468E+04  0.10100000352E+00 0. -1.
       -3    1    3    3    0  502 -0.28543465891E+03 -0.60687841195E+03  0.81496847991E+03  0.10554373429E+04  0.10100000352E+00 0.  1.
</event>
<event>
 5   0  0.2672155E-06  0.3026764E+04  0.7818609E-02  0.8236129E-01
        1   -1    0    0  501    0  0.00000000000E+00  0.00000000000E+00  0.21183140431E+04  0.21183140431E+04  0.50400001928E-02 0.  1.
       -1   -1    0    0    0  501  0.00000000000E+00  0.00000000000E+00 -0.10812017486E+04  0.10812017486E+04  0.50400001928E-02 0. -1.
    10030    2    1    2    0    0  0.00000000000E+00  0.00000000000E+00  0.10371122945E+04  0.31995157917E+04  0.30267638478E+04 0.  0.
        5    1    3    3  502    0 -0.91767042979E+02 -0.12106087573E+04  0.14736207461E+04  0.19093388768E+04  0.46999998093E+01 0.  1.
       -5    1    3    3    0  502  0.91767042979E+02  0.12106087573E+04 -0.43650845161E+03  0.12901769149E+04  0.46999998093E+01 0. -1.
</event>
<event>
 5   0  0.2504260E-06  0.2987013E+04  0.7818609E-02  0.8247449E-01
       -1   -1    0    0    0  501  0.00000000000E+00  0.00000000000E+00  0.16271856195E+04  0.16271856195E+04  0.50400001928E-02 0.  1.
        1   -1    0    0  501    0  0.00000000000E+00  0.00000000000E+00 -0.13708095442E+04  0.13708095442E+04  0.50400001928E-02 0. -1.
    10030    2    1    2    0    0  0.00000000000E+00  0.00000000000E+00  0.25637607535E+03  0.29979951637E+04  0.29870129410E+04 0.  0.
        4    1    3    3  502    0  0.40290827271E+03 -0.62042331714E+02 -0.13138880860E+04  0.13756772305E+04  0.12699999809E+01 0. -1.
       -4    1    3    3    0  502 -0.40290827271E+03  0.62042331714E+02  0.15702641613E+04  0.16223179332E+04  0.12699999809E+01 0.  1.
</event>
<event>
 5   0  0.2672155E-06  0.3095490E+04  0.7818609E-02  0.8216977E-01
       -1   -1    0    0    0  501  0.00000000000E+00  0.00000000000E+00  0.12887254184E+04  0.12887254184E+04  0.50400001928E-02 0. -1.
        1   -1    0    0  501    0  0.00000000000E+00  0.00000000000E+00 -0.18588243878E+04  0.18588243878E+04  0.50400001928E-02 0.  1.
    10030    2    1    2    0    0  0.00000000000E+00  0.00000000000E+00 -0.57009896937E+03  0.31475498062E+04  0.30954897750E+04 0.  0.
        5    1    3    3  502    0  0.37557768247E+02  0.14348952395E+04 -0.87371354570E+03  0.16803964961E+04  0.46999998093E+01 0.  1.
       -5    1    3    3    0  502 -0.37557768247E+02 -0.14348952395E+04  0.30361457633E+03  0.14671533100E+04  0.46999998093E+01 0. -1.
</event>
<event>
 5   0  0.7193153E-06  0.2959564E+04  0.7818609E-02  0.8255373E-01
        2   -1    0    0  501    0  0.00000000000E+00  0.00000000000E+00  0.21616491596E+04  0.21616491597E+04  0.25500000920E-02 0. -1.
       -2   -1    0    0    0  501  0.00000000000E+00  0.00000000000E+00 -0.10130019133E+04  0.10130019133E+04  0.25500000920E-02 0.  1.
    10030    2    1    2    0    0  0.00000000000E+00  0.00000000000E+00  0.11486472463E+04  0.31746510730E+04  0.29595639778E+04 0.  0.
        4    1    3    3  502    0 -0.38903397357E+03  0.51846928089E+03 -0.85261483640E+03  0.10710329126E+04  0.12699999809E+01 0.  1.
       -4    1    3    3    0  502  0.38903397357E+03 -0.51846928089E+03  0.20012620827E+04  0.21036181603E+04  0.12699999809E+01 0. -1.
</event>
<event>
 5   0  0.2672155E-06  0.2970392E+04  0.7818609E-02  0.8252236E-01
        1   -1    0    0  501    0  0.00000000000E+00  0.00000000000E+00  0.10549896407E+04  0.10549896407E+04  0.50400001928E-02 0.  1.
       -1   -1    0    0    0  501  0.00000000000E+00  0.00000000000E+00 -0.20908331922E+04  0.20908331922E+04  0.50400001928E-02 0. -1.
    10030    2    1    2    0    0  0.00000000000E+00  0.00000000000E+00 -0.10358435515E+04  0.31458228329E+04  0.29703921346E+04 0.  0.
        5    1    3    3  502    0  0.18246417546E+03 -0.87334147864E+03  0.73953801423E+03  0.11588602496E+04  0.46999998093E+01 0.  1.
       -5    1    3    3    0  502 -0.18246417546E+03  0.87334147864E+03 -0.17753815657E+04  0.19869625833E+04  0.46999998093E+01 0. -1.
</event>
<event>
 5   0  0.7201538E-06  0.2965949E+04  0.7818609E-02  0.8253522E-01
        2   -1    0    0  501    0  0.00000000000E+00  0.00000000000E+00  0.11014990541E+04  0.11014990541E+04  0.25500000920E-02 0. -1.
       -2   -1    0    0    0  501  0.00000000000E+00  0.00000000000E+00 -0.19965634612E+04  0.19965634612E+04  0.25500000920E-02 0.  1.
    10030    2    1    2    0    0  0.00000000000E+00  0.00000000000E+00 -0.89506440712E+03  0.30980625154E+04  0.29659485930E+04 0.  0.
        3    1    3    3  502    0 -0.10539885238E+04 -0.51216934796E+03 -0.13968628535E+04  0.18233033458E+04  0.10100000352E+00 0. -1.
       -3    1    3    3    0  502  0.10539885238E+04  0.51216934796E+03  0.50179844633E+03  0.12747591695E+04  0.10100000352E+00 0.  1.
</event>
<event>
 5   0  0.7201538E-06  0.2703882E+04  0.7818609E-02  0.8333746E-01
        2   -1    0    0  501    0  0.00000000000E+00  0.00000000000E+00  0.17513042109E+04  0.17513042109E+04  0.25500000920E-02 0.  1.
       -2   -1    0    0    0  501  0.00000000000E+00  0.00000000000E+00 -0.10436478167E+04  0.10436478167E+04  0.25500000920E-02 0. -1.
    10030    2    1    2    0    0  0.00000000000E+00  0.00000000000E+00  0.70765639416E+03  0.27949520276E+04  0.27038822579E+04 0.  0.
        3    1    3    3  502    0 -0.32844816235E+03  0.62911050598E+02 -0.10002186307E+04  0.10546436910E+04  0.10100000352E+00 0. -1.
       -3    1    3    3    0  502  0.32844816235E+03 -0.62911050598E+02  0.17078750249E+04  0.17403083366E+04  0.10100000352E+00 0.  1.
</event>
<event>
 5   0  0.2422083E-06  0.2987812E+04  0.7818609E-02  0.8247220E-01
       -1   -1    0    0    0  501  0.00000000000E+00  0.00000000000E+00  0.11033998826E+04  0.11033998826E+04  0.50400001928E-02 0.  1.
        1   -1    0    0  501    0  0.00000000000E+00  0.00000000000E+00 -0.20226171742E+04  0.20226171742E+04  0.50400001928E-02 0. -1.
    10030    2    1    2    0    0  0.00000000000E+00  0.00000000000E+00 -0.91921729161E+03  0.31260170569E+04  0.29878122784E+04 0.  0.
        2    1    3    3  502    0 -0.12497515687E+04 -0.81441147680E+03 -0.37454270592E+03  0.15379945629E+04  0.25500000920E-02 0.  1.
       -2    1    3    3    0  502  0.12497515687E+04  0.81441147680E+03 -0.54467458569E+03  0.15880224940E+04  0.25500000920E-02 0. -1.
</event>
<event>
 5   0  0.6780150E-06  0.2936870E+04  0.7818609E-02  0.8261991E-01
        2   -1    0    0  501    0  0.00000000000E+00  0.00000000000E+00  0.20014337996E+04  0.20014337996E+04  0.25500000920E-02 0.  1.
       -2   -1    0    0    0  501  0.00000000000E+00  0.00000000000E+00 -0.10773781332E+04  0.10773781332E+04  0.25500000920E-02 0. -1.
    10030    2    1    2    0    0  0.00000000000E+00  0.00000000000E+00  0.92405566643E+03  0.30788119328E+04  0.29368697695E+04 0.  0.
        5    1    3    3  502    0  0.22103986574E+03 -0.13119283888E+04  0.11135672609E+04  0.17349550006E+04  0.46999998093E+01 0.  1.
       -5    1    3    3    0  502 -0.22103986574E+03  0.13119283888E+04 -0.18951159450E+03  0.13438569322E+04  0.46999998093E+01 0. -1.
</event>
<event>
 5   0  0.2672155E-06  0.2982458E+04  0.7818609E-02  0.8248758E-01
        1   -1    0    0  501    0  0.00000000000E+00  0.00000000000E+00  0.16244244204E+04  0.16244244204E+04  0.50400001928E-02 0.  1.
       -1   -1    0    0    0  501  0.00000000000E+00  0.00000000000E+00 -0.13689553758E+04  0.13689553758E+04  0.50400001928E-02 0. -1.
    10030    2    1    2    0    0  0.00000000000E+00  0.00000000000E+00  0.25546904460E+03  0.29933797962E+04  0.29824584107E+04 0.  0.
        5    1    3    3  502    0 -0.50381254331E+02 -0.34961446969E+03 -0.13263543349E+04  0.13725911481E+04  0.46999998093E+01 0. -1.
       -5    1    3    3    0  502  0.50381254331E+02  0.34961446969E+03  0.15818233795E+04  0.16207886482E+04  0.46999998093E+01 0.  1.
</event>
<event>
 5   0  0.2422083E-06  0.2652907E+04  0.7818609E-02  0.8350449E-01
        1   -1    0    0  501    0  0.00000000000E+00  0.00000000000E+00  0.18110677077E+04  0.18110677077E+04  0.50400001928E-02 0.  1.
       -1   -1    0    0    0  501  0.00000000000E+00  0.00000000000E+00 -0.97151438233E+03  0.97151438234E+03  0.50400001928E-02 0. -1.
    10030    2    1    2    0    0  0.00000000000E+00  0.00000000000E+00  0.83955332536E+03  0.27825820900E+04  0.26529065761E+04 0.  0.
        2    1    3    3  502    0  0.42001204059E+03 -0.51609323008E+03 -0.78379535983E+03  0.10281524704E+04  0.25500000920E-02 0. -1.
       -2    1    3    3    0  502 -0.42001204059E+03  0.51609323008E+03  0.16233486852E+04  0.17544296196E+04  0.25500000920E-02 0.  1.
</event>
<event>
 5   0  0.6780150E-06  0.3002114E+04  0.7818609E-02  0.8243128E-01
        2   -1    0    0  501    0  0.00000000000E+00  0.00000000000E+00  0.26695920770E+04  0.26695920770E+04  0.25500000920E-02 0. -1.
       -2   -1    0    0    0  501  0.00000000000E+00  0.00000000000E+00 -0.84401357401E+03  0.84401357401E+03  0.25500000920E-02 0.  1.
    10030    2    1    2    0    0  0.00000000000E+00  0.00000000000E+00  0.18255785030E+04  0.35136056510E+04  0.30021138886E+04 0.  0.
        5    1    3    3  502    0  0.53574639526E+02 -0.12558202408E+04  0.18730658370E+04  0.22557376707E+04  0.46999998093E+01 0.  1.
       -5    1    3    3    0  502 -0.53574639526E+02  0.12558202408E+04 -0.47487333994E+02  0.12578679804E+04  0.46999998093E+01 0. -1.
</event>
<event>
 5   0  0.7217255E-06  0.2983238E+04  0.7818609E-02  0.8248533E-01
       -2   -1    0    0    0  501  0.00000000000E+00  0.00000000000E+00  0.19305172702E+04  0.19305172702E+04  0.25500000920E-02 0. -1.
        2   -1    0    0  501    0  0.00000000000E+00  0.00000000000E+00 -0.11525035196E+04  0.11525035196E+04  0.25500000920E-02 0.  1.
    10030    2    1    2    0    0  0.00000000000E+00  0.00000000000E+00  0.77801375059E+03  0.30830207898E+04  0.29832384742E+04 0.  0.
        1    1    3    3  502    0  0.57130675188E+03  0.59022317421E+03  0.16757106851E+04  0.18662157165E+04  0.50400001928E-02 0. -1.
       -1    1    3    3    0  502 -0.57130675188E+03 -0.59022317421E+03 -0.89769693455E+03  0.12168050733E+04  0.50400001928E-02 0.  1.
</event>
<event>
 5   0  0.2422083E-06  0.3000547E+04  0.7818609E-02  0.8243575E-01
       -1   -1    0    0    0  501  0.00000000000E+00  0.00000000000E+00  0.10465989090E+04  0.10465989090E+04  0.50400001928E-02 0.  1.
        1   -1    0    0  501    0  0.00000000000E+00  0.00000000000E+00 -0.21506048950E+04  0.21506048950E+04  0.50400001928E-02 0. -1.
    10030    2    1    2    0    0  0.00000000000E+00  0.00000000000E+00 -0.11040059860E+04  0.31972038040E+04  0.30005471080E+04 0.  0.
        2    1    3    3  502    0  0.10141251801E+04  0.10342172040E+04 -0.13553397369E+03  0.14547936500E+04  0.25500000920E-02 0.  1.
       -2    1    3    3    0  502 -0.10141251801E+04 -0.10342172040E+04 -0.96847201230E+03  0.17424101540E+04  0.25500000920E-02 0. -1.
</event>
<event>
 5   0  0.7217255E-06  0.2945732E+04  0.7818609E-02  0.8259399E-01
       -2   -1    0    0    0  501  0.00000000000E+00  0.00000000000E+00  0.11795172911E+04  0.11795172911E+04  0.25500000920E-02 0.  1.
        2   -1    0    0  501    0  0.00000000000E+00  0.00000000000E+00 -0.18391714645E+04  0.18391714645E+04  0.25500000920E-02 0. -1.
    10030    2    1    2    0    0  0.00000000000E+00  0.00000000000E+00 -0.65965417335E+03  0.30186887556E+04  0.29457321967E+04 0.  0.
        1    1    3    3  502    0 -0.12756716596E+04 -0.73620268132E+03 -0.32838781432E+03  0.15090298631E+04  0.50400001928E-02 0. -1.
       -1    1    3    3    0  502  0.12756716596E+04  0.73620268132E+03 -0.33126635903E+03  0.15096588925E+04  0.50400001928E-02 0.  1.
</event>
<event>
 5   0  0.2504260E-06  0.3025896E+04  0.7818609E-02  0.8236375E-01
        1   -1    0    0  501    0  0.00000000000E+00  0.00000000000E+00  0.15245974678E+04  0.15245974679E+04  0.50400001928E-02 0.  1.
       -1   -1    0    0    0  501  0.00000000000E+00  0.00000000000E+00 -0.15013873325E+04  0.15013873325E+04  0.50400001928E-02 0. -1.
    10030    2    1    2    0    0  0.00000000000E+00  0.00000000000E+00  0.23210135389E+02  0.30259848003E+04  0.30258957850E+04 0.  0.
        4    1    3    3  502    0 -0.40062443196E+03 -0.72775189158E+03 -0.12529031507E+04  0.15032932745E+04  0.12699999809E+01 0. -1.
       -4    1    3    3    0  502  0.40062443196E+03  0.72775189158E+03  0.12761132861E+04  0.15226915259E+04  0.12699999809E+01 0.  1.
</event>
<event>
 5   0  0.7201538E-06  0.3003845E+04  0.7818609E-02  0.8242634E-01
       -2   -1    0    0    0  501  0.00000000000E+00  0.00000000000E+00  0.10523959399E+04  0.10523959399E+04  0.25500000920E-02 0. -1.
        2   -1    0    0  501    0  0.00000000000E+00  0.00000000000E+00 -0.21434629325E+04  0.21434629325E+04  0.25500000920E-02 0.  1.
    10030    2    1    2    0    0  0.00000000000E+00  0.00000000000E+00 -0.10910669925E+04  0.31958588724E+04  0.30038453272E+04 0.  0.
        3    1    3    3  502    0  0.13462726857E+04  0.66331897636E+03 -0.60692347578E+03  0.16188879900E+04  0.10100000352E+00 0. -1.
       -3    1    3    3    0  502 -0.13462726857E+04 -0.66331897636E+03 -0.48414351677E+03  0.15769708823E+04  0.10100000352E+00 0.  1.
</event>
<event>
 5   0  0.2504260E-06  0.2989476E+04  0.7818609E-02  0.8246742E-01
       -1   -1    0    0    0  501  0.00000000000E+00  0.00000000000E+00  0.11433007907E+04  0.11433007907E+04  0.50400001928E-02 0. -1.
        1   -1    0    0  501    0  0.00000000000E+00  0.00000000000E+00 -0.19542030752E+04  0.19542030752E+04  0.50400001928E-02 0.  1.
    10030    2    1    2    0    0  0.00000000000E+00  0.00000000000E+00 -0.81090228456E+03  0.30975038659E+04  0.29894761555E+04 0.  0.
        4    1    3    3  502    0  0.32671046429E+03  0.87035574024E+03  0.80730674899E+03  0.12312614028E+04  0.12699999809E+01 0. -1.
       -4    1    3    3    0  502 -0.32671046429E+03 -0.87035574024E+03 -0.16182090335E+04  0.18662424631E+04  0.12699999809E+01 0.  1.
</event>
<event>
 5   0  0.7201538E-06  0.3091055E+04  0.7818609E-02  0.8218197E-01
        2   -1    0    0  501    0  0.00000000000E+00  0.00000000000E+00  0.19664434758E+04  0.19664434758E+04  0.25500000920E-02 0.  1.
       -2   -1    0    0    0  501  0.00000000000E+00  0.00000000000E+00 -0.12147085604E+04  0.12147085604E+04  0.25500000920E-02 0. -1.
    10030    2    1    2    0    0  0.00000000000E+00  0.00000000000E+00  0.75173491538E+03  0.31811520362E+04  0.30910553043E+04 0.  0.
        3    1    3    3  502    0 -0.11137393321E+04 -0.10566542344E+04  0.19256867105E+03  0.15472608617E+04  0.10100000352E+00 0.  1.
       -3    1    3    3    0  502  0.11137393321E+04  0.10566542344E+04  0.55916624433E+03  0.16338911745E+04  0.10100000352E+00 0. -1.
</event>
<event>
 5   0  0.7193153E-06  0.3084453E+04  0.7818609E-02  0.8220018E-01
       -2   -1    0    0    0  501  0.00000000000E+00  0.00000000000E+00  0.14568678216E+04  0.14568678216E+04  0.25500000920E-02 0. -1.
        2   -1    0    0  501    0  0.00000000000E+00  0.00000000000E+00 -0.16325865702E+04  0.16325865702E+04  0.25500000920E-02 0.  1.
    10030    2    1    2    0    0  0.00000000000E+00  0.00000000000E+00 -0.17571874856E+03  0.30894543919E+04  0.30844531705E+04 0.  0.
        4    1    3    3  502    0  0.86233046228E+03  0.91319991490E+03  0.80852930821E+03  0.14937433400E+04  0.12699999809E+01 0. -1.
       -4    1    3    3    0  502 -0.86233046228E+03 -0.91319991490E+03 -0.98424805677E+03  0.15957110518E+04  0.12699999809E+01 0.  1.
</event>
<event>
 5   0  0.6792811E-06  0.2990277E+04  0.7818609E-02  0.8246513E-01
        2   -1    0    0  501    0  0.00000000000E+00  0.00000000000E+00  0.14059786372E+04  0.14059786372E+04  0.25500000920E-02 0.  1.
       -2   -1    0    0    0  501  0.00000000000E+00  0.00000000000E+00 -0.15899522869E+04  0.15899522869E+04  0.25500000920E-02 0. -1.
    10030    2    1    2    0    0  0.00000000000E+00  0.00000000000E+00 -0.18397364975E+03  0.29959309241E+04  0.29902768765E+04 0.  0.
        2    1    3    3  502    0  0.23941135857E+02  0.90559523700E+02  0.14030359536E+04  0.14061593410E+04  0.25500000920E-02 0.  1.
       -2    1    3    3    0  502 -0.23941135857E+02 -0.90559523700E+02 -0.15870096033E+04  0.15897715831E+04  0.25500000920E-02 0. -1.
</event>
<event>
 5   0  0.6792811E-06  0.2927826E+04  0.7818609E-02  0.8264646E-01
       -2   -1    0    0    0  501  0.00000000000E+00  0.00000000000E+00  0.88843294375E+03  0.88843294376E+03  0.25500000920E-02 0.  1.
        2   -1    0    0  501    0  0.00000000000E+00  0.00000000000E+00 -0.24121582762E+04  0.24121582762E+04  0.25500000920E-02 0. -1.
    10030    2    1    2    0    0  0.00000000000E+00  0.00000000000E+00 -0.15237253325E+04  0.33005912200E+04  0.29278257313E+04 0.  0.
        2    1    3    3  502    0  0.25238708216E+03 -0.84986089292E+03 -0.20751172885E+04  0.22565625490E+04  0.25500000920E-02 0. -1.
       -2    1    3    3    0  502 -0.25238708216E+03  0.84986089292E+03  0.55139195606E+03  0.10440286709E+04  0.25500000920E-02 0.  1.
</event>
<event>
 5   0  0.2504260E-06  0.3020181E+04  0.7818609E-02  0.8237991E-01
        1   -1    0    0  501    0  0.00000000000E+00  0.00000000000E+00  0.18838190694E+04  0.18838190694E+04  0.50400001928E-02 0. -1.
       -1   -1    0    0    0  501  0.00000000000E+00  0.00000000000E+00 -0.12105057216E+04  0.12105057216E+04  0.50400001928E-02 0.  1.
    10030    2    1    2    0    0  0.00000000000E+00  0.00000000000E+00  0.67331334785E+03  0.30943247910E+04  0.30201812938E+04 0.  0.
        4    1    3    3  502    0  0.67826665907E+03 -0.48191075646E+03  0.16277874562E+04  0.18281075607E+04  0.12699999809E+01 0. -1.
       -4    1    3    3    0  502 -0.67826665907E+03  0.48191075646E+03 -0.95447410832E+03  0.12662172303E+04  0.12699999809E+01 0.  1.
</event>
<event>
 5   0  0.6792811E-06  0.2997084E+04  0.7818609E-02  0.8244564E-01
        2   -1    0    0  501    0  0.00000000000E+00  0.00000000000E+00  0.15942830342E+04  0.15942830342E+04  0.25500000920E-02 0.  1.
       -2   -1    0    0    0  501  0.00000000000E+00  0.00000000000E+00 -0.14085501095E+04  0.14085501095E+04  0.25500000920E-02 0. -1.
    10030    2    1    2    0    0  0.00000000000E+00  0.00000000000E+00  0.18573292463E+03  0.30028331437E+04  0.29970836107E+04 0.  0.
        2    1    3    3  502    0  0.66969474558E+03 -0.81499852623E+03  0.11592926300E+04  0.15673777630E+04  0.25500000920E-02 0.  1.
       -2    1    3    3    0  502 -0.66969474558E+03  0.81499852623E+03 -0.97355970537E+03  0.14354553807E+04  0.25500000920E-02 0. -1.
</event>
<event>
 5   0  0.6780150E-06  0.2712756E+04  0.7818609E-02  0.8330878E-01
        2   -1    0    0  501    0  0.00000000000E+00  0.00000000000E+00  0.15136757541E+04  0.15136757541E+04  0.25500000920E-02 0. -1.
       -2   -1    0    0    0  501  0.00000000000E+00  0.00000000000E+00 -0.12154263982E+04  0.12154263983E+04  0.25500000920E-02 0.  1.
    10030    2    1    2    0    0  0.00000000000E+00  0.00000000000E+00  0.29824935586E+03  0.27291021524E+04  0.27127561409E+04 0.  0.
        5    1    3    3  502    0 -0.50443953382E+02  0.95996921416E+03 -0.81353927595E+03  0.12593465481E+04  0.46999998093E+01 0.  1.
       -5    1    3    3    0  502  0.50443953382E+02 -0.95996921416E+03  0.11117886318E+04  0.14697556043E+04  0.46999998093E+01 0. -1.
</event>
<event>
 5   0  0.6780150E-06  0.3004105E+04  0.7818609E-02  0.8242560E-01
        2   -1    0    0  501    0  0.00000000000E+00  0.00000000000E+00  0.20615924541E+04  0.20615924541E+04  0.25500000920E-02 0. -1.
       -2   -1    0    0    0  501  0.00000000000E+00  0.00000000000E+00 -0.10943784947E+04  0.10943784947E+04  0.25500000920E-02 0.  1.
    10030    2    1    2    0    0  0.00000000000E+00  0.00000000000E+00  0.96721395944E+03  0.31559709488E+04  0.30041054886E+04 0.  0.
        5    1    3    3  502    0 -0.31136609239E+03  0.11513304309E+04 -0.47558253146E+03  0.12840215882E+04  0.46999998093E+01 0.  1.
       -5    1    3    3    0  502  0.31136609239E+03 -0.11513304309E+04  0.14427964909E+04  0.18719493606E+04  0.46999998093E+01 0. -1.
</event>
<event>
 5   0  0.7201538E-06  0.3040811E+04  0.7818609E-02  0.8232172E-01
       -2   -1    0    0    0  501  0.00000000000E+00  0.00000000000E+00  0.94486948052E+03  0.94486948052E+03  0.25500000920E-02 0.  1.
        2   -1    0    0  501    0  0.00000000000E+00  0.00000000000E+00 -0.24465096520E+04  0.24465096520E+04  0.25500000920E-02 0. -1.
    10030    2    1    2    0    0  0.00000000000E+00  0.00000000000E+00 -0.15016401715E+04  0.33913791325E+04  0.30408106182E+04 0.  0.
        3    1    3    3  502    0  0.12725378205E+04  0.79622525711E+03 -0.10201225645E+04  0.18149317402E+04  0.10100000352E+00 0.  1.
       -3    1    3    3    0  502 -0.12725378205E+04 -0.79622525711E+03 -0.48151760699E+03  0.15764473923E+04  0.10100000352E+00 0. -1.
</event>
<event>
 5   0  0.2672155E-06  0.2930118E+04  0.7818609E-02  0.8263972E-01
        1   -1    0    0  501    0  0.00000000000E+00  0.00000000000E+00  0.86552900822E+03  0.86552900823E+03  0.50400001928E-02 0.  1.
       -1   -1    0    0    0  501  0.00000000000E+00  0.00000000000E+00 -0.24798687345E+04  0.24798687345E+04  0.50400001928E-02 0. -1.
    10030    2    1    2    0    0  0.00000000000E+00  0.00000000000E+00 -0.16143397262E+04  0.33453977427E+04  0.29301183091E+04 0.  0.
        5    1    3    3  502    0  0.57645828621E+03  0.11534140512E+04 -0.16012316314E+04  0.20558776609E+04  0.46999998093E+01 0. -1.
       -5    1    3    3    0  502 -0.57645828621E+03 -0.11534140512E+04 -0.13108094828E+02  0.12895200818E+04  0.46999998093E+01 0.  1.
</event>
<event>
 5   0  0.2628425E-06  0.3030702E+04  0.7818609E-02  0.8235018E-01
        1   -1    0    0  501    0  0.00000000000E+00  0.00000000000E+00  0.93419811881E+03  0.93419811883E+03  0.50400001928E-02 0.  1.
       -1   -1    0    0    0  501  0.00000000000E+00  0.00000000000E+00 -0.24580316165E+04  0.24580316165E+04  0.50400001928E-02 0. -1.
    10030    2    1    2    0    0  0.00000000000E+00  0.00000000000E+00 -0.15238334977E+04  0.33922297354E+04  0.30307019069E+04 0.  0.
        1    1    3    3  502    0  0.68238016876E+03  0.37444325804E+03 -0.22171803472E+04  0.23498381094E+04  0.50400001928E-02 0. -1.
       -1    1    3    3    0  502 -0.68238016876E+03 -0.37444325804E+03  0.69334684949E+03  0.10423916260E+04  0.50400001928E-02 0.  1.
</event>
<event>
 5   0  0.7201538E-06  0.3015602E+04  0.7818609E-02  0.8239290E-01
       -2   -1    0    0    0  501  0.00000000000E+00  0.00000000000E+00  0.10151272554E+04  0.10151272554E+04  0.25500000920E-02 0. -1.
        2   -1    0    0  501    0  0.00000000000E+00  0.00000000000E+00 -0.22395852584E+04  0.22395852584E+04  0.25500000920E-02 0.  1.
    10030    2    1    2    0    0  0.00000000000E+00  0.00000000000E+00 -0.12244580030E+04  0.32547125139E+04  0.30156021201E+04 0.  0.
        3    1    3    3  502    0 -0.12712784506E+04 -0.78426416194E+03 -0.39039634006E+03  0.15439004136E+04  0.10100000352E+00 0.  1.
       -3    1    3    3    0  502  0.12712784506E+04  0.78426416194E+03 -0.83406166297E+03  0.17108121003E+04  0.10100000352E+00 0. -1.
</event>
<event>
 5   0  0.2422083E-06  0.2970157E+04  0.7818609E-02  0.8252304E-01
        1   -1    0    0  501    0  0.00000000000E+00  0.00000000000E+00  0.14863548306E+04  0.14863548306E+04  0.50400001928E-02 0. -1.
       -1   -1    0    0    0  501  0.00000000000E+00  0.00000000000E+00 -0.14838035496E+04  0.14838035496E+04  0.50400001928E-02 0.  1.
    10030    2    1    2    0    0  0.00000000000E+00  0.00000000000E+00  0.25512810501E+01  0.29701583802E+04  0.29701572844E+04 0.  0.
        2    1    3    3  502    0  0.11692218721E+04  0.67614493145E+03  0.61869535215E+03  0.14856095360E+04  0.25500000920E-02 0. -1.
       -2    1    3    3    0  502 -0.11692218721E+04 -0.67614493145E+03 -0.61614407110E+03  0.14845488442E+04  0.25500000920E-02 0.  1.
</event>
<event>
 5   0  0.7193153E-06  0.3000947E+04  0.7818609E-02  0.8243460E-01
       -2   -1    0    0    0  501  0.00000000000E+00  0.00000000000E+00  0.15727922105E+04  0.15727922105E+04  0.25500000920E-02 0.  1.
        2   -1    0    0  501    0  0.00000000000E+00  0.00000000000E+00 -0.14314805142E+04  0.14314805142E+04  0.25500000920E-02 0. -1.
    10030    2    1    2    0    0  0.00000000000E+00  0.00000000000E+00  0.14131169627E+03  0.30042727248E+04  0.30009474519E+04 0.  0.
        4    1    3    3  502    0 -0.87597557909E+02 -0.16934420777E+03 -0.14193040971E+04  0.14320532552E+04  0.12699999809E+01 0. -1.
       -4    1    3    3    0  502  0.87597557909E+02  0.16934420777E+03  0.15606157934E+04  0.15722194695E+04  0.12699999809E+01 0.  1.
</event>
<event>
 5   0  0.2504260E-06  0.3048421E+04  0.7818609E-02  0.8230037E-01
       -1   -1    0    0    0  501  0.00000000000E+00  0.00000000000E+00  0.16906459379E+04  0.16906459379E+04  0.50400001928E-02 0. -1.
        1   -1    0    0  501    0  0.00000000000E+00  0.00000000000E+00 -0.13741602088E+04  0.13741602088E+04  0.50400001928E-02 0.  1.
    10030    2    1    2    0    0  0.00000000000E+00  0.00000000000E+00  0.31648572908E+03  0.30648061467E+04  0.30484214768E+04 0.  0.
        4    1    3    3  502    0  0.86164802944E+03  0.38045573512E+03  0.13630296283E+04  0.16568147976E+04  0.12699999809E+01 0. -1.
       -4    1    3    3    0  502 -0.86164802944E+03 -0.38045573512E+03 -0.10465438993E+04  0.14079913491E+04  0.12699999809E+01 0.  1.
</event>
<event>
 5   0  0.7193153E-06  0.3040305E+04  0.7818609E-02  0.8232314E-01
       -2   -1    0    0    0  501  0.00000000000E+00  0.00000000000E+00  0.13900599184E+04  0.13900599184E+04  0.25500000920E-02 0.  1.
        2   -1    0    0  501    0  0.00000000000E+00  0.00000000000E+00 -0.16624205343E+04  0.16624205343E+04  0.25500000920E-02 0. -1.
    10030    2    1    2    0    0  0.00000000000E+00  0.00000000000E+00 -0.27236061584E+03  0.30524804527E+04  0.30403053480E+04 0.  0.
        4    1    3    3  502    0  0.36979770258E+03  0.12515566327E+04 -0.91886494124E+03  0.15960760442E+04  0.12699999809E+01 0. -1.
       -4    1    3    3    0  502 -0.36979770258E+03 -0.12515566327E+04  0.64650432540E+03  0.14564044086E+04  0.12699999809E+01 0.  1.
</event>
<event>
 5   0  0.7217255E-06  0.3005793E+04  0.7818609E-02  0.8242078E-01
        2   -1    0    0  501    0  0.00000000000E+00  0.00000000000E+00  0.24444987707E+04  0.24444987707E+04  0.25500000920E-02 0. -1.
       -2   -1    0    0    0  501  0.00000000000E+00  0.00000000000E+00 -0.92399244782E+03  0.92399244783E+03  0.25500000920E-02 0.  1.
    10030    2    1    2    0    0  0.00000000000E+00  0.00000000000E+00  0.15205063229E+04  0.33684912185E+04  0.30057933414E+04 0.  0.
        1    1    3    3  502    0  0.13629798239E+04  0.27853929491E+03  0.12294939332E+03  0.13965724802E+04  0.50400001928E-02 0. -1.
       -1    1    3    3    0  502 -0.13629798239E+04 -0.27853929491E+03  0.13975569295E+04  0.19719187383E+04  0.50400001928E-02 0.  1.
</event>
<event>
 5   0  0.6792811E-06  0.3013693E+04  0.7818609E-02  0.8239832E-01
       -2   -1    0    0    0  501  0.00000000000E+00  0.00000000000E+00  0.11965241076E+04  0.11965241076E+04  0.25500000920E-02 0.  1.
        2   -1    0    0  501    0  0.00000000000E+00  0.00000000000E+00 -0.18976520904E+04  0.18976520904E+04  0.25500000920E-02 0. -1.
    10030    2    1    2    0    0  0.00000000000E+00  0.00000000000E+00 -0.70112798276E+03  0.30941761980E+04  0.30136930660E+04 0.  0.
        2    1    3    3  502    0  0.23167632355E+03  0.92838969977E+03  0.84456970211E+03  0.12762755718E+04  0.25500000920E-02 0.  1.
       -2    1    3    3    0  502 -0.23167632355E+03 -0.92838969977E+03 -0.15456976849E+04  0.18179006261E+04  0.25500000920E-02 0. -1.
</event>
<event>
 5   0  0.2552990E-06  0.3058365E+04  0.7818609E-02  0.8227258E-01
       -1   -1    0    0    0  501  0.00000000000E+00  0.00000000000E+00  0.11301719115E+04  0.11301719115E+04  0.50400001928E-02 0.  1.
        1   -1    0    0  501    0  0.00000000000E+00  0.00000000000E+00 -0.20690645210E+04  0.20690645210E+04  0.50400001928E-02 0. -1.
    10030    2    1    2    0    0  0.00000000000E+00  0.00000000000E+00 -0.93889260951E+03  0.31992364325E+04  0.30583646642E+04 0.  0.
        3    1    3    3  502    0 -0.95248326256E+03  0.11615639408E+04 -0.76888930578E+03  0.16874969419E+04  0.10100000352E+00 0. -1.
       -3    1    3    3    0  502  0.95248326256E+03 -0.11615639408E+04 -0.17000330373E+03  0.15117394907E+04  0.10100000352E+00 0.  1.
</event>
<event>
 5   0  0.2628425E-06  0.2984651E+04  0.7818609E-02  0.8248128E-01
        1   -1    0    0  501    0  0.00000000000E+00  0.00000000000E+00  0.21428398194E+04  0.21428398194E+04  0.50400001928E-02 0. -1.
       -1   -1    0    0    0  501  0.00000000000E+00  0.00000000000E+00 -0.10392915381E+04  0.10392915381E+04  0.50400001928E-02 0.  1.
    10030    2    1    2    0    0  0.00000000000E+00  0.00000000000E+00  0.11035482813E+04  0.31821313574E+04  0.29846509288E+04 0.  0.
        1    1    3    3  502    0  0.59600712482E+03 -0.13586488985E+04  0.72330410530E+03  0.16505514687E+04  0.50400001928E-02 0. -1.
       -1    1    3    3    0  502 -0.59600712482E+03  0.13586488985E+04  0.38024417600E+03  0.15315798887E+04  0.50400001928E-02 0.  1.
</event>
<event>
 5   0  0.2422083E-06  0.2267713E+04  0.7818609E-02  0.8490761E-01
        1   -1    0    0  501    0  0.00000000000E+00  0.00000000000E+00  0.99391746496E+03  0.99391746497E+03  0.50400001928E-02 0.  1.
       -1   -1    0    0    0  501  0.00000000000E+00  0.00000000000E+00 -0.12934977911E+04  0.12934977911E+04  0.50400001928E-02 0. -1.
    10030    2    1    2    0    0  0.00000000000E+00  0.00000000000E+00 -0.29958032618E+03  0.22874152561E+04  0.22677125440E+04 0.  0.
        2    1    3    3  502    0  0.67068626673E+03 -0.29783707814E+03 -0.10216511931E+04  0.12578943334E+04  0.25500000920E-02 0. -1.
       -2    1    3    3    0  502 -0.67068626673E+03  0.29783707814E+03  0.72207086694E+03  0.10295209228E+04  0.25500000920E-02 0.  1.
</event>
<event>
 5   0  0.6792811E-06  0.3032492E+04  0.7818609E-02  0.8234513E-01
       -2   -1    0    0    0  501  0.00000000000E+00  0.00000000000E+00  0.21529792775E+04  0.21529792775E+04  0.25500000920E-02 0.  1.
        2   -1    0    0  501    0  0.00000000000E+00  0.00000000000E+00 -0.10678237328E+04  0.10678237328E+04  0.25500000920E-02 0. -1.
    10030    2    1    2    0    0  0.00000000000E+00  0.00000000000E+00  0.10851555448E+04  0.32208030103E+04  0.30324922877E+04 0.  0.
        2    1    3    3  502    0  0.13767872642E+04 -0.62977454416E+03  0.45471705328E+03  0.15807994009E+04  0.25500000920E-02 0.  1.
       -2    1    3    3    0  502 -0.13767872642E+04  0.62977454416E+03  0.63043849148E+03  0.16400036094E+04  0.25500000920E-02 0. -1.
</event>
<event>
 5   0  0.6780150E-06  0.2989521E+04  0.7818609E-02  0.8246729E-01
       -2   -1    0    0    0  501  0.00000000000E+00  0.00000000000E+00  0.84739490810E+03  0.84739490811E+03  0.25500000920E-02 0.  1.
        2   -1    0    0  501    0  0.00000000000E+00  0.00000000000E+00 -0.26366803424E+04  0.26366803424E+04  0.25500000920E-02 0. -1.
    10030    2    1    2    0    0  0.00000000000E+00  0.00000000000E+00 -0.17892854342E+04  0.34840752505E+04  0.29895213640E+04 0.  0.
        5    1    3    3  502    0  0.39456075774E+03 -0.20629703461E+03  0.76831100842E+03  0.88800932072E+03  0.46999998093E+01 0.  1.
       -5    1    3    3    0  502 -0.39456075774E+03  0.20629703461E+03 -0.25575964427E+04  0.25960659297E+04  0.46999998093E+01 0. -1.
</event>
<event>
 5   0  0.2628425E-06  0.3029463E+04  0.7818609E-02  0.8235367E-01
       -1   -1    0    0    0  501  0.00000000000E+00  0.00000000000E+00  0.13428355520E+04  0.13428355520E+04  0.50400001928E-02 0. -1.
        1   -1    0    0  501    0  0.00000000000E+00  0.00000000000E+00 -0.17086319349E+04  0.17086319349E+04  0.50400001928E-02 0.  1.
    10030    2    1    2    0    0  0.00000000000E+00  0.00000000000E+00 -0.36579638292E+03  0.30514674869E+04  0.30294631257E+04 0.  0.
        1    1    3    3  502    0  0.67778858104E+03  0.13485337250E+04 -0.53626063411E+02  0.15102371743E+04  0.50400001928E-02 0. -1.
       -1    1    3    3    0  502 -0.67778858104E+03 -0.13485337250E+04 -0.31217031951E+03  0.15412303126E+04  0.50400001928E-02 0.  1.
</event>
<event>
 5   0  0.7217255E-06  0.2758767E+04  0.7818609E-02  0.8316185E-01
        2   -1    0    0  501    0  0.00000000000E+00  0.00000000000E+00  0.14024420304E+04  0.14024420304E+04  0.25500000920E-02 0. -1.
       -2   -1    0    0    0  501  0.00000000000E+00  0.00000000000E+00 -0.13567041750E+04  0.13567041750E+04  0.25500000920E-02 0.  1.
    10030    2    1    2    0    0  0.00000000000E+00  0.00000000000E+00  0.45737855398E+02  0.27591462054E+04  0.27587670854E+04 0.  0.
        1    1    3    3  502    0 -0.46265831739E+03  0.50092207495E+03 -0.11763468559E+04  0.13596939249E+04  0.50400001928E-02 0.  1.
       -1    1    3    3    0  502  0.46265831739E+03 -0.50092207495E+03  0.12220847113E+04  0.13994522805E+04  0.50400001928E-02 0. -1.
</event>
<event>
 5   0  0.2628425E-06  0.3338429E+04  0.7818609E-02  0.8153185E-01
       -1   -1    0    0    0  501  0.00000000000E+00  0.00000000000E+00  0.17298601041E+04  0.17298601042E+04  0.50400001928E-02 0. -1.
        1   -1    0    0  501    0  0.00000000000E+00  0.00000000000E+00 -0.16106954972E+04  0.16106954972E+04  0.50400001928E-02 0.  1.
    10030    2    1    2    0    0  0.00000000000E+00  0.00000000000E+00  0.11916460695E+03  0.33405556013E+04  0.33384294994E+04 0.  0.
        1    1    3    3  502    0 -0.68974085064E+03 -0.90649934378E+03 -0.11613563850E+04  0.16267243634E+04  0.50400001928E-02 0.  1.
       -1    1    3    3    0  502  0.68974085064E+03  0.90649934378E+03  0.12805209920E+04  0.17138312380E+04  0.50400001928E-02 0. -1.
</event>
<event>
 5   0  0.6780150E-06  0.2999510E+04  0.7818609E-02  0.8243871E-01
       -2   -1    0    0    0  501  0.00000000000E+00  0.00000000000E+00  0.10541074924E+04  0.10541074924E+04  0.25500000920E-02 0.  1.
        2   -1    0    0  501    0  0.00000000000E+00  0.00000000000E+00 -0.21338104184E+04  0.21338104184E+04  0.25500000920E-02 0. -1.
    10030    2    1    2    0    0  0.00000000000E+00  0.00000000000E+00 -0.10797029260E+04  0.31879179108E+04  0.29995103263E+04 0.  0.
        5    1    3    3  502    0 -0.25361751933E+03 -0.11821941745E+03  0.10261106738E+04  0.10635896208E+04  0.46999998093E+01 0.  1.
       -5    1    3    3    0  502  0.25361751933E+03  0.11821941745E+03 -0.21058135998E+04  0.21243282900E+04  0.46999998093E+01 0. -1.
</event>
<event>
 5   0  0.7217255E-06  0.2751090E+04  0.7818609E-02  0.8318616E-01
        2   -1    0    0  501    0  0.00000000000E+00  0.00000000000E+00  0.17708898894E+04  0.17708898894E+04  0.25500000920E-02 0.  1.
       -2   -1    0    0    0  501  0.00000000000E+00  0.00000000000E+00 -0.10684592075E+04  0.10684592076E+04  0.25500000920E-02 0. -1.
    10030    2    1    2    0    0  0.00000000000E+00  0.00000000000E+00  0.70243068189E+03  0.28393490970E+04  0.27510896808E+04 0.  0.
        1    1    3    3  502    0 -0.11978409324E+04 -0.59063902979E+02  0.10464831316E+04  0.15916778533E+04  0.50400001928E-02 0.  1.
       -1    1    3    3    0  502  0.11978409324E+04  0.59063902979E+02 -0.34405244976E+03  0.12476712436E+04  0.50400001928E-02 0. -1.
</event>
<event>
 5   0  0.6780150E-06  0.2662775E+04  0.7818609E-02  0.8347185E-01
       -2   -1    0    0    0  501  0.00000000000E+00  0.00000000000E+00  0.10711609593E+04  0.10711609593E+04  0.25500000920E-02 0. -1.
        2   -1    0    0  501    0  0.00000000000E+00  0.00000000000E+00 -0.16548326317E+04  0.16548326317E+04  0.25500000920E-02 0.  1.
    10030    2    1    2    0    0  0.00000000000E+00  0.00000000000E+00 -0.58367167243E+03  0.27259935910E+04  0.26627745750E+04 0.  0.
        5    1    3    3  502    0 -0.24715373757E+03 -0.10230759304E+04 -0.11265468802E+04  0.15417195895E+04  0.46999998093E+01 0.  1.
       -5    1    3    3    0  502  0.24715373757E+03  0.10230759304E+04  0.54287520781E+03  0.11842740015E+04  0.46999998093E+01 0. -1.
</event>
<event>
 5   0  0.6780150E-06  0.3422927E+04  0.7818609E-02  0.8132302E-01
        2   -1    0    0  501    0  0.00000000000E+00  0.00000000000E+00  0.11559166635E+04  0.11559166635E+04  0.25500000920E-02 0. -1.
       -2   -1    0    0    0  501  0.00000000000E+00  0.00000000000E+00 -0.25340127646E+04  0.25340127646E+04  0.25500000920E-02 0.  1.
    10030    2    1    2    0    0  0.00000000000E+00  0.00000000000E+00 -0.13780961011E+04  0.36899294281E+04  0.34229271568E+04 0.  0.
        5    1    3    3  502    0 -0.13973349477E+04 -0.55362234027E+03 -0.15714606245E+04  0.21745236803E+04  0.46999998093E+01 0.  1.
       -5    1    3    3    0  502  0.13973349477E+04  0.55362234027E+03  0.19336452339E+03  0.15154057479E+04  0.46999998093E+01 0. -1.
</event>
<event>
 5   0  0.2422083E-06  0.2993511E+04  0.7818609E-02  0.8245586E-01
        1   -1    0    0  501    0  0.00000000000E+00  0.00000000000E+00  0.12288960324E+04  0.12288960324E+04  0.50400001928E-02 0. -1.
       -1   -1    0    0    0  501  0.00000000000E+00  0.00000000000E+00 -0.18229995777E+04  0.18229995777E+04  0.50400001928E-02 0.  1.
    10030    2    1    2    0    0  0.00000000000E+00  0.00000000000E+00 -0.59410354530E+03  0.30518956100E+04  0.29935109474E+04 0.  0.
        2    1    3    3  502    0  0.23277890630E+02 -0.92694352559E+03  0.90081557351E+03  0.12927624907E+04  0.25500000920E-02 0. -1.
       -2    1    3    3    0  502 -0.23277890630E+02  0.92694352559E+03 -0.14949191188E+04  0.17591331194E+04  0.25500000920E-02 0.  1.
</event>
<event>
 5   0  0.7201538E-06  0.2669613E+04  0.7818609E-02  0.8344932E-01
       -2   -1    0    0    0  501  0.00000000000E+00  0.00000000000E+00  0.11994178141E+04  0.11994178141E+04  0.25500000920E-02 0.  1.
        2   -1    0    0  501    0  0.00000000000E+00  0.00000000000E+00 -0.14854771903E+04  0.14854771903E+04  0.25500000920E-02 0. -1.
    10030    2    1    2    0    0  0.00000000000E+00  0.00000000000E+00 -0.28605937615E+03  0.26848950044E+04  0.26696125596E+04 0.  0.
        3    1    3    3  502    0 -0.50350415056E+03 -0.57524208172E+02  0.10989006493E+04  0.12101273121E+04  0.10100000352E+00 0.  1.
       -3    1    3    3    0  502  0.50350415056E+03  0.57524208172E+02 -0.13849600254E+04  0.14747676924E+04  0.10100000352E+00 0. -1.
</event>
<event>
 5   0  0.2422083E-06  0.2986258E+04  0.7818609E-02  0.8247666E-01
       -1   -1    0    0    0  501  0.00000000000E+00  0.00000000000E+00  0.13823465448E+04  0.13823465448E+04  0.50400001928E-02 0.  1.
        1   -1    0    0  501    0  0.00000000000E+00  0.00000000000E+00 -0.16127891443E+04  0.16127891443E+04  0.50400001928E-02 0. -1.
    10030    2    1    2    0    0  0.00000000000E+00  0.00000000000E+00 -0.23044259951E+03  0.29951356891E+04  0.29862575248E+04 0.  0.
        2    1    3    3  502    0  0.24144030547E+03  0.73937691924E+03  0.11631117094E+04  0.13992142432E+04  0.25500000920E-02 0.  1.
       -2    1    3    3    0  502 -0.24144030547E+03 -0.73937691924E+03 -0.13935543089E+04  0.15959214460E+04  0.25500000920E-02 0. -1.
</event>
<event>
 5   0  0.7193153E-06  0.2490462E+04  0.7818609E-02  0.8406391E-01
        2   -1    0    0  501    0  0.00000000000E+00  0.00000000000E+00  0.10373032479E+04  0.10373032479E+04  0.25500000920E-02 0.  1.
       -2   -1    0    0    0  501  0.00000000000E+00  0.00000000000E+00 -0.14948377164E+04  0.14948377164E+04  0.25500000920E-02 0. -1.
    10030    2    1    2    0    0  0.00000000000E+00  0.00000000000E+00 -0.45753446843E+03  0.25321409643E+04  0.24904618193E+04 0.  0.
        4    1    3    3  502    0  0.22173313098E+03 -0.10603566439E+04 -0.85310957621E+03  0.13788833727E+04  0.12699999809E+01 0. -1.
       -4    1    3    3    0  502 -0.22173313098E+03  0.10603566439E+04  0.39557510778E+03  0.11532575916E+04  0.12699999809E+01 0.  1.
</event>
<event>
 5   0  0.2552990E-06  0.3041471E+04  0.7818609E-02  0.8231987E-01
       -1   -1    0    0    0  501  0.00000000000E+00  0.00000000000E+00  0.20958312561E+04  0.20958312561E+04  0.50400001928E-02 0.  1.
        1   -1    0    0  501    0  0.00000000000E+00  0.00000000000E+00 -0.11034458132E+04  0.11034458132E+04  0.50400001928E-02 0. -1.
    10030    2    1    2    0    0  0.00000000000E+00  0.00000000000E+00  0.99238544283E+03  0.31992770693E+04  0.30414708447E+04 0.  0.
        3    1    3    3  502    0 -0.35046231357E+03  0.91346591993E+03 -0.72842550162E+03  0.12197735617E+04  0.10100000352E+00 0. -1.
       -3    1    3    3    0  502  0.35046231357E+03 -0.91346591993E+03  0.17208109445E+04  0.19795035077E+04  0.10100000352E+00 0.  1.
</event>
<event>
 5   0  0.7201538E-06  0.2990192E+04  0.7818609E-02  0.8246537E-01
        2   -1    0    0  501    0  0.00000000000E+00  0.00000000000E+00  0.17745987782E+04  0.17745987782E+04  0.25500000920E-02 0. -1.
       -2   -1    0    0    0  501  0.00000000000E+00  0.00000000000E+00 -0.12596158590E+04  0.12596158590E+04  0.25500000920E-02 0.  1.
    10030    2    1    2    0    0  0.00000000000E+00  0.00000000000E+00  0.51498291919E+03  0.30342146373E+04  0.29901924784E+04 0.  0.
        3    1    3    3  502    0 -0.59702309798E+03  0.77948409400E+03  0.14016017322E+04  0.17112917513E+04  0.10100000352E+00 0. -1.
       -3    1    3    3    0  502  0.59702309798E+03 -0.77948409400E+03 -0.88661881300E+03  0.13229228859E+04  0.10100000352E+00 0.  1.
</event>
<event>
 5   0  0.2504260E-06  0.2974593E+04  0.7818609E-02  0.8251023E-01
        1   -1    0    0  501    0  0.00000000000E+00  0.00000000000E+00  0.17914237778E+04  0.17914237779E+04  0.50400001928E-02 0. -1.
       -1   -1    0    0    0  501  0.00000000000E+00  0.00000000000E+00 -0.12348005807E+04  0.12348005807E+04  0.50400001928E-02 0.  1.
    10030    2    1    2    0    0  0.00000000000E+00  0.00000000000E+00  0.55662319716E+03  0.30262243585E+04  0.29745931629E+04 0.  0.
        4    1    3    3  502    0  0.42630366603E+03  0.12476506933E+04  0.97850367191E+03  0.16419007634E+04  0.12699999809E+01 0. -1.
       -4    1    3    3    0  502 -0.42630366603E+03 -0.12476506933E+04 -0.42188047475E+03  0.13843235951E+04  0.12699999809E+01 0.  1.
</event>
<event>
 5   0  0.7217255E-06  0.2971851E+04  0.7818609E-02  0.8251815E-01
       -2   -1    0    0    0  501  0.00000000000E+00  0.00000000000E+00  0.16562717319E+04  0.16562717319E+04  0.25500000920E-02 0.  1.
        2   -1    0    0  501    0  0.00000000000E+00  0.00000000000E+00 -0.13330994632E+04  0.13330994632E+04  0.25500000920E-02 0. -1.
    10030    2    1    2    0    0  0.00000000000E+00  0.00000000000E+00  0.32317226863E+03  0.29893711951E+04  0.29718512458E+04 0.  0.
        1    1    3    3  502    0 -0.52635869318E+03 -0.13895301958E+04  0.17293616635E+03  0.14959126167E+04  0.50400001928E-02 0. -1.
       -1    1    3    3    0  502  0.52635869318E+03  0.13895301958E+04  0.15023610228E+03  0.14934585784E+04  0.50400001928E-02 0.  1.
</event>
<event>
 5   0  0.2672155E-06  0.3066571E+04  0.7818609E-02  0.8224972E-01
        1   -1    0    0  501    0  0.00000000000E+00  0.00000000000E+00  0.25111825253E+04  0.25111825253E+04  0.50400001928E-02 0. -1.
       -1   -1    0    0    0  501  0.00000000000E+00  0.00000000000E+00 -0.93619823282E+03  0.93619823284E+03  0.50400001928E-02 0.  1.
    10030    2    1    2    0    0  0.00000000000E+00  0.00000000000E+00  0.15749842924E+04  0.34473807581E+04  0.30665711422E+04 0.  0.
        5    1    3    3  502    0  0.11721254289E+03 -0.14247989397E+04  0.16445676757E+03  0.14390479204E+04  0.46999998093E+01 0.  1.
       -5    1    3    3    0  502 -0.11721254289E+03  0.14247989397E+04  0.14105275249E+04  0.20083328377E+04  0.46999998093E+01 0. -1.
</event>
<event>
 5   0  0.2504260E-06  0.3014080E+04  0.7818609E-02  0.8239722E-01
        1   -1    0    0  501    0  0.00000000000E+00  0.00000000000E+00  0.14490363455E+04  0.14490363455E+04  0.50400001928E-02 0.  1.
       -1   -1    0    0    0  501  0.00000000000E+00  0.00000000000E+00 -0.15673657784E+04  0.15673657784E+04  0.50400001928E-02 0. -1.
    10030    2    1    2    0    0  0.00000000000E+00  0.00000000000E+00 -0.11832943281E+03  0.30164021239E+04  0.30140802774E+04 0.  0.
        4    1    3    3  502    0 -0.30540542495E+03 -0.14648289055E+04  0.12033947949E+03  0.15011593517E+04  0.12699999809E+01 0.  1.
       -4    1    3    3    0  502  0.30540542495E+03  0.14648289055E+04 -0.23866891230E+03  0.15152427722E+04  0.12699999809E+01 0. -1.
</event>
<event>
 5   0  0.7201538E-06  0.3003394E+04  0.7818609E-02  0.8242763E-01
       -2   -1    0    0    0  501  0.00000000000E+00  0.00000000000E+00  0.11110821342E+04  0.11110821342E+04  0.25500000920E-02 0.  1.
        2   -1    0    0  501    0  0.00000000000E+00  0.00000000000E+00 -0.20296367539E+04  0.20296367539E+04  0.25500000920E-02 0. -1.
    10030    2    1    2    0    0  0.00000000000E+00  0.00000000000E+00 -0.91855461966E+03  0.31407188881E+04  0.30033935048E+04 0.  0.
        3    1    3    3  502    0 -0.12662113240E+04 -0.51710617606E+03  0.18907391094E+03  0.13807385228E+04  0.10100000352E+00 0.  1.
       -3    1    3    3    0  502  0.12662113240E+04  0.51710617606E+03 -0.11076285306E+04  0.17599803653E+04  0.10100000352E+00 0. -1.
</event>
<event>
 5   0  0.2672155E-06  0.3006082E+04  0.7818609E-02  0.8241996E-01
       -1   -1    0    0    0  501  0.00000000000E+00  0.00000000000E+00  0.17226430547E+04  0.17226430547E+04  0.50400001928E-02 0. -1.
        1   -1    0    0  501    0  0.00000000000E+00  0.00000000000E+00 -0.13114341820E+04  0.13114341820E+04  0.50400001928E-02 0.  1.
    10030    2    1    2    0    0  0.00000000000E+00  0.00000000000E+00  0.41120887269E+03  0.30340772368E+04  0.30060824908E+04 0.  0.
        5    1    3    3  502    0 -0.15170034543E+02 -0.13610016516E+04  0.84915923883E+03  0.16042596824E+04  0.46999998093E+01 0. -1.
       -5    1    3    3    0  502  0.15170034543E+02  0.13610016516E+04 -0.43795036614E+03  0.14298175544E+04  0.46999998093E+01 0.  1.
</event>
<event>
 5   0  0.2552990E-06  0.3057704E+04  0.7818609E-02  0.8227443E-01
       -1   -1    0    0    0  501  0.00000000000E+00  0.00000000000E+00  0.13859625496E+04  0.13859625496E+04  0.50400001928E-02 0. -1.
        1   -1    0    0  501    0  0.00000000000E+00  0.00000000000E+00 -0.16864724840E+04  0.16864724840E+04  0.50400001928E-02 0.  1.
    10030    2    1    2    0    0  0.00000000000E+00  0.00000000000E+00 -0.30050993432E+03  0.30724350336E+04  0.30577035198E+04 0.  0.
        3    1    3    3  502    0 -0.94084194008E+03  0.70606857130E+03 -0.11315208383E+04  0.16321935551E+04  0.10100000352E+00 0.  1.
       -3    1    3    3    0  502  0.94084194008E+03 -0.70606857130E+03  0.83101090401E+03  0.14402414785E+04  0.10100000352E+00 0. -1.
</event>
<event>
 5   0  0.2422083E-06  0.3300316E+04  0.7818609E-02  0.8162815E-01
       -1   -1    0    0    0  501  0.00000000000E+00  0.00000000000E+00  0.23711155534E+04  0.23711155534E+04  0.50400001928E-02 0.  1.
        1   -1    0    0  501    0  0.00000000000E+00  0.00000000000E+00 -0.11484136046E+04  0.11484136046E+04  0.50400001928E-02 0. -1.
    10030    2    1    2    0    0  0.00000000000E+00  0.00000000000E+00  0.12227019488E+04  0.35195291581E+04  0.33003159604E+04 0.  0.
        2    1    3    3  502    0  0.16526972220E+03  0.56613468699E+03 -0.10321843015E+04  0.11887922431E+04  0.25500000920E-02 0. -1.
       -2    1    3    3    0  502 -0.16526972220E+03 -0.56613468699E+03  0.22548862503E+04  0.23307369150E+04  0.25500000920E-02 0.  1.
</event>
<event>
 5   0  0.6792811E-06  0.3030110E+04  0.7818609E-02  0.8235185E-01
       -2   -1    0    0    0  501  0.00000000000E+00  0.00000000000E+00  0.16022375672E+04  0.16022375672E+04  0.25500000920E-02 0.  1.
        2   -1    0    0  501    0  0.00000000000E+00  0.00000000000E+00 -0.14326165137E+04  0.14326165137E+04  0.25500000920E-02 0. -1.
    10030    2    1    2    0    0  0.00000000000E+00  0.00000000000E+00  0.16962105348E+03  0.30348540809E+04  0.30301102275E+04 0.  0.
        2    1    3    3  502    0 -0.81143193423E+03  0.10213793919E+04 -0.68695040542E+03  0.14742925441E+04  0.25500000920E-02 0. -1.
       -2    1    3    3    0  502  0.81143193423E+03 -0.10213793919E+04  0.85657145890E+03  0.15605615368E+04  0.25500000920E-02 0.  1.
</event>
<event>
 5   0  0.2422083E-06  0.2960176E+04  0.7818609E-02  0.8255195E-01
       -1   -1    0    0    0  501  0.00000000000E+00  0.00000000000E+00  0.18053158710E+04  0.18053158711E+04  0.50400001928E-02 0. -1.
        1   -1    0    0  501    0  0.00000000000E+00  0.00000000000E+00 -0.12134496292E+04  0.12134496292E+04  0.50400001928E-02 0.  1.
    10030    2    1    2    0    0  0.00000000000E+00  0.00000000000E+00  0.59186624183E+03  0.30187655003E+04  0.29601755856E+04 0.  0.
        2    1    3    3  502    0  0.92985718389E+03  0.31014481687E+03 -0.83499616578E+03  0.12876501026E+04  0.25500000920E-02 0.  1.
       -2    1    3    3    0  502 -0.92985718389E+03 -0.31014481687E+03  0.14268624076E+04  0.17311153977E+04  0.25500000920E-02 0. -1.
</event>
<event>
 5   0  0.2422083E-06  0.2998541E+04  0.7818609E-02  0.8244148E-01
        1   -1    0    0  501    0  0.00000000000E+00  0.00000000000E+00  0.13673930746E+04  0.13673930746E+04  0.50400001928E-02 0.  1.
       -1   -1    0    0    0  501  0.00000000000E+00  0.00000000000E+00 -0.16438663289E+04  0.16438663289E+04  0.50400001928E-02 0. -1.
    10030    2    1    2    0    0  0.00000000000E+00  0.00000000000E+00 -0.27647325432E+03  0.30112594036E+04  0.29985406009E+04 0.  0.
        2    1    3    3  502    0  0.14538187978E+04 -0.99184929675E+00 -0.50615293803E+03  0.15394092625E+04  0.25500000920E-02 0. -1.
       -2    1    3    3    0  502 -0.14538187978E+04  0.99184929675E+00  0.22967968371E+03  0.14718501411E+04  0.25500000920E-02 0.  1.
</event>
<event>
 5   0  0.2552990E-06  0.2502159E+04  0.7818609E-02  0.8402217E-01
       -1   -1    0    0    0  501  0.00000000000E+00  0.00000000000E+00  0.79056759914E+03  0.79056759915E+03  0.50400001928E-02 0. -1.
        1   -1    0    0  501    0  0.00000000000E+00  0.00000000000E+00 -0.19798435802E+04  0.19798435802E+04  0.50400001928E-02 0.  1.
    10030    2    1    2    0    0  0.00000000000E+00  0.00000000000E+00 -0.11892759811E+04  0.27704111793E+04  0.25021592163E+04 0.  0.
        3    1    3    3  502    0 -0.94195054765E+03 -0.56985501823E+03  0.63377802567E+02  0.11027340260E+04  0.10100000352E+00 0.  1.
       -3    1    3    3    0  502  0.94195054765E+03  0.56985501823E+03 -0.12526537836E+04  0.16676771534E+04  0.10100000352E+00 0. -1.
</event>
<event>
 5   0  0.7217255E-06  0.3173113E+04  0.7818609E-02  0.8195954E-01
        2   -1    0    0  501    0  0.00000000000E+00  0.00000000000E+00  0.13975500782E+04  0.13975500782E+04  0.25500000920E-02 0.  1.
       -2   -1    0    0    0  501  0.00000000000E+00  0.00000000000E+00 -0.18011249180E+04  0.18011249180E+04  0.25500000920E-02 0. -1.
    10030    2    1    2    0    0  0.00000000000E+00  0.00000000000E+00 -0.40357483985E+03  0.31986749962E+04  0.31731134679E+04 0.  0.
        1    1    3    3  502    0 -0.46224246416E+03  0.10803460519E+04 -0.12763703024E+04  0.17349169537E+04  0.50400001928E-02 0. -1.
       -1    1    3    3    0  502  0.46224246416E+03 -0.10803460519E+04  0.87279546255E+03  0.14637580425E+04  0.50400001928E-02 0.  1.
</event>
<event>
 5   0  0.7193153E-06  0.2908993E+04  0.7818609E-02  0.8270207E-01
       -2   -1    0    0    0  501  0.00000000000E+00  0.00000000000E+00  0.97644430166E+03  0.97644430167E+03  0.25500000920E-02 0.  1.
        2   -1    0    0  501    0  0.00000000000E+00  0.00000000000E+00 -0.21665953415E+04  0.21665953415E+04  0.25500000920E-02 0. -1.
    10030    2    1    2    0    0  0.00000000000E+00  0.00000000000E+00 -0.11901510398E+04  0.31430396431E+04  0.29089927296E+04 0.  0.
        4    1    3    3  502    0 -0.24614277853E+03  0.13344245732E+04 -0.11609323368E+04  0.17857885409E+04  0.12699999809E+01 0. -1.
       -4    1    3    3    0  502  0.24614277853E+03 -0.13344245732E+04 -0.29218702960E+02  0.13572511023E+04  0.12699999809E+01 0.  1.
</event>
<event>
 5   0  0.2628425E-06  0.3030473E+04  0.7818609E-02  0.8235082E-01
        1   -1    0    0  501    0  0.00000000000E+00  0.00000000000E+00  0.16823604878E+04  0.16823604878E+04  0.50400001928E-02 0. -1.
       -1   -1    0    0    0  501  0.00000000000E+00  0.00000000000E+00 -0.13647146164E+04  0.13647146164E+04  0.50400001928E-02 0.  1.
    10030    2    1    2    0    0  0.00000000000E+00  0.00000000000E+00  0.31764587147E+03  0.30470751042E+04  0.30304731959E+04 0.  0.
        1    1    3    3  502    0 -0.14520843842E+03  0.12832955418E+04  0.95563453743E+03  0.16066020999E+04  0.50400001928E-02 0. -1.
       -1    1    3    3    0  502  0.14520843842E+03 -0.12832955418E+04 -0.63798866596E+03  0.14404730043E+04  0.50400001928E-02 0.  1.
</event>
<event>
 5   0  0.7217255E-06  0.2972032E+04  0.7818609E-02  0.8251763E-01
       -2   -1    0    0    0  501  0.00000000000E+00  0.00000000000E+00  0.10327667752E+04  0.10327667752E+04  0.25500000920E-02 0. -1.
        2   -1    0    0  501    0  0.00000000000E+00  0.00000000000E+00 -0.21381821266E+04  0.21381821266E+04  0.25500000920E-02 0.  1.
    10030    2    1    2    0    0  0.00000000000E+00  0.00000000000E+00 -0.11054153514E+04  0.31709489019E+04  0.29720319378E+04 0.  0.
        1    1    3    3  502    0  0.11046947269E+04  0.44756746461E+02  0.50666793477E+03  0.12161685747E+04  0.50400001928E-02 0. -1.
       -1    1    3    3    0  502 -0.11046947269E+04 -0.44756746461E+02 -0.16120832862E+04  0.19547803272E+04  0.50400001928E-02 0.  1.
</event>
<event>
 5   0  0.7193153E-06  0.3092377E+04  0.7818609E-02  0.8217833E-01
        2   -1    0    0  501    0  0.00000000000E+00  0.00000000000E+00  0.14283674927E+04  0.14283674927E+04  0.25500000920E-02 0. -1.
       -2   -1    0    0    0  501  0.00000000000E+00  0.00000000000E+00 -0.16737276233E+04  0.16737276233E+04  0.25500000920E-02 0.  1.
    10030    2    1    2    0    0  0.00000000000E+00  0.00000000000E+00 -0.24536013058E+03  0.31020951160E+04  0.30923765157E+04 0.  0.
        4    1    3    3  502    0 -0.50412079550E+03 -0.14372121812E+04 -0.38993786645E+03  0.15721863067E+04  0.12699999809E+01 0.  1.
       -4    1    3    3    0  502  0.50412079550E+03  0.14372121812E+04  0.14457773588E+03  0.15299088093E+04  0.12699999809E+01 0. -1.
</event>
<event>
 5   0  0.6780150E-06  0.2987585E+04  0.7818609E-02  0.8247285E-01
        2   -1    0    0  501    0  0.00000000000E+00  0.00000000000E+00  0.11889650396E+04  0.11889650396E+04  0.25500000920E-02 0. -1.
       -2   -1    0    0    0  501  0.00000000000E+00  0.00000000000E+00 -0.18767716857E+04  0.18767716857E+04  0.25500000920E-02 0.  1.
    10030    2    1    2    0    0  0.00000000000E+00  0.00000000000E+00 -0.68780664614E+03  0.30657367253E+04  0.29875849254E+04 0.  0.
        5    1    3    3  502    0 -0.74946241006E+03 -0.10013285771E+04 -0.11819937194E+04  0.17208962973E+04  0.46999998093E+01 0.  1.
       -5    1    3    3    0  502  0.74946241006E+03  0.10013285771E+04  0.49418707327E+03  0.13448404280E+04  0.46999998093E+01 0. -1.
</event>
<event>
 5   0  0.7217255E-06  0.2993343E+04  0.7818609E-02  0.8245634E-01
        2   -1    0    0  501    0  0.00000000000E+00  0.00000000000E+00  0.18240666195E+04  0.18240666195E+04  0.25500000920E-02 0. -1.
       -2   -1    0    0    0  501  0.00000000000E+00  0.00000000000E+00 -0.12280392261E+04  0.12280392261E+04  0.25500000920E-02 0.  1.
    10030    2    1    2    0    0  0.00000000000E+00  0.00000000000E+00  0.59602739348E+03  0.30521058456E+04  0.29933428536E+04 0.  0.
        1    1    3    3  502    0 -0.14065574104E+04 -0.48965677355E+03  0.44876007883E+03  0.15554912771E+04  0.50400001928E-02 0. -1.
       -1    1    3    3    0  502  0.14065574104E+04  0.48965677355E+03  0.14726731465E+03  0.14966145685E+04  0.50400001928E-02 0.  1.
</event>
<event>
 5   0  0.6780150E-06  0.3091849E+04  0.7818609E-02  0.8217978E-01
        2   -1    0    0  501    0  0.00000000000E+00  0.00000000000E+00  0.12001718852E+04  0.12001718852E+04  0.25500000920E-02 0.  1.
       -2   -1    0    0    0  501  0.00000000000E+00  0.00000000000E+00 -0.19912841853E+04  0.19912841853E+04  0.25500000920E-02 0. -1.
    10030    2    1    2    0    0  0.00000000000E+00  0.00000000000E+00 -0.79111230011E+03  0.31914560705E+04  0.30918494754E+04 0.  0.
        5    1    3    3  502    0  0.30136615876E+03 -0.14557383696E+04  0.42212234144E+02  0.14872120646E+04  0.46999998093E+01 0.  1.
       -5    1    3    3    0  502 -0.30136615876E+03  0.14557383696E+04 -0.83332453426E+03  0.17042440059E+04  0.46999998093E+01 0. -1.
</event>
<event>
 5   0  0.7217255E-06  0.3028849E+04  0.7818609E-02  0.8235541E-01
       -2   -1    0    0    0  501  0.00000000000E+00  0.00000000000E+00  0.14457228794E+04  0.14457228794E+04  0.25500000920E-02 0. -1.
        2   -1    0    0  501    0  0.00000000000E+00  0.00000000000E+00 -0.15863909432E+04  0.15863909432E+04  0.25500000920E-02 0.  1.
    10030    2    1    2    0    0  0.00000000000E+00  0.00000000000E+00 -0.14066806386E+03  0.30321138226E+04  0.30288490767E+04 0.  0.
        1    1    3    3  502    0  0.16572049719E+03  0.10319218075E+04  0.10268198267E+04  0.14651569392E+04  0.50400001928E-02 0. -1.
       -1    1    3    3    0  502 -0.16572049719E+03 -0.10319218075E+04 -0.11674878905E+04  0.15669568834E+04  0.50400001928E-02 0.  1.
</event>
<event>
 5   0  0.2504260E-06  0.2996702E+04  0.7818609E-02  0.8244673E-01
       -1   -1    0    0    0  501  0.00000000000E+00  0.00000000000E+00  0.18126044117E+04  0.18126044117E+04  0.50400001928E-02 0. -1.
        1   -1    0    0  501    0  0.00000000000E+00  0.00000000000E+00 -0.12385800038E+04  0.12385800038E+04  0.50400001928E-02 0.  1.
    10030    2    1    2    0    0  0.00000000000E+00  0.00000000000E+00  0.57402440784E+03  0.30511844155E+04  0.29967019065E+04 0.  0.
        4    1    3    3  502    0  0.16724152503E+03  0.14772346876E+04  0.96904139161E+02  0.14898268608E+04  0.12699999809E+01 0.  1.
       -4    1    3    3    0  502 -0.16724152503E+03 -0.14772346876E+04  0.47712026867E+03  0.15613575547E+04  0.12699999809E+01 0. -1.
</event>
<event>
 5   0  0.2552990E-06  0.2966174E+04  0.7818609E-02  0.8253457E-01
       -1   -1    0    0    0  501  0.00000000000E+00  0.00000000000E+00  0.11150772045E+04  0.11150772045E+04  0.50400001928E-02 0.  1.
        1   -1    0    0  501    0  0.00000000000E+00  0.00000000000E+00 -0.19725511803E+04  0.19725511803E+04  0.50400001928E-02 0. -1.
    10030    2    1    2    0    0  0.00000000000E+00  0.00000000000E+00 -0.85747397579E+03  0.30876283849E+04  0.29661738695E+04 0.  0.
        3    1    3    3  502    0 -0.12188209149E+04  0.69614429861E+03  0.69837864900E+02  0.14053535657E+04  0.10100000352E+00 0.  1.
       -3    1    3    3    0  502  0.12188209149E+04 -0.69614429861E+03 -0.92731184069E+03  0.16822748192E+04  0.10100000352E+00 0. -1.
</event>
<event>
 5   0  0.7217255E-06  0.3001151E+04  0.7818609E-02  0.8243402E-01
       -2   -1    0    0    0  501  0.00000000000E+00  0.00000000000E+00  0.10438354791E+04  0.10438354791E+04  0.25500000920E-02 0. -1.
        2   -1    0    0  501    0  0.00000000000E+00  0.00000000000E+00 -0.21571663546E+04  0.21571663546E+04  0.25500000920E-02 0.  1.
    10030    2    1    2    0    0  0.00000000000E+00  0.00000000000E+00 -0.11133308755E+04  0.32010018337E+04  0.30011509627E+04 0.  0.
        1    1    3    3  502    0  0.24390838393E+03  0.41005832031E+03 -0.20741096681E+04  0.21282786568E+04  0.50400001928E-02 0.  1.
       -1    1    3    3    0  502 -0.24390838393E+03 -0.41005832031E+03  0.96077879262E+03  0.10727231769E+04  0.50400001928E-02 0. -1.
</event>
<event>
 5   0  0.2422083E-06  0.3016758E+04  0.7818609E-02  0.8238962E-01
        1   -1    0    0  501    0  0.00000000000E+00  0.00000000000E+00  0.10036655290E+04  0.10036655290E+04  0.50400001928E-02 0. -1.
       -1   -1    0    0    0  501  0.00000000000E+00  0.00000000000E+00 -0.22668982920E+04  0.22668982920E+04  0.50400001928E-02 0.  1.
    10030    2    1    2    0    0  0.00000000000E+00  0.00000000000E+00 -0.12632327630E+04  0.32705638211E+04  0.30167583089E+04 0.  0.
        2    1    3    3  502    0  0.71075264928E+03  0.81636138808E+03  0.50728591047E+03  0.11953887399E+04  0.25500000920E-02 0. -1.
       -2    1    3    3    0  502 -0.71075264928E+03 -0.81636138808E+03 -0.17705186735E+04  0.20751750812E+04  0.25500000920E-02 0.  1.
</event>
<event>
 5   0  0.6792811E-06  0.2997095E+04  0.7818609E-02  0.8244561E-01
       -2   -1    0    0    0  501  0.00000000000E+00  0.00000000000E+00  0.15692142098E+04  0.15692142098E+04  0.25500000920E-02 0. -1.
        2   -1    0    0  501    0  0.00000000000E+00  0.00000000000E+00 -0.14310630905E+04  0.14310630905E+04  0.25500000920E-02 0.  1.
    10030    2    1    2    0    0  0.00000000000E+00  0.00000000000E+00  0.13815111937E+03  0.30002773003E+04  0.29970949513E+04 0.  0.
        2    1    3    3  502    0  0.12468074183E+04  0.42596631107E+03  0.78374430695E+03  0.15330463709E+04  0.25500000920E-02 0. -1.
       -2    1    3    3    0  502 -0.12468074183E+04 -0.42596631107E+03 -0.64559318758E+03  0.14672309295E+04  0.25500000920E-02 0.  1.
</event>
<event>
 5   0  0.2504260E-06  0.2983629E+04  0.7818609E-02  0.8248421E-01
        1   -1    0    0  501    0  0.00000000000E+00  0.00000000000E+00  0.10854394710E+04  0.10854394711E+04  0.50400001928E-02 0. -1.
       -1   -1    0    0    0  501  0.00000000000E+00  0.00000000000E+00 -0.20503308552E+04  0.20503308552E+04  0.50400001928E-02 0.  1.
    10030    2    1    2    0    0  0.00000000000E+00  0.00000000000E+00 -0.96489138415E+03  0.31357703263E+04  0.29836286893E+04 0.  0.
        4    1    3    3  502    0  0.11455778604E+04 -0.66701090817E+03 -0.12016317480E+04  0.17891821195E+04  0.12699999809E+01 0.  1.
       -4    1    3    3    0  502 -0.11455778604E+04  0.66701090817E+03  0.23674036383E+03  0.13465882068E+04  0.12699999809E+01 0. -1.
</event>
<event>
 5   0  0.6780150E-06  0.2897861E+04  0.7818609E-02  0.8273514E-01
       -2   -1    0    0    0  501  0.00000000000E+00  0.00000000000E+00  0.14301222004E+04  0.14301222004E+04  0.25500000920E-02 0. -1.
        2   -1    0    0  501    0  0.00000000000E+00  0.00000000000E+00 -0.14679862953E+04  0.14679862953E+04  0.25500000920E-02 0.  1.
    10030    2    1    2    0    0  0.00000000000E+00  0.00000000000E+00 -0.37864094843E+02  0.28981084957E+04  0.28978611360E+04 0.  0.
        5    1    3    3  502    0  0.40367089378E+03  0.13908550722E+04  0.25226885916E+02  0.14484773067E+04  0.46999998093E+01 0.  1.
       -5    1    3    3    0  502 -0.40367089378E+03 -0.13908550722E+04 -0.63090980759E+02  0.14496311890E+04  0.46999998093E+01 0. -1.
</event>
<event>
 5   0  0.2504260E-06  0.2607480E+04  0.7818609E-02  0.8365665E-01
        1   -1    0    0  501    0  0.00000000000E+00  0.00000000000E+00  0.11347345403E+04  0.11347345403E+04  0.50400001928E-02 0.  1.
       -1   -1    0    0    0  501  0.00000000000E+00  0.00000000000E+00 -0.14979166214E+04  0.14979166214E+04  0.50400001928E-02 0. -1.
    10030    2    1    2    0    0  0.00000000000E+00  0.00000000000E+00 -0.36318208109E+03  0.26326511617E+04  0.26074798015E+04 0.  0.
        4    1    3    3  502    0  0.18119341920E+03 -0.68178406598E+03  0.92538506237E+03  0.11636149253E+04  0.12699999809E+01 0.  1.
       -4    1    3    3    0  502 -0.18119341920E+03  0.68178406598E+03 -0.12885671435E+04  0.14690362364E+04  0.12699999809E+01 0. -1.
</event>
<event>
 5   0  0.7217255E-06  0.2972397E+04  0.7818609E-02  0.8251657E-01
       -2   -1    0    0    0  501  0.00000000000E+00  0.00000000000E+00  0.12740715307E+04  0.12740715307E+04  0.25500000920E-02 0.  1.
        2   -1    0    0  501    0  0.00000000000E+00  0.00000000000E+00 -0.17336431936E+04  0.17336431936E+04  0.25500000920E-02 0. -1.
    10030    2    1    2    0    0  0.00000000000E+00  0.00000000000E+00 -0.45957166286E+03  0.30077147243E+04  0.29723966340E+04 0.  0.
        1    1    3    3  502    0 -0.11119475982E+03  0.83865429988E+03  0.10066495914E+04  0.13149329676E+04  0.50400001928E-02 0.  1.
       -1    1    3    3    0  502  0.11119475982E+03 -0.83865429988E+03 -0.14662212543E+04  0.16927817567E+04  0.50400001928E-02 0. -1.
</event>
<event>
 5   0  0.2422083E-06  0.2393530E+04  0.7818609E-02  0.8441930E-01
        1   -1    0    0  501    0  0.00000000000E+00  0.00000000000E+00  0.17112395128E+04  0.17112395128E+04  0.50400001928E-02 0.  1.
       -1   -1    0    0    0  501  0.00000000000E+00  0.00000000000E+00 -0.83696461714E+03  0.83696461716E+03  0.50400001928E-02 0. -1.
    10030    2    1    2    0    0  0.00000000000E+00  0.00000000000E+00  0.87427489562E+03  0.25482041299E+04  0.23935303831E+04 0.  0.
        2    1    3    3  502    0 -0.70649411593E+03  0.95238233110E+03  0.26520556555E+03  0.12151131768E+04  0.25500000920E-02 0.  1.
       -2    1    3    3    0  502  0.70649411593E+03 -0.95238233110E+03  0.60906933007E+03  0.13330909531E+04  0.25500000920E-02 0. -1.
</event>
<event>
 5   0  0.2422083E-06  0.3037621E+04  0.7818609E-02  0.8233069E-01
        1   -1    0    0  501    0  0.00000000000E+00  0.00000000000E+00  0.86468938046E+03  0.86468938047E+03  0.50400001928E-02 0.  1.
       -1   -1    0    0    0  501  0.00000000000E+00  0.00000000000E+00 -0.26677609823E+04  0.26677609823E+04  0.50400001928E-02 0. -1.
    10030    2    1    2    0    0  0.00000000000E+00  0.00000000000E+00 -0.18030716018E+04  0.35324503627E+04  0.30376205102E+04 0.  0.
        2    1    3    3  502    0 -0.32101035916E+03  0.16846221805E+03  0.81363692991E+03  0.89074812563E+03  0.25500000920E-02 0.  1.
       -2    1    3    3    0  502  0.32101035916E+03 -0.16846221805E+03 -0.26167085317E+04  0.26417022371E+04  0.25500000920E-02 0. -1.
</event>
<event>
 5   0  0.2552990E-06  0.3013959E+04  0.7818609E-02  0.8239756E-01
       -1   -1    0    0    0  501  0.00000000000E+00  0.00000000000E+00  0.14454668803E+04  0.14454668803E+04  0.50400001928E-02 0. -1.
        1   -1    0    0  501    0  0.00000000000E+00  0.00000000000E+00 -0.15711095407E+04  0.15711095407E+04  0.50400001928E-02 0.  1.
    10030    2    1    2    0    0  0.00000000000E+00  0.00000000000E+00 -0.12564266040E+03  0.30165764211E+04  0.30139587300E+04 0.  0.
        3    1    3    3  502    0 -0.15324427133E+03 -0.80865744399E+03 -0.13262869781E+04  0.15609124982E+04  0.10100000352E+00 0.  1.
       -3    1    3    3    0  502  0.15324427133E+03  0.80865744399E+03  0.12006443177E+04  0.14556639229E+04  0.10100000352E+00 0. -1.
</event>
<event>
 5   0  0.2672155E-06  0.2898643E+04  0.7818609E-02  0.8273281E-01
       -1   -1    0    0    0  501  0.00000000000E+00  0.00000000000E+00  0.11089482506E+04  0.11089482506E+04  0.50400001928E-02 0. -1.
        1   -1    0    0  501    0  0.00000000000E+00  0.00000000000E+00 -0.18941663212E+04  0.18941663212E+04  0.50400001928E-02 0.  1.
    10030    2    1    2    0    0  0.00000000000E+00  0.00000000000E+00 -0.78521807062E+03  0.30031145719E+04  0.28986427364E+04 0.  0.
        5    1    3    3  502    0 -0.13308213554E+04 -0.56514789597E+03 -0.49638252576E+03  0.15286907229E+04  0.46999998093E+01 0. -1.
       -5    1    3    3    0  502  0.13308213554E+04  0.56514789597E+03 -0.28883554486E+03  0.14744238490E+04  0.46999998093E+01 0.  1.
</event>
<event>
 5   0  0.2504260E-06  0.2940792E+04  0.7818609E-02  0.8260843E-01
        1   -1    0    0  501    0  0.00000000000E+00  0.00000000000E+00  0.76888230596E+03  0.76888230598E+03  0.50400001928E-02 0.  1.
       -1   -1    0    0    0  501  0.00000000000E+00  0.00000000000E+00 -0.28119581594E+04  0.28119581594E+04  0.50400001928E-02 0. -1.
    10030    2    1    2    0    0  0.00000000000E+00  0.00000000000E+00 -0.20430758534E+04  0.35808404654E+04  0.29407923245E+04 0.  0.
        4    1    3    3  502    0 -0.29940288658E+02 -0.53801075157E+03  0.64432799600E+03  0.83994771802E+03  0.12699999809E+01 0.  1.
       -4    1    3    3    0  502  0.29940288658E+02  0.53801075157E+03 -0.26874038494E+04  0.27408927474E+04  0.12699999809E+01 0. -1.
</event>
<event>
 5   0  0.7193153E-06  0.3021048E+04  0.7818609E-02  0.8237746E-01
        2   -1    0    0  501    0  0.00000000000E+00  0.00000000000E+00  0.14054109005E+04  0.14054109005E+04  0.25500000920E-02 0. -1.
       -2   -1    0    0    0  501  0.00000000000E+00  0.00000000000E+00 -0.16234990031E+04  0.16234990031E+04  0.25500000920E-02 0.  1.
    10030    2    1    2    0    0  0.00000000000E+00  0.00000000000E+00 -0.21808810265E+03  0.30289099036E+04  0.30210482922E+04 0.  0.
        4    1    3    3  502    0  0.77243203025E+03  0.48827742704E+03 -0.13149272494E+04  0.16012811655E+04  0.12699999809E+01 0.  1.
       -4    1    3    3    0  502 -0.77243203025E+03 -0.48827742704E+03  0.10968391467E+04  0.14276287381E+04  0.12699999809E+01 0. -1.
</event>
<event>
 5   0  0.7217255E-06  0.3333852E+04  0.7818609E-02  0.8154335E-01
        2   -1    0    0  501    0  0.00000000000E+00  0.00000000000E+00  0.14834120902E+04  0.14834120902E+04  0.25500000920E-02 0.  1.
       -2   -1    0    0    0  501  0.00000000000E+00  0.00000000000E+00 -0.18731427736E+04  0.18731427736E+04  0.25500000920E-02 0. -1.
    10030    2    1    2    0    0  0.00000000000E+00  0.00000000000E+00 -0.38973068340E+03  0.33565548639E+04  0.33338522086E+04 0.  0.
        1    1    3    3  502    0  0.70346167032E+02  0.11629071919E+04  0.10054532587E+04  0.15389080465E+04  0.50400001928E-02 0.  1.
       -1    1    3    3    0  502 -0.70346167032E+02 -0.11629071919E+04 -0.13951839421E+04  0.18176468173E+04  0.50400001928E-02 0. -1.
</event>
<event>
 5   0  0.6780150E-06  0.3025247E+04  0.7818609E-02  0.8236558E-01
        2   -1    0    0  501    0  0.00000000000E+00  0.00000000000E+00  0.16689713530E+04  0.16689713530E+04  0.25500000920E-02 0. -1.
       -2   -1    0    0    0  501  0.00000000000E+00  0.00000000000E+00 -0.13709225900E+04  0.13709225900E+04  0.25500000920E-02 0.  1.
    10030    2    1    2    0    0  0.00000000000E+00  0.00000000000E+00  0.29804876299E+03  0.30398939431E+04  0.30252474477E+04 0.  0.
        5    1    3    3  502    0  0.14044278103E+04 -0.43142770133E+03 -0.21252463293E+03  0.14844986176E+04  0.46999998093E+01 0.  1.
       -5    1    3    3    0  502 -0.14044278103E+04  0.43142770133E+03  0.51057339592E+03  0.15553953255E+04  0.46999998093E+01 0. -1.
</event>
<event>
 5   0  0.6792811E-06  0.3040356E+04  0.7818609E-02  0.8232300E-01
       -2   -1    0    0    0  501  0.00000000000E+00  0.00000000000E+00  0.77467338359E+03  0.77467338359E+03  0.25500000920E-02 0. -1.
        2   -1    0    0  501    0  0.00000000000E+00  0.00000000000E+00 -0.29831165351E+04  0.29831165351E+04  0.25500000920E-02 0.  1.
    10030    2    1    2    0    0  0.00000000000E+00  0.00000000000E+00 -0.22084431515E+04  0.37577899187E+04  0.30403558870E+04 0.  0.
        2    1    3    3  502    0 -0.31707706963E+03 -0.36567816965E+03  0.67689823880E+03  0.83213557642E+03  0.25500000920E-02 0. -1.
       -2    1    3    3    0  502  0.31707706963E+03  0.36567816965E+03 -0.28853413903E+04  0.29256543423E+04  0.25500000920E-02 0.  1.
</event>
<event>
 5   0  0.2422083E-06  0.2973708E+04  0.7818609E-02  0.8251279E-01
        1   -1    0    0  501    0  0.00000000000E+00  0.00000000000E+00  0.20921440638E+04  0.20921440638E+04  0.50400001928E-02 0. -1.
       -1   -1    0    0    0  501  0.00000000000E+00  0.00000000000E+00 -0.10566840755E+04  0.10566840755E+04  0.50400001928E-02 0.  1.
    10030    2    1    2    0    0  0.00000000000E+00  0.00000000000E+00  0.10354599883E+04  0.31488281393E+04  0.29737083353E+04 0.  0.
        2    1    3    3  502    0  0.36403061613E+03 -0.90400726160E+03  0.17067962287E+04  0.19654263621E+04  0.25500000920E-02 0. -1.
       -2    1    3    3    0  502 -0.36403061613E+03  0.90400726160E+03 -0.67133624044E+03  0.11834017772E+04  0.25500000920E-02 0.  1.
</event>
<event>
 5   0  0.2628425E-06  0.2974354E+04  0.7818609E-02  0.8251092E-01
       -1   -1    0    0    0  501  0.00000000000E+00  0.00000000000E+00  0.97184312414E+03  0.97184312415E+03  0.50400001928E-02 0.  1.
        1   -1    0    0  501    0  0.00000000000E+00  0.00000000000E+00 -0.22757739472E+04  0.22757739472E+04  0.50400001928E-02 0. -1.
    10030    2    1    2    0    0  0.00000000000E+00  0.00000000000E+00 -0.13039308230E+04  0.32476170713E+04  0.29743538879E+04 0.  0.
        1    1    3    3  502    0  0.10394520152E+04  0.10627559958E+04 -0.69808931977E+03  0.16423274633E+04  0.50400001928E-02 0. -1.
       -1    1    3    3    0  502 -0.10394520152E+04 -0.10627559958E+04 -0.60584150327E+03  0.16052896080E+04  0.50400001928E-02 0.  1.
</event>
<event>
 5   0  0.6780150E-06  0.3015806E+04  0.7818609E-02  0.8239232E-01
        2   -1    0    0  501    0  0.00000000000E+00  0.00000000000E+00  0.22553537728E+04  0.22553537728E+04  0.25500000920E-02 0.  1.
       -2   -1    0    0    0  501  0.00000000000E+00  0.00000000000E+00 -0.10081664437E+04  0.10081664437E+04  0.25500000920E-02 0. -1.
    10030    2    1    2    0    0  0.00000000000E+00  0.00000000000E+00  0.12471873291E+04  0.32635202165E+04  0.30158063547E+04 0.  0.
        5    1    3    3  502    0  0.76667011241E+03  0.68271351622E+03  0.18187905971E+04  0.20885167303E+04  0.46999998093E+01 0.  1.
       -5    1    3    3    0  502 -0.76667011241E+03 -0.68271351622E+03 -0.57160326801E+03  0.11750034862E+04  0.46999998093E+01 0. -1.
</event>
<event>
 5   0  0.7217255E-06  0.3011424E+04  0.7818609E-02  0.8240476E-01
        2   -1    0    0  501    0  0.00000000000E+00  0.00000000000E+00  0.14840389506E+04  0.14840389506E+04  0.25500000920E-02 0. -1.
       -2   -1    0    0    0  501  0.00000000000E+00  0.00000000000E+00 -0.15277012480E+04  0.15277012480E+04  0.25500000920E-02 0.  1.
    10030    2    1    2    0    0  0.00000000000E+00  0.00000000000E+00 -0.43662297359E+02  0.30117401986E+04  0.30114236879E+04 0.  0.
        1    1    3    3  502    0 -0.77328537655E+03 -0.62406081453E+03  0.11095463341E+04  0.14894681068E+04  0.50400001928E-02 0. -1.
       -1    1    3    3    0  502  0.77328537655E+03  0.62406081453E+03 -0.11532086314E+04  0.15222720918E+04  0.50400001928E-02 0.  1.
</event>
<event>
 5   0  0.2672155E-06  0.2991867E+04  0.7818609E-02  0.8246057E-01
        1   -1    0    0  501    0  0.00000000000E+00  0.00000000000E+00  0.85539898361E+03  0.85539898363E+03  0.50400001928E-02 0. -1.
       -1   -1    0    0    0  501  0.00000000000E+00  0.00000000000E+00 -0.26161087343E+04  0.26161087343E+04  0.50400001928E-02 0.  1.
    10030    2    1    2    0    0  0.00000000000E+00  0.00000000000E+00 -0.17607097506E+04  0.34715077179E+04  0.29918668101E+04 0.  0.
        5    1    3    3  502    0  0.13500441919E+04  0.51396790198E+03 -0.13312568059E+04  0.19644462572E+04  0.46999998093E+01 0.  1.
       -5    1    3    3    0  502 -0.13500441919E+04 -0.51396790198E+03 -0.42945294475E+03  0.15070614606E+04  0.46999998093E+01 0. -1.
</event>
<event>
 5   0  0.2552990E-06  0.3005472E+04  0.7818609E-02  0.8242170E-01
       -1   -1    0    0    0  501  0.00000000000E+00  0.00000000000E+00  0.16954082121E+04  0.16954082121E+04  0.50400001928E-02 0. -1.
        1   -1    0    0  501    0  0.00000000000E+00  0.00000000000E+00 -0.13319599012E+04  0.13319599012E+04  0.50400001928E-02 0.  1.
    10030    2    1    2    0    0  0.00000000000E+00  0.00000000000E+00  0.36344831091E+03  0.30273681133E+04  0.30054721790E+04 0.  0.
        3    1    3    3  502    0 -0.79525742613E+03 -0.11584415717E+04 -0.35488058381E+03  0.14492623944E+04  0.10100000352E+00 0. -1.
       -3    1    3    3    0  502  0.79525742613E+03  0.11584415717E+04  0.71832889472E+03  0.15781057189E+04  0.10100000352E+00 0.  1.
</event>
<event>
 5   0  0.6780150E-06  0.2976807E+04  0.7818609E-02  0.8250385E-01
       -2   -1    0    0    0  501  0.00000000000E+00  0.00000000000E+00  0.15181308046E+04  0.15181308046E+04  0.25500000920E-02 0.  1.
        2   -1    0    0  501    0  0.00000000000E+00  0.00000000000E+00 -0.14592581945E+04  0.14592581945E+04  0.25500000920E-02 0. -1.
    10030    2    1    2    0    0  0.00000000000E+00  0.00000000000E+00  0.58872610042E+02  0.29773889991E+04  0.29768068912E+04 0.  0.
        5    1    3    3  502    0 -0.25775324056E+03 -0.13589593906E+04 -0.52032140169E+03  0.14778240116E+04  0.46999998093E+01 0. -1.
       -5    1    3    3    0  502  0.25775324056E+03  0.13589593906E+04  0.57919401173E+03  0.14995649874E+04  0.46999998093E+01 0.  1.
</event>
<event>
 5   0  0.2552990E-06  0.3030043E+04  0.7818609E-02  0.8235204E-01
       -1   -1    0    0    0  501  0.00000000000E+00  0.00000000000E+00  0.79832489862E+03  0.79832489863E+03  0.50400001928E-02 0.  1.
        1   -1    0    0  501    0  0.00000000000E+00  0.00000000000E+00 -0.28751321466E+04  0.28751321466E+04  0.50400001928E-02 0. -1.
    10030    2    1    2    0    0  0.00000000000E+00  0.00000000000E+00 -0.20768072480E+04  0.36734570453E+04  0.30300426264E+04 0.  0.
        3    1    3    3  502    0 -0.17891312196E+03 -0.75927513942E+03  0.53614315744E+03  0.94655065265E+03  0.10100000352E+00 0.  1.
       -3    1    3    3    0  502  0.17891312196E+03  0.75927513942E+03 -0.26129504055E+04  0.27269063926E+04  0.10100000352E+00 0. -1.
</event>
<event>
 5   0  0.6780150E-06  0.2991673E+04  0.7818609E-02  0.8246113E-01
        2   -1    0    0  501    0  0.00000000000E+00  0.00000000000E+00  0.15955788896E+04  0.15955788896E+04  0.25500000920E-02 0.  1.
       -2   -1    0    0    0  501  0.00000000000E+00  0.00000000000E+00 -0.14023291945E+04  0.14023291945E+04  0.25500000920E-02 0. -1.
    10030    2    1    2    0    0  0.00000000000E+00  0.00000000000E+00  0.19324969506E+03  0.29979080841E+04  0.29916730162E+04 0.  0.
        5    1    3    3  502    0 -0.44049773574E+03  0.14263241816E+04  0.12116878540E+01  0.14928035653E+04  0.46999998093E+01 0. -1.
       -5    1    3    3    0  502  0.44049773574E+03 -0.14263241816E+04  0.19203800721E+03  0.15051045188E+04  0.46999998093E+01 0.  1.
</event>
<event>
 5   0  0.2422083E-06  0.2159414E+04  0.7818609E-02  0.8535514E-01
       -1   -1    0    0    0  501  0.00000000000E+00  0.00000000000E+00  0.10996566617E+04  0.10996566617E+04  0.50400001928E-02 0.  1.
        1   -1    0    0  501    0  0.00000000000E+00  0.00000000000E+00 -0.10601188502E+04  0.10601188502E+04  0.50400001928E-02 0. -1.
    10030    2    1    2    0    0  0.00000000000E+00  0.00000000000E+00  0.39537811469E+02  0.21597755119E+04  0.21594135832E+04 0.  0.
        2    1    3    3  502    0  0.73665858843E+03 -0.49625592856E+03 -0.59419954743E+03  0.10686481763E+04  0.25500000920E-02 0. -1.
       -2    1    3    3    0  502 -0.73665858843E+03  0.49625592856E+03  0.63373735890E+03  0.10911273356E+04  0.25500000920E-02 0.  1.
</event>
<event>
 5   0  0.7217255E-06  0.3013845E+04  0.7818609E-02  0.8239788E-01
        2   -1    0    0  501    0  0.00000000000E+00  0.00000000000E+00  0.15686965578E+04  0.15686965578E+04  0.25500000920E-02 0.  1.
       -2   -1    0    0    0  501  0.00000000000E+00  0.00000000000E+00 -0.14475808086E+04  0.14475808086E+04  0.25500000920E-02 0. -1.
    10030    2    1    2    0    0  0.00000000000E+00  0.00000000000E+00  0.12111574919E+03  0.30162773664E+04  0.30138447415E+04 0.  0.
        1    1    3    3  502    0 -0.11192277666E+04  0.33589196166E+02  0.10698439764E+04  0.15486656068E+04  0.50400001928E-02 0.  1.
       -1    1    3    3    0  502  0.11192277666E+04 -0.33589196166E+02 -0.94872822724E+03  0.14676117596E+04  0.50400001928E-02 0. -1.
</event>
<event>
 5   0  0.2422083E-06  0.2992286E+04  0.7818609E-02  0.8245937E-01
        1   -1    0    0  501    0  0.00000000000E+00  0.00000000000E+00  0.19217219627E+04  0.19217219627E+04  0.50400001928E-02 0. -1.
       -1   -1    0    0    0  501  0.00000000000E+00  0.00000000000E+00 -0.11648113119E+04  0.11648113120E+04  0.50400001928E-02 0.  1.
    10030    2    1    2    0    0  0.00000000000E+00  0.00000000000E+00  0.75691065074E+03  0.30865332746E+04  0.29922857354E+04 0.  0.
        2    1    3    3  502    0  0.14034493871E+04  0.38899650995E+03  0.24943715648E+02  0.14565749743E+04  0.25500000920E-02 0.  1.
       -2    1    3    3    0  502 -0.14034493871E+04 -0.38899650995E+03  0.73196693509E+03  0.16299583003E+04  0.25500000920E-02 0. -1.
</event>
<event>
 5   0  0.7193153E-06  0.3005802E+04  0.7818609E-02  0.8242076E-01
       -2   -1    0    0    0  501  0.00000000000E+00  0.00000000000E+00  0.12287139701E+04  0.12287139701E+04  0.25500000920E-02 0. -1.
        2   -1    0    0  501    0  0.00000000000E+00  0.00000000000E+00 -0.18382733102E+04  0.18382733102E+04  0.25500000920E-02 0.  1.
    10030    2    1    2    0    0  0.00000000000E+00  0.00000000000E+00 -0.60955934012E+03  0.30669872803E+04  0.30058024533E+04 0.  0.
        4    1    3    3  502    0 -0.18146699640E+03  0.14257848607E+04  0.14338501114E+03  0.14444215500E+04  0.12699999809E+01 0.  1.
       -4    1    3    3    0  502  0.18146699640E+03 -0.14257848607E+04 -0.75294435126E+03  0.16225657302E+04  0.12699999809E+01 0. -1.
</event>
<event>
 5   0  0.2504260E-06  0.2939947E+04  0.7818609E-02  0.8261090E-01
        1   -1    0    0  501    0  0.00000000000E+00  0.00000000000E+00  0.18667065402E+04  0.18667065402E+04  0.50400001928E-02 0.  1.
       -1   -1    0    0    0  501  0.00000000000E+00  0.00000000000E+00 -0.11575588548E+04  0.11575588549E+04  0.50400001928E-02 0. -1.
    10030    2    1    2    0    0  0.00000000000E+00  0.00000000000E+00  0.70914768535E+03  0.30242653951E+04  0.29399474043E+04 0.  0.
        4    1    3    3  502    0 -0.91410014169E+02  0.76098717480E+02  0.18617479144E+04  0.18655438122E+04  0.12699999809E+01 0.  1.
       -4    1    3    3    0  502  0.91410014169E+02 -0.76098717480E+02 -0.11526002291E+04  0.11587215828E+04  0.12699999809E+01 0. -1.
</event>
<event>
 5   0  0.2422083E-06  0.3009882E+04  0.7818609E-02  0.8240915E-01
       -1   -1    0    0    0  501  0.00000000000E+00  0.00000000000E+00  0.11020128588E+04  0.11020128588E+04  0.50400001928E-02 0.  1.
        1   -1    0    0  501    0  0.00000000000E+00  0.00000000000E+00 -0.20551918037E+04  0.20551918037E+04  0.50400001928E-02 0. -1.
    10030    2    1    2    0    0  0.00000000000E+00  0.00000000000E+00 -0.95317894489E+03  0.31572046625E+04  0.30098822535E+04 0.  0.
        2    1    3    3  502    0  0.34584858155E+03 -0.14556363550E+04 -0.64689181523E+03  0.16300176257E+04  0.25500000920E-02 0.  1.
       -2    1    3    3    0  502 -0.34584858155E+03  0.14556363550E+04 -0.30628712967E+03  0.15271870368E+04  0.25500000920E-02 0. -1.
</event>
<event>
 5   0  0.2672155E-06  0.3045720E+04  0.7818609E-02  0.8230795E-01
       -1   -1    0    0    0  501  0.00000000000E+00  0.00000000000E+00  0.90895346022E+03  0.90895346023E+03  0.50400001928E-02 0. -1.
        1   -1    0    0  501    0  0.00000000000E+00  0.00000000000E+00 -0.25513980887E+04  0.25513980887E+04  0.50400001928E-02 0.  1.
    10030    2    1    2    0    0  0.00000000000E+00  0.00000000000E+00 -0.16424446285E+04  0.34603515489E+04  0.30457196989E+04 0.  0.
        5    1    3    3  502    0  0.12080314488E+04  0.70362027456E+03 -0.15073003186E+04  0.20558204718E+04  0.46999998093E+01 0.  1.
       -5    1    3    3    0  502 -0.12080314488E+04 -0.70362027456E+03 -0.13514430990E+03  0.14045310771E+04  0.46999998093E+01 0. -1.
</event>
<event>
 5   0  0.2422083E-06  0.3174266E+04  0.7818609E-02  0.8195647E-01
       -1   -1    0    0    0  501  0.00000000000E+00  0.00000000000E+00  0.99055333177E+03  0.99055333178E+03  0.50400001928E-02 0.  1.
        1   -1    0    0  501    0  0.00000000000E+00  0.00000000000E+00 -0.25430147759E+04  0.25430147759E+04  0.50400001928E-02 0. -1.
    10030    2    1    2    0    0  0.00000000000E+00  0.00000000000E+00 -0.15524614441E+04  0.35335681076E+04  0.31742663776E+04 0.  0.
        2    1    3    3  502    0  0.13640695202E+04 -0.58570083294E+03 -0.14012666359E+04  0.20413915123E+04  0.25500000920E-02 0. -1.
       -2    1    3    3    0  502 -0.13640695202E+04  0.58570083294E+03 -0.15119480821E+03  0.14921765953E+04  0.25500000920E-02 0.  1.
</event>
<event>
 5   0  0.2552990E-06  0.3011586E+04  0.7818609E-02  0.8240430E-01
        1   -1    0    0  501    0  0.00000000000E+00  0.00000000000E+00  0.15448122898E+04  0.15448122898E+04  0.50400001928E-02 0.  1.
       -1   -1    0    0    0  501  0.00000000000E+00  0.00000000000E+00 -0.14677591010E+04  0.14677591010E+04  0.50400001928E-02 0. -1.
    10030    2    1    2    0    0  0.00000000000E+00  0.00000000000E+00  0.77053188806E+02  0.30125713908E+04  0.30115858266E+04 0.  0.
        3    1    3    3  502    0  0.58037992514E+02 -0.54997278658E+03  0.14395469022E+04  0.15421198943E+04  0.10100000352E+00 0.  1.
       -3    1    3    3    0  502 -0.58037992514E+02  0.54997278658E+03 -0.13624937134E+04  0.14704514965E+04  0.10100000352E+00 0. -1.
</event>
<event>
 5   0  0.2672155E-06  0.3054095E+04  0.7818609E-02  0.8228450E-01
       -1   -1    0    0    0  501  0.00000000000E+00  0.00000000000E+00  0.11985475587E+04  0.11985475587E+04  0.50400001928E-02 0.  1.
        1   -1    0    0  501    0  0.00000000000E+00  0.00000000000E+00 -0.19455830868E+04  0.19455830868E+04  0.50400001928E-02 0. -1.
    10030    2    1    2    0    0  0.00000000000E+00  0.00000000000E+00 -0.74703552816E+03  0.31441306455E+04  0.30540948636E+04 0.  0.
        5    1    3    3  502    0  0.10042067877E+04  0.11242969632E+04 -0.62437497146E+03  0.16316682043E+04  0.46999998093E+01 0. -1.
       -5    1    3    3    0  502 -0.10042067877E+04 -0.11242969632E+04 -0.12266055669E+03  0.15124624412E+04  0.46999998093E+01 0.  1.
</event>
<event>
 5   0  0.2672155E-06  0.2177921E+04  0.7818609E-02  0.8527674E-01
       -1   -1    0    0    0  501  0.00000000000E+00  0.00000000000E+00  0.86226945398E+03  0.86226945399E+03  0.50400001928E-02 0. -1.
        1   -1    0    0  501    0  0.00000000000E+00  0.00000000000E+00 -0.13752493452E+04  0.13752493452E+04  0.50400001928E-02 0.  1.
    10030    2    1    2    0    0  0.00000000000E+00  0.00000000000E+00 -0.51297989125E+03  0.22375187992E+04  0.21779214880E+04 0.  0.
        5    1    3    3  502    0  0.39313651510E+03 -0.56797188461E+03  0.60836838796E+03  0.92047953083E+03  0.46999998093E+01 0. -1.
       -5    1    3    3    0  502 -0.39313651510E+03  0.56797188461E+03 -0.11213482792E+04  0.13170392684E+04  0.46999998093E+01 0.  1.
</event>
<event>
 5   0  0.2672155E-06  0.3012028E+04  0.7818609E-02  0.8240305E-01
        1   -1    0    0  501    0  0.00000000000E+00  0.00000000000E+00  0.11147439115E+04  0.11147439115E+04  0.50400001928E-02 0.  1.
       -1   -1    0    0    0  501  0.00000000000E+00  0.00000000000E+00 -0.20346179757E+04  0.20346179757E+04  0.50400001928E-02 0. -1.
    10030    2    1    2    0    0  0.00000000000E+00  0.00000000000E+00 -0.91987406422E+03  0.31493618873E+04  0.30120278888E+04 0.  0.
        5    1    3    3  502    0  0.20642160492E+03 -0.59938325533E+03 -0.18883079939E+04  0.19918833640E+04  0.46999998093E+01 0. -1.
       -5    1    3    3    0  502 -0.20642160492E+03  0.59938325533E+03  0.96843392970E+03  0.11574785233E+04  0.46999998093E+01 0.  1.
</event>
<event>
 5   0  0.7193153E-06  0.2338630E+04  0.7818609E-02  0.8462844E-01
        2   -1    0    0  501    0  0.00000000000E+00  0.00000000000E+00  0.20749227033E+04  0.20749227033E+04  0.25500000920E-02 0. -1.
       -2   -1    0    0    0  501  0.00000000000E+00  0.00000000000E+00 -0.65896317574E+03  0.65896317575E+03  0.25500000920E-02 0.  1.
    10030    2    1    2    0    0  0.00000000000E+00  0.00000000000E+00  0.14159595276E+04  0.27338858791E+04  0.23386300725E+04 0.  0.
        4    1    3    3  502    0 -0.37103580387E+02  0.53145330654E+03 -0.50884670954E+03  0.73671288805E+03  0.12699999809E+01 0.  1.
       -4    1    3    3    0  502  0.37103580387E+02 -0.53145330654E+03  0.19248062371E+04  0.19971729910E+04  0.12699999809E+01 0. -1.
</event>
<event>
 5   0  0.2504260E-06  0.2989083E+04  0.7818609E-02  0.8246855E-01
       -1   -1    0    0    0  501  0.00000000000E+00  0.00000000000E+00  0.11104690435E+04  0.11104690435E+04  0.50400001928E-02 0. -1.
        1   -1    0    0  501    0  0.00000000000E+00  0.00000000000E+00 -0.20114514444E+04  0.20114514444E+04  0.50400001928E-02 0.  1.
    10030    2    1    2    0    0  0.00000000000E+00  0.00000000000E+00 -0.90098240089E+03  0.31219204880E+04  0.29890831782E+04 0.  0.
        4    1    3    3  502    0 -0.34079525789E+03 -0.27236804101E+03 -0.19434670910E+04  0.19918312439E+04  0.12699999809E+01 0.  1.
       -4    1    3    3    0  502  0.34079525789E+03  0.27236804101E+03  0.10424846901E+04  0.11300892441E+04  0.12699999809E+01 0. -1.
</event>
<event>
 5   0  0.7201538E-06  0.3004431E+04  0.7818609E-02  0.8242467E-01
        2   -1    0    0  501    0  0.00000000000E+00  0.00000000000E+00  0.22555140208E+04  0.22555140208E+04  0.25500000920E-02 0.  1.
       -2   -1    0    0    0  501  0.00000000000E+00  0.00000000000E+00 -0.10005043853E+04  0.10005043853E+04  0.25500000920E-02 0. -1.
    10030    2    1    2    0    0  0.00000000000E+00  0.00000000000E+00  0.12550096355E+04  0.32560184060E+04  0.30044311733E+04 0.  0.
        3    1    3    3  502    0 -0.10804983401E+04  0.59231215293E+03 -0.30371707039E+03  0.12690762067E+04  0.10100000352E+00 0. -1.
       -3    1    3    3    0  502  0.10804983401E+04 -0.59231215293E+03  0.15587267059E+04  0.19869421993E+04  0.10100000352E+00 0.  1.
</event>
<event>
 5   0  0.7217255E-06  0.2856737E+04  0.7818609E-02  0.8285867E-01
       -2   -1    0    0    0  501  0.00000000000E+00  0.00000000000E+00  0.95713435931E+03  0.95713435931E+03  0.25500000920E-02 0.  1.
        2   -1    0    0  501    0  0.00000000000E+00  0.00000000000E+00 -0.21316093484E+04  0.21316093484E+04  0.25500000920E-02 0. -1.
    10030    2    1    2    0    0  0.00000000000E+00  0.00000000000E+00 -0.11744749891E+04  0.30887437077E+04  0.28567369833E+04 0.  0.
        1    1    3    3  502    0  0.59930003837E+02 -0.25352665881E+03 -0.21057057595E+04  0.21217596748E+04  0.50400001928E-02 0. -1.
       -1    1    3    3    0  502 -0.59930003837E+02  0.25352665881E+03  0.93123077041E+03  0.96698403289E+03  0.50400001928E-02 0.  1.
</event>
<event>
 5   0  0.2504260E-06  0.3031695E+04  0.7818609E-02  0.8234738E-01
        1   -1    0    0  501    0  0.00000000000E+00  0.00000000000E+00  0.97875958192E+03  0.97875958193E+03  0.50400001928E-02 0.  1.
       -1   -1    0    0    0  501  0.00000000000E+00  0.00000000000E+00 -0.23476594140E+04  0.23476594140E+04  0.50400001928E-02 0. -1.
    10030    2    1    2    0    0  0.00000000000E+00  0.00000000000E+00 -0.13688998321E+04  0.33264189959E+04  0.30316953320E+04 0.  0.
        4    1    3    3  502    0  0.13345208900E+03  0.80345499726E+03  0.71828725507E+03  0.10859500847E+04  0.12699999809E+01 0.  1.
       -4    1    3    3    0  502 -0.13345208900E+03 -0.80345499726E+03 -0.20871870871E+04  0.22404689113E+04  0.12699999809E+01 0. -1.
</event>
<event>
 5   0  0.7217255E-06  0.2989562E+04  0.7818609E-02  0.8246718E-01
       -2   -1    0    0    0  501  0.00000000000E+00  0.00000000000E+00  0.12439489819E+04  0.12439489819E+04  0.25500000920E-02 0.  1.
        2   -1    0    0  501    0  0.00000000000E+00  0.00000000000E+00 -0.17961914583E+04  0.17961914583E+04  0.25500000920E-02 0. -1.
    10030    2    1    2    0    0  0.00000000000E+00  0.00000000000E+00 -0.55224247644E+03  0.30401404402E+04  0.29895621993E+04 0.  0.
        1    1    3    3  502    0  0.82929715558E+03  0.79453429180E+03 -0.12490479467E+04  0.16968026657E+04  0.50400001928E-02 0. -1.
       -1    1    3    3    0  502 -0.82929715558E+03 -0.79453429180E+03  0.69680547028E+03  0.13433377746E+04  0.50400001928E-02 0.  1.
</event>
<event>
 5   0  0.7201538E-06  0.2990999E+04  0.7818609E-02  0.8246306E-01
        2   -1    0    0  501    0  0.00000000000E+00  0.00000000000E+00  0.14148652700E+04  0.14148652700E+04  0.25500000920E-02 0. -1.
       -2   -1    0    0    0  501  0.00000000000E+00  0.00000000000E+00 -0.15807289311E+04  0.15807289311E+04  0.25500000920E-02 0.  1.
    10030    2    1    2    0    0  0.00000000000E+00  0.00000000000E+00 -0.16586366113E+03  0.29955942011E+04  0.29909988070E+04 0.  0.
        3    1    3    3  502    0  0.44309415180E+03  0.14030825231E+04 -0.35082262271E+03  0.15126300000E+04  0.10100000352E+00 0. -1.
       -3    1    3    3    0  502 -0.44309415180E+03 -0.14030825231E+04  0.18495896158E+03  0.14829642011E+04  0.10100000352E+00 0.  1.
</event>
<event>
 5   0  0.2422083E-06  0.3162893E+04  0.7818609E-02  0.8198686E-01
        1   -1    0    0  501    0  0.00000000000E+00  0.00000000000E+00  0.13811105973E+04  0.13811105973E+04  0.50400001928E-02 0.  1.
       -1   -1    0    0    0  501  0.00000000000E+00  0.00000000000E+00 -0.18108414600E+04  0.18108414600E+04  0.50400001928E-02 0. -1.
    10030    2    1    2    0    0  0.00000000000E+00  0.00000000000E+00 -0.42973086272E+03  0.31919520573E+04  0.31628925562E+04 0.  0.
        2    1    3    3  502    0  0.11795527434E+04 -0.10244501681E+04  0.32600688807E+02  0.15626597923E+04  0.25500000920E-02 0.  1.
       -2    1    3    3    0  502 -0.11795527434E+04  0.10244501681E+04 -0.46233155153E+03  0.16292922651E+04  0.25500000920E-02 0. -1.
</event>
<event>
 5   0  0.7201538E-06  0.2997805E+04  0.7818609E-02  0.8244358E-01
        2   -1    0    0  501    0  0.00000000000E+00  0.00000000000E+00  0.22012139611E+04  0.22012139611E+04  0.25500000920E-02 0. -1.
       -2   -1    0    0    0  501  0.00000000000E+00  0.00000000000E+00 -0.10206678314E+04  0.10206678314E+04  0.25500000920E-02 0.  1.
    10030    2    1    2    0    0  0.00000000000E+00  0.00000000000E+00  0.11805461297E+04  0.32218817925E+04  0.29978047169E+04 0.  0.
        3    1    3    3  502    0 -0.13049218740E+04  0.19598459946E+03 -0.17383899403E+03  0.13309587020E+04  0.10100000352E+00 0.  1.
       -3    1    3    3    0  502  0.13049218740E+04 -0.19598459946E+03  0.13543851238E+04  0.18909230905E+04  0.10100000352E+00 0. -1.
</event>
<event>
 5   0  0.2504260E-06  0.3008151E+04  0.7818609E-02  0.8241407E-01
        1   -1    0    0  501    0  0.00000000000E+00  0.00000000000E+00  0.21510138789E+04  0.21510138789E+04  0.50400001928E-02 0.  1.
       -1   -1    0    0    0  501  0.00000000000E+00  0.00000000000E+00 -0.10517100900E+04  0.10517100900E+04  0.50400001928E-02 0. -1.
    10030    2    1    2    0    0  0.00000000000E+00  0.00000000000E+00  0.10993037889E+04  0.32027239690E+04  0.30081509272E+04 0.  0.
        4    1    3    3  502    0 -0.56842583676E+03  0.70882110946E+03 -0.72650436262E+03  0.11633337865E+04  0.12699999809E+01 0. -1.
       -4    1    3    3    0  502  0.56842583676E+03 -0.70882110946E+03  0.18258081515E+04  0.20393901824E+04  0.12699999809E+01 0.  1.
</event>
<event>
 5   0  0.2422083E-06  0.3021135E+04  0.7818609E-02  0.8237721E-01
       -1   -1    0    0    0  501  0.00000000000E+00  0.00000000000E+00  0.13492736333E+04  0.13492736333E+04  0.50400001928E-02 0. -1.
        1   -1    0    0  501    0  0.00000000000E+00  0.00000000000E+00 -0.16911422017E+04  0.16911422017E+04  0.50400001928E-02 0.  1.
    10030    2    1    2    0    0  0.00000000000E+00  0.00000000000E+00 -0.34186856839E+03  0.30404158350E+04  0.30211346100E+04 0.  0.
        2    1    3    3  502    0 -0.41820754090E+03  0.86661116276E+03 -0.13427974958E+04  0.16519738404E+04  0.25500000920E-02 0.  1.
       -2    1    3    3    0  502  0.41820754090E+03 -0.86661116276E+03  0.10009289274E+04  0.13884419946E+04  0.25500000920E-02 0. -1.
</event>
<event>
 5   0  0.2628425E-06  0.2649638E+04  0.7818609E-02  0.8351533E-01
       -1   -1    0    0    0  501  0.00000000000E+00  0.00000000000E+00  0.15152450163E+04  0.15152450163E+04  0.50400001928E-02 0.  1.
        1   -1    0    0  501    0  0.00000000000E+00  0.00000000000E+00 -0.11583245247E+04  0.11583245247E+04  0.50400001928E-02 0. -1.
    10030    2    1    2    0    0  0.00000000000E+00  0.00000000000E+00  0.35692049158E+03  0.26735695410E+04  0.26496380608E+04 0.  0.
        1    1    3    3  502    0  0.42360267480E+03  0.65247589383E+03 -0.90359727465E+03  0.11923305133E+04  0.50400001928E-02 0. -1.
       -1    1    3    3    0  502 -0.42360267480E+03 -0.65247589383E+03  0.12605177662E+04  0.14812390277E+04  0.50400001928E-02 0.  1.
</event>
<event>
 5   0  0.7217255E-06  0.2964029E+04  0.7818609E-02  0.8254078E-01
        2   -1    0    0  501    0  0.00000000000E+00  0.00000000000E+00  0.34588097851E+04  0.34588097851E+04  0.25500000920E-02 0.  1.
       -2   -1    0    0    0  501  0.00000000000E+00  0.00000000000E+00 -0.63500642430E+03  0.63500642430E+03  0.25500000920E-02 0. -1.
    10030    2    1    2    0    0  0.00000000000E+00  0.00000000000E+00  0.28238033608E+04  0.40938162094E+04  0.29640286328E+04 0.  0.
        1    1    3    3  502    0 -0.13185933036E+04  0.28663385104E+03  0.56552828719E+03  0.14631026992E+04  0.50400001928E-02 0. -1.
       -1    1    3    3    0  502  0.13185933036E+04 -0.28663385104E+03  0.22582750736E+04  0.26307135103E+04  0.50400001928E-02 0.  1.
</event>
<event>
 5   0  0.2628425E-06  0.3038914E+04  0.7818609E-02  0.8232705E-01
       -1   -1    0    0    0  501  0.00000000000E+00  0.00000000000E+00  0.11182931844E+04  0.11182931844E+04  0.50400001928E-02 0.  1.
        1   -1    0    0  501    0  0.00000000000E+00  0.00000000000E+00 -0.20645296519E+04  0.20645296519E+04  0.50400001928E-02 0. -1.
    10030    2    1    2    0    0  0.00000000000E+00  0.00000000000E+00 -0.94623646752E+03  0.31828228363E+04  0.30389139104E+04 0.  0.
        1    1    3    3  502    0  0.81284399361E+03  0.58654141205E+03 -0.16691243640E+04  0.19469777421E+04  0.50400001928E-02 0. -1.
       -1    1    3    3    0  502 -0.81284399361E+03 -0.58654141205E+03  0.72288789644E+03  0.12358450942E+04  0.50400001928E-02 0.  1.
</event>
<event>
 5   0  0.2504260E-06  0.2983654E+04  0.7818609E-02  0.8248414E-01
       -1   -1    0    0    0  501  0.00000000000E+00  0.00000000000E+00  0.27442091440E+04  0.27442091440E+04  0.50400001928E-02 0.  1.
        1   -1    0    0  501    0  0.00000000000E+00  0.00000000000E+00 -0.81099773174E+03  0.81099773176E+03  0.50400001928E-02 0. -1.
    10030    2    1    2    0    0  0.00000000000E+00  0.00000000000E+00  0.19332114123E+04  0.35552068758E+04  0.29836537274E+04 0.  0.
        4    1    3    3  502    0  0.13346958574E+04  0.48076674415E+03  0.41668222006E+03  0.14785720745E+04  0.12699999809E+01 0.  1.
       -4    1    3    3    0  502 -0.13346958574E+04 -0.48076674415E+03  0.15165291922E+04  0.20766348013E+04  0.12699999809E+01 0. -1.
</event>
<event>
 5   0  0.6792811E-06  0.2648545E+04  0.7818609E-02  0.8351896E-01
        2   -1    0    0  501    0  0.00000000000E+00  0.00000000000E+00  0.18464939235E+04  0.18464939235E+04  0.25500000920E-02 0.  1.
       -2   -1    0    0    0  501  0.00000000000E+00  0.00000000000E+00 -0.94974471865E+03  0.94974471865E+03  0.25500000920E-02 0. -1.
    10030    2    1    2    0    0  0.00000000000E+00  0.00000000000E+00  0.89674920483E+03  0.27962386421E+04  0.26485451492E+04 0.  0.
        2    1    3    3  502    0 -0.90272614020E+03 -0.58684445999E+03 -0.36558928564E+03  0.11370824201E+04  0.25500000920E-02 0. -1.
       -2    1    3    3    0  502  0.90272614020E+03  0.58684445999E+03  0.12623384905E+04  0.16591562220E+04  0.25500000920E-02 0.  1.
</event>
<event>
 5   0  0.6792811E-06  0.2978830E+04  0.7818609E-02  0.8249802E-01
       -2   -1    0    0    0  501  0.00000000000E+00  0.00000000000E+00  0.11515801181E+04  0.11515801181E+04  0.25500000920E-02 0. -1.
        2   -1    0    0  501    0  0.00000000000E+00  0.00000000000E+00 -0.19263586304E+04  0.19263586304E+04  0.25500000920E-02 0.  1.
    10030    2    1    2    0    0  0.00000000000E+00  0.00000000000E+00 -0.77477851227E+03  0.30779387485E+04  0.29788295011E+04 0.  0.
        2    1    3    3  502    0  0.87954606977E+01  0.26299265450E+03 -0.19021499720E+04  0.19202648287E+04  0.25500000920E-02 0.  1.
       -2    1    3    3    0  502 -0.87954606977E+01 -0.26299265450E+03  0.11273714597E+04  0.11576739198E+04  0.25500000920E-02 0. -1.
</event>
<event>
 5   0  0.2298500E-06  0.2989068E+04  0.7818609E-02  0.8246859E-01
       -4   -1    0    0    0  501  0.00000000000E+00  0.00000000000E+00  0.13960038620E+04  0.13960044397E+04  0.12699999809E+01 0. -1.
        4   -1    0    0  501    0  0.00000000000E+00  0.00000000000E+00 -0.16000175110E+04  0.16000180150E+04  0.12699999809E+01 0.  1.
    10030    2    1    2    0    0  0.00000000000E+00  0.00000000000E+00 -0.20401364898E+03  0.29960224547E+04  0.29890682462E+04 0.  0.
        1    1    3    3  502    0 -0.45671935112E+03  0.17153661699E+03  0.13139421347E+04  0.14015924193E+04  0.50400001928E-02 0. -1.
       -1    1    3    3    0  502  0.45671935112E+03 -0.17153661699E+03 -0.15179557836E+04  0.15944300354E+04  0.50400001928E-02 0.  1.
</event>
<event>
 5   0  0.7217255E-06  0.2414787E+04  0.7818609E-02  0.8433988E-01
       -2   -1    0    0    0  501  0.00000000000E+00  0.00000000000E+00  0.73597634119E+03  0.73597634119E+03  0.25500000920E-02 0.  1.
        2   -1    0    0  501    0  0.00000000000E+00  0.00000000000E+00 -0.19807681286E+04  0.19807681286E+04  0.25500000920E-02 0. -1.
    10030    2    1    2    0    0  0.00000000000E+00  0.00000000000E+00 -0.12447917874E+04  0.27167444698E+04  0.24147865165E+04 0.  0.
        1    1    3    3  502    0 -0.11307606002E+04 -0.37022071889E+03 -0.39151321011E+03  0.12525835339E+04  0.50400001928E-02 0.  1.
       -1    1    3    3    0  502  0.11307606002E+04  0.37022071889E+03 -0.85327857732E+03  0.14641609359E+04  0.50400001928E-02 0. -1.
</event>
<event>
 5   0  0.2552990E-06  0.2929840E+04  0.7818609E-02  0.8264054E-01
        1   -1    0    0  501    0  0.00000000000E+00  0.00000000000E+00  0.23552770236E+04  0.23552770236E+04  0.50400001928E-02 0. -1.
       -1   -1    0    0    0  501  0.00000000000E+00  0.00000000000E+00 -0.91114128531E+03  0.91114128532E+03  0.50400001928E-02 0.  1.
    10030    2    1    2    0    0  0.00000000000E+00  0.00000000000E+00  0.14441357383E+04  0.32664183089E+04  0.29298396779E+04 0.  0.
        3    1    3    3  502    0  0.18755576472E+03 -0.11758216778E+04  0.16734830626E+04  0.20538450170E+04  0.10100000352E+00 0. -1.
       -3    1    3    3    0  502 -0.18755576472E+03  0.11758216778E+04 -0.22934732431E+03  0.12125732919E+04  0.10100000352E+00 0.  1.
</event>
<event>
 5   0  0.7193153E-06  0.2973238E+04  0.7818609E-02  0.8251414E-01
        2   -1    0    0  501    0  0.00000000000E+00  0.00000000000E+00  0.14896474261E+04  0.14896474261E+04  0.25500000920E-02 0.  1.
       -2   -1    0    0    0  501  0.00000000000E+00  0.00000000000E+00 -0.14835970457E+04  0.14835970457E+04  0.25500000920E-02 0. -1.
    10030    2    1    2    0    0  0.00000000000E+00  0.00000000000E+00  0.60503804491E+01  0.29732444718E+04  0.29732383157E+04 0.  0.
        4    1    3    3  502    0  0.85761542885E+03 -0.10448339352E+04  0.62177741623E+03  0.14878813609E+04  0.12699999809E+01 0. -1.
       -4    1    3    3    0  502 -0.85761542885E+03  0.10448339352E+04 -0.61572703578E+03  0.14853631109E+04  0.12699999809E+01 0.  1.
</event>
<event>
 5   0  0.6780150E-06  0.2977368E+04  0.7818609E-02  0.8250223E-01
       -2   -1    0    0    0  501  0.00000000000E+00  0.00000000000E+00  0.67688009958E+03  0.67688009958E+03  0.25500000920E-02 0. -1.
        2   -1    0    0  501    0  0.00000000000E+00  0.00000000000E+00 -0.32741105906E+04  0.32741105906E+04  0.25500000920E-02 0.  1.
    10030    2    1    2    0    0  0.00000000000E+00  0.00000000000E+00 -0.25972304911E+04  0.39509906902E+04  0.29773681685E+04 0.  0.
        5    1    3    3  502    0 -0.12928790372E+04 -0.20281556456E+03 -0.35701196099E+03  0.13565212819E+04  0.46999998093E+01 0. -1.
       -5    1    3    3    0  502  0.12928790372E+04  0.20281556456E+03 -0.22402185301E+04  0.25944694083E+04  0.46999998093E+01 0.  1.
</event>
<event>
 5   0  0.7201538E-06  0.3127091E+04  0.7818609E-02  0.8208342E-01
        2   -1    0    0  501    0  0.00000000000E+00  0.00000000000E+00  0.26914704907E+04  0.26914704907E+04  0.25500000920E-02 0.  1.
       -2   -1    0    0    0  501  0.00000000000E+00  0.00000000000E+00 -0.90830441326E+03  0.90830441327E+03  0.25500000920E-02 0. -1.
    10030    2    1    2    0    0  0.00000000000E+00  0.00000000000E+00  0.17831660775E+04  0.35997749040E+04  0.31270909964E+04 0.  0.
        3    1    3    3  502    0  0.37347395468E+03  0.11332034028E+04 -0.27162281714E+03  0.12236877510E+04  0.10100000352E+00 0. -1.
       -3    1    3    3    0  502 -0.37347395468E+03 -0.11332034028E+04  0.20547888946E+04  0.23760871530E+04  0.10100000352E+00 0.  1.
</event>
<event>
 5   0  0.2628425E-06  0.2978391E+04  0.7818609E-02  0.8249929E-01
        1   -1    0    0  501    0  0.00000000000E+00  0.00000000000E+00  0.16915230227E+04  0.16915230227E+04  0.50400001928E-02 0. -1.
       -1   -1    0    0    0  501  0.00000000000E+00  0.00000000000E+00 -0.13110685797E+04  0.13110685797E+04  0.50400001928E-02 0.  1.
    10030    2    1    2    0    0  0.00000000000E+00  0.00000000000E+00  0.38045444302E+03  0.30025916024E+04  0.29783906305E+04 0.  0.
        1    1    3    3  502    0 -0.10002658973E+04  0.10288776441E+04  0.59168606302E+03  0.15521641244E+04  0.50400001928E-02 0.  1.
       -1    1    3    3    0  502  0.10002658973E+04 -0.10288776441E+04 -0.21123162000E+03  0.14504274780E+04  0.50400001928E-02 0. -1.
</event>
<event>
 5   0  0.2422083E-06  0.3036994E+04  0.7818609E-02  0.8233245E-01
       -1   -1    0    0    0  501  0.00000000000E+00  0.00000000000E+00  0.19746033716E+04  0.19746033716E+04  0.50400001928E-02 0.  1.
        1   -1    0    0  501    0  0.00000000000E+00  0.00000000000E+00 -0.11677453200E+04  0.11677453200E+04  0.50400001928E-02 0. -1.
    10030    2    1    2    0    0  0.00000000000E+00  0.00000000000E+00  0.80685805166E+03  0.31423486916E+04  0.30369944656E+04 0.  0.
        2    1    3    3  502    0  0.49883819039E+03 -0.69022326370E+03 -0.89739772932E+03  0.12371622281E+04  0.25500000920E-02 0. -1.
       -2    1    3    3    0  502 -0.49883819039E+03  0.69022326370E+03  0.17042557810E+04  0.19051864636E+04  0.25500000920E-02 0.  1.
</event>
<event>
 5   0  0.2422083E-06  0.2948897E+04  0.7818609E-02  0.8258476E-01
       -1   -1    0    0    0  501  0.00000000000E+00  0.00000000000E+00  0.10813138846E+04  0.10813138846E+04  0.50400001928E-02 0.  1.
        1   -1    0    0  501    0  0.00000000000E+00  0.00000000000E+00 -0.20105153542E+04  0.20105153542E+04  0.50400001928E-02 0. -1.
    10030    2    1    2    0    0  0.00000000000E+00  0.00000000000E+00 -0.92920146961E+03  0.30918292388E+04  0.29488968566E+04 0.  0.
        2    1    3    3  502    0 -0.75519423826E+03 -0.12599924653E+03 -0.17857575395E+04  0.19429678684E+04  0.25500000920E-02 0. -1.
       -2    1    3    3    0  502  0.75519423826E+03  0.12599924653E+03  0.85655606989E+03  0.11488613704E+04  0.25500000920E-02 0.  1.
</event>
<event>
 5   0  0.6792811E-06  0.2992026E+04  0.7818609E-02  0.8246012E-01
       -2   -1    0    0    0  501  0.00000000000E+00  0.00000000000E+00  0.73654180243E+03  0.73654180243E+03  0.25500000920E-02 0.  1.
        2   -1    0    0  501    0  0.00000000000E+00  0.00000000000E+00 -0.30385987217E+04  0.30385987217E+04  0.25500000920E-02 0. -1.
    10030    2    1    2    0    0  0.00000000000E+00  0.00000000000E+00 -0.23020569192E+04  0.37751405241E+04  0.29920260556E+04 0.  0.
        2    1    3    3  502    0  0.68829421580E+03 -0.11250354848E+04 -0.20419601663E+04  0.24308548065E+04  0.25500000920E-02 0.  1.
       -2    1    3    3    0  502 -0.68829421580E+03  0.11250354848E+04 -0.26009675289E+03  0.13442857175E+04  0.25500000920E-02 0. -1.
</event>
<event>
 5   0  0.7193153E-06  0.2984225E+04  0.7818609E-02  0.8248250E-01
       -2   -1    0    0    0  501  0.00000000000E+00  0.00000000000E+00  0.66212111812E+03  0.66212111813E+03  0.25500000920E-02 0.  1.
        2   -1    0    0  501    0  0.00000000000E+00  0.00000000000E+00 -0.33625256720E+04  0.33625256720E+04  0.25500000920E-02 0. -1.
    10030    2    1    2    0    0  0.00000000000E+00  0.00000000000E+00 -0.27004045539E+04  0.40246467901E+04  0.29842246951E+04 0.  0.
        4    1    3    3  502    0  0.17153389470E+03 -0.10024794597E+04  0.12223215544E+03  0.10243687114E+04  0.12699999809E+01 0.  1.
       -4    1    3    3    0  502 -0.17153389470E+03  0.10024794597E+04 -0.28226367093E+04  0.30002780787E+04  0.12699999809E+01 0. -1.
</event>
<event>
 5   0  0.6780150E-06  0.3023103E+04  0.7818609E-02  0.8237164E-01
        2   -1    0    0  501    0  0.00000000000E+00  0.00000000000E+00  0.18536337303E+04  0.18536337303E+04  0.25500000920E-02 0.  1.
       -2   -1    0    0    0  501  0.00000000000E+00  0.00000000000E+00 -0.12325992730E+04  0.12325992730E+04  0.25500000920E-02 0. -1.
    10030    2    1    2    0    0  0.00000000000E+00  0.00000000000E+00  0.62103445729E+03  0.30862330032E+04  0.30231027692E+04 0.  0.
        5    1    3    3  502    0  0.14934854684E+03 -0.65399616155E+03  0.16933325814E+04  0.18213767565E+04  0.46999998093E+01 0.  1.
       -5    1    3    3    0  502 -0.14934854684E+03  0.65399616155E+03 -0.10722981242E+04  0.12648562467E+04  0.46999998093E+01 0. -1.
</event>
<event>
 5   0  0.2628425E-06  0.2998136E+04  0.7818609E-02  0.8244263E-01
       -1   -1    0    0    0  501  0.00000000000E+00  0.00000000000E+00  0.10227273662E+04  0.10227273662E+04  0.50400001928E-02 0.  1.
        1   -1    0    0  501    0  0.00000000000E+00  0.00000000000E+00 -0.21972671280E+04  0.21972671280E+04  0.50400001928E-02 0. -1.
    10030    2    1    2    0    0  0.00000000000E+00  0.00000000000E+00 -0.11745397618E+04  0.32199944943E+04  0.29981362362E+04 0.  0.
        1    1    3    3  502    0 -0.28010838050E+03  0.54479078216E+03  0.88216586508E+03  0.10739992154E+04  0.50400001928E-02 0.  1.
       -1    1    3    3    0  502  0.28010838050E+03 -0.54479078216E+03 -0.20567056269E+04  0.21459952789E+04  0.50400001928E-02 0. -1.
</event>
<event>
 5   0  0.2504260E-06  0.2765536E+04  0.7818609E-02  0.8314048E-01
        1   -1    0    0  501    0  0.00000000000E+00  0.00000000000E+00  0.22485136279E+04  0.22485136279E+04  0.50400001928E-02 0.  1.
       -1   -1    0    0    0  501  0.00000000000E+00  0.00000000000E+00 -0.85036079383E+03  0.85036079385E+03  0.50400001928E-02 0. -1.
    10030    2    1    2    0    0  0.00000000000E+00  0.00000000000E+00  0.13981528341E+04  0.30988744218E+04  0.27655363557E+04 0.  0.
        4    1    3    3  502    0 -0.42049205932E+03 -0.65246499175E+03 -0.58319812082E+03  0.97089947906E+03  0.12699999809E+01 0. -1.
       -4    1    3    3    0  502  0.42049205932E+03  0.65246499175E+03  0.19813509549E+04  0.21279749427E+04  0.12699999809E+01 0.  1.
</event>
<event>
 5   0  0.6792811E-06  0.2977078E+04  0.7818609E-02  0.8250307E-01
       -2   -1    0    0    0  501  0.00000000000E+00  0.00000000000E+00  0.19256523233E+04  0.19256523233E+04  0.25500000920E-02 0. -1.
        2   -1    0    0  501    0  0.00000000000E+00  0.00000000000E+00 -0.11506481682E+04  0.11506481682E+04  0.25500000920E-02 0.  1.
    10030    2    1    2    0    0  0.00000000000E+00  0.00000000000E+00  0.77500415514E+03  0.30763004915E+04  0.29770779757E+04 0.  0.
        2    1    3    3  502    0  0.17018281856E+03 -0.10731410398E+04  0.14388370677E+04  0.18030102580E+04  0.25500000920E-02 0. -1.
       -2    1    3    3    0  502 -0.17018281856E+03  0.10731410398E+04 -0.66383291256E+03  0.12732902335E+04  0.25500000920E-02 0.  1.
</event>
<event>
 5   0  0.7217255E-06  0.2982478E+04  0.7818609E-02  0.8248752E-01
        2   -1    0    0  501    0  0.00000000000E+00  0.00000000000E+00  0.15192976039E+04  0.15192976039E+04  0.25500000920E-02 0. -1.
       -2   -1    0    0    0  501  0.00000000000E+00  0.00000000000E+00 -0.14636988363E+04  0.14636988363E+04  0.25500000920E-02 0.  1.
    10030    2    1    2    0    0  0.00000000000E+00  0.00000000000E+00  0.55598767621E+02  0.29829964402E+04  0.29824782546E+04 0.  0.
        1    1    3    3  502    0 -0.67630714184E+03  0.13065443920E+04  0.27144904941E+03  0.14960394998E+04  0.50400001928E-02 0. -1.
       -1    1    3    3    0  502  0.67630714184E+03 -0.13065443920E+04 -0.21585028179E+03  0.14869569404E+04  0.50400001928E-02 0.  1.
</event>
<event>
 5   0  0.7217255E-06  0.3000055E+04  0.7818609E-02  0.8243715E-01
       -2   -1    0    0    0  501  0.00000000000E+00  0.00000000000E+00  0.18386753851E+04  0.18386753851E+04  0.25500000920E-02 0.  1.
        2   -1    0    0  501    0  0.00000000000E+00  0.00000000000E+00 -0.12237521986E+04  0.12237521986E+04  0.25500000920E-02 0. -1.
    10030    2    1    2    0    0  0.00000000000E+00  0.00000000000E+00  0.61492318653E+03  0.30624275837E+04  0.30000553628E+04 0.  0.
        1    1    3    3  502    0 -0.73038585070E+03  0.56202194307E+03  0.15156008939E+04  0.17738033220E+04  0.50400001928E-02 0.  1.
       -1    1    3    3    0  502  0.73038585070E+03 -0.56202194307E+03 -0.90067770736E+03  0.12886242617E+04  0.50400001928E-02 0. -1.
</event>
<event>
 5   0  0.2422083E-06  0.3062988E+04  0.7818609E-02  0.8225969E-01
       -1   -1    0    0    0  501  0.00000000000E+00  0.00000000000E+00  0.12854070876E+04  0.12854070876E+04  0.50400001928E-02 0.  1.
        1   -1    0    0  501    0  0.00000000000E+00  0.00000000000E+00 -0.18246936085E+04  0.18246936085E+04  0.50400001928E-02 0. -1.
    10030    2    1    2    0    0  0.00000000000E+00  0.00000000000E+00 -0.53928652088E+03  0.31101006961E+04  0.30629881469E+04 0.  0.
        2    1    3    3  502    0 -0.28479292924E+02  0.14236916988E+04 -0.84202022416E+03  0.16542996044E+04  0.25500000920E-02 0. -1.
       -2    1    3    3    0  502  0.28479292924E+02 -0.14236916988E+04  0.30273370327E+03  0.14558010917E+04  0.25500000920E-02 0.  1.
</event>
<event>
 5   0  0.6780150E-06  0.2873221E+04  0.7818609E-02  0.8280890E-01
        2   -1    0    0  501    0  0.00000000000E+00  0.00000000000E+00  0.29319987568E+04  0.29319987568E+04  0.25500000920E-02 0.  1.
       -2   -1    0    0    0  501  0.00000000000E+00  0.00000000000E+00 -0.70390526562E+03  0.70390526562E+03  0.25500000920E-02 0. -1.
    10030    2    1    2    0    0  0.00000000000E+00  0.00000000000E+00  0.22280934911E+04  0.36359040224E+04  0.28732207459E+04 0.  0.
        5    1    3    3  502    0 -0.39607639653E+03 -0.16215871086E+03 -0.62134696742E+03  0.75449725203E+03  0.46999998093E+01 0. -1.
       -5    1    3    3    0  502  0.39607639653E+03  0.16215871086E+03  0.28494404586E+04  0.28814067704E+04  0.46999998093E+01 0.  1.
</event>
<event>
 5   0  0.2504260E-06  0.3040360E+04  0.7818609E-02  0.8232299E-01
       -1   -1    0    0    0  501  0.00000000000E+00  0.00000000000E+00  0.17733066325E+04  0.17733066325E+04  0.50400001928E-02 0.  1.
        1   -1    0    0  501    0  0.00000000000E+00  0.00000000000E+00 -0.13031856739E+04  0.13031856739E+04  0.50400001928E-02 0. -1.
    10030    2    1    2    0    0  0.00000000000E+00  0.00000000000E+00  0.47012095864E+03  0.30764923064E+04  0.30403603727E+04 0.  0.
        4    1    3    3  502    0  0.73879480068E+03  0.12567822292E+04  0.67102502830E+03  0.16048662034E+04  0.12699999809E+01 0.  1.
       -4    1    3    3    0  502 -0.73879480068E+03 -0.12567822292E+04 -0.20090406966E+03  0.14716261031E+04  0.12699999809E+01 0. -1.
</event>
<event>
 5   0  0.2628425E-06  0.2952424E+04  0.7818609E-02  0.8257448E-01
       -1   -1    0    0    0  501  0.00000000000E+00  0.00000000000E+00  0.16835455536E+04  0.16835455536E+04  0.50400001928E-02 0.  1.
        1   -1    0    0  501    0  0.00000000000E+00  0.00000000000E+00 -0.12944125987E+04  0.12944125987E+04  0.50400001928E-02 0. -1.
    10030    2    1    2    0    0  0.00000000000E+00  0.00000000000E+00  0.38913295487E+03  0.29779581523E+04  0.29524244784E+04 0.  0.
        1    1    3    3  502    0 -0.43179515471E+03 -0.12275525394E+04 -0.50850578034E+03  0.13971078775E+04  0.50400001928E-02 0. -1.
       -1    1    3    3    0  502  0.43179515471E+03  0.12275525394E+04  0.89763873521E+03  0.15808502749E+04  0.50400001928E-02 0.  1.
</event>
<event>
 5   0  0.2628425E-06  0.2977974E+04  0.7818609E-02  0.8250049E-01
        1   -1    0    0  501    0  0.00000000000E+00  0.00000000000E+00  0.16488032090E+04  0.16488032090E+04  0.50400001928E-02 0.  1.
       -1   -1    0    0    0  501  0.00000000000E+00  0.00000000000E+00 -0.13446615978E+04  0.13446615978E+04  0.50400001928E-02 0. -1.
    10030    2    1    2    0    0  0.00000000000E+00  0.00000000000E+00  0.30414161123E+03  0.29934648068E+04  0.29779740479E+04 0.  0.
        1    1    3    3  502    0  0.21520979294E+03 -0.10686112527E+04  0.11716631238E+04  0.16003248858E+04  0.50400001928E-02 0.  1.
       -1    1    3    3    0  502 -0.21520979294E+03  0.10686112527E+04 -0.86752151261E+03  0.13931399209E+04  0.50400001928E-02 0. -1.
</event>
<event>
 5   0  0.2422083E-06  0.2970847E+04  0.7818609E-02  0.8252105E-01
        1   -1    0    0  501    0  0.00000000000E+00  0.00000000000E+00  0.12654944295E+04  0.12654944295E+04  0.50400001928E-02 0. -1.
       -1   -1    0    0    0  501  0.00000000000E+00  0.00000000000E+00 -0.17435742446E+04  0.17435742446E+04  0.50400001928E-02 0.  1.
    10030    2    1    2    0    0  0.00000000000E+00  0.00000000000E+00 -0.47807981511E+03  0.30090686741E+04  0.29708473498E+04 0.  0.
        2    1    3    3  502    0 -0.75726289599E+03 -0.12109476611E+04 -0.65251010221E+03  0.15702263420E+04  0.25500000920E-02 0.  1.
       -2    1    3    3    0  502  0.75726289599E+03  0.12109476611E+04  0.17443028710E+03  0.14388423321E+04  0.25500000920E-02 0. -1.
</event>
<event>
 5   0  0.2552990E-06  0.2816047E+04  0.7818609E-02  0.8298304E-01
        1   -1    0    0  501    0  0.00000000000E+00  0.00000000000E+00  0.11752301447E+04  0.11752301447E+04  0.50400001928E-02 0.  1.
       -1   -1    0    0    0  501  0.00000000000E+00  0.00000000000E+00 -0.16869291828E+04  0.16869291828E+04  0.50400001928E-02 0. -1.
    10030    2    1    2    0    0  0.00000000000E+00  0.00000000000E+00 -0.51169903814E+03  0.28621593275E+04  0.28160468942E+04 0.  0.
        3    1    3    3  502    0  0.29507798288E+03 -0.11106075932E+03  0.11388910748E+04  0.11817268714E+04  0.10100000352E+00 0.  1.
       -3    1    3    3    0  502 -0.29507798288E+03  0.11106075932E+03 -0.16505901129E+04  0.16804324561E+04  0.10100000352E+00 0. -1.
</event>
<event>
 5   0  0.7201538E-06  0.2838588E+04  0.7818609E-02  0.8291387E-01
       -2   -1    0    0    0  501  0.00000000000E+00  0.00000000000E+00  0.16115737956E+04  0.16115737956E+04  0.25500000920E-02 0. -1.
        2   -1    0    0  501    0  0.00000000000E+00  0.00000000000E+00 -0.12499555773E+04  0.12499555773E+04  0.25500000920E-02 0.  1.
    10030    2    1    2    0    0  0.00000000000E+00  0.00000000000E+00  0.36161821832E+03  0.28615293729E+04  0.28385881378E+04 0.  0.
        3    1    3    3  502    0  0.95644299962E+03 -0.26854077811E+03 -0.84103907375E+03  0.13016313206E+04  0.10100000352E+00 0.  1.
       -3    1    3    3    0  502 -0.95644299962E+03  0.26854077811E+03  0.12026572921E+04  0.15598980522E+04  0.10100000352E+00 0. -1.
</event>
<event>
 5   0  0.2552990E-06  0.2993232E+04  0.7818609E-02  0.8245666E-01
        1   -1    0    0  501    0  0.00000000000E+00  0.00000000000E+00  0.16883123478E+04  0.16883123478E+04  0.50400001928E-02 0.  1.
       -1   -1    0    0    0  501  0.00000000000E+00  0.00000000000E+00 -0.13266850548E+04  0.13266850548E+04  0.50400001928E-02 0. -1.
    10030    2    1    2    0    0  0.00000000000E+00  0.00000000000E+00  0.36162729300E+03  0.30149974026E+04  0.29932315378E+04 0.  0.
        3    1    3    3  502    0  0.94809526212E+02 -0.87248218622E+03  0.14019180908E+04  0.16539614128E+04  0.10100000352E+00 0.  1.
       -3    1    3    3    0  502 -0.94809526212E+02  0.87248218622E+03 -0.10402907978E+04  0.13610359898E+04  0.10100000352E+00 0. -1.
</event>
<event>
 5   0  0.7193153E-06  0.2995297E+04  0.7818609E-02  0.8245075E-01
       -2   -1    0    0    0  501  0.00000000000E+00  0.00000000000E+00  0.15951866839E+04  0.15951866839E+04  0.25500000920E-02 0. -1.
        2   -1    0    0  501    0  0.00000000000E+00  0.00000000000E+00 -0.14060747556E+04  0.14060747556E+04  0.25500000920E-02 0.  1.
    10030    2    1    2    0    0  0.00000000000E+00  0.00000000000E+00  0.18911192830E+03  0.30012614395E+04  0.29952974655E+04 0.  0.
        4    1    3    3  502    0  0.10386133142E+04  0.98253019401E+03 -0.35227693133E+03  0.14724754150E+04  0.12699999809E+01 0.  1.
       -4    1    3    3    0  502 -0.10386133142E+04 -0.98253019401E+03  0.54138885963E+03  0.15287860245E+04  0.12699999809E+01 0. -1.
</event>
<event>
 5   0  0.7201538E-06  0.2901136E+04  0.7818609E-02  0.8272540E-01
        2   -1    0    0  501    0  0.00000000000E+00  0.00000000000E+00  0.22840897443E+04  0.22840897443E+04  0.25500000920E-02 0. -1.
       -2   -1    0    0    0  501  0.00000000000E+00  0.00000000000E+00 -0.92121912452E+03  0.92121912452E+03  0.25500000920E-02 0.  1.
    10030    2    1    2    0    0  0.00000000000E+00  0.00000000000E+00  0.13628706197E+04  0.32053088688E+04  0.29011357462E+04 0.  0.
        3    1    3    3  502    0 -0.86972938941E+03  0.14706056748E+03 -0.59086173627E+03  0.10616843330E+04  0.10100000352E+00 0.  1.
       -3    1    3    3    0  502  0.86972938941E+03 -0.14706056748E+03  0.19537323560E+04  0.21436245358E+04  0.10100000352E+00 0. -1.
</event>
<event>
 5   0  0.6792811E-06  0.3049617E+04  0.7818609E-02  0.8229703E-01
        2   -1    0    0  501    0  0.00000000000E+00  0.00000000000E+00  0.11812421820E+04  0.11812421820E+04  0.25500000920E-02 0. -1.
       -2   -1    0    0    0  501  0.00000000000E+00  0.00000000000E+00 -0.19683022254E+04  0.19683022254E+04  0.25500000920E-02 0.  1.
    10030    2    1    2    0    0  0.00000000000E+00  0.00000000000E+00 -0.78706004342E+03  0.31495444075E+04  0.30496174289E+04 0.  0.
        2    1    3    3  502    0 -0.32677540704E+03 -0.12926657409E+04  0.37049058689E+03  0.13838461473E+04  0.25500000920E-02 0. -1.
       -2    1    3    3    0  502  0.32677540704E+03  0.12926657409E+04 -0.11575506303E+04  0.17656982602E+04  0.25500000920E-02 0.  1.
</event>
<event>
 5   0  0.2672155E-06  0.2789315E+04  0.7818609E-02  0.8306593E-01
        1   -1    0    0  501    0  0.00000000000E+00  0.00000000000E+00  0.21882204507E+04  0.21882204507E+04  0.50400001928E-02 0.  1.
       -1   -1    0    0    0  501  0.00000000000E+00  0.00000000000E+00 -0.88888194261E+03  0.88888194262E+03  0.50400001928E-02 0. -1.
    10030    2    1    2    0    0  0.00000000000E+00  0.00000000000E+00  0.12993385081E+04  0.30771023933E+04  0.27893150737E+04 0.  0.
        5    1    3    3  502    0 -0.24610909196E+03  0.13058286918E+04  0.18255668088E+03  0.13413080515E+04  0.46999998093E+01 0.  1.
       -5    1    3    3    0  502  0.24610909196E+03 -0.13058286918E+04  0.11167818272E+04  0.17357943418E+04  0.46999998093E+01 0. -1.
</event>
<event>
 5   0  0.2628425E-06  0.2871081E+04  0.7818609E-02  0.8281534E-01
        1   -1    0    0  501    0  0.00000000000E+00  0.00000000000E+00  0.16362866420E+04  0.16362866420E+04  0.50400001928E-02 0. -1.
       -1   -1    0    0    0  501  0.00000000000E+00  0.00000000000E+00 -0.12594230685E+04  0.12594230685E+04  0.50400001928E-02 0.  1.
    10030    2    1    2    0    0  0.00000000000E+00  0.00000000000E+00  0.37686357352E+03  0.28957097105E+04  0.28710814294E+04 0.  0.
        1    1    3    3  502    0  0.93722803056E+03  0.92516505168E+03  0.76469129982E+03  0.15228524348E+04  0.50400001928E-02 0.  1.
       -1    1    3    3    0  502 -0.93722803056E+03 -0.92516505168E+03 -0.38782772630E+03  0.13728572757E+04  0.50400001928E-02 0. -1.
</event>
<event>
 5   0  0.7193153E-06  0.2465664E+04  0.7818609E-02  0.8415321E-01
        2   -1    0    0  501    0  0.00000000000E+00  0.00000000000E+00  0.11989715973E+04  0.11989715973E+04  0.25500000920E-02 0. -1.
       -2   -1    0    0    0  501  0.00000000000E+00  0.00000000000E+00 -0.12676487282E+04  0.12676487282E+04  0.25500000920E-02 0.  1.
    10030    2    1    2    0    0  0.00000000000E+00  0.00000000000E+00 -0.68677130900E+02  0.24666203255E+04  0.24656640651E+04 0.  0.
        4    1    3    3  502    0  0.71060362024E+03  0.85063924203E+03  0.50561939458E+03  0.12182763275E+04  0.12699999809E+01 0. -1.
       -4    1    3    3    0  502 -0.71060362024E+03 -0.85063924203E+03 -0.57429652548E+03  0.12483439980E+04  0.12699999809E+01 0.  1.
</event>
<event>
 5   0  0.7193153E-06  0.2987081E+04  0.7818609E-02  0.8247430E-01
       -2   -1    0    0    0  501  0.00000000000E+00  0.00000000000E+00  0.14031727599E+04  0.14031727599E+04  0.25500000920E-02 0. -1.
        2   -1    0    0  501    0  0.00000000000E+00  0.00000000000E+00 -0.15897284417E+04  0.15897284417E+04  0.25500000920E-02 0.  1.
    10030    2    1    2    0    0  0.00000000000E+00  0.00000000000E+00 -0.18655568180E+03  0.29929012015E+04  0.29870812811E+04 0.  0.
        4    1    3    3  502    0 -0.70792464233E+03  0.10634403235E+04  0.68192165737E+03  0.14481303051E+04  0.12699999809E+01 0. -1.
       -4    1    3    3    0  502  0.70792464233E+03 -0.10634403235E+04 -0.86847733917E+03  0.15447708964E+04  0.12699999809E+01 0.  1.
</event>
<event>
 5   0  0.6780150E-06  0.3007280E+04  0.7818609E-02  0.8241655E-01
       -2   -1    0    0    0  501  0.00000000000E+00  0.00000000000E+00  0.11020858407E+04  0.11020858407E+04  0.25500000920E-02 0.  1.
        2   -1    0    0  501    0  0.00000000000E+00  0.00000000000E+00 -0.20515032122E+04  0.20515032122E+04  0.25500000920E-02 0. -1.
    10030    2    1    2    0    0  0.00000000000E+00  0.00000000000E+00 -0.94941737146E+03  0.31535890529E+04  0.30072795961E+04 0.  0.
        5    1    3    3  502    0 -0.11184445787E+04  0.95434994716E+03 -0.14441092082E+03  0.14773553064E+04  0.46999998093E+01 0.  1.
       -5    1    3    3    0  502  0.11184445787E+04 -0.95434994716E+03 -0.80500645065E+03  0.16762337465E+04  0.46999998093E+01 0. -1.
</event>
<event>
 5   0  0.7201538E-06  0.2896950E+04  0.7818609E-02  0.8273785E-01
       -2   -1    0    0    0  501  0.00000000000E+00  0.00000000000E+00  0.16504557378E+04  0.16504557378E+04  0.25500000920E-02 0.  1.
        2   -1    0    0  501    0  0.00000000000E+00  0.00000000000E+00 -0.12712125896E+04  0.12712125897E+04  0.25500000920E-02 0. -1.
    10030    2    1    2    0    0  0.00000000000E+00  0.00000000000E+00  0.37924314812E+03  0.29216683274E+04  0.28969501981E+04 0.  0.
        3    1    3    3  502    0 -0.30022232600E+03  0.92039570232E+03  0.12762273935E+04  0.16018795411E+04  0.10100000352E+00 0.  1.
       -3    1    3    3    0  502  0.30022232600E+03 -0.92039570232E+03 -0.89698424541E+03  0.13197887864E+04  0.10100000352E+00 0. -1.
</event>
<event>
 5   0  0.7193153E-06  0.2977771E+04  0.7818609E-02  0.8250107E-01
        2   -1    0    0  501    0  0.00000000000E+00  0.00000000000E+00  0.16927850338E+04  0.16927850338E+04  0.25500000920E-02 0.  1.
       -2   -1    0    0    0  501  0.00000000000E+00  0.00000000000E+00 -0.13095460233E+04  0.13095460233E+04  0.25500000920E-02 0. -1.
    10030    2    1    2    0    0  0.00000000000E+00  0.00000000000E+00  0.38323901052E+03  0.30023310572E+04  0.29777709176E+04 0.  0.
        4    1    3    3  502    0  0.79372035836E+03 -0.10373001505E+04 -0.52897422718E+03  0.14091837905E+04  0.12699999809E+01 0. -1.
       -4    1    3    3    0  502 -0.79372035836E+03  0.10373001505E+04  0.91221323770E+03  0.15931472667E+04  0.12699999809E+01 0.  1.
</event>
<event>
 5   0  0.2672155E-06  0.3033141E+04  0.7818609E-02  0.8234330E-01
        1   -1    0    0  501    0  0.00000000000E+00  0.00000000000E+00  0.16352931839E+04  0.16352931839E+04  0.50400001928E-02 0.  1.
       -1   -1    0    0    0  501  0.00000000000E+00  0.00000000000E+00 -0.14064672298E+04  0.14064672298E+04  0.50400001928E-02 0. -1.
    10030    2    1    2    0    0  0.00000000000E+00  0.00000000000E+00  0.22882595412E+03  0.30417604137E+04  0.30331411271E+04 0.  0.
        5    1    3    3  502    0 -0.14346867619E+04 -0.34527823120E+03 -0.23646845528E+03  0.14944840521E+04  0.46999998093E+01 0. -1.
       -5    1    3    3    0  502  0.14346867619E+04  0.34527823120E+03  0.46529440940E+03  0.15472763616E+04  0.46999998093E+01 0.  1.
</event>
<event>
 5   0  0.2422083E-06  0.2999709E+04  0.7818609E-02  0.8243814E-01
       -1   -1    0    0    0  501  0.00000000000E+00  0.00000000000E+00  0.97558033466E+03  0.97558033467E+03  0.50400001928E-02 0. -1.
        1   -1    0    0  501    0  0.00000000000E+00  0.00000000000E+00 -0.23058716111E+04  0.23058716111E+04  0.50400001928E-02 0.  1.
    10030    2    1    2    0    0  0.00000000000E+00  0.00000000000E+00 -0.13302912764E+04  0.32814519458E+04  0.29997086512E+04 0.  0.
        2    1    3    3  502    0 -0.91180421075E+03 -0.80805914898E+03 -0.16220733544E+04  0.20286617446E+04  0.25500000920E-02 0.  1.
       -2    1    3    3    0  502  0.91180421075E+03  0.80805914898E+03  0.29178207800E+03  0.12527902011E+04  0.25500000920E-02 0. -1.
</event>
<event>
 5   0  0.7193153E-06  0.3002969E+04  0.7818609E-02  0.8242884E-01
        2   -1    0    0  501    0  0.00000000000E+00  0.00000000000E+00  0.18519135890E+04  0.18519135890E+04  0.25500000920E-02 0.  1.
       -2   -1    0    0    0  501  0.00000000000E+00  0.00000000000E+00 -0.12173654362E+04  0.12173654362E+04  0.25500000920E-02 0. -1.
    10030    2    1    2    0    0  0.00000000000E+00  0.00000000000E+00  0.63454815287E+03  0.30692790252E+04  0.30029689270E+04 0.  0.
        4    1    3    3  502    0 -0.44966265609E+03 -0.11850539346E+03 -0.11419111293E+04  0.12329649925E+04  0.12699999809E+01 0. -1.
       -4    1    3    3    0  502  0.44966265609E+03  0.11850539346E+03  0.17764592822E+04  0.18363140327E+04  0.12699999809E+01 0.  1.
</event>
<event>
 5   0  0.7201538E-06  0.3016427E+04  0.7818609E-02  0.8239056E-01
        2   -1    0    0  501    0  0.00000000000E+00  0.00000000000E+00  0.12702967843E+04  0.12702967843E+04  0.25500000920E-02 0.  1.
       -2   -1    0    0    0  501  0.00000000000E+00  0.00000000000E+00 -0.17906902742E+04  0.17906902742E+04  0.25500000920E-02 0. -1.
    10030    2    1    2    0    0  0.00000000000E+00  0.00000000000E+00 -0.52039348995E+03  0.30609870585E+04  0.30164270898E+04 0.  0.
        3    1    3    3  502    0  0.47406466608E+03  0.27745194325E+03 -0.16855786295E+04  0.17728204124E+04  0.10100000352E+00 0. -1.
       -3    1    3    3    0  502 -0.47406466608E+03 -0.27745194325E+03  0.11651851395E+04  0.12881666461E+04  0.10100000352E+00 0.  1.
</event>
<event>
 5   0  0.2298500E-06  0.2974976E+04  0.7818609E-02  0.8250913E-01
       -3   -1    0    0    0  501  0.00000000000E+00  0.00000000000E+00  0.16498563175E+04  0.16498563206E+04  0.10100000352E+00 0. -1.
        3   -1    0    0  501    0  0.00000000000E+00  0.00000000000E+00 -0.13410991958E+04  0.13410991996E+04  0.10100000352E+00 0.  1.
    10030    2    1    2    0    0  0.00000000000E+00  0.00000000000E+00  0.30875712177E+03  0.29909555202E+04  0.29749762963E+04 0.  0.
        3    1    3    3  502    0 -0.74684206645E+03 -0.12677419152E+04 -0.65147978236E+02  0.14728159780E+04  0.10100000352E+00 0. -1.
       -3    1    3    3    0  502  0.74684206645E+03  0.12677419152E+04  0.37390510001E+03  0.15181395422E+04  0.10100000352E+00 0.  1.
</event>
<event>
 5   0  0.6792811E-06  0.2975630E+04  0.7818609E-02  0.8250724E-01
        2   -1    0    0  501    0  0.00000000000E+00  0.00000000000E+00  0.26638811730E+04  0.26638811730E+04  0.25500000920E-02 0.  1.
       -2   -1    0    0    0  501  0.00000000000E+00  0.00000000000E+00 -0.83096566738E+03  0.83096566738E+03  0.25500000920E-02 0. -1.
    10030    2    1    2    0    0  0.00000000000E+00  0.00000000000E+00  0.18329155056E+04  0.34948468404E+04  0.29756302168E+04 0.  0.
        2    1    3    3  502    0 -0.72992140857E+03  0.10442519507E+03 -0.60127368036E+03  0.95143046134E+03  0.25500000920E-02 0.  1.
       -2    1    3    3    0  502  0.72992140857E+03 -0.10442519507E+03  0.24341891860E+04  0.25434163791E+04  0.25500000920E-02 0. -1.
</event>
<event>
 5   0  0.7193153E-06  0.2991792E+04  0.7818609E-02  0.8246079E-01
        2   -1    0    0  501    0  0.00000000000E+00  0.00000000000E+00  0.13710022130E+04  0.13710022130E+04  0.25500000920E-02 0. -1.
       -2   -1    0    0    0  501  0.00000000000E+00  0.00000000000E+00 -0.16321675605E+04  0.16321675605E+04  0.25500000920E-02 0.  1.
    10030    2    1    2    0    0  0.00000000000E+00  0.00000000000E+00 -0.26116534749E+03  0.30031697735E+04  0.29917923307E+04 0.  0.
        4    1    3    3  502    0 -0.10316295637E+04 -0.10829775594E+04 -0.15524792175E+03  0.15037298564E+04  0.12699999809E+01 0. -1.
       -4    1    3    3    0  502  0.10316295637E+04  0.10829775594E+04 -0.10591742574E+03  0.14994399171E+04  0.12699999809E+01 0.  1.
</event>
<event>
 5   0  0.2628425E-06  0.3017224E+04  0.7818609E-02  0.8238829E-01
       -1   -1    0    0    0  501  0.00000000000E+00  0.00000000000E+00  0.13223279647E+04  0.13223279647E+04  0.50400001928E-02 0.  1.
        1   -1    0    0  501    0  0.00000000000E+00  0.00000000000E+00 -0.17211391928E+04  0.17211391928E+04  0.50400001928E-02 0. -1.
    10030    2    1    2    0    0  0.00000000000E+00  0.00000000000E+00 -0.39881122817E+03  0.30434671575E+04  0.30172242116E+04 0.  0.
        1    1    3    3  502    0 -0.29432243128E+03  0.56432079631E+03 -0.15790839040E+04  0.17025244875E+04  0.50400001928E-02 0. -1.
       -1    1    3    3    0  502  0.29432243128E+03 -0.56432079631E+03  0.11802726759E+04  0.13409426700E+04  0.50400001928E-02 0.  1.
</event>
<event>
 5   0  0.6792811E-06  0.3020456E+04  0.7818609E-02  0.8237913E-01
        2   -1    0    0  501    0  0.00000000000E+00  0.00000000000E+00  0.15765515154E+04  0.15765515154E+04  0.25500000920E-02 0. -1.
       -2   -1    0    0    0  501  0.00000000000E+00  0.00000000000E+00 -0.14466951091E+04  0.14466951091E+04  0.25500000920E-02 0.  1.
    10030    2    1    2    0    0  0.00000000000E+00  0.00000000000E+00  0.12985640632E+03  0.30232466245E+04  0.30204564997E+04 0.  0.
        2    1    3    3  502    0 -0.99446407029E+03 -0.39709245328E+03 -0.10010194753E+04  0.14658380516E+04  0.25500000920E-02 0.  1.
       -2    1    3    3    0  502  0.99446407029E+03  0.39709245328E+03  0.11308758816E+04  0.15574085730E+04  0.25500000920E-02 0. -1.
</event>
<event>
 5   0  0.2672155E-06  0.3032496E+04  0.7818609E-02  0.8234512E-01
        1   -1    0    0  501    0  0.00000000000E+00  0.00000000000E+00  0.17418204109E+04  0.17418204109E+04  0.50400001928E-02 0.  1.
       -1   -1    0    0    0  501  0.00000000000E+00  0.00000000000E+00 -0.13198876900E+04  0.13198876900E+04  0.50400001928E-02 0. -1.
    10030    2    1    2    0    0  0.00000000000E+00  0.00000000000E+00  0.42193272087E+03  0.30617081008E+04  0.30324955522E+04 0.  0.
        5    1    3    3  502    0 -0.90486085015E+03  0.43791309556E+03  0.13569974957E+04  0.16887881249E+04  0.46999998093E+01 0.  1.
       -5    1    3    3    0  502  0.90486085015E+03 -0.43791309556E+03 -0.93506477480E+03  0.13729199760E+04  0.46999998093E+01 0. -1.
</event>
<event>
 5   0  0.2552990E-06  0.3016173E+04  0.7818609E-02  0.8239128E-01
        1   -1    0    0  501    0  0.00000000000E+00  0.00000000000E+00  0.15045176135E+04  0.15045176135E+04  0.50400001928E-02 0.  1.
       -1   -1    0    0    0  501  0.00000000000E+00  0.00000000000E+00 -0.15116642693E+04  0.15116642693E+04  0.50400001928E-02 0. -1.
    10030    2    1    2    0    0  0.00000000000E+00  0.00000000000E+00 -0.71466558016E+01  0.30161818829E+04  0.30161734161E+04 0.  0.
        3    1    3    3  502    0  0.61627281836E+03 -0.11940592880E+04 -0.68823263784E+03  0.15097131992E+04  0.10100000352E+00 0. -1.
       -3    1    3    3    0  502 -0.61627281836E+03  0.11940592880E+04  0.68108598203E+03  0.15064686837E+04  0.10100000352E+00 0.  1.
</event>
<event>
 5   0  0.6780150E-06  0.3004007E+04  0.7818609E-02  0.8242587E-01
        2   -1    0    0  501    0  0.00000000000E+00  0.00000000000E+00  0.18297385976E+04  0.18297385976E+04  0.25500000920E-02 0. -1.
       -2   -1    0    0    0  501  0.00000000000E+00  0.00000000000E+00 -0.12329712039E+04  0.12329712039E+04  0.25500000920E-02 0.  1.
    10030    2    1    2    0    0  0.00000000000E+00  0.00000000000E+00  0.59676739370E+03  0.30627098015E+04  0.30040073246E+04 0.  0.
        5    1    3    3  502    0 -0.11181440280E+04 -0.52554996626E+03  0.11692081768E+04  0.17010345926E+04  0.46999998093E+01 0. -1.
       -5    1    3    3    0  502  0.11181440280E+04  0.52554996626E+03 -0.57244078310E+03  0.13616752089E+04  0.46999998093E+01 0.  1.
</event>
<event>
 5   0  0.2672155E-06  0.2992473E+04  0.7818609E-02  0.8245883E-01
       -1   -1    0    0    0  501  0.00000000000E+00  0.00000000000E+00  0.25297204372E+04  0.25297204372E+04  0.50400001928E-02 0.  1.
        1   -1    0    0  501    0  0.00000000000E+00  0.00000000000E+00 -0.88496904240E+03  0.88496904241E+03  0.50400001928E-02 0. -1.
    10030    2    1    2    0    0  0.00000000000E+00  0.00000000000E+00  0.16447513948E+04  0.34146894797E+04  0.29924734070E+04 0.  0.
        5    1    3    3  502    0  0.13867859717E+02 -0.69669907557E+02 -0.88303529722E+03  0.88590046827E+03  0.46999998093E+01 0. -1.
       -5    1    3    3    0  502 -0.13867859717E+02  0.69669907557E+02  0.25277866921E+04  0.25287890114E+04  0.46999998093E+01 0.  1.
</event>
<event>
 5   0  0.7201538E-06  0.2980915E+04  0.7818609E-02  0.8249202E-01
        2   -1    0    0  501    0  0.00000000000E+00  0.00000000000E+00  0.17501488909E+04  0.17501488909E+04  0.25500000920E-02 0. -1.
       -2   -1    0    0    0  501  0.00000000000E+00  0.00000000000E+00 -0.12692994154E+04  0.12692994154E+04  0.25500000920E-02 0.  1.
    10030    2    1    2    0    0  0.00000000000E+00  0.00000000000E+00  0.48084947557E+03  0.30194483063E+04  0.29809146006E+04 0.  0.
        3    1    3    3  502    0  0.96310556700E+03 -0.11180208585E+04  0.45270476503E+03  0.15435299115E+04  0.10100000352E+00 0.  1.
       -3    1    3    3    0  502 -0.96310556700E+03  0.11180208585E+04  0.28144710543E+02  0.14759183948E+04  0.10100000352E+00 0. -1.
</event>
<event>
 5   0  0.2628425E-06  0.2990925E+04  0.7818609E-02  0.8246327E-01
        1   -1    0    0  501    0  0.00000000000E+00  0.00000000000E+00  0.18291603928E+04  0.18291603928E+04  0.50400001928E-02 0. -1.
       -1   -1    0    0    0  501  0.00000000000E+00  0.00000000000E+00 -0.12226415318E+04  0.12226415318E+04  0.50400001928E-02 0.  1.
    10030    2    1    2    0    0  0.00000000000E+00  0.00000000000E+00  0.60651886105E+03  0.30518019246E+04  0.29909245825E+04 0.  0.
        1    1    3    3  502    0 -0.10987205965E+04  0.55198111846E+03  0.11717823280E+04  0.16985122692E+04  0.50400001928E-02 0. -1.
       -1    1    3    3    0  502  0.10987205965E+04 -0.55198111846E+03 -0.56526346692E+03  0.13532896554E+04  0.50400001928E-02 0.  1.
</event>
<event>
 5   0  0.2672155E-06  0.3030143E+04  0.7818609E-02  0.8235175E-01
        1   -1    0    0  501    0  0.00000000000E+00  0.00000000000E+00  0.10887415707E+04  0.10887415707E+04  0.50400001928E-02 0. -1.
       -1   -1    0    0    0  501  0.00000000000E+00  0.00000000000E+00 -0.21083439701E+04  0.21083439701E+04  0.50400001928E-02 0.  1.
    10030    2    1    2    0    0  0.00000000000E+00  0.00000000000E+00 -0.10196023995E+04  0.31970855408E+04  0.30301430498E+04 0.  0.
        5    1    3    3  502    0 -0.43519327386E+02  0.15101812405E+04 -0.39006628492E+03  0.15603573653E+04  0.46999998093E+01 0.  1.
       -5    1    3    3    0  502  0.43519327386E+02 -0.15101812405E+04 -0.62953611455E+03  0.16367281755E+04  0.46999998093E+01 0. -1.
</event>
<event>
 5   0  0.7201538E-06  0.3014719E+04  0.7818609E-02  0.8239540E-01
        2   -1    0    0  501    0  0.00000000000E+00  0.00000000000E+00  0.17485155850E+04  0.17485155850E+04  0.25500000920E-02 0.  1.
       -2   -1    0    0    0  501  0.00000000000E+00  0.00000000000E+00 -0.12994633448E+04  0.12994633448E+04  0.25500000920E-02 0. -1.
    10030    2    1    2    0    0  0.00000000000E+00  0.00000000000E+00  0.44905224019E+03  0.30479789298E+04  0.30147185013E+04 0.  0.
        3    1    3    3  502    0 -0.45379096098E+03  0.93638874714E+03 -0.87809380087E+03  0.13615428217E+04  0.10100000352E+00 0. -1.
       -3    1    3    3    0  502  0.45379096098E+03 -0.93638874714E+03  0.13271460411E+04  0.16864361080E+04  0.10100000352E+00 0.  1.
</event>
<event>
 5   0  0.6780150E-06  0.2996497E+04  0.7818609E-02  0.8244732E-01
        2   -1    0    0  501    0  0.00000000000E+00  0.00000000000E+00  0.17119216869E+04  0.17119216869E+04  0.25500000920E-02 0. -1.
       -2   -1    0    0    0  501  0.00000000000E+00  0.00000000000E+00 -0.13112447971E+04  0.13112447971E+04  0.25500000920E-02 0.  1.
    10030    2    1    2    0    0  0.00000000000E+00  0.00000000000E+00  0.40067688978E+03  0.30231664839E+04  0.29964968913E+04 0.  0.
        5    1    3    3  502    0 -0.33695352683E+03  0.20070471491E+03 -0.12585279265E+04  0.13182316540E+04  0.46999998093E+01 0.  1.
       -5    1    3    3    0  502  0.33695352683E+03 -0.20070471491E+03  0.16592048163E+04  0.17049348299E+04  0.46999998093E+01 0. -1.
</event>
<event>
 5   0  0.6780150E-06  0.2966127E+04  0.7818609E-02  0.8253470E-01
        2   -1    0    0  501    0  0.00000000000E+00  0.00000000000E+00  0.22233375519E+04  0.22233375519E+04  0.25500000920E-02 0. -1.
       -2   -1    0    0    0  501  0.00000000000E+00  0.00000000000E+00 -0.98926833498E+03  0.98926833498E+03  0.25500000920E-02 0.  1.
    10030    2    1    2    0    0  0.00000000000E+00  0.00000000000E+00  0.12340692169E+04  0.32126058869E+04  0.29661270627E+04 0.  0.
        5    1    3    3  502    0  0.62542091491E+03  0.10116745861E+04 -0.34248163613E+03  0.12377207076E+04  0.46999998093E+01 0.  1.
       -5    1    3    3    0  502 -0.62542091491E+03 -0.10116745861E+04  0.15765508531E+04  0.19748851793E+04  0.46999998093E+01 0. -1.
</event>
<event>
 5   0  0.2504260E-06  0.2986828E+04  0.7818609E-02  0.8247502E-01
        1   -1    0    0  501    0  0.00000000000E+00  0.00000000000E+00  0.78742463426E+03  0.78742463427E+03  0.50400001928E-02 0. -1.
       -1   -1    0    0    0  501  0.00000000000E+00  0.00000000000E+00 -0.28323795688E+04  0.28323795688E+04  0.50400001928E-02 0.  1.
    10030    2    1    2    0    0  0.00000000000E+00  0.00000000000E+00 -0.20449549345E+04  0.36198042030E+04  0.29868280473E+04 0.  0.
        4    1    3    3  502    0 -0.19854764489E+03  0.12478032702E+04 -0.57609270792E+02  0.12648140612E+04  0.12699999809E+01 0. -1.
       -4    1    3    3    0  502  0.19854764489E+03 -0.12478032702E+04 -0.19873456637E+04  0.23549901419E+04  0.12699999809E+01 0.  1.
</event>
<event>
 5   0  0.2298500E-06  0.2818044E+04  0.7818609E-02  0.8297688E-01
        3   -1    0    0  501    0  0.00000000000E+00  0.00000000000E+00  0.14283641274E+04  0.14283641309E+04  0.10100000352E+00 0. -1.
       -3   -1    0    0    0  501  0.00000000000E+00  0.00000000000E+00 -0.13899416412E+04  0.13899416448E+04  0.10100000352E+00 0.  1.
    10030    2    1    2    0    0  0.00000000000E+00  0.00000000000E+00  0.38422486190E+02  0.28183057758E+04  0.28180438532E+04 0.  0.
        4    1    3    3  502    0  0.24041979618E+03 -0.74360570578E+03 -0.11533268529E+04  0.13931674582E+04  0.12699999809E+01 0.  1.
       -4    1    3    3    0  502 -0.24041979618E+03  0.74360570578E+03  0.11917493391E+04  0.14251383176E+04  0.12699999809E+01 0. -1.
</event>
<event>
 5   0  0.2504260E-06  0.2800365E+04  0.7818609E-02  0.8303155E-01
        1   -1    0    0  501    0  0.00000000000E+00  0.00000000000E+00  0.13627313492E+04  0.13627313493E+04  0.50400001928E-02 0. -1.
       -1   -1    0    0    0  501  0.00000000000E+00  0.00000000000E+00 -0.14386632542E+04  0.14386632542E+04  0.50400001928E-02 0.  1.
    10030    2    1    2    0    0  0.00000000000E+00  0.00000000000E+00 -0.75931904932E+02  0.28013946034E+04  0.28003653458E+04 0.  0.
        4    1    3    3  502    0  0.96340386889E+03 -0.11052276881E+03 -0.10483607485E+04  0.14280840903E+04  0.12699999809E+01 0.  1.
       -4    1    3    3    0  502 -0.96340386889E+03  0.11052276881E+03  0.97242884353E+03  0.13733105132E+04  0.12699999809E+01 0. -1.
</event>
<event>
 5   0  0.2552990E-06  0.2900185E+04  0.7818609E-02  0.8272823E-01
        1   -1    0    0  501    0  0.00000000000E+00  0.00000000000E+00  0.13016689026E+04  0.13016689026E+04  0.50400001928E-02 0. -1.
       -1   -1    0    0    0  501  0.00000000000E+00  0.00000000000E+00 -0.16154396963E+04  0.16154396963E+04  0.50400001928E-02 0.  1.
    10030    2    1    2    0    0  0.00000000000E+00  0.00000000000E+00 -0.31377079364E+03  0.29171085989E+04  0.29001845574E+04 0.  0.
        3    1    3    3  502    0 -0.14331372002E+04 -0.19767329745E+03 -0.25651206760E+03  0.14692703693E+04  0.10100000352E+00 0. -1.
       -3    1    3    3    0  502  0.14331372002E+04  0.19767329745E+03 -0.57258726045E+02  0.14478382296E+04  0.10100000352E+00 0.  1.
</event>
<event>
 5   0  0.2504260E-06  0.2920943E+04  0.7818609E-02  0.8266673E-01
       -1   -1    0    0    0  501  0.00000000000E+00  0.00000000000E+00  0.12311301661E+04  0.12311301661E+04  0.50400001928E-02 0. -1.
        1   -1    0    0  501    0  0.00000000000E+00  0.00000000000E+00 -0.17325358437E+04  0.17325358437E+04  0.50400001928E-02 0.  1.
    10030    2    1    2    0    0  0.00000000000E+00  0.00000000000E+00 -0.50140567763E+03  0.29636660098E+04  0.29209430949E+04 0.  0.
        4    1    3    3  502    0 -0.48506851613E+03 -0.33365429448E+03  0.11053934235E+04  0.12524028454E+04  0.12699999809E+01 0. -1.
       -4    1    3    3    0  502  0.48506851613E+03  0.33365429448E+03 -0.16067991011E+04  0.17112631644E+04  0.12699999809E+01 0.  1.
</event>
<event>
 5   0  0.6780150E-06  0.2371867E+04  0.7818609E-02  0.8450112E-01
        2   -1    0    0  501    0  0.00000000000E+00  0.00000000000E+00  0.21257669298E+04  0.21257669298E+04  0.25500000920E-02 0. -1.
       -2   -1    0    0    0  501  0.00000000000E+00  0.00000000000E+00 -0.66161467788E+03  0.66161467789E+03  0.25500000920E-02 0.  1.
    10030    2    1    2    0    0  0.00000000000E+00  0.00000000000E+00  0.14641522519E+04  0.27873816077E+04  0.23718672834E+04 0.  0.
        5    1    3    3  502    0 -0.41111484376E+03 -0.82285252641E+03  0.16117508211E+04  0.18557652045E+04  0.46999998093E+01 0. -1.
       -5    1    3    3    0  502  0.41111484376E+03  0.82285252641E+03 -0.14759856920E+03  0.93161640315E+03  0.46999998093E+01 0.  1.
</event>
<event>
 5   0  0.6780150E-06  0.3020334E+04  0.7818609E-02  0.8237948E-01
        2   -1    0    0  501    0  0.00000000000E+00  0.00000000000E+00  0.17950941380E+04  0.17950941380E+04  0.25500000920E-02 0. -1.
       -2   -1    0    0    0  501  0.00000000000E+00  0.00000000000E+00 -0.12704650922E+04  0.12704650922E+04  0.25500000920E-02 0.  1.
    10030    2    1    2    0    0  0.00000000000E+00  0.00000000000E+00  0.52462904578E+03  0.30655592302E+04  0.30203340474E+04 0.  0.
        5    1    3    3  502    0 -0.53863048578E+03  0.14093003439E+04  0.32911867719E+03  0.15442122436E+04  0.46999998093E+01 0.  1.
       -5    1    3    3    0  502  0.53863048578E+03 -0.14093003439E+04  0.19551036860E+03  0.15213469866E+04  0.46999998093E+01 0. -1.
</event>
<event>
 5   0  0.6780150E-06  0.2557279E+04  0.7818609E-02  0.8382859E-01
       -2   -1    0    0    0  501  0.00000000000E+00  0.00000000000E+00  0.21663933326E+04  0.21663933326E+04  0.25500000920E-02 0. -1.
        2   -1    0    0  501    0  0.00000000000E+00  0.00000000000E+00 -0.75467300256E+03  0.75467300257E+03  0.25500000920E-02 0.  1.
    10030    2    1    2    0    0  0.00000000000E+00  0.00000000000E+00  0.14117203301E+04  0.29210663352E+04  0.25572786794E+04 0.  0.
        5    1    3    3  502    0  0.62779871854E+02  0.83197219329E+02 -0.74980281608E+03  0.75702671196E+03  0.46999998093E+01 0.  1.
       -5    1    3    3    0  502 -0.62779871854E+02 -0.83197219329E+02  0.21615231461E+04  0.21640396232E+04  0.46999998093E+01 0. -1.
</event>
<event>
 5   0  0.2628425E-06  0.3042396E+04  0.7818609E-02  0.8231727E-01
        1   -1    0    0  501    0  0.00000000000E+00  0.00000000000E+00  0.14247627706E+04  0.14247627706E+04  0.50400001928E-02 0.  1.
       -1   -1    0    0    0  501  0.00000000000E+00  0.00000000000E+00 -0.16241608183E+04  0.16241608183E+04  0.50400001928E-02 0. -1.
    10030    2    1    2    0    0  0.00000000000E+00  0.00000000000E+00 -0.19939804773E+03  0.30489235889E+04  0.30423963367E+04 0.  0.
        1    1    3    3  502    0  0.75110505837E+02 -0.79439693980E+03  0.11981995543E+04  0.14395798894E+04  0.50400001928E-02 0.  1.
       -1    1    3    3    0  502 -0.75110505837E+02  0.79439693980E+03 -0.13975976020E+04  0.16093436995E+04  0.50400001928E-02 0. -1.
</event>
<event>
 5   0  0.7217255E-06  0.2940495E+04  0.7818609E-02  0.8260930E-01
        2   -1    0    0  501    0  0.00000000000E+00  0.00000000000E+00  0.14868135688E+04  0.14868135688E+04  0.25500000920E-02 0. -1.
       -2   -1    0    0    0  501  0.00000000000E+00  0.00000000000E+00 -0.14538664452E+04  0.14538664452E+04  0.25500000920E-02 0.  1.
    10030    2    1    2    0    0  0.00000000000E+00  0.00000000000E+00  0.32947123616E+02  0.29406800141E+04  0.29404954399E+04 0.  0.
        1    1    3    3  502    0 -0.14595230084E+03 -0.88132490948E+03  0.11842765751E+04  0.14834239706E+04  0.50400001928E-02 0. -1.
       -1    1    3    3    0  502  0.14595230084E+03  0.88132490948E+03 -0.11513294515E+04  0.14572560434E+04  0.50400001928E-02 0.  1.
</event>
<event>
 5   0  0.7217255E-06  0.3028711E+04  0.7818609E-02  0.8235580E-01
       -2   -1    0    0    0  501  0.00000000000E+00  0.00000000000E+00  0.88752692245E+03  0.88752692245E+03  0.25500000920E-02 0.  1.
        2   -1    0    0  501    0  0.00000000000E+00  0.00000000000E+00 -0.25838905224E+04  0.25838905224E+04  0.25500000920E-02 0. -1.
    10030    2    1    2    0    0  0.00000000000E+00  0.00000000000E+00 -0.16963636000E+04  0.34714174449E+04  0.30287108831E+04 0.  0.
        1    1    3    3  502    0 -0.14426083231E+04  0.20347565267E+03 -0.13218028736E+04  0.19671512275E+04  0.50400001928E-02 0.  1.
       -1    1    3    3    0  502  0.14426083231E+04 -0.20347565267E+03 -0.37456072640E+03  0.15042662174E+04  0.50400001928E-02 0. -1.
</event>
<event>
 5   0  0.2552990E-06  0.2979393E+04  0.7818609E-02  0.8249640E-01
        1   -1    0    0  501    0  0.00000000000E+00  0.00000000000E+00  0.18640794559E+04  0.18640794559E+04  0.50400001928E-02 0.  1.
       -1   -1    0    0    0  501  0.00000000000E+00  0.00000000000E+00 -0.11905051717E+04  0.11905051717E+04  0.50400001928E-02 0. -1.
    10030    2    1    2    0    0  0.00000000000E+00  0.00000000000E+00  0.67357428423E+03  0.30545846277E+04  0.29793933831E+04 0.  0.
        3    1    3    3  502    0 -0.12554009298E+04  0.44532237342E+02  0.11577336145E+04  0.17083213243E+04  0.10100000352E+00 0.  1.
       -3    1    3    3    0  502  0.12554009298E+04 -0.44532237342E+02 -0.48415933025E+03  0.13462633034E+04  0.10100000352E+00 0. -1.
</event>
<event>
 5   0  0.7193153E-06  0.3019554E+04  0.7818609E-02  0.8238169E-01
        2   -1    0    0  501    0  0.00000000000E+00  0.00000000000E+00  0.19190607185E+04  0.19190607185E+04  0.25500000920E-02 0.  1.
       -2   -1    0    0    0  501  0.00000000000E+00  0.00000000000E+00 -0.11877822178E+04  0.11877822178E+04  0.25500000920E-02 0. -1.
    10030    2    1    2    0    0  0.00000000000E+00  0.00000000000E+00  0.73127850071E+03  0.31068429364E+04  0.30195537395E+04 0.  0.
        4    1    3    3  502    0  0.68617699159E+03  0.81514100064E+03  0.14662009292E+04  0.18124680666E+04  0.12699999809E+01 0.  1.
       -4    1    3    3    0  502 -0.68617699159E+03 -0.81514100064E+03 -0.73492242850E+03  0.12943748698E+04  0.12699999809E+01 0. -1.
</event>
<event>
 5   0  0.2422083E-06  0.2997725E+04  0.7818609E-02  0.8244381E-01
       -1   -1    0    0    0  501  0.00000000000E+00  0.00000000000E+00  0.12905452149E+04  0.12905452149E+04  0.50400001928E-02 0. -1.
        1   -1    0    0  501    0  0.00000000000E+00  0.00000000000E+00 -0.17408054352E+04  0.17408054352E+04  0.50400001928E-02 0.  1.
    10030    2    1    2    0    0  0.00000000000E+00  0.00000000000E+00 -0.45026022032E+03  0.30313506502E+04  0.29977245534E+04 0.  0.
        2    1    3    3  502    0  0.27294661380E+03  0.21789402303E+03 -0.16990847182E+04  0.17346084685E+04  0.25500000920E-02 0.  1.
       -2    1    3    3    0  502 -0.27294661380E+03 -0.21789402303E+03  0.12488244979E+04  0.12967421817E+04  0.25500000920E-02 0. -1.
</event>
<event>
 5   0  0.6792811E-06  0.2900412E+04  0.7818609E-02  0.8272755E-01
       -2   -1    0    0    0  501  0.00000000000E+00  0.00000000000E+00  0.11860427769E+04  0.11860427769E+04  0.25500000920E-02 0. -1.
        2   -1    0    0  501    0  0.00000000000E+00  0.00000000000E+00 -0.17732051457E+04  0.17732051457E+04  0.25500000920E-02 0.  1.
    10030    2    1    2    0    0  0.00000000000E+00  0.00000000000E+00 -0.58716236887E+03  0.29592479226E+04  0.29004118018E+04 0.  0.
        2    1    3    3  502    0 -0.90318859714E+03  0.72181660556E+03 -0.11867408864E+04  0.16568412071E+04  0.25500000920E-02 0.  1.
       -2    1    3    3    0  502  0.90318859714E+03 -0.72181660556E+03  0.59957851748E+03  0.13024067155E+04  0.25500000920E-02 0. -1.
</event>
<event>
 5   0  0.2628425E-06  0.2863502E+04  0.7818609E-02  0.8283820E-01
        1   -1    0    0  501    0  0.00000000000E+00  0.00000000000E+00  0.11447719765E+04  0.11447719765E+04  0.50400001928E-02 0. -1.
       -1   -1    0    0    0  501  0.00000000000E+00  0.00000000000E+00 -0.17906714334E+04  0.17906714334E+04  0.50400001928E-02 0.  1.
    10030    2    1    2    0    0  0.00000000000E+00  0.00000000000E+00 -0.64589945697E+03  0.29354434099E+04  0.28635016857E+04 0.  0.
        1    1    3    3  502    0 -0.13420106158E+04  0.17053712245E+03  0.15769563811E+03  0.13619630382E+04  0.50400001928E-02 0. -1.
       -1    1    3    3    0  502  0.13420106158E+04 -0.17053712245E+03 -0.80359509508E+03  0.15734803717E+04  0.50400001928E-02 0.  1.
</event>
<event>
 5   0  0.6792811E-06  0.2937903E+04  0.7818609E-02  0.8261689E-01
        2   -1    0    0  501    0  0.00000000000E+00  0.00000000000E+00  0.25142288858E+04  0.25142288858E+04  0.25500000920E-02 0.  1.
       -2   -1    0    0    0  501  0.00000000000E+00  0.00000000000E+00 -0.85824291400E+03  0.85824291400E+03  0.25500000920E-02 0. -1.
    10030    2    1    2    0    0  0.00000000000E+00  0.00000000000E+00  0.16559859718E+04  0.33724717998E+04  0.29379034194E+04 0.  0.
        2    1    3    3  502    0 -0.96804484035E+03 -0.23190499242E+03  0.20680250484E+04  0.22951292641E+04  0.25500000920E-02 0.  1.
       -2    1    3    3    0  502  0.96804484035E+03  0.23190499242E+03 -0.41203907659E+03  0.10773425356E+04  0.25500000920E-02 0. -1.
</event>
<event>
 5   0  0.6780150E-06  0.2991787E+04  0.7818609E-02  0.8246080E-01
       -2   -1    0    0    0  501  0.00000000000E+00  0.00000000000E+00  0.11866928659E+04  0.11866928659E+04  0.25500000920E-02 0. -1.
        2   -1    0    0  501    0  0.00000000000E+00  0.00000000000E+00 -0.18856587009E+04  0.18856587009E+04  0.25500000920E-02 0.  1.
    10030    2    1    2    0    0  0.00000000000E+00  0.00000000000E+00 -0.69896583497E+03  0.30723515668E+04  0.29917872437E+04 0.  0.
        5    1    3    3  502    0  0.14087875905E+04  0.49813658842E+03 -0.27794275642E+03  0.15199002604E+04  0.46999998093E+01 0. -1.
       -5    1    3    3    0  502 -0.14087875905E+04 -0.49813658842E+03 -0.42102307856E+03  0.15524513063E+04  0.46999998093E+01 0.  1.
</event>
<event>
 5   0  0.6780150E-06  0.3012087E+04  0.7818609E-02  0.8240288E-01
        2   -1    0    0  501    0  0.00000000000E+00  0.00000000000E+00  0.20737663068E+04  0.20737663068E+04  0.25500000920E-02 0.  1.
       -2   -1    0    0    0  501  0.00000000000E+00  0.00000000000E+00 -0.10937425465E+04  0.10937425465E+04  0.25500000920E-02 0. -1.
    10030    2    1    2    0    0  0.00000000000E+00  0.00000000000E+00  0.98002376028E+03  0.31675088533E+04  0.30120866131E+04 0.  0.
        5    1    3    3  502    0 -0.12134136266E+03 -0.14106607748E+04 -0.49753580172E+02  0.14167515860E+04  0.46999998093E+01 0. -1.
       -5    1    3    3    0  502  0.12134136266E+03  0.14106607748E+04  0.10297773405E+04  0.17507572672E+04  0.46999998093E+01 0.  1.
</event>
<event>
 5   0  0.2298500E-06  0.3039244E+04  0.7818609E-02  0.8232612E-01
        4   -1    0    0  501    0  0.00000000000E+00  0.00000000000E+00  0.11376637649E+04  0.11376644738E+04  0.12699999809E+01 0. -1.
       -4   -1    0    0    0  501  0.00000000000E+00  0.00000000000E+00 -0.20298172713E+04  0.20298176686E+04  0.12699999809E+01 0.  1.
    10030    2    1    2    0    0  0.00000000000E+00  0.00000000000E+00 -0.89215350639E+03  0.31674821424E+04  0.30392441895E+04 0.  0.
        4    1    3    3  502    0  0.85593813955E+03  0.10109265403E+04  0.33009344715E+03  0.13651248534E+04  0.12699999809E+01 0. -1.
       -4    1    3    3    0  502 -0.85593813955E+03 -0.10109265403E+04 -0.12222469535E+04  0.18023572889E+04  0.12699999809E+01 0.  1.
</event>
<event>
 5   0  0.2552990E-06  0.3051058E+04  0.7818609E-02  0.8229299E-01
       -1   -1    0    0    0  501  0.00000000000E+00  0.00000000000E+00  0.11328370958E+04  0.11328370958E+04  0.50400001928E-02 0.  1.
        1   -1    0    0  501    0  0.00000000000E+00  0.00000000000E+00 -0.20543452083E+04  0.20543452083E+04  0.50400001928E-02 0. -1.
    10030    2    1    2    0    0  0.00000000000E+00  0.00000000000E+00 -0.92150811257E+03  0.31871823041E+04  0.30510578228E+04 0.  0.
        3    1    3    3  502    0  0.13510473189E+04 -0.41718011672E+03 -0.10589005119E+04  0.17665328789E+04  0.10100000352E+00 0. -1.
       -3    1    3    3    0  502 -0.13510473189E+04  0.41718011672E+03  0.13739239936E+03  0.14206494252E+04  0.10100000352E+00 0.  1.
</event>
<event>
 5   0  0.2552990E-06  0.3006949E+04  0.7818609E-02  0.8241749E-01
       -1   -1    0    0    0  501  0.00000000000E+00  0.00000000000E+00  0.11301956603E+04  0.11301956603E+04  0.50400001928E-02 0.  1.
        1   -1    0    0  501    0  0.00000000000E+00  0.00000000000E+00 -0.20000391009E+04  0.20000391009E+04  0.50400001928E-02 0. -1.
    10030    2    1    2    0    0  0.00000000000E+00  0.00000000000E+00 -0.86984344068E+03  0.31302347612E+04  0.30069489602E+04 0.  0.
        3    1    3    3  502    0  0.95909611184E+03  0.72984299574E+03  0.50076288329E+03  0.13051052163E+04  0.10100000352E+00 0. -1.
       -3    1    3    3    0  502 -0.95909611184E+03 -0.72984299574E+03 -0.13706063240E+04  0.18251295449E+04  0.10100000352E+00 0.  1.
</event>
<event>
 5   0  0.2552990E-06  0.3025042E+04  0.7818609E-02  0.8236616E-01
        1   -1    0    0  501    0  0.00000000000E+00  0.00000000000E+00  0.25672885013E+04  0.25672885013E+04  0.50400001928E-02 0. -1.
       -1   -1    0    0    0  501  0.00000000000E+00  0.00000000000E+00 -0.89110348520E+03  0.89110348522E+03  0.50400001928E-02 0.  1.
    10030    2    1    2    0    0  0.00000000000E+00  0.00000000000E+00  0.16761850160E+04  0.34583919865E+04  0.30250419706E+04 0.  0.
        3    1    3    3  502    0 -0.43606970329E+03 -0.11107669983E+04 -0.22443273789E+03  0.12142199861E+04  0.10100000352E+00 0.  1.
       -3    1    3    3    0  502  0.43606970329E+03  0.11107669983E+04  0.19006177539E+04  0.22441720004E+04  0.10100000352E+00 0. -1.
</event>
<event>
 5   0  0.7217255E-06  0.2835989E+04  0.7818609E-02  0.8292182E-01
       -2   -1    0    0    0  501  0.00000000000E+00  0.00000000000E+00  0.10123949075E+04  0.10123949075E+04  0.25500000920E-02 0.  1.
        2   -1    0    0  501    0  0.00000000000E+00  0.00000000000E+00 -0.19860909591E+04  0.19860909591E+04  0.25500000920E-02 0. -1.
    10030    2    1    2    0    0  0.00000000000E+00  0.00000000000E+00 -0.97369605156E+03  0.29984858666E+04  0.28359889794E+04 0.  0.
        1    1    3    3  502    0  0.16656917998E+03  0.12630698935E+04 -0.11451106085E+04  0.17130000448E+04  0.50400001928E-02 0.  1.
       -1    1    3    3    0  502 -0.16656917998E+03 -0.12630698935E+04  0.17141455695E+03  0.12854858218E+04  0.50400001928E-02 0. -1.
</event>
<event>
 5   0  0.2672155E-06  0.2966657E+04  0.7818609E-02  0.8253317E-01
        1   -1    0    0  501    0  0.00000000000E+00  0.00000000000E+00  0.32196979748E+04  0.32196979749E+04  0.50400001928E-02 0.  1.
       -1   -1    0    0    0  501  0.00000000000E+00  0.00000000000E+00 -0.68337550336E+03  0.68337550338E+03  0.50400001928E-02 0. -1.
    10030    2    1    2    0    0  0.00000000000E+00  0.00000000000E+00  0.25363224715E+04  0.39030734782E+04  0.29666565182E+04 0.  0.
        5    1    3    3  502    0  0.82480802404E+03 -0.10142363221E+04  0.21902948529E+04  0.25507640475E+04  0.46999998093E+01 0.  1.
       -5    1    3    3    0  502 -0.82480802404E+03  0.10142363221E+04  0.34602761856E+03  0.13523094307E+04  0.46999998093E+01 0. -1.
</event>
<event>
 5   0  0.7217255E-06  0.3074498E+04  0.7818609E-02  0.8222772E-01
        2   -1    0    0  501    0  0.00000000000E+00  0.00000000000E+00  0.21699210279E+04  0.21699210279E+04  0.25500000920E-02 0. -1.
       -2   -1    0    0    0  501  0.00000000000E+00  0.00000000000E+00 -0.10890413840E+04  0.10890413840E+04  0.25500000920E-02 0.  1.
    10030    2    1    2    0    0  0.00000000000E+00  0.00000000000E+00  0.10808796439E+04  0.32589624119E+04  0.30744975521E+04 0.  0.
        1    1    3    3  502    0  0.70813710191E+03  0.81804730556E+03  0.16979630233E+04  0.20133896736E+04  0.50400001928E-02 0. -1.
       -1    1    3    3    0  502 -0.70813710191E+03 -0.81804730556E+03 -0.61708337944E+03  0.12455727383E+04  0.50400001928E-02 0.  1.
</event>
<event>
 5   0  0.7201538E-06  0.2744304E+04  0.7818609E-02  0.8320771E-01
        2   -1    0    0  501    0  0.00000000000E+00  0.00000000000E+00  0.18505309808E+04  0.18505309808E+04  0.25500000920E-02 0.  1.
       -2   -1    0    0    0  501  0.00000000000E+00  0.00000000000E+00 -0.10174384668E+04  0.10174384668E+04  0.25500000920E-02 0. -1.
    10030    2    1    2    0    0  0.00000000000E+00  0.00000000000E+00  0.83309251404E+03  0.28679694476E+04  0.27443042133E+04 0.  0.
        3    1    3    3  502    0  0.12663876074E+04  0.12597147411E+03 -0.11959730189E+03  0.12782448550E+04  0.10100000352E+00 0. -1.
       -3    1    3    3    0  502 -0.12663876074E+04 -0.12597147411E+03  0.95268981593E+03  0.15897245925E+04  0.10100000352E+00 0.  1.
</event>
<event>
 5   0  0.6792811E-06  0.2986503E+04  0.7818609E-02  0.8247596E-01
       -2   -1    0    0    0  501  0.00000000000E+00  0.00000000000E+00  0.14499824109E+04  0.14499824109E+04  0.25500000920E-02 0.  1.
        2   -1    0    0  501    0  0.00000000000E+00  0.00000000000E+00 -0.15378119527E+04  0.15378119527E+04  0.25500000920E-02 0. -1.
    10030    2    1    2    0    0  0.00000000000E+00  0.00000000000E+00 -0.87829541869E+02  0.29877943636E+04  0.29865031610E+04 0.  0.
        2    1    3    3  502    0 -0.40164721248E+02  0.75702192796E+03  0.12431502405E+04  0.14560624728E+04  0.25500000920E-02 0.  1.
       -2    1    3    3    0  502  0.40164721248E+02 -0.75702192796E+03 -0.13309797824E+04  0.15317318908E+04  0.25500000920E-02 0. -1.
</event>
<event>
 5   0  0.2422083E-06  0.2908960E+04  0.7818609E-02  0.8270217E-01
       -1   -1    0    0    0  501  0.00000000000E+00  0.00000000000E+00  0.85852026864E+03  0.85852026865E+03  0.50400001928E-02 0.  1.
        1   -1    0    0  501    0  0.00000000000E+00  0.00000000000E+00 -0.24641376701E+04  0.24641376701E+04  0.50400001928E-02 0. -1.
    10030    2    1    2    0    0  0.00000000000E+00  0.00000000000E+00 -0.16056174014E+04  0.33226579387E+04  0.29089600441E+04 0.  0.
        2    1    3    3  502    0  0.59480274538E+03  0.56977500165E+03  0.56645813638E+03  0.99965427959E+03  0.25500000920E-02 0.  1.
       -2    1    3    3    0  502 -0.59480274538E+03 -0.56977500165E+03 -0.21720755378E+04  0.23230036591E+04  0.25500000920E-02 0. -1.
</event>
<event>
 5   0  0.6780150E-06  0.3014344E+04  0.7818609E-02  0.8239647E-01
        2   -1    0    0  501    0  0.00000000000E+00  0.00000000000E+00  0.18113322356E+04  0.18113322356E+04  0.25500000920E-02 0.  1.
       -2   -1    0    0    0  501  0.00000000000E+00  0.00000000000E+00 -0.12540868170E+04  0.12540868170E+04  0.25500000920E-02 0. -1.
    10030    2    1    2    0    0  0.00000000000E+00  0.00000000000E+00  0.55724541861E+03  0.30654190525E+04  0.30143442921E+04 0.  0.
        5    1    3    3  502    0  0.26374669273E+03  0.14835411751E+04  0.31218265452E+03  0.15388102014E+04  0.46999998093E+01 0.  1.
       -5    1    3    3    0  502 -0.26374669273E+03 -0.14835411751E+04  0.24506276409E+03  0.15266088512E+04  0.46999998093E+01 0. -1.
</event>
<event>
 5   0  0.6780150E-06  0.2814613E+04  0.7818609E-02  0.8298746E-01
       -2   -1    0    0    0  501  0.00000000000E+00  0.00000000000E+00  0.10655916832E+04  0.10655916832E+04  0.25500000920E-02 0.  1.
        2   -1    0    0  501    0  0.00000000000E+00  0.00000000000E+00 -0.18586021438E+04  0.18586021438E+04  0.25500000920E-02 0. -1.
    10030    2    1    2    0    0  0.00000000000E+00  0.00000000000E+00 -0.79301046067E+03  0.29241938270E+04  0.28146125750E+04 0.  0.
        5    1    3    3  502    0 -0.19196636912E+03 -0.76794740871E+03 -0.16053762277E+04  0.17899299517E+04  0.46999998093E+01 0. -1.
       -5    1    3    3    0  502  0.19196636912E+03  0.76794740871E+03  0.81236576705E+03  0.11342638753E+04  0.46999998093E+01 0.  1.
</event>
<event>
 5   0  0.7217255E-06  0.2966251E+04  0.7818609E-02  0.8253434E-01
       -2   -1    0    0    0  501  0.00000000000E+00  0.00000000000E+00  0.22360902579E+04  0.22360902579E+04  0.25500000920E-02 0. -1.
        2   -1    0    0  501    0  0.00000000000E+00  0.00000000000E+00 -0.98370855765E+03  0.98370855765E+03  0.25500000920E-02 0.  1.
    10030    2    1    2    0    0  0.00000000000E+00  0.00000000000E+00  0.12523817002E+04  0.32197988156E+04  0.29662509148E+04 0.  0.
        1    1    3    3  502    0 -0.72078900834E+03 -0.10128907006E+04 -0.25175636527E+03  0.12684106722E+04  0.50400001928E-02 0.  1.
       -1    1    3    3    0  502  0.72078900834E+03  0.10128907006E+04  0.15041380655E+04  0.19513881434E+04  0.50400001928E-02 0. -1.
</event>
<event>
 5   0  0.7193153E-06  0.2964797E+04  0.7818609E-02  0.8253855E-01
       -2   -1    0    0    0  501  0.00000000000E+00  0.00000000000E+00  0.11132048097E+04  0.11132048097E+04  0.25500000920E-02 0. -1.
        2   -1    0    0  501    0  0.00000000000E+00  0.00000000000E+00 -0.19740352562E+04  0.19740352562E+04  0.25500000920E-02 0.  1.
    10030    2    1    2    0    0  0.00000000000E+00  0.00000000000E+00 -0.86083044645E+03  0.30872400659E+04  0.29647971544E+04 0.  0.
        4    1    3    3  502    0  0.26046745974E+03 -0.10168387261E+04 -0.15204018648E+04  0.18475464096E+04  0.12699999809E+01 0.  1.
       -4    1    3    3    0  502 -0.26046745974E+03  0.10168387261E+04  0.65957141833E+03  0.12396936562E+04  0.12699999809E+01 0. -1.
</event>
<event>
 5   0  0.2422083E-06  0.2986861E+04  0.7818609E-02  0.8247493E-01
       -1   -1    0    0    0  501  0.00000000000E+00  0.00000000000E+00  0.11388937056E+04  0.11388937056E+04  0.50400001928E-02 0. -1.
        1   -1    0    0  501    0  0.00000000000E+00  0.00000000000E+00 -0.19583345229E+04  0.19583345230E+04  0.50400001928E-02 0.  1.
    10030    2    1    2    0    0  0.00000000000E+00  0.00000000000E+00 -0.81944081737E+03  0.30972282285E+04  0.29868611361E+04 0.  0.
        2    1    3    3  502    0  0.56995610512E+02 -0.67095350899E+03 -0.17919832003E+04  0.19143225698E+04  0.25500000920E-02 0.  1.
       -2    1    3    3    0  502 -0.56995610512E+02  0.67095350899E+03  0.97254238298E+03  0.11829056588E+04  0.25500000920E-02 0. -1.
</event>
<event>
 5   0  0.2422083E-06  0.3062310E+04  0.7818609E-02  0.8226158E-01
        1   -1    0    0  501    0  0.00000000000E+00  0.00000000000E+00  0.20188433635E+04  0.20188433635E+04  0.50400001928E-02 0. -1.
       -1   -1    0    0    0  501  0.00000000000E+00  0.00000000000E+00 -0.11612767356E+04  0.11612767356E+04  0.50400001928E-02 0.  1.
    10030    2    1    2    0    0  0.00000000000E+00  0.00000000000E+00  0.85756662790E+03  0.31801200991E+04  0.30623101285E+04 0.  0.
        2    1    3    3  502    0 -0.50506234795E+03  0.27611638330E+03  0.19022076712E+04  0.19873908164E+04  0.25500000920E-02 0. -1.
       -2    1    3    3    0  502  0.50506234795E+03 -0.27611638330E+03 -0.10446410433E+04  0.11927292827E+04  0.25500000920E-02 0.  1.
</event>
<event>
 5   0  0.6780150E-06  0.2342555E+04  0.7818609E-02  0.8461329E-01
       -2   -1    0    0    0  501  0.00000000000E+00  0.00000000000E+00  0.76889768418E+03  0.76889768418E+03  0.25500000920E-02 0.  1.
        2   -1    0    0  501    0  0.00000000000E+00  0.00000000000E+00 -0.17842314816E+04  0.17842314816E+04  0.25500000920E-02 0. -1.
    10030    2    1    2    0    0  0.00000000000E+00  0.00000000000E+00 -0.10153337974E+04  0.25531291658E+04  0.23425554032E+04 0.  0.
        5    1    3    3  502    0  0.14737629775E+03  0.79573497367E+03 -0.14305123986E+04  0.16435637298E+04  0.46999998093E+01 0. -1.
       -5    1    3    3    0  502 -0.14737629775E+03 -0.79573497367E+03  0.41517860116E+03  0.90956543597E+03  0.46999998093E+01 0.  1.
</event>
<event>
 5   0  0.7201538E-06  0.2962811E+04  0.7818609E-02  0.8254431E-01
        2   -1    0    0  501    0  0.00000000000E+00  0.00000000000E+00  0.15097139272E+04  0.15097139272E+04  0.25500000920E-02 0.  1.
       -2   -1    0    0    0  501  0.00000000000E+00  0.00000000000E+00 -0.14536282335E+04  0.14536282335E+04  0.25500000920E-02 0. -1.
    10030    2    1    2    0    0  0.00000000000E+00  0.00000000000E+00  0.56085693732E+02  0.29633421607E+04  0.29628113603E+04 0.  0.
        3    1    3    3  502    0  0.68283164411E+03  0.95976615698E+03 -0.87053485391E+03  0.14646641500E+04  0.10100000352E+00 0. -1.
       -3    1    3    3    0  502 -0.68283164411E+03 -0.95976615698E+03  0.92662054765E+03  0.14986780107E+04  0.10100000352E+00 0.  1.
</event>
<event>
 5   0  0.2422083E-06  0.2153960E+04  0.7818609E-02  0.8537839E-01
       -1   -1    0    0    0  501  0.00000000000E+00  0.00000000000E+00  0.12004919978E+04  0.12004919978E+04  0.50400001928E-02 0.  1.
        1   -1    0    0  501    0  0.00000000000E+00  0.00000000000E+00 -0.96617559386E+03  0.96617559387E+03  0.50400001928E-02 0. -1.
    10030    2    1    2    0    0  0.00000000000E+00  0.00000000000E+00  0.23431640397E+03  0.21666675917E+04  0.21539601379E+04 0.  0.
        2    1    3    3  502    0 -0.53312816785E+03 -0.68476917022E+03 -0.52437518843E+03  0.10139545345E+04  0.25500000920E-02 0. -1.
       -2    1    3    3    0  502  0.53312816785E+03  0.68476917022E+03  0.75869159240E+03  0.11527130572E+04  0.25500000920E-02 0.  1.
</event>
<event>
 5   0  0.7193153E-06  0.3006840E+04  0.7818609E-02  0.8241780E-01
       -2   -1    0    0    0  501  0.00000000000E+00  0.00000000000E+00  0.14219183419E+04  0.14219183419E+04  0.25500000920E-02 0. -1.
        2   -1    0    0  501    0  0.00000000000E+00  0.00000000000E+00 -0.15895935721E+04  0.15895935721E+04  0.25500000920E-02 0.  1.
    10030    2    1    2    0    0  0.00000000000E+00  0.00000000000E+00 -0.16767523027E+03  0.30115119140E+04  0.30068403724E+04 0.  0.
        4    1    3    3  502    0  0.68085939373E+02 -0.18373699629E+03  0.14090739726E+04  0.14226334918E+04  0.12699999809E+01 0. -1.
       -4    1    3    3    0  502 -0.68085939373E+02  0.18373699629E+03 -0.15767492028E+04  0.15888784222E+04  0.12699999809E+01 0.  1.
</event>
<event>
 5   0  0.2504260E-06  0.2896824E+04  0.7818609E-02  0.8273823E-01
       -1   -1    0    0    0  501  0.00000000000E+00  0.00000000000E+00  0.11879938132E+04  0.11879938132E+04  0.50400001928E-02 0.  1.
        1   -1    0    0  501    0  0.00000000000E+00  0.00000000000E+00 -0.17659155920E+04  0.17659155920E+04  0.50400001928E-02 0. -1.
    10030    2    1    2    0    0  0.00000000000E+00  0.00000000000E+00 -0.57792177888E+03  0.29539094052E+04  0.28968236384E+04 0.  0.
        4    1    3    3  502    0  0.54127824240E+02 -0.20676858620E+03  0.11718239047E+04  0.11911573977E+04  0.12699999809E+01 0.  1.
       -4    1    3    3    0  502 -0.54127824240E+02  0.20676858620E+03 -0.17497456836E+04  0.17627520075E+04  0.12699999809E+01 0. -1.
</event>
<event>
 5   0  0.2552990E-06  0.2984525E+04  0.7818609E-02  0.8248164E-01
       -1   -1    0    0    0  501  0.00000000000E+00  0.00000000000E+00  0.13303788893E+04  0.13303788893E+04  0.50400001928E-02 0. -1.
        1   -1    0    0  501    0  0.00000000000E+00  0.00000000000E+00 -0.16738443659E+04  0.16738443659E+04  0.50400001928E-02 0.  1.
    10030    2    1    2    0    0  0.00000000000E+00  0.00000000000E+00 -0.34346547660E+03  0.30042232553E+04  0.29845248925E+04 0.  0.
        3    1    3    3  502    0 -0.37631542825E+02  0.42977978885E+03  0.12662337034E+04  0.13377124511E+04  0.10100000352E+00 0. -1.
       -3    1    3    3    0  502  0.37631542825E+02 -0.42977978885E+03 -0.16096991800E+04  0.16665108042E+04  0.10100000352E+00 0.  1.
</event>
<event>
 5   0  0.7201538E-06  0.2924179E+04  0.7818609E-02  0.8265720E-01
       -2   -1    0    0    0  501  0.00000000000E+00  0.00000000000E+00  0.14577682890E+04  0.14577682890E+04  0.25500000920E-02 0.  1.
        2   -1    0    0  501    0  0.00000000000E+00  0.00000000000E+00 -0.14664236900E+04  0.14664236900E+04  0.25500000920E-02 0. -1.
    10030    2    1    2    0    0  0.00000000000E+00  0.00000000000E+00 -0.86554009905E+01  0.29241919790E+04  0.29241791693E+04 0.  0.
        3    1    3    3  502    0  0.12501157313E+04  0.21390040841E+02 -0.76226180105E+03  0.14643394207E+04  0.10100000352E+00 0. -1.
       -3    1    3    3    0  502 -0.12501157313E+04 -0.21390040841E+02  0.75360640006E+03  0.14598525583E+04  0.10100000352E+00 0.  1.
</event>
<event>
 5   0  0.2422083E-06  0.3049982E+04  0.7818609E-02  0.8229601E-01
       -1   -1    0    0    0  501  0.00000000000E+00  0.00000000000E+00  0.92214872582E+03  0.92214872583E+03  0.50400001928E-02 0. -1.
        1   -1    0    0  501    0  0.00000000000E+00  0.00000000000E+00 -0.25219324926E+04  0.25219324926E+04  0.50400001928E-02 0.  1.
    10030    2    1    2    0    0  0.00000000000E+00  0.00000000000E+00 -0.15997837668E+04  0.34440812184E+04  0.30499815309E+04 0.  0.
        2    1    3    3  502    0 -0.94745314266E+03  0.66582499566E+03  0.32059690072E+03  0.12015709530E+04  0.25500000920E-02 0. -1.
       -2    1    3    3    0  502  0.94745314266E+03 -0.66582499566E+03 -0.19203806675E+04  0.22425102654E+04  0.25500000920E-02 0.  1.
</event>
<event>
 5   0  0.7217255E-06  0.2994711E+04  0.7818609E-02  0.8245243E-01
       -2   -1    0    0    0  501  0.00000000000E+00  0.00000000000E+00  0.10492827371E+04  0.10492827371E+04  0.25500000920E-02 0.  1.
        2   -1    0    0  501    0  0.00000000000E+00  0.00000000000E+00 -0.21367682185E+04  0.21367682185E+04  0.25500000920E-02 0. -1.
    10030    2    1    2    0    0  0.00000000000E+00  0.00000000000E+00 -0.10874854814E+04  0.31860509557E+04  0.29947113417E+04 0.  0.
        1    1    3    3  502    0  0.10516808721E+04 -0.10589150033E+04 -0.67290982457E+03  0.16371137019E+04  0.50400001928E-02 0. -1.
       -1    1    3    3    0  502 -0.10516808721E+04  0.10589150033E+04 -0.41457565683E+03  0.15489372538E+04  0.50400001928E-02 0.  1.
</event>
<event>
 5   0  0.7201538E-06  0.3011548E+04  0.7818609E-02  0.8240441E-01
        2   -1    0    0  501    0  0.00000000000E+00  0.00000000000E+00  0.26051002028E+04  0.26051002028E+04  0.25500000920E-02 0.  1.
       -2   -1    0    0    0  501  0.00000000000E+00  0.00000000000E+00 -0.87035258834E+03  0.87035258834E+03  0.25500000920E-02 0. -1.
    10030    2    1    2    0    0  0.00000000000E+00  0.00000000000E+00  0.17347476145E+04  0.34754527912E+04  0.30115482426E+04 0.  0.
        3    1    3    3  502    0 -0.12938941253E+04  0.75333812605E+03  0.10522920655E+04  0.18300270328E+04  0.10100000352E+00 0. -1.
       -3    1    3    3    0  502  0.12938941253E+04 -0.75333812605E+03  0.68245554897E+03  0.16454257583E+04  0.10100000352E+00 0.  1.
</event>
<event>
 5   0  0.2628425E-06  0.3113566E+04  0.7818609E-02  0.8212025E-01
       -1   -1    0    0    0  501  0.00000000000E+00  0.00000000000E+00  0.14792046072E+04  0.14792046072E+04  0.50400001928E-02 0. -1.
        1   -1    0    0  501    0  0.00000000000E+00  0.00000000000E+00 -0.16384297590E+04  0.16384297590E+04  0.50400001928E-02 0.  1.
    10030    2    1    2    0    0  0.00000000000E+00  0.00000000000E+00 -0.15922515173E+03  0.31176343662E+04  0.31135657039E+04 0.  0.
        1    1    3    3  502    0 -0.25279008343E+03 -0.12441124166E+03 -0.16126887086E+04  0.16371151011E+04  0.50400001928E-02 0.  1.
       -1    1    3    3    0  502  0.25279008343E+03  0.12441124166E+03  0.14534635569E+04  0.14805192651E+04  0.50400001928E-02 0. -1.
</event>
<event>
 5   0  0.2628425E-06  0.2986592E+04  0.7818609E-02  0.8247570E-01
        1   -1    0    0  501    0  0.00000000000E+00  0.00000000000E+00  0.13081107911E+04  0.13081107911E+04  0.50400001928E-02 0. -1.
       -1   -1    0    0    0  501  0.00000000000E+00  0.00000000000E+00 -0.17046971875E+04  0.17046971875E+04  0.50400001928E-02 0.  1.
    10030    2    1    2    0    0  0.00000000000E+00  0.00000000000E+00 -0.39658639641E+03  0.30128079786E+04  0.29865918948E+04 0.  0.
        1    1    3    3  502    0  0.47193782272E+03  0.12411599018E+04 -0.88746616210E+03  0.15971222243E+04  0.50400001928E-02 0.  1.
       -1    1    3    3    0  502 -0.47193782272E+03 -0.12411599018E+04  0.49087976569E+03  0.14156857543E+04  0.50400001928E-02 0. -1.
</event>
<event>
 5   0  0.7217255E-06  0.3018185E+04  0.7818609E-02  0.8238557E-01
       -2   -1    0    0    0  501  0.00000000000E+00  0.00000000000E+00  0.81553309719E+03  0.81553309719E+03  0.25500000920E-02 0. -1.
        2   -1    0    0  501    0  0.00000000000E+00  0.00000000000E+00 -0.27924794604E+04  0.27924794604E+04  0.25500000920E-02 0.  1.
    10030    2    1    2    0    0  0.00000000000E+00  0.00000000000E+00 -0.19769463632E+04  0.36080125576E+04  0.30181845027E+04 0.  0.
        1    1    3    3  502    0 -0.87356528248E+03 -0.10184286490E+04 -0.16281083543E+03  0.13515992690E+04  0.50400001928E-02 0. -1.
       -1    1    3    3    0  502  0.87356528248E+03  0.10184286490E+04 -0.18141355277E+04  0.22564132886E+04  0.50400001928E-02 0.  1.
</event>
<event>
 5   0  0.2422083E-06  0.3013893E+04  0.7818609E-02  0.8239775E-01
        1   -1    0    0  501    0  0.00000000000E+00  0.00000000000E+00  0.19818482481E+04  0.19818482481E+04  0.50400001928E-02 0.  1.
       -1   -1    0    0    0  501  0.00000000000E+00  0.00000000000E+00 -0.11458431368E+04  0.11458431368E+04  0.50400001928E-02 0. -1.
    10030    2    1    2    0    0  0.00000000000E+00  0.00000000000E+00  0.83600511136E+03  0.31276913849E+04  0.30138926413E+04 0.  0.
        2    1    3    3  502    0 -0.45108628799E+02  0.83336093140E+03 -0.88410965859E+03  0.12158022532E+04  0.25500000920E-02 0. -1.
       -2    1    3    3    0  502  0.45108628799E+02 -0.83336093140E+03  0.17201147700E+04  0.19118891318E+04  0.25500000920E-02 0.  1.
</event>
<event>
 5   0  0.2628425E-06  0.3000514E+04  0.7818609E-02  0.8243584E-01
       -1   -1    0    0    0  501  0.00000000000E+00  0.00000000000E+00  0.14722552128E+04  0.14722552128E+04  0.50400001928E-02 0. -1.
        1   -1    0    0  501    0  0.00000000000E+00  0.00000000000E+00 -0.15287911053E+04  0.15287911053E+04  0.50400001928E-02 0.  1.
    10030    2    1    2    0    0  0.00000000000E+00  0.00000000000E+00 -0.56535892491E+02  0.30010463182E+04  0.30005137388E+04 0.  0.
        1    1    3    3  502    0 -0.12610806469E+04 -0.60466397748E+03  0.51480886344E+03  0.14902922833E+04  0.50400001928E-02 0. -1.
       -1    1    3    3    0  502  0.12610806469E+04  0.60466397748E+03 -0.57134475593E+03  0.15107540349E+04  0.50400001928E-02 0.  1.
</event>
<event>
 5   0  0.7201538E-06  0.3021996E+04  0.7818609E-02  0.8237478E-01
       -2   -1    0    0    0  501  0.00000000000E+00  0.00000000000E+00  0.11174896134E+04  0.11174896134E+04  0.25500000920E-02 0. -1.
        2   -1    0    0  501    0  0.00000000000E+00  0.00000000000E+00 -0.20430750083E+04  0.20430750083E+04  0.25500000920E-02 0.  1.
    10030    2    1    2    0    0  0.00000000000E+00  0.00000000000E+00 -0.92558539492E+03  0.31605646217E+04  0.30219960961E+04 0.  0.
        3    1    3    3  502    0 -0.13183472337E+04  0.63052040473E+03 -0.61098314733E+02  0.14626443257E+04  0.10100000352E+00 0. -1.
       -3    1    3    3    0  502  0.13183472337E+04 -0.63052040473E+03 -0.86448708019E+03  0.16979202959E+04  0.10100000352E+00 0.  1.
</event>
<event>
 5   0  0.2504260E-06  0.3002243E+04  0.7818609E-02  0.8243091E-01
       -1   -1    0    0    0  501  0.00000000000E+00  0.00000000000E+00  0.15145826312E+04  0.15145826312E+04  0.50400001928E-02 0.  1.
        1   -1    0    0  501    0  0.00000000000E+00  0.00000000000E+00 -0.14877801575E+04  0.14877801575E+04  0.50400001928E-02 0. -1.
    10030    2    1    2    0    0  0.00000000000E+00  0.00000000000E+00  0.26802473728E+02  0.30023627886E+04  0.30022431517E+04 0.  0.
        4    1    3    3  502    0 -0.14899587587E+04 -0.18146380275E+03 -0.80042454267E+01  0.15009903049E+04  0.12699999809E+01 0. -1.
       -4    1    3    3    0  502  0.14899587587E+04  0.18146380275E+03  0.34806719154E+02  0.15013724838E+04  0.12699999809E+01 0.  1.
</event>
<event>
 5   0  0.2628425E-06  0.2923521E+04  0.7818609E-02  0.8265914E-01
        1   -1    0    0  501    0  0.00000000000E+00  0.00000000000E+00  0.35030018707E+04  0.35030018707E+04  0.50400001928E-02 0. -1.
       -1   -1    0    0    0  501  0.00000000000E+00  0.00000000000E+00 -0.60997502089E+03  0.60997502091E+03  0.50400001928E-02 0.  1.
    10030    2    1    2    0    0  0.00000000000E+00  0.00000000000E+00  0.28930268498E+04  0.41129768916E+04  0.29235209178E+04 0.  0.
        1    1    3    3  502    0  0.37830249208E+03  0.18540091165E+03  0.34157405438E+04  0.34416231253E+04  0.50400001928E-02 0. -1.
       -1    1    3    3    0  502 -0.37830249208E+03 -0.18540091165E+03 -0.52271369406E+03  0.67135376631E+03  0.50400001928E-02 0.  1.
</event>
<event>
 5   0  0.2504260E-06  0.2990977E+04  0.7818609E-02  0.8246312E-01
        1   -1    0    0  501    0  0.00000000000E+00  0.00000000000E+00  0.17612130230E+04  0.17612130230E+04  0.50400001928E-02 0.  1.
       -1   -1    0    0    0  501  0.00000000000E+00  0.00000000000E+00 -0.12698554557E+04  0.12698554557E+04  0.50400001928E-02 0. -1.
    10030    2    1    2    0    0  0.00000000000E+00  0.00000000000E+00  0.49135756735E+03  0.30310684787E+04  0.29909770751E+04 0.  0.
        4    1    3    3  502    0 -0.14433623745E+04  0.39063003194E+03  0.27045205130E+03  0.15195501607E+04  0.12699999809E+01 0.  1.
       -4    1    3    3    0  502  0.14433623745E+04 -0.39063003194E+03  0.22090551605E+03  0.15115183180E+04  0.12699999809E+01 0. -1.
</event>
<event>
 5   0  0.6792811E-06  0.3095469E+04  0.7818609E-02  0.8216983E-01
       -2   -1    0    0    0  501  0.00000000000E+00  0.00000000000E+00  0.15182683074E+04  0.15182683074E+04  0.25500000920E-02 0.  1.
        2   -1    0    0  501    0  0.00000000000E+00  0.00000000000E+00 -0.15777720606E+04  0.15777720606E+04  0.25500000920E-02 0. -1.
    10030    2    1    2    0    0  0.00000000000E+00  0.00000000000E+00 -0.59503753165E+02  0.30960403680E+04  0.30954685047E+04 0.  0.
        2    1    3    3  502    0 -0.96309130345E+03 -0.14773100403E+03 -0.12325180103E+04  0.15711365167E+04  0.25500000920E-02 0. -1.
       -2    1    3    3    0  502  0.96309130345E+03  0.14773100403E+03  0.11730142571E+04  0.15249038513E+04  0.25500000920E-02 0.  1.
</event>
<event>
 5   0  0.7193153E-06  0.2998073E+04  0.7818609E-02  0.8244281E-01
        2   -1    0    0  501    0  0.00000000000E+00  0.00000000000E+00  0.20814547243E+04  0.20814547243E+04  0.25500000920E-02 0.  1.
       -2   -1    0    0    0  501  0.00000000000E+00  0.00000000000E+00 -0.10795866591E+04  0.10795866591E+04  0.25500000920E-02 0. -1.
    10030    2    1    2    0    0  0.00000000000E+00  0.00000000000E+00  0.10018680651E+04  0.31610413834E+04  0.29980732158E+04 0.  0.
        4    1    3    3  502    0 -0.53808113156E+03  0.74770097187E+03  0.17478077115E+04  0.19757078369E+04  0.12699999809E+01 0.  1.
       -4    1    3    3    0  502  0.53808113156E+03 -0.74770097187E+03 -0.74593964638E+03  0.11853335465E+04  0.12699999809E+01 0. -1.
</event>
<event>
 5   0  0.7201538E-06  0.2939415E+04  0.7818609E-02  0.8261246E-01
        2   -1    0    0  501    0  0.00000000000E+00  0.00000000000E+00  0.18078412516E+04  0.18078412516E+04  0.25500000920E-02 0. -1.
       -2   -1    0    0    0  501  0.00000000000E+00  0.00000000000E+00 -0.11948175696E+04  0.11948175696E+04  0.25500000920E-02 0.  1.
    10030    2    1    2    0    0  0.00000000000E+00  0.00000000000E+00  0.61302368197E+03  0.30026588212E+04  0.29394152415E+04 0.  0.
        3    1    3    3  502    0  0.10211527560E+04 -0.76506070093E+03 -0.43854340230E+03  0.13492187195E+04  0.10100000352E+00 0.  1.
       -3    1    3    3    0  502 -0.10211527560E+04  0.76506070093E+03  0.10515670843E+04  0.16534401017E+04  0.10100000352E+00 0. -1.
</event>
<event>
 5   0  0.2552990E-06  0.2214266E+04  0.7818609E-02  0.8512514E-01
       -1   -1    0    0    0  501  0.00000000000E+00  0.00000000000E+00  0.93309209889E+03  0.93309209890E+03  0.50400001928E-02 0.  1.
        1   -1    0    0  501    0  0.00000000000E+00  0.00000000000E+00 -0.13136363594E+04  0.13136363595E+04  0.50400001928E-02 0. -1.
    10030    2    1    2    0    0  0.00000000000E+00  0.00000000000E+00 -0.38054426055E+03  0.22467284584E+04  0.22142662061E+04 0.  0.
        3    1    3    3  502    0  0.82931884139E+03 -0.39691628036E+03 -0.81610583041E+03  0.12293661013E+04  0.10100000352E+00 0.  1.
       -3    1    3    3    0  502 -0.82931884139E+03  0.39691628036E+03  0.43556156985E+03  0.10173623571E+04  0.10100000352E+00 0. -1.
</event>
<event>
 5   0  0.6780150E-06  0.2553713E+04  0.7818609E-02  0.8384096E-01
       -2   -1    0    0    0  501  0.00000000000E+00  0.00000000000E+00  0.11493232506E+04  0.11493232506E+04  0.25500000920E-02 0.  1.
        2   -1    0    0  501    0  0.00000000000E+00  0.00000000000E+00 -0.14185415662E+04  0.14185415662E+04  0.25500000920E-02 0. -1.
    10030    2    1    2    0    0  0.00000000000E+00  0.00000000000E+00 -0.26921831561E+03  0.25678648167E+04  0.25537132211E+04 0.  0.
        5    1    3    3  502    0 -0.81694667980E+03 -0.11910444107E+03 -0.11140463824E+04  0.13866178917E+04  0.46999998093E+01 0. -1.
       -5    1    3    3    0  502  0.81694667980E+03  0.11910444107E+03  0.84482806676E+03  0.11812469250E+04  0.46999998093E+01 0.  1.
</event>
<event>
 5   0  0.6792811E-06  0.2996915E+04  0.7818609E-02  0.8244612E-01
        2   -1    0    0  501    0  0.00000000000E+00  0.00000000000E+00  0.96455880840E+03  0.96455880840E+03  0.25500000920E-02 0.  1.
       -2   -1    0    0    0  501  0.00000000000E+00  0.00000000000E+00 -0.23278778957E+04  0.23278778957E+04  0.25500000920E-02 0. -1.
    10030    2    1    2    0    0  0.00000000000E+00  0.00000000000E+00 -0.13633190873E+04  0.32924367041E+04  0.29969151667E+04 0.  0.
        2    1    3    3  502    0  0.65467254673E+03 -0.97091182222E+03 -0.17087905399E+04  0.20715286672E+04  0.25500000920E-02 0. -1.
       -2    1    3    3    0  502 -0.65467254673E+03  0.97091182222E+03  0.34547145257E+03  0.12209080369E+04  0.25500000920E-02 0.  1.
</event>
<event>
 5   0  0.2552990E-06  0.2996037E+04  0.7818609E-02  0.8244863E-01
       -1   -1    0    0    0  501  0.00000000000E+00  0.00000000000E+00  0.18674380792E+04  0.18674380792E+04  0.50400001928E-02 0. -1.
        1   -1    0    0  501    0  0.00000000000E+00  0.00000000000E+00 -0.12016780339E+04  0.12016780340E+04  0.50400001928E-02 0.  1.
    10030    2    1    2    0    0  0.00000000000E+00  0.00000000000E+00  0.66576004527E+03  0.30691161132E+04  0.29960369287E+04 0.  0.
        3    1    3    3  502    0  0.12488218531E+03  0.14219492015E+04 -0.13265423992E+03  0.14335732452E+04  0.10100000352E+00 0.  1.
       -3    1    3    3    0  502 -0.12488218531E+03 -0.14219492015E+04  0.79841428519E+03  0.16355428679E+04  0.10100000352E+00 0. -1.
</event>
<event>
 5   0  0.6780150E-06  0.2410146E+04  0.7818609E-02  0.8435715E-01
       -2   -1    0    0    0  501  0.00000000000E+00  0.00000000000E+00  0.10843011754E+04  0.10843011754E+04  0.25500000920E-02 0. -1.
        2   -1    0    0  501    0  0.00000000000E+00  0.00000000000E+00 -0.13392963485E+04  0.13392963485E+04  0.25500000920E-02 0.  1.
    10030    2    1    2    0    0  0.00000000000E+00  0.00000000000E+00 -0.25499517306E+03  0.24235975239E+04  0.24101457258E+04 0.  0.
        5    1    3    3  502    0 -0.68500821233E+03  0.93680223579E+03 -0.45387625026E+03  0.12461382028E+04  0.46999998093E+01 0.  1.
       -5    1    3    3    0  502  0.68500821233E+03 -0.93680223579E+03  0.19888107720E+03  0.11774593211E+04  0.46999998093E+01 0. -1.
</event>
<event>
 5   0  0.2298500E-06  0.3130141E+04  0.7818609E-02  0.8207514E-01
        3   -1    0    0  501    0  0.00000000000E+00  0.00000000000E+00  0.12487199450E+04  0.12487199491E+04  0.10100000352E+00 0.  1.
       -3   -1    0    0    0  501  0.00000000000E+00  0.00000000000E+00 -0.19615648061E+04  0.19615648087E+04  0.10100000352E+00 0. -1.
    10030    2    1    2    0    0  0.00000000000E+00  0.00000000000E+00 -0.71284486109E+03  0.32102847578E+04  0.31301406407E+04 0.  0.
        1    1    3    3  502    0  0.39486161233E+02  0.15644419313E+04 -0.37712322891E+03  0.16097389985E+04  0.50400001928E-02 0. -1.
       -1    1    3    3    0  502 -0.39486161233E+02 -0.15644419313E+04 -0.33572163218E+03  0.16005457593E+04  0.50400001928E-02 0.  1.
</event>
<event>
 5   0  0.6780150E-06  0.2976222E+04  0.7818609E-02  0.8250554E-01
        2   -1    0    0  501    0  0.00000000000E+00  0.00000000000E+00  0.10336914571E+04  0.10336914571E+04  0.25500000920E-02 0. -1.
       -2   -1    0    0    0  501  0.00000000000E+00  0.00000000000E+00 -0.21422974877E+04  0.21422974877E+04  0.25500000920E-02 0.  1.
    10030    2    1    2    0    0  0.00000000000E+00  0.00000000000E+00 -0.11086060306E+04  0.31759889448E+04  0.29762221769E+04 0.  0.
        5    1    3    3  502    0 -0.11492687937E+04 -0.68415117117E+03  0.14184183384E+03  0.13449991751E+04  0.46999998093E+01 0. -1.
       -5    1    3    3    0  502  0.11492687937E+04  0.68415117117E+03 -0.12504478645E+04  0.18309897697E+04  0.46999998093E+01 0.  1.
</event>
<event>
 5   0  0.7217255E-06  0.2631599E+04  0.7818609E-02  0.8357546E-01
       -2   -1    0    0    0  501  0.00000000000E+00  0.00000000000E+00  0.13279130205E+04  0.13279130205E+04  0.25500000920E-02 0.  1.
        2   -1    0    0  501    0  0.00000000000E+00  0.00000000000E+00 -0.13037960563E+04  0.13037960563E+04  0.25500000920E-02 0. -1.
    10030    2    1    2    0    0  0.00000000000E+00  0.00000000000E+00  0.24116964202E+02  0.26317090769E+04  0.26315985707E+04 0.  0.
        1    1    3    3  502    0  0.80754179932E+02  0.87524812776E+03  0.99125598913E+03  0.13248278978E+04  0.50400001928E-02 0.  1.
       -1    1    3    3    0  502 -0.80754179932E+02 -0.87524812776E+03 -0.96713902493E+03  0.13068811791E+04  0.50400001928E-02 0. -1.
</event>
<event>
 5   0  0.7193153E-06  0.3003446E+04  0.7818609E-02  0.8242748E-01
        2   -1    0    0  501    0  0.00000000000E+00  0.00000000000E+00  0.29447527509E+04  0.29447527509E+04  0.25500000920E-02 0.  1.
       -2   -1    0    0    0  501  0.00000000000E+00  0.00000000000E+00 -0.76582705555E+03  0.76582705555E+03  0.25500000920E-02 0. -1.
    10030    2    1    2    0    0  0.00000000000E+00  0.00000000000E+00  0.21789256954E+04  0.37105798065E+04  0.30034455737E+04 0.  0.
        4    1    3    3  502    0 -0.64850884806E+03  0.12888665890E+04  0.16039597353E+04  0.21574126299E+04  0.12699999809E+01 0.  1.
       -4    1    3    3    0  502  0.64850884806E+03 -0.12888665890E+04  0.57496596011E+03  0.15531671766E+04  0.12699999809E+01 0. -1.
</event>
<event>
 5   0  0.2552990E-06  0.3010404E+04  0.7818609E-02  0.8240766E-01
       -1   -1    0    0    0  501  0.00000000000E+00  0.00000000000E+00  0.83705586727E+03  0.83705586729E+03  0.50400001928E-02 0. -1.
        1   -1    0    0  501    0  0.00000000000E+00  0.00000000000E+00 -0.27066680008E+04  0.27066680008E+04  0.50400001928E-02 0.  1.
    10030    2    1    2    0    0  0.00000000000E+00  0.00000000000E+00 -0.18696121335E+04  0.35437238681E+04  0.30104035150E+04 0.  0.
        3    1    3    3  502    0 -0.51637649915E+03 -0.10097384925E+04 -0.20997867280E+04  0.23864871308E+04  0.10100000352E+00 0.  1.
       -3    1    3    3    0  502  0.51637649915E+03  0.10097384925E+04  0.23017459446E+03  0.11572367373E+04  0.10100000352E+00 0. -1.
</event>
<event>
 5   0  0.2504260E-06  0.2171777E+04  0.7818609E-02  0.8530268E-01
        1   -1    0    0  501    0  0.00000000000E+00  0.00000000000E+00  0.80962081336E+03  0.80962081338E+03  0.50400001928E-02 0.  1.
       -1   -1    0    0    0  501  0.00000000000E+00  0.00000000000E+00 -0.14564272406E+04  0.14564272406E+04  0.50400001928E-02 0. -1.
    10030    2    1    2    0    0  0.00000000000E+00  0.00000000000E+00 -0.64680642722E+03  0.22660480540E+04  0.21717769749E+04 0.  0.
        4    1    3    3  502    0 -0.56413236122E+03  0.67989905201E+02 -0.12889267564E+04  0.14086169616E+04  0.12699999809E+01 0. -1.
       -4    1    3    3    0  502  0.56413236122E+03 -0.67989905201E+02  0.64212032916E+03  0.85743109240E+03  0.12699999809E+01 0.  1.
</event>
<event>
 5   0  0.7217255E-06  0.2973585E+04  0.7818609E-02  0.8251314E-01
        2   -1    0    0  501    0  0.00000000000E+00  0.00000000000E+00  0.13986813236E+04  0.13986813236E+04  0.25500000920E-02 0.  1.
       -2   -1    0    0    0  501  0.00000000000E+00  0.00000000000E+00 -0.15804539698E+04  0.15804539698E+04  0.25500000920E-02 0. -1.
    10030    2    1    2    0    0  0.00000000000E+00  0.00000000000E+00 -0.18177264613E+03  0.29791352934E+04  0.29735846720E+04 0.  0.
        1    1    3    3  502    0  0.55287712284E+03 -0.84776622731E+03 -0.11820339800E+04  0.15561442797E+04  0.50400001928E-02 0. -1.
       -1    1    3    3    0  502 -0.55287712284E+03  0.84776622731E+03  0.10002613339E+04  0.14229910138E+04  0.50400001928E-02 0.  1.
</event>
<event>
 5   0  0.2628425E-06  0.3019020E+04  0.7818609E-02  0.8238320E-01
       -1   -1    0    0    0  501  0.00000000000E+00  0.00000000000E+00  0.14396098607E+04  0.14396098607E+04  0.50400001928E-02 0. -1.
        1   -1    0    0  501    0  0.00000000000E+00  0.00000000000E+00 -0.15828041154E+04  0.15828041154E+04  0.50400001928E-02 0.  1.
    10030    2    1    2    0    0  0.00000000000E+00  0.00000000000E+00 -0.14319425477E+03  0.30224139761E+04  0.30190199814E+04 0.  0.
        1    1    3    3  502    0 -0.68301534627E+03 -0.13196354882E+02  0.12759979778E+04  0.14473613738E+04  0.50400001928E-02 0. -1.
       -1    1    3    3    0  502  0.68301534627E+03  0.13196354882E+02 -0.14191922326E+04  0.15750526023E+04  0.50400001928E-02 0.  1.
</event>
<event>
 5   0  0.7193153E-06  0.2906102E+04  0.7818609E-02  0.8271064E-01
        2   -1    0    0  501    0  0.00000000000E+00  0.00000000000E+00  0.20548569037E+04  0.20548569037E+04  0.25500000920E-02 0. -1.
       -2   -1    0    0    0  501  0.00000000000E+00  0.00000000000E+00 -0.10274961147E+04  0.10274961147E+04  0.25500000920E-02 0.  1.
    10030    2    1    2    0    0  0.00000000000E+00  0.00000000000E+00  0.10273607890E+04  0.30823530184E+04  0.29061021901E+04 0.  0.
        4    1    3    3  502    0  0.10731306460E+04 -0.49306295724E+03  0.14115652080E+04  0.18404451669E+04  0.12699999809E+01 0. -1.
       -4    1    3    3    0  502 -0.10731306460E+04  0.49306295724E+03 -0.38420441894E+03  0.12419078515E+04  0.12699999809E+01 0.  1.
</event>
<event>
 5   0  0.6780150E-06  0.2981453E+04  0.7818609E-02  0.8249047E-01
        2   -1    0    0  501    0  0.00000000000E+00  0.00000000000E+00  0.19141869197E+04  0.19141869197E+04  0.25500000920E-02 0. -1.
       -2   -1    0    0    0  501  0.00000000000E+00  0.00000000000E+00 -0.11609446079E+04  0.11609446079E+04  0.25500000920E-02 0.  1.
    10030    2    1    2    0    0  0.00000000000E+00  0.00000000000E+00  0.75324231179E+03  0.30751315276E+04  0.29814526546E+04 0.  0.
        5    1    3    3  502    0  0.14387880949E+04  0.38994520092E+03  0.36772153297E+03  0.15353858335E+04  0.46999998093E+01 0. -1.
       -5    1    3    3    0  502 -0.14387880949E+04 -0.38994520092E+03  0.38552077881E+03  0.15397456942E+04  0.46999998093E+01 0.  1.
</event>
<event>
 5   0  0.6780150E-06  0.2980917E+04  0.7818609E-02  0.8249201E-01
       -2   -1    0    0    0  501  0.00000000000E+00  0.00000000000E+00  0.79388739762E+03  0.79388739763E+03  0.25500000920E-02 0. -1.
        2   -1    0    0  501    0  0.00000000000E+00  0.00000000000E+00 -0.27982128790E+04  0.27982128790E+04  0.25500000920E-02 0.  1.
    10030    2    1    2    0    0  0.00000000000E+00  0.00000000000E+00 -0.20043254814E+04  0.35921002766E+04  0.29809165976E+04 0.  0.
        5    1    3    3  502    0 -0.13732025416E+04  0.18527212597E+03 -0.16637603552E+04  0.21652093641E+04  0.46999998093E+01 0.  1.
       -5    1    3    3    0  502  0.13732025416E+04 -0.18527212597E+03 -0.34056512619E+03  0.14268909125E+04  0.46999998093E+01 0. -1.
</event>
<event>
 5   0  0.2504260E-06  0.2993635E+04  0.7818609E-02  0.8245551E-01
        1   -1    0    0  501    0  0.00000000000E+00  0.00000000000E+00  0.15252076875E+04  0.15252076875E+04  0.50400001928E-02 0.  1.
       -1   -1    0    0    0  501  0.00000000000E+00  0.00000000000E+00 -0.14689562459E+04  0.14689562459E+04  0.50400001928E-02 0. -1.
    10030    2    1    2    0    0  0.00000000000E+00  0.00000000000E+00  0.56251441604E+02  0.29941639334E+04  0.29936354881E+04 0.  0.
        4    1    3    3  502    0 -0.59466018860E+03 -0.13179990069E+04 -0.35887878362E+03  0.14898113023E+04  0.12699999809E+01 0.  1.
       -4    1    3    3    0  502  0.59466018860E+03  0.13179990069E+04  0.41513022522E+03  0.15043526312E+04  0.12699999809E+01 0. -1.
</event>
<event>
 5   0  0.2504260E-06  0.2984706E+04  0.7818609E-02  0.8248112E-01
       -1   -1    0    0    0  501  0.00000000000E+00  0.00000000000E+00  0.10500010038E+04  0.10500010038E+04  0.50400001928E-02 0.  1.
        1   -1    0    0  501    0  0.00000000000E+00  0.00000000000E+00 -0.21210624449E+04  0.21210624449E+04  0.50400001928E-02 0. -1.
    10030    2    1    2    0    0  0.00000000000E+00  0.00000000000E+00 -0.10710614412E+04  0.31710634487E+04  0.29847061472E+04 0.  0.
        4    1    3    3  502    0 -0.14037713482E+03  0.13164250054E+04  0.19626853417E+03  0.13383585040E+04  0.12699999809E+01 0.  1.
       -4    1    3    3    0  502  0.14037713482E+03 -0.13164250054E+04 -0.12673299754E+04  0.18327049447E+04  0.12699999809E+01 0. -1.
</event>
<event>
 5   0  0.2628425E-06  0.3095052E+04  0.7818609E-02  0.8217097E-01
        1   -1    0    0  501    0  0.00000000000E+00  0.00000000000E+00  0.13952839516E+04  0.13952839516E+04  0.50400001928E-02 0. -1.
       -1   -1    0    0    0  501  0.00000000000E+00  0.00000000000E+00 -0.17163789935E+04  0.17163789935E+04  0.50400001928E-02 0.  1.
    10030    2    1    2    0    0  0.00000000000E+00  0.00000000000E+00 -0.32109504191E+03  0.31116629451E+04  0.30950515759E+04 0.  0.
        1    1    3    3  502    0  0.12017394770E+04  0.87789515255E+03  0.26594430614E+03  0.15118214324E+04  0.50400001928E-02 0.  1.
       -1    1    3    3    0  502 -0.12017394770E+04 -0.87789515255E+03 -0.58703934806E+03  0.15998415127E+04  0.50400001928E-02 0. -1.
</event>
<event>
 5   0  0.6780150E-06  0.2995677E+04  0.7818609E-02  0.8244966E-01
       -2   -1    0    0    0  501  0.00000000000E+00  0.00000000000E+00  0.13980124328E+04  0.13980124328E+04  0.25500000920E-02 0. -1.
        2   -1    0    0  501    0  0.00000000000E+00  0.00000000000E+00 -0.16047927021E+04  0.16047927021E+04  0.25500000920E-02 0.  1.
    10030    2    1    2    0    0  0.00000000000E+00  0.00000000000E+00 -0.20678026930E+03  0.30028051350E+04  0.29956769851E+04 0.  0.
        5    1    3    3  502    0 -0.12810316222E+04 -0.53899929101E+03 -0.66323123912E+03  0.15399545511E+04  0.46999998093E+01 0.  1.
       -5    1    3    3    0  502  0.12810316222E+04  0.53899929101E+03  0.45645096982E+03  0.14628505839E+04  0.46999998093E+01 0. -1.
</event>
<event>
 5   0  0.7193153E-06  0.2452988E+04  0.7818609E-02  0.8419928E-01
        2   -1    0    0  501    0  0.00000000000E+00  0.00000000000E+00  0.10425055060E+04  0.10425055060E+04  0.25500000920E-02 0. -1.
       -2   -1    0    0    0  501  0.00000000000E+00  0.00000000000E+00 -0.14429537900E+04  0.14429537900E+04  0.25500000920E-02 0.  1.
    10030    2    1    2    0    0  0.00000000000E+00  0.00000000000E+00 -0.40044828401E+03  0.24854592960E+04  0.24529877872E+04 0.  0.
        4    1    3    3  502    0  0.41159288645E+03 -0.31276385932E+02  0.97000982743E+03  0.10541857496E+04  0.12699999809E+01 0. -1.
       -4    1    3    3    0  502 -0.41159288645E+03  0.31276385932E+02 -0.13704581114E+04  0.14312735464E+04  0.12699999809E+01 0.  1.
</event>
<event>
 5   0  0.7217255E-06  0.2972450E+04  0.7818609E-02  0.8251642E-01
        2   -1    0    0  501    0  0.00000000000E+00  0.00000000000E+00  0.17737887338E+04  0.17737887338E+04  0.25500000920E-02 0.  1.
       -2   -1    0    0    0  501  0.00000000000E+00  0.00000000000E+00 -0.12452807427E+04  0.12452807427E+04  0.25500000920E-02 0. -1.
    10030    2    1    2    0    0  0.00000000000E+00  0.00000000000E+00  0.52850799111E+03  0.30190694765E+04  0.29724501354E+04 0.  0.
        1    1    3    3  502    0  0.85237001513E+03 -0.54277059775E+03  0.13711771281E+04  0.17033089212E+04  0.50400001928E-02 0.  1.
       -1    1    3    3    0  502 -0.85237001513E+03  0.54277059775E+03 -0.84266913699E+03  0.13157605553E+04  0.50400001928E-02 0. -1.
</event>
<event>
 5   0  0.7217255E-06  0.2970757E+04  0.7818609E-02  0.8252131E-01
       -2   -1    0    0    0  501  0.00000000000E+00  0.00000000000E+00  0.12565769498E+04  0.12565769498E+04  0.25500000920E-02 0. -1.
        2   -1    0    0  501    0  0.00000000000E+00  0.00000000000E+00 -0.17558408596E+04  0.17558408596E+04  0.25500000920E-02 0.  1.
    10030    2    1    2    0    0  0.00000000000E+00  0.00000000000E+00 -0.49926390982E+03  0.30124178095E+04  0.29707569081E+04 0.  0.
        1    1    3    3  502    0  0.70959242978E+03 -0.25794405041E+03 -0.15467472317E+04  0.17211866686E+04  0.50400001928E-02 0.  1.
       -1    1    3    3    0  502 -0.70959242978E+03  0.25794405041E+03  0.10474833218E+04  0.12912311409E+04  0.50400001928E-02 0. -1.
</event>
<event>
 5   0  0.2422083E-06  0.3030693E+04  0.7818609E-02  0.8235020E-01
        1   -1    0    0  501    0  0.00000000000E+00  0.00000000000E+00  0.17839674171E+04  0.17839674171E+04  0.50400001928E-02 0.  1.
       -1   -1    0    0    0  501  0.00000000000E+00  0.00000000000E+00 -0.12871729666E+04  0.12871729666E+04  0.50400001928E-02 0. -1.
    10030    2    1    2    0    0  0.00000000000E+00  0.00000000000E+00  0.49679445054E+03  0.30711403838E+04  0.30306927477E+04 0.  0.
        2    1    3    3  502    0 -0.11137205780E+04 -0.17159173053E+03  0.12750609584E+04  0.17016455846E+04  0.25500000920E-02 0.  1.
       -2    1    3    3    0  502  0.11137205780E+04  0.17159173053E+03 -0.77826650788E+03  0.13694947992E+04  0.25500000920E-02 0. -1.
</event>
<event>
 5   0  0.2672155E-06  0.3045428E+04  0.7818609E-02  0.8230876E-01
        1   -1    0    0  501    0  0.00000000000E+00  0.00000000000E+00  0.17205919977E+04  0.17205919977E+04  0.50400001928E-02 0. -1.
       -1   -1    0    0    0  501  0.00000000000E+00  0.00000000000E+00 -0.13475928426E+04  0.13475928427E+04  0.50400001928E-02 0.  1.
    10030    2    1    2    0    0  0.00000000000E+00  0.00000000000E+00  0.37299915505E+03  0.30681848404E+04  0.30454276949E+04 0.  0.
        5    1    3    3  502    0 -0.12090385961E+03  0.45120747821E+03  0.16466152927E+04  0.17115986515E+04  0.46999998093E+01 0. -1.
       -5    1    3    3    0  502  0.12090385961E+03 -0.45120747821E+03 -0.12736161377E+04  0.13565861888E+04  0.46999998093E+01 0.  1.
</event>
<event>
 5   0  0.6780150E-06  0.2559649E+04  0.7818609E-02  0.8382038E-01
        2   -1    0    0  501    0  0.00000000000E+00  0.00000000000E+00  0.13891229139E+04  0.13891229139E+04  0.25500000920E-02 0. -1.
       -2   -1    0    0    0  501  0.00000000000E+00  0.00000000000E+00 -0.11791258998E+04  0.11791258998E+04  0.25500000920E-02 0.  1.
    10030    2    1    2    0    0  0.00000000000E+00  0.00000000000E+00  0.20999701410E+03  0.25682488136E+04  0.25596490429E+04 0.  0.
        5    1    3    3  502    0 -0.11194252661E+03 -0.62070382979E+03  0.12223486519E+04  0.13754863469E+04  0.46999998093E+01 0. -1.
       -5    1    3    3    0  502  0.11194252661E+03  0.62070382979E+03 -0.10123516378E+04  0.11927624668E+04  0.46999998093E+01 0.  1.
</event>
<event>
 5   0  0.2504260E-06  0.2981397E+04  0.7818609E-02  0.8249063E-01
        1   -1    0    0  501    0  0.00000000000E+00  0.00000000000E+00  0.20571999713E+04  0.20571999713E+04  0.50400001928E-02 0. -1.
       -1   -1    0    0    0  501  0.00000000000E+00  0.00000000000E+00 -0.10801975518E+04  0.10801975518E+04  0.50400001928E-02 0.  1.
    10030    2    1    2    0    0  0.00000000000E+00  0.00000000000E+00  0.97700241946E+03  0.31373975231E+04  0.29813972380E+04 0.  0.
        4    1    3    3  502    0 -0.19012085657E+03  0.35473206942E+03  0.19989443937E+04  0.20390588719E+04  0.12699999809E+01 0. -1.
       -4    1    3    3    0  502  0.19012085657E+03 -0.35473206942E+03 -0.10219419742E+04  0.10983386512E+04  0.12699999809E+01 0.  1.
</event>
<event>
 5   0  0.6792811E-06  0.3054973E+04  0.7818609E-02  0.8228205E-01
        2   -1    0    0  501    0  0.00000000000E+00  0.00000000000E+00  0.88624772802E+03  0.88624772802E+03  0.25500000920E-02 0. -1.
       -2   -1    0    0    0  501  0.00000000000E+00  0.00000000000E+00 -0.26326897201E+04  0.26326897201E+04  0.25500000920E-02 0.  1.
    10030    2    1    2    0    0  0.00000000000E+00  0.00000000000E+00 -0.17464419921E+04  0.35189374481E+04  0.30549731803E+04 0.  0.
        2    1    3    3  502    0 -0.82048566029E+03  0.11014108509E+04 -0.10317707981E+03  0.13772973866E+04  0.25500000920E-02 0.  1.
       -2    1    3    3    0  502  0.82048566029E+03 -0.11014108509E+04 -0.16432649123E+04  0.21416400616E+04  0.25500000920E-02 0. -1.
</event>
<event>
 5   0  0.2628425E-06  0.3007929E+04  0.7818609E-02  0.8241470E-01
        1   -1    0    0  501    0  0.00000000000E+00  0.00000000000E+00  0.18091823496E+04  0.18091823496E+04  0.50400001928E-02 0.  1.
       -1   -1    0    0    0  501  0.00000000000E+00  0.00000000000E+00 -0.12502383734E+04  0.12502383734E+04  0.50400001928E-02 0. -1.
    10030    2    1    2    0    0  0.00000000000E+00  0.00000000000E+00  0.55894397620E+03  0.30594207231E+04  0.30079289872E+04 0.  0.
        1    1    3    3  502    0 -0.18922725352E+03  0.12288469343E+04  0.11401475975E+04  0.16869523661E+04  0.50400001928E-02 0.  1.
       -1    1    3    3    0  502  0.18922725352E+03 -0.12288469343E+04 -0.58120362128E+03  0.13724683570E+04  0.50400001928E-02 0. -1.
</event>
<event>
 5   0  0.7201538E-06  0.3002787E+04  0.7818609E-02  0.8242935E-01
       -2   -1    0    0    0  501  0.00000000000E+00  0.00000000000E+00  0.10276321624E+04  0.10276321624E+04  0.25500000920E-02 0. -1.
        2   -1    0    0  501    0  0.00000000000E+00  0.00000000000E+00 -0.21935698588E+04  0.21935698588E+04  0.25500000920E-02 0.  1.
    10030    2    1    2    0    0  0.00000000000E+00  0.00000000000E+00 -0.11659376964E+04  0.32212020212E+04  0.30027873301E+04 0.  0.
        3    1    3    3  502    0  0.86575849809E+02 -0.47588592409E+03 -0.21076981131E+04  0.21624879507E+04  0.10100000352E+00 0.  1.
       -3    1    3    3    0  502 -0.86575849809E+02  0.47588592409E+03  0.94176041673E+03  0.10587140706E+04  0.10100000352E+00 0. -1.
</event>
<event>
 5   0  0.6780150E-06  0.3005910E+04  0.7818609E-02  0.8242045E-01
        2   -1    0    0  501    0  0.00000000000E+00  0.00000000000E+00  0.18718210037E+04  0.18718210037E+04  0.25500000920E-02 0.  1.
       -2   -1    0    0    0  501  0.00000000000E+00  0.00000000000E+00 -0.12067783479E+04  0.12067783479E+04  0.25500000920E-02 0. -1.
    10030    2    1    2    0    0  0.00000000000E+00  0.00000000000E+00  0.66504265578E+03  0.30785993516E+04  0.30059095518E+04 0.  0.
        5    1    3    3  502    0  0.74663840735E+03  0.96339361530E+03  0.12331350860E+04  0.17338513199E+04  0.46999998093E+01 0.  1.
       -5    1    3    3    0  502 -0.74663840735E+03 -0.96339361530E+03 -0.56809243020E+03  0.13447480316E+04  0.46999998093E+01 0. -1.
</event>
<event>
 5   0  0.2628425E-06  0.2974450E+04  0.7818609E-02  0.8251065E-01
        1   -1    0    0  501    0  0.00000000000E+00  0.00000000000E+00  0.19552572022E+04  0.19552572022E+04  0.50400001928E-02 0.  1.
       -1   -1    0    0    0  501  0.00000000000E+00  0.00000000000E+00 -0.11312260127E+04  0.11312260127E+04  0.50400001928E-02 0. -1.
    10030    2    1    2    0    0  0.00000000000E+00  0.00000000000E+00  0.82403118950E+03  0.30864832149E+04  0.29744497364E+04 0.  0.
        1    1    3    3  502    0 -0.34618778709E+03  0.86074036914E+03 -0.79414156607E+03  0.12212210258E+04  0.50400001928E-02 0. -1.
       -1    1    3    3    0  502  0.34618778709E+03 -0.86074036914E+03  0.16181727556E+04  0.18652621890E+04  0.50400001928E-02 0.  1.
</event>
<event>
 5   0  0.2504260E-06  0.3027662E+04  0.7818609E-02  0.8235876E-01
       -1   -1    0    0    0  501  0.00000000000E+00  0.00000000000E+00  0.12046658309E+04  0.12046658309E+04  0.50400001928E-02 0.  1.
        1   -1    0    0  501    0  0.00000000000E+00  0.00000000000E+00 -0.19023403406E+04  0.19023403406E+04  0.50400001928E-02 0. -1.
    10030    2    1    2    0    0  0.00000000000E+00  0.00000000000E+00 -0.69767450970E+03  0.31070061715E+04  0.30276620730E+04 0.  0.
        4    1    3    3  502    0  0.26582620774E+02  0.10731233169E+04 -0.14442290629E+04  0.17994720026E+04  0.12699999809E+01 0. -1.
       -4    1    3    3    0  502 -0.26582620774E+02 -0.10731233169E+04  0.74655455321E+03  0.13075341689E+04  0.12699999809E+01 0.  1.
</event>
<event>
 5   0  0.2298500E-06  0.2911718E+04  0.7818609E-02  0.8269400E-01
        3   -1    0    0  501    0  0.00000000000E+00  0.00000000000E+00  0.26678387510E+04  0.26678387529E+04  0.10100000352E+00 0. -1.
       -3   -1    0    0    0  501  0.00000000000E+00  0.00000000000E+00 -0.79447269198E+03  0.79447269840E+03  0.10100000352E+00 0.  1.
    10030    2    1    2    0    0  0.00000000000E+00  0.00000000000E+00  0.18733660591E+04  0.34623114513E+04  0.29117177396E+04 0.  0.
        4    1    3    3  502    0  0.16824006986E+03 -0.55112616523E+03  0.25264639961E+04  0.25913445752E+04  0.12699999809E+01 0. -1.
       -4    1    3    3    0  502 -0.16824006986E+03  0.55112616523E+03 -0.65309793701E+03  0.87096687614E+03  0.12699999809E+01 0.  1.
</event>
<event>
 5   0  0.2672155E-06  0.2994035E+04  0.7818609E-02  0.8245436E-01
       -1   -1    0    0    0  501  0.00000000000E+00  0.00000000000E+00  0.10237247211E+04  0.10237247211E+04  0.50400001928E-02 0.  1.
        1   -1    0    0  501    0  0.00000000000E+00  0.00000000000E+00 -0.21891249391E+04  0.21891249391E+04  0.50400001928E-02 0. -1.
    10030    2    1    2    0    0  0.00000000000E+00  0.00000000000E+00 -0.11654002180E+04  0.32128496602E+04  0.29940349481E+04 0.  0.
        5    1    3    3  502    0  0.30021375126E+02  0.14967033980E+04 -0.58710932575E+03  0.16080241897E+04  0.46999998093E+01 0. -1.
       -5    1    3    3    0  502 -0.30021375126E+02 -0.14967033980E+04 -0.57829089226E+03  0.16048254704E+04  0.46999998093E+01 0.  1.
</event>
<event>
 5   0  0.6780150E-06  0.2941719E+04  0.7818609E-02  0.8260572E-01
        2   -1    0    0  501    0  0.00000000000E+00  0.00000000000E+00  0.22364712552E+04  0.22364712552E+04  0.25500000920E-02 0. -1.
       -2   -1    0    0    0  501  0.00000000000E+00  0.00000000000E+00 -0.96734007385E+03  0.96734007386E+03  0.25500000920E-02 0.  1.
    10030    2    1    2    0    0  0.00000000000E+00  0.00000000000E+00  0.12691311814E+04  0.32038113291E+04  0.29417194082E+04 0.  0.
        5    1    3    3  502    0 -0.32813575731E+03  0.10602048637E+04 -0.41667820003E+03  0.11854746900E+04  0.46999998093E+01 0.  1.
       -5    1    3    3    0  502  0.32813575731E+03 -0.10602048637E+04  0.16858093814E+04  0.20183366391E+04  0.46999998093E+01 0. -1.
</event>
<event>
 5   0  0.6780150E-06  0.2969886E+04  0.7818609E-02  0.8252383E-01
        2   -1    0    0  501    0  0.00000000000E+00  0.00000000000E+00  0.15690874729E+04  0.15690874729E+04  0.25500000920E-02 0.  1.
       -2   -1    0    0    0  501  0.00000000000E+00  0.00000000000E+00 -0.14053111308E+04  0.14053111308E+04  0.25500000920E-02 0. -1.
    10030    2    1    2    0    0  0.00000000000E+00  0.00000000000E+00  0.16377634210E+03  0.29743986037E+04  0.29698862543E+04 0.  0.
        5    1    3    3  502    0 -0.10744437328E+04  0.99037733387E+03 -0.18262938556E+03  0.14726344356E+04  0.46999998093E+01 0. -1.
       -5    1    3    3    0  502  0.10744437328E+04 -0.99037733387E+03  0.34640572766E+03  0.15017641681E+04  0.46999998093E+01 0.  1.
</event>
<event>
 5   0  0.6780150E-06  0.2281512E+04  0.7818609E-02  0.8485247E-01
       -2   -1    0    0    0  501  0.00000000000E+00  0.00000000000E+00  0.81792126196E+03  0.81792126197E+03  0.25500000920E-02 0. -1.
        2   -1    0    0  501    0  0.00000000000E+00  0.00000000000E+00 -0.15910141298E+04  0.15910141298E+04  0.25500000920E-02 0.  1.
    10030    2    1    2    0    0  0.00000000000E+00  0.00000000000E+00 -0.77309286786E+03  0.24089353918E+04  0.22815120292E+04 0.  0.
        5    1    3    3  502    0  0.68222721466E+03  0.64431341541E+03 -0.10714088396E+04  0.14242586638E+04  0.46999998093E+01 0. -1.
       -5    1    3    3    0  502 -0.68222721466E+03 -0.64431341541E+03  0.29831597177E+03  0.98467672802E+03  0.46999998093E+01 0.  1.
</event>
<event>
 5   0  0.6780150E-06  0.2995033E+04  0.7818609E-02  0.8245151E-01
       -2   -1    0    0    0  501  0.00000000000E+00  0.00000000000E+00  0.13913623576E+04  0.13913623576E+04  0.25500000920E-02 0.  1.
        2   -1    0    0  501    0  0.00000000000E+00  0.00000000000E+00 -0.16117695223E+04  0.16117695223E+04  0.25500000920E-02 0. -1.
    10030    2    1    2    0    0  0.00000000000E+00  0.00000000000E+00 -0.22040716471E+03  0.30031318798E+04  0.29950328495E+04 0.  0.
        5    1    3    3  502    0  0.13014604661E+04 -0.71438390193E+03  0.86259014465E+02  0.14871470713E+04  0.46999998093E+01 0.  1.
       -5    1    3    3    0  502 -0.13014604661E+04  0.71438390193E+03 -0.30666617918E+03  0.15159848085E+04  0.46999998093E+01 0. -1.
</event>
<event>
 5   0  0.2422083E-06  0.3006075E+04  0.7818609E-02  0.8241998E-01
        1   -1    0    0  501    0  0.00000000000E+00  0.00000000000E+00  0.19879611383E+04  0.19879611383E+04  0.50400001928E-02 0.  1.
       -1   -1    0    0    0  501  0.00000000000E+00  0.00000000000E+00 -0.11364010007E+04  0.11364010007E+04  0.50400001928E-02 0. -1.
    10030    2    1    2    0    0  0.00000000000E+00  0.00000000000E+00  0.85156013755E+03  0.31243621390E+04  0.30060745347E+04 0.  0.
        2    1    3    3  502    0  0.39416077109E+03  0.12336956808E+04 -0.36696042415E+03  0.13461157822E+04  0.25500000920E-02 0.  1.
       -2    1    3    3    0  502 -0.39416077109E+03 -0.12336956808E+04  0.12185205617E+04  0.17782463568E+04  0.25500000920E-02 0. -1.
</event>
<event>
 5   0  0.7201538E-06  0.2916367E+04  0.7818609E-02  0.8268024E-01
       -2   -1    0    0    0  501  0.00000000000E+00  0.00000000000E+00  0.14121122225E+04  0.14121122225E+04  0.25500000920E-02 0.  1.
        2   -1    0    0  501    0  0.00000000000E+00  0.00000000000E+00 -0.15057581127E+04  0.15057581127E+04  0.25500000920E-02 0. -1.
    10030    2    1    2    0    0  0.00000000000E+00  0.00000000000E+00 -0.93645890260E+02  0.29178703352E+04  0.29163672163E+04 0.  0.
        3    1    3    3  502    0 -0.11250167163E+03 -0.28926261379E+03  0.13786815283E+04  0.14131851444E+04  0.10100000352E+00 0.  1.
       -3    1    3    3    0  502  0.11250167163E+03  0.28926261379E+03 -0.14723274185E+04  0.15046851908E+04  0.10100000352E+00 0. -1.
</event>
<event>
 5   0  0.6792811E-06  0.3013462E+04  0.7818609E-02  0.8239897E-01
       -2   -1    0    0    0  501  0.00000000000E+00  0.00000000000E+00  0.17000610351E+04  0.17000610351E+04  0.25500000920E-02 0.  1.
        2   -1    0    0  501    0  0.00000000000E+00  0.00000000000E+00 -0.13353861715E+04  0.13353861715E+04  0.25500000920E-02 0. -1.
    10030    2    1    2    0    0  0.00000000000E+00  0.00000000000E+00  0.36467486358E+03  0.30354472067E+04  0.30134617947E+04 0.  0.
        2    1    3    3  502    0  0.10255992324E+04  0.10365000464E+04 -0.19997325454E+03  0.14717932715E+04  0.25500000920E-02 0.  1.
       -2    1    3    3    0  502 -0.10255992324E+04 -0.10365000464E+04  0.56464811812E+03  0.15636539351E+04  0.25500000920E-02 0. -1.
</event>
<event>
 5   0  0.7201538E-06  0.3003471E+04  0.7818609E-02  0.8242741E-01
       -2   -1    0    0    0  501  0.00000000000E+00  0.00000000000E+00  0.85153971464E+03  0.85153971465E+03  0.25500000920E-02 0. -1.
        2   -1    0    0  501    0  0.00000000000E+00  0.00000000000E+00 -0.26483894486E+04  0.26483894486E+04  0.25500000920E-02 0.  1.
    10030    2    1    2    0    0  0.00000000000E+00  0.00000000000E+00 -0.17968497340E+04  0.34999291633E+04  0.30034705228E+04 0.  0.
        3    1    3    3  502    0 -0.29927852491E+03 -0.13090891345E+04 -0.11504947883E+03  0.13477827682E+04  0.10100000352E+00 0. -1.
       -3    1    3    3    0  502  0.29927852491E+03  0.13090891345E+04 -0.16818002552E+04  0.21521463951E+04  0.10100000352E+00 0.  1.
</event>
<event>
 5   0  0.2422083E-06  0.2979874E+04  0.7818609E-02  0.8249501E-01
        1   -1    0    0  501    0  0.00000000000E+00  0.00000000000E+00  0.13990869090E+04  0.13990869090E+04  0.50400001928E-02 0.  1.
       -1   -1    0    0    0  501  0.00000000000E+00  0.00000000000E+00 -0.15866864272E+04  0.15866864272E+04  0.50400001928E-02 0. -1.
    10030    2    1    2    0    0  0.00000000000E+00  0.00000000000E+00 -0.18759951824E+03  0.29857733362E+04  0.29798739631E+04 0.  0.
        2    1    3    3  502    0 -0.17508703207E+03  0.46692782778E+03  0.13129866257E+04  0.14044966873E+04  0.25500000920E-02 0.  1.
       -2    1    3    3    0  502  0.17508703207E+03 -0.46692782778E+03 -0.15005861440E+04  0.15812766490E+04  0.25500000920E-02 0. -1.
</event>
<event>
 5   0  0.6792811E-06  0.2981460E+04  0.7818609E-02  0.8249045E-01
       -2   -1    0    0    0  501  0.00000000000E+00  0.00000000000E+00  0.76914357861E+03  0.76914357862E+03  0.25500000920E-02 0. -1.
        2   -1    0    0  501    0  0.00000000000E+00  0.00000000000E+00 -0.28892868073E+04  0.28892868073E+04  0.25500000920E-02 0.  1.
    10030    2    1    2    0    0  0.00000000000E+00  0.00000000000E+00 -0.21201432287E+04  0.36584303859E+04  0.29814603097E+04 0.  0.
        2    1    3    3  502    0 -0.37436230412E+03  0.40821206139E+03 -0.27583385497E+04  0.28133993276E+04  0.25500000920E-02 0.  1.
       -2    1    3    3    0  502  0.37436230412E+03 -0.40821206139E+03  0.63819532099E+03  0.84503105834E+03  0.25500000920E-02 0. -1.
</event>
<event>
 5   0  0.2504260E-06  0.3018475E+04  0.7818609E-02  0.8238475E-01
       -1   -1    0    0    0  501  0.00000000000E+00  0.00000000000E+00  0.95785494061E+03  0.95785494062E+03  0.50400001928E-02 0.  1.
        1   -1    0    0  501    0  0.00000000000E+00  0.00000000000E+00 -0.23780200774E+04  0.23780200774E+04  0.50400001928E-02 0. -1.
    10030    2    1    2    0    0  0.00000000000E+00  0.00000000000E+00 -0.14201651368E+04  0.33358750181E+04  0.30184752973E+04 0.  0.
        4    1    3    3  502    0  0.26426266981E+03 -0.53298880711E+03  0.82280986757E+03  0.10153469940E+04  0.12699999809E+01 0.  1.
       -4    1    3    3    0  502 -0.26426266981E+03  0.53298880711E+03 -0.22429750044E+04  0.23205280241E+04  0.12699999809E+01 0. -1.
</event>
<event>
 5   0  0.2504260E-06  0.3133613E+04  0.7818609E-02  0.8206573E-01
       -1   -1    0    0    0  501  0.00000000000E+00  0.00000000000E+00  0.11014992474E+04  0.11014992474E+04  0.50400001928E-02 0.  1.
        1   -1    0    0  501    0  0.00000000000E+00  0.00000000000E+00 -0.22286736807E+04  0.22286736807E+04  0.50400001928E-02 0. -1.
    10030    2    1    2    0    0  0.00000000000E+00  0.00000000000E+00 -0.11271744333E+04  0.33301729281E+04  0.31336128554E+04 0.  0.
        4    1    3    3  502    0  0.15545441438E+04 -0.51161032714E+02 -0.76425916949E+03  0.17330085509E+04  0.12699999809E+01 0. -1.
       -4    1    3    3    0  502 -0.15545441438E+04  0.51161032714E+02 -0.36291526386E+03  0.15971643772E+04  0.12699999809E+01 0.  1.
</event>
<event>
 5   0  0.7193153E-06  0.2927147E+04  0.7818609E-02  0.8264846E-01
        2   -1    0    0  501    0  0.00000000000E+00  0.00000000000E+00  0.14734410597E+04  0.14734410597E+04  0.25500000920E-02 0. -1.
       -2   -1    0    0    0  501  0.00000000000E+00  0.00000000000E+00 -0.14537717731E+04  0.14537717731E+04  0.25500000920E-02 0.  1.
    10030    2    1    2    0    0  0.00000000000E+00  0.00000000000E+00  0.19669286657E+02  0.29272128328E+04  0.29271467486E+04 0.  0.
        4    1    3    3  502    0  0.13355522743E+03  0.14338914753E+04  0.27092222485E+03  0.14653607837E+04  0.12699999809E+01 0. -1.
       -4    1    3    3    0  502 -0.13355522743E+03 -0.14338914753E+04 -0.25125293819E+03  0.14618520491E+04  0.12699999809E+01 0.  1.
</event>
<event>
 5   0  0.2552990E-06  0.2991075E+04  0.7818609E-02  0.8246284E-01
       -1   -1    0    0    0  501  0.00000000000E+00  0.00000000000E+00  0.18273528371E+04  0.18273528371E+04  0.50400001928E-02 0. -1.
        1   -1    0    0  501    0  0.00000000000E+00  0.00000000000E+00 -0.12239741696E+04  0.12239741696E+04  0.50400001928E-02 0.  1.
    10030    2    1    2    0    0  0.00000000000E+00  0.00000000000E+00  0.60337866744E+03  0.30513270067E+04  0.29910751722E+04 0.  0.
        3    1    3    3  502    0 -0.82632486975E+03 -0.58108032014E+03 -0.82332426067E+03  0.13031998992E+04  0.10100000352E+00 0.  1.
       -3    1    3    3    0  502  0.82632486975E+03  0.58108032014E+03  0.14267029281E+04  0.17481271075E+04  0.10100000352E+00 0. -1.
</event>
<event>
 5   0  0.2422083E-06  0.2880193E+04  0.7818609E-02  0.8278795E-01
       -1   -1    0    0    0  501  0.00000000000E+00  0.00000000000E+00  0.12228694334E+04  0.12228694335E+04  0.50400001928E-02 0.  1.
        1   -1    0    0  501    0  0.00000000000E+00  0.00000000000E+00 -0.16959116410E+04  0.16959116410E+04  0.50400001928E-02 0. -1.
    10030    2    1    2    0    0  0.00000000000E+00  0.00000000000E+00 -0.47304220752E+03  0.29187810744E+04  0.28801934016E+04 0.  0.
        2    1    3    3  502    0 -0.40874484520E+03 -0.19899300063E+03  0.11482443286E+04  0.12349638055E+04  0.25500000920E-02 0.  1.
       -2    1    3    3    0  502  0.40874484520E+03  0.19899300063E+03 -0.16212865361E+04  0.16838172689E+04  0.25500000920E-02 0. -1.
</event>
<event>
 5   0  0.7201538E-06  0.2936575E+04  0.7818609E-02  0.8262078E-01
       -2   -1    0    0    0  501  0.00000000000E+00  0.00000000000E+00  0.90969269755E+03  0.90969269755E+03  0.25500000920E-02 0. -1.
        2   -1    0    0  501    0  0.00000000000E+00  0.00000000000E+00 -0.23698868964E+04  0.23698868964E+04  0.25500000920E-02 0.  1.
    10030    2    1    2    0    0  0.00000000000E+00  0.00000000000E+00 -0.14601941989E+04  0.32795795940E+04  0.29365754230E+04 0.  0.
        3    1    3    3  502    0 -0.94504470236E+03 -0.83320944785E+03 -0.15721713620E+04  0.20147134474E+04  0.10100000352E+00 0.  1.
       -3    1    3    3    0  502  0.94504470236E+03  0.83320944785E+03  0.11197716315E+03  0.12648661466E+04  0.10100000352E+00 0. -1.
</event>
<event>
 5   0  0.7201538E-06  0.2927858E+04  0.7818609E-02  0.8264637E-01
        2   -1    0    0  501    0  0.00000000000E+00  0.00000000000E+00  0.14184217002E+04  0.14184217002E+04  0.25500000920E-02 0.  1.
       -2   -1    0    0    0  501  0.00000000000E+00  0.00000000000E+00 -0.15108959000E+04  0.15108959000E+04  0.25500000920E-02 0. -1.
    10030    2    1    2    0    0  0.00000000000E+00  0.00000000000E+00 -0.92474199795E+02  0.29293176001E+04  0.29278575998E+04 0.  0.
        3    1    3    3  502    0  0.83718877068E+03 -0.15619741255E+03  0.11450727692E+04  0.14270509194E+04  0.10100000352E+00 0.  1.
       -3    1    3    3    0  502 -0.83718877068E+03  0.15619741255E+03 -0.12375469690E+04  0.15022666808E+04  0.10100000352E+00 0. -1.
</event>
<event>
 5   0  0.6792811E-06  0.2960072E+04  0.7818609E-02  0.8255225E-01
        2   -1    0    0  501    0  0.00000000000E+00  0.00000000000E+00  0.90989685820E+03  0.90989685820E+03  0.25500000920E-02 0.  1.
       -2   -1    0    0    0  501  0.00000000000E+00  0.00000000000E+00 -0.24074225732E+04  0.24074225732E+04  0.25500000920E-02 0. -1.
    10030    2    1    2    0    0  0.00000000000E+00  0.00000000000E+00 -0.14975257150E+04  0.33173194314E+04  0.29600717800E+04 0.  0.
        2    1    3    3  502    0 -0.10877633673E+04  0.10036191168E+04 -0.74307479791E+03  0.16560919752E+04  0.25500000920E-02 0.  1.
       -2    1    3    3    0  502  0.10877633673E+04 -0.10036191168E+04 -0.75445091707E+03  0.16612274562E+04  0.25500000920E-02 0. -1.
</event>
<event>
 5   0  0.2628425E-06  0.2587988E+04  0.7818609E-02  0.8372293E-01
       -1   -1    0    0    0  501  0.00000000000E+00  0.00000000000E+00  0.10812397812E+04  0.10812397812E+04  0.50400001928E-02 0. -1.
        1   -1    0    0  501    0  0.00000000000E+00  0.00000000000E+00 -0.15486119823E+04  0.15486119823E+04  0.50400001928E-02 0.  1.
    10030    2    1    2    0    0  0.00000000000E+00  0.00000000000E+00 -0.46737220106E+03  0.26298517635E+04  0.25879883160E+04 0.  0.
        1    1    3    3  502    0 -0.35069303282E+03 -0.10361010235E+04 -0.93619378633E+03  0.14397741975E+04  0.50400001928E-02 0.  1.
       -1    1    3    3    0  502  0.35069303282E+03  0.10361010235E+04  0.46882158527E+03  0.11900775660E+04  0.50400001928E-02 0. -1.
</event>
<event>
 5   0  0.7193153E-06  0.2984506E+04  0.7818609E-02  0.8248169E-01
        2   -1    0    0  501    0  0.00000000000E+00  0.00000000000E+00  0.16613114166E+04  0.16613114166E+04  0.25500000920E-02 0. -1.
       -2   -1    0    0    0  501  0.00000000000E+00  0.00000000000E+00 -0.13403982369E+04  0.13403982369E+04  0.25500000920E-02 0.  1.
    10030    2    1    2    0    0  0.00000000000E+00  0.00000000000E+00  0.32091317967E+03  0.30017096535E+04  0.29845059181E+04 0.  0.
        4    1    3    3  502    0  0.12612942051E+04 -0.79281645350E+03  0.24695396168E+03  0.15101022723E+04  0.12699999809E+01 0. -1.
       -4    1    3    3    0  502 -0.12612942051E+04  0.79281645350E+03  0.73959217987E+02  0.14916073812E+04  0.12699999809E+01 0.  1.
</event>
<event>
 5   0  0.2552990E-06  0.3000161E+04  0.7818609E-02  0.8243685E-01
       -1   -1    0    0    0  501  0.00000000000E+00  0.00000000000E+00  0.17913114942E+04  0.17913114942E+04  0.50400001928E-02 0.  1.
        1   -1    0    0  501    0  0.00000000000E+00  0.00000000000E+00 -0.12561980254E+04  0.12561980254E+04  0.50400001928E-02 0. -1.
    10030    2    1    2    0    0  0.00000000000E+00  0.00000000000E+00  0.53511346874E+03  0.30475095196E+04  0.30001613036E+04 0.  0.
        3    1    3    3  502    0 -0.67144771940E+03  0.93277413021E+03  0.12467896190E+04  0.16956986708E+04  0.10100000352E+00 0.  1.
       -3    1    3    3    0  502  0.67144771940E+03 -0.93277413021E+03 -0.71167615028E+03  0.13518108488E+04  0.10100000352E+00 0. -1.
</event>
<event>
 5   0  0.7201538E-06  0.3106558E+04  0.7818609E-02  0.8213940E-01
        2   -1    0    0  501    0  0.00000000000E+00  0.00000000000E+00  0.21603134821E+04  0.21603134821E+04  0.25500000920E-02 0. -1.
       -2   -1    0    0    0  501  0.00000000000E+00  0.00000000000E+00 -0.11168172850E+04  0.11168172850E+04  0.25500000920E-02 0.  1.
    10030    2    1    2    0    0  0.00000000000E+00  0.00000000000E+00  0.10434961971E+04  0.32771307670E+04  0.31065578621E+04 0.  0.
        3    1    3    3  502    0 -0.48864933092E+03 -0.14688473740E+04  0.65677892333E+03  0.16815615781E+04  0.10100000352E+00 0. -1.
       -3    1    3    3    0  502  0.48864933092E+03  0.14688473740E+04  0.38671727381E+03  0.15955691889E+04  0.10100000352E+00 0.  1.
</event>
<event>
 5   0  0.6780150E-06  0.3022696E+04  0.7818609E-02  0.8237280E-01
       -2   -1    0    0    0  501  0.00000000000E+00  0.00000000000E+00  0.10339103364E+04  0.10339103364E+04  0.25500000920E-02 0. -1.
        2   -1    0    0  501    0  0.00000000000E+00  0.00000000000E+00 -0.22092558149E+04  0.22092558149E+04  0.25500000920E-02 0.  1.
    10030    2    1    2    0    0  0.00000000000E+00  0.00000000000E+00 -0.11753454785E+04  0.32431661513E+04  0.30226957655E+04 0.  0.
        5    1    3    3  502    0  0.98634615866E+03 -0.44625438889E+03  0.54382129214E+03  0.12115219404E+04  0.46999998093E+01 0. -1.
       -5    1    3    3    0  502 -0.98634615866E+03  0.44625438889E+03 -0.17191667706E+04  0.20316442109E+04  0.46999998093E+01 0.  1.
</event>
<event>
 5   0  0.2504260E-06  0.3060148E+04  0.7818609E-02  0.8226761E-01
        1   -1    0    0  501    0  0.00000000000E+00  0.00000000000E+00  0.18129678939E+04  0.18129678939E+04  0.50400001928E-02 0.  1.
       -1   -1    0    0    0  501  0.00000000000E+00  0.00000000000E+00 -0.12913223026E+04  0.12913223026E+04  0.50400001928E-02 0. -1.
    10030    2    1    2    0    0  0.00000000000E+00  0.00000000000E+00  0.52164559128E+03  0.31042901965E+04  0.30601476274E+04 0.  0.
        4    1    3    3  502    0 -0.45162940225E+03 -0.98837376921E+03  0.13535202293E+04  0.17357622097E+04  0.12699999809E+01 0.  1.
       -4    1    3    3    0  502  0.45162940225E+03  0.98837376921E+03 -0.83187463797E+03  0.13685279869E+04  0.12699999809E+01 0. -1.
</event>
<event>
 5   0  0.2628425E-06  0.3000019E+04  0.7818609E-02  0.8243725E-01
        1   -1    0    0  501    0  0.00000000000E+00  0.00000000000E+00  0.21680557887E+04  0.21680557887E+04  0.50400001928E-02 0. -1.
       -1   -1    0    0    0  501  0.00000000000E+00  0.00000000000E+00 -0.10378093581E+04  0.10378093581E+04  0.50400001928E-02 0.  1.
    10030    2    1    2    0    0  0.00000000000E+00  0.00000000000E+00  0.11302464306E+04  0.32058651468E+04  0.30000190575E+04 0.  0.
        1    1    3    3  502    0 -0.92468077437E+03  0.10022850540E+04 -0.10258474581E+03  0.13675282425E+04  0.50400001928E-02 0.  1.
       -1    1    3    3    0  502  0.92468077437E+03 -0.10022850540E+04  0.12328311764E+04  0.18383369043E+04  0.50400001928E-02 0. -1.
</event>
<event>
 5   0  0.7217255E-06  0.3020617E+04  0.7818609E-02  0.8237868E-01
        2   -1    0    0  501    0  0.00000000000E+00  0.00000000000E+00  0.15251202015E+04  0.15251202015E+04  0.25500000920E-02 0. -1.
       -2   -1    0    0    0  501  0.00000000000E+00  0.00000000000E+00 -0.14956405930E+04  0.14956405930E+04  0.25500000920E-02 0.  1.
    10030    2    1    2    0    0  0.00000000000E+00  0.00000000000E+00  0.29479608472E+02  0.30207607945E+04  0.30206169453E+04 0.  0.
        1    1    3    3  502    0 -0.43157188752E+03 -0.21683933684E+03  0.14458069353E+04  0.15243461832E+04  0.50400001928E-02 0. -1.
       -1    1    3    3    0  502  0.43157188752E+03  0.21683933684E+03 -0.14163273268E+04  0.14964146113E+04  0.50400001928E-02 0.  1.
</event>
<event>
 5   0  0.2504260E-06  0.2988327E+04  0.7818609E-02  0.8247072E-01
        1   -1    0    0  501    0  0.00000000000E+00  0.00000000000E+00  0.26265244072E+04  0.26265244072E+04  0.50400001928E-02 0.  1.
       -1   -1    0    0    0  501  0.00000000000E+00  0.00000000000E+00 -0.84999204379E+03  0.84999204380E+03  0.50400001928E-02 0. -1.
    10030    2    1    2    0    0  0.00000000000E+00  0.00000000000E+00  0.17765323634E+04  0.34765164510E+04  0.29883271902E+04 0.  0.
        4    1    3    3  502    0 -0.30718455925E+03 -0.48321210450E+03 -0.71729058323E+03  0.91780372905E+03  0.12699999809E+01 0. -1.
       -4    1    3    3    0  502  0.30718455925E+03  0.48321210450E+03  0.24938229466E+04  0.25587127219E+04  0.12699999809E+01 0.  1.
</event>
<event>
 5   0  0.6780150E-06  0.3005061E+04  0.7818609E-02  0.8242287E-01
        2   -1    0    0  501    0  0.00000000000E+00  0.00000000000E+00  0.18917109567E+04  0.18917109567E+04  0.25500000920E-02 0.  1.
       -2   -1    0    0    0  501  0.00000000000E+00  0.00000000000E+00 -0.11934158600E+04  0.11934158600E+04  0.25500000920E-02 0. -1.
    10030    2    1    2    0    0  0.00000000000E+00  0.00000000000E+00  0.69829509664E+03  0.30851268167E+04  0.30050609700E+04 0.  0.
        5    1    3    3  502    0 -0.86519729821E+03  0.28170415017E+03 -0.87839040212E+03  0.12647194873E+04  0.46999998093E+01 0. -1.
       -5    1    3    3    0  502  0.86519729821E+03 -0.28170415017E+03  0.15766854988E+04  0.18204073294E+04  0.46999998093E+01 0.  1.
</event>
<event>
 5   0  0.2422083E-06  0.3039231E+04  0.7818609E-02  0.8232616E-01
       -1   -1    0    0    0  501  0.00000000000E+00  0.00000000000E+00  0.11973966442E+04  0.11973966442E+04  0.50400001928E-02 0. -1.
        1   -1    0    0  501    0  0.00000000000E+00  0.00000000000E+00 -0.19285428959E+04  0.19285428959E+04  0.50400001928E-02 0.  1.
    10030    2    1    2    0    0  0.00000000000E+00  0.00000000000E+00 -0.73114625174E+03  0.31259395401E+04  0.30392306867E+04 0.  0.
        2    1    3    3  502    0 -0.12734784075E+04 -0.62381197369E+03 -0.92736340781E+03  0.16943705389E+04  0.25500000920E-02 0.  1.
       -2    1    3    3    0  502  0.12734784075E+04  0.62381197369E+03  0.19621715607E+03  0.14315690012E+04  0.25500000920E-02 0. -1.
</event>
<event>
 5   0  0.2672155E-06  0.3055974E+04  0.7818609E-02  0.8227925E-01
        1   -1    0    0  501    0  0.00000000000E+00  0.00000000000E+00  0.28685787485E+04  0.28685787485E+04  0.50400001928E-02 0.  1.
       -1   -1    0    0    0  501  0.00000000000E+00  0.00000000000E+00 -0.81390277677E+03  0.81390277678E+03  0.50400001928E-02 0. -1.
    10030    2    1    2    0    0  0.00000000000E+00  0.00000000000E+00  0.20546759718E+04  0.36824815253E+04  0.30559739586E+04 0.  0.
        5    1    3    3  502    0  0.21213691275E+03  0.11264660399E+04  0.22448129743E+04  0.25205426377E+04  0.46999998093E+01 0.  1.
       -5    1    3    3    0  502 -0.21213691275E+03 -0.11264660399E+04 -0.19013700253E+03  0.11619388876E+04  0.46999998093E+01 0. -1.
</event>
<event>
 5   0  0.2628425E-06  0.2758568E+04  0.7818609E-02  0.8316248E-01
       -1   -1    0    0    0  501  0.00000000000E+00  0.00000000000E+00  0.14405601088E+04  0.14405601088E+04  0.50400001928E-02 0. -1.
        1   -1    0    0  501    0  0.00000000000E+00  0.00000000000E+00 -0.13206144895E+04  0.13206144895E+04  0.50400001928E-02 0.  1.
    10030    2    1    2    0    0  0.00000000000E+00  0.00000000000E+00  0.11994561932E+03  0.27611745983E+04  0.27585681450E+04 0.  0.
        1    1    3    3  502    0 -0.63460866234E+03 -0.62221314617E+03 -0.99579733058E+03  0.13347245698E+04  0.50400001928E-02 0.  1.
       -1    1    3    3    0  502  0.63460866234E+03  0.62221314617E+03  0.11157429499E+04  0.14264500285E+04  0.50400001928E-02 0. -1.
</event>
<event>
 5   0  0.6780150E-06  0.3040121E+04  0.7818609E-02  0.8232366E-01
       -2   -1    0    0    0  501  0.00000000000E+00  0.00000000000E+00  0.32088806447E+04  0.32088806447E+04  0.25500000920E-02 0. -1.
        2   -1    0    0  501    0  0.00000000000E+00  0.00000000000E+00 -0.72005914322E+03  0.72005914322E+03  0.25500000920E-02 0.  1.
    10030    2    1    2    0    0  0.00000000000E+00  0.00000000000E+00  0.24888215015E+04  0.39289397879E+04  0.30401209500E+04 0.  0.
        5    1    3    3  502    0 -0.81255570478E+03  0.12556594300E+04  0.89371958274E+03  0.17423214859E+04  0.46999998093E+01 0.  1.
       -5    1    3    3    0  502  0.81255570478E+03 -0.12556594300E+04  0.15951019188E+04  0.21866183021E+04  0.46999998093E+01 0. -1.
</event>
<event>
 5   0  0.2422083E-06  0.2978514E+04  0.7818609E-02  0.8249893E-01
       -1   -1    0    0    0  501  0.00000000000E+00  0.00000000000E+00  0.12257702739E+04  0.12257702739E+04  0.50400001928E-02 0. -1.
        1   -1    0    0  501    0  0.00000000000E+00  0.00000000000E+00 -0.18093817784E+04  0.18093817784E+04  0.50400001928E-02 0.  1.
    10030    2    1    2    0    0  0.00000000000E+00  0.00000000000E+00 -0.58361150454E+03  0.30351520523E+04  0.29785139906E+04 0.  0.
        2    1    3    3  502    0 -0.52277509971E+03  0.11961759188E+04  0.43859155318E+03  0.13771322319E+04  0.25500000920E-02 0. -1.
       -2    1    3    3    0  502  0.52277509971E+03 -0.11961759188E+04 -0.10222030577E+04  0.16580198204E+04  0.25500000920E-02 0.  1.
</event>
<event>
 5   0  0.2552990E-06  0.2999944E+04  0.7818609E-02  0.8243747E-01
        1   -1    0    0  501    0  0.00000000000E+00  0.00000000000E+00  0.22384198525E+04  0.22384198525E+04  0.50400001928E-02 0. -1.
       -1   -1    0    0    0  501  0.00000000000E+00  0.00000000000E+00 -0.10051358690E+04  0.10051358690E+04  0.50400001928E-02 0.  1.
    10030    2    1    2    0    0  0.00000000000E+00  0.00000000000E+00  0.12332839834E+04  0.32435557215E+04  0.29999440553E+04 0.  0.
        3    1    3    3  502    0  0.76139454393E+03 -0.14603095887E+03  0.20049995662E+04  0.21496674076E+04  0.10100000352E+00 0. -1.
       -3    1    3    3    0  502 -0.76139454393E+03  0.14603095887E+03 -0.77171558277E+03  0.10938883139E+04  0.10100000352E+00 0.  1.
</event>
<event>
 5   0  0.7201538E-06  0.2857333E+04  0.7818609E-02  0.8285686E-01
       -2   -1    0    0    0  501  0.00000000000E+00  0.00000000000E+00  0.17746894511E+04  0.17746894511E+04  0.25500000920E-02 0.  1.
        2   -1    0    0  501    0  0.00000000000E+00  0.00000000000E+00 -0.11501102594E+04  0.11501102594E+04  0.25500000920E-02 0. -1.
    10030    2    1    2    0    0  0.00000000000E+00  0.00000000000E+00  0.62457919173E+03  0.29247997105E+04  0.28573334037E+04 0.  0.
        3    1    3    3  502    0  0.13752318396E+04 -0.24721275124E+03  0.61716743215E+03  0.15275052886E+04  0.10100000352E+00 0. -1.
       -3    1    3    3    0  502 -0.13752318396E+04  0.24721275124E+03  0.74117595808E+01  0.13972944219E+04  0.10100000352E+00 0.  1.
</event>
<event>
 5   0  0.6780150E-06  0.3029038E+04  0.7818609E-02  0.8235487E-01
        2   -1    0    0  501    0  0.00000000000E+00  0.00000000000E+00  0.24071568307E+04  0.24071568307E+04  0.25500000920E-02 0.  1.
       -2   -1    0    0    0  501  0.00000000000E+00  0.00000000000E+00 -0.95289476155E+03  0.95289476155E+03  0.25500000920E-02 0. -1.
    10030    2    1    2    0    0  0.00000000000E+00  0.00000000000E+00  0.14542620691E+04  0.33600515922E+04  0.30290375595E+04 0.  0.
        5    1    3    3  502    0  0.15548579251E+03  0.12475026834E+04 -0.20973891126E+03  0.12745396336E+04  0.46999998093E+01 0. -1.
       -5    1    3    3    0  502 -0.15548579251E+03 -0.12475026834E+04  0.16640009804E+04  0.20855119586E+04  0.46999998093E+01 0.  1.
</event>
<event>
 5   0  0.7217255E-06  0.3042464E+04  0.7818609E-02  0.8231708E-01
        2   -1    0    0  501    0  0.00000000000E+00  0.00000000000E+00  0.19334158183E+04  0.19334158183E+04  0.25500000920E-02 0.  1.
       -2   -1    0    0    0  501  0.00000000000E+00  0.00000000000E+00 -0.11969211489E+04  0.11969211489E+04  0.25500000920E-02 0. -1.
    10030    2    1    2    0    0  0.00000000000E+00  0.00000000000E+00  0.73649466941E+03  0.31303369671E+04  0.30424636612E+04 0.  0.
        1    1    3    3  502    0  0.91355132296E+03 -0.71258112434E+03 -0.64602313421E+03  0.13265344958E+04  0.50400001928E-02 0. -1.
       -1    1    3    3    0  502 -0.91355132296E+03  0.71258112434E+03  0.13825178036E+04  0.18038024714E+04  0.50400001928E-02 0.  1.
</event>
<event>
 5   0  0.2504260E-06  0.2828013E+04  0.7818609E-02  0.8294624E-01
        1   -1    0    0  501    0  0.00000000000E+00  0.00000000000E+00  0.22904181252E+04  0.22904181252E+04  0.50400001928E-02 0. -1.
       -1   -1    0    0    0  501  0.00000000000E+00  0.00000000000E+00 -0.87294742320E+03  0.87294742322E+03  0.50400001928E-02 0.  1.
    10030    2    1    2    0    0  0.00000000000E+00  0.00000000000E+00  0.14174707020E+04  0.31633655485E+04  0.28280131545E+04 0.  0.
        4    1    3    3  502    0 -0.94502275615E+03  0.36203595549E+03  0.18134026269E+04  0.20766725170E+04  0.12699999809E+01 0. -1.
       -4    1    3    3    0  502  0.94502275615E+03 -0.36203595549E+03 -0.39593192482E+03  0.10866930315E+04  0.12699999809E+01 0.  1.
</event>
<event>
 5   0  0.2672155E-06  0.3103649E+04  0.7818609E-02  0.8214737E-01
        1   -1    0    0  501    0  0.00000000000E+00  0.00000000000E+00  0.15525307120E+04  0.15525307120E+04  0.50400001928E-02 0.  1.
       -1   -1    0    0    0  501  0.00000000000E+00  0.00000000000E+00 -0.15511187315E+04  0.15511187315E+04  0.50400001928E-02 0. -1.
    10030    2    1    2    0    0  0.00000000000E+00  0.00000000000E+00  0.14119805320E+01  0.31036494436E+04  0.31036491224E+04 0.  0.
        5    1    3    3  502    0  0.24206445503E+03  0.11511151777E+04 -0.10114581457E+04  0.15513642458E+04  0.46999998093E+01 0. -1.
       -5    1    3    3    0  502 -0.24206445503E+03 -0.11511151777E+04  0.10128701262E+04  0.15522851978E+04  0.46999998093E+01 0.  1.
</event>
<event>
 5   0  0.2628425E-06  0.3017127E+04  0.7818609E-02  0.8238857E-01
       -1   -1    0    0    0  501  0.00000000000E+00  0.00000000000E+00  0.95205302673E+03  0.95205302674E+03  0.50400001928E-02 0.  1.
        1   -1    0    0  501    0  0.00000000000E+00  0.00000000000E+00 -0.23903756443E+04  0.23903756444E+04  0.50400001928E-02 0. -1.
    10030    2    1    2    0    0  0.00000000000E+00  0.00000000000E+00 -0.14383226176E+04  0.33424286711E+04  0.30171273538E+04 0.  0.
        1    1    3    3  502    0  0.38974527308E+03 -0.19175838603E+02 -0.23334981402E+04  0.23658999685E+04  0.50400001928E-02 0. -1.
       -1    1    3    3    0  502 -0.38974527308E+03  0.19175838603E+02  0.89517552259E+03  0.97652870257E+03  0.50400001928E-02 0.  1.
</event>
<event>
 5   0  0.6792811E-06  0.2872764E+04  0.7818609E-02  0.8281028E-01
        2   -1    0    0  501    0  0.00000000000E+00  0.00000000000E+00  0.12406532672E+04  0.12406532672E+04  0.25500000920E-02 0.  1.
       -2   -1    0    0    0  501  0.00000000000E+00  0.00000000000E+00 -0.16629889244E+04  0.16629889245E+04  0.25500000920E-02 0. -1.
    10030    2    1    2    0    0  0.00000000000E+00  0.00000000000E+00 -0.42233565726E+03  0.29036421916E+04  0.28727635771E+04 0.  0.
        2    1    3    3  502    0 -0.99891178273E+03 -0.47361541672E+03 -0.11381166452E+04  0.15866460887E+04  0.25500000920E-02 0.  1.
       -2    1    3    3    0  502  0.99891178273E+03  0.47361541672E+03  0.71578098790E+03  0.13169961030E+04  0.25500000920E-02 0. -1.
</event>
<event>
 5   0  0.2552990E-06  0.2951276E+04  0.7818609E-02  0.8257783E-01
        1   -1    0    0  501    0  0.00000000000E+00  0.00000000000E+00  0.11981626022E+04  0.11981626022E+04  0.50400001928E-02 0. -1.
       -1   -1    0    0    0  501  0.00000000000E+00  0.00000000000E+00 -0.18173728036E+04  0.18173728036E+04  0.50400001928E-02 0.  1.
    10030    2    1    2    0    0  0.00000000000E+00  0.00000000000E+00 -0.61921020134E+03  0.30155354058E+04  0.29512764205E+04 0.  0.
        3    1    3    3  502    0  0.13749061265E+04  0.21529462518E+03  0.19178216905E+03  0.14048128142E+04  0.10100000352E+00 0. -1.
       -3    1    3    3    0  502 -0.13749061265E+04 -0.21529462518E+03 -0.81099237039E+03  0.16107225917E+04  0.10100000352E+00 0.  1.
</event>
<event>
 5   0  0.2422083E-06  0.2674805E+04  0.7818609E-02  0.8343226E-01
        1   -1    0    0  501    0  0.00000000000E+00  0.00000000000E+00  0.13631508305E+04  0.13631508305E+04  0.50400001928E-02 0. -1.
       -1   -1    0    0    0  501  0.00000000000E+00  0.00000000000E+00 -0.13121405812E+04  0.13121405812E+04  0.50400001928E-02 0.  1.
    10030    2    1    2    0    0  0.00000000000E+00  0.00000000000E+00  0.51010249343E+02  0.26752914117E+04  0.26748050568E+04 0.  0.
        2    1    3    3  502    0  0.25072159566E+03 -0.89466071339E+03  0.98763970897E+03  0.13559908943E+04  0.25500000920E-02 0. -1.
       -2    1    3    3    0  502 -0.25072159566E+03  0.89466071339E+03 -0.93662945963E+03  0.13193005174E+04  0.25500000920E-02 0.  1.
</event>
<event>
 5   0  0.2504260E-06  0.2948684E+04  0.7818609E-02  0.8258538E-01
       -1   -1    0    0    0  501  0.00000000000E+00  0.00000000000E+00  0.12148405763E+04  0.12148405763E+04  0.50400001928E-02 0. -1.
        1   -1    0    0  501    0  0.00000000000E+00  0.00000000000E+00 -0.17892758193E+04  0.17892758193E+04  0.50400001928E-02 0.  1.
    10030    2    1    2    0    0  0.00000000000E+00  0.00000000000E+00 -0.57443524305E+03  0.30041163956E+04  0.29486843625E+04 0.  0.
        4    1    3    3  502    0  0.78605909321E+03 -0.32590344666E+03 -0.15138368202E+04  0.17366074644E+04  0.12699999809E+01 0.  1.
       -4    1    3    3    0  502 -0.78605909321E+03  0.32590344666E+03  0.93940157711E+03  0.12675089311E+04  0.12699999809E+01 0. -1.
</event>
<event>
 5   0  0.7201538E-06  0.2972695E+04  0.7818609E-02  0.8251571E-01
       -2   -1    0    0    0  501  0.00000000000E+00  0.00000000000E+00  0.13912684772E+04  0.13912684772E+04  0.25500000920E-02 0. -1.
        2   -1    0    0  501    0  0.00000000000E+00  0.00000000000E+00 -0.15879245886E+04  0.15879245886E+04  0.25500000920E-02 0.  1.
    10030    2    1    2    0    0  0.00000000000E+00  0.00000000000E+00 -0.19665611134E+03  0.29791930658E+04  0.29726953590E+04 0.  0.
        3    1    3    3  502    0  0.92090783892E+03  0.11455956335E+04 -0.31964737508E+03  0.15042057898E+04  0.10100000352E+00 0. -1.
       -3    1    3    3    0  502 -0.92090783892E+03 -0.11455956335E+04  0.12299126374E+03  0.14749872760E+04  0.10100000352E+00 0.  1.
</event>
<event>
 5   0  0.7201538E-06  0.3018185E+04  0.7818609E-02  0.8238557E-01
       -2   -1    0    0    0  501  0.00000000000E+00  0.00000000000E+00  0.18992085939E+04  0.18992085939E+04  0.25500000920E-02 0.  1.
        2   -1    0    0  501    0  0.00000000000E+00  0.00000000000E+00 -0.11991097863E+04  0.11991097863E+04  0.25500000920E-02 0. -1.
    10030    2    1    2    0    0  0.00000000000E+00  0.00000000000E+00  0.70009880757E+03  0.30983183802E+04  0.30181846273E+04 0.  0.
        3    1    3    3  502    0  0.74735203784E+03  0.27040660684E+03 -0.96686093877E+03  0.12515889447E+04  0.10100000352E+00 0. -1.
       -3    1    3    3    0  502 -0.74735203784E+03 -0.27040660684E+03  0.16669597463E+04  0.18467294354E+04  0.10100000352E+00 0.  1.
</event>
<event>
 5   0  0.2422083E-06  0.2956700E+04  0.7818609E-02  0.8256205E-01
       -1   -1    0    0    0  501  0.00000000000E+00  0.00000000000E+00  0.11131377074E+04  0.11131377074E+04  0.50400001928E-02 0. -1.
        1   -1    0    0  501    0  0.00000000000E+00  0.00000000000E+00 -0.19633857005E+04  0.19633857005E+04  0.50400001928E-02 0.  1.
    10030    2    1    2    0    0  0.00000000000E+00  0.00000000000E+00 -0.85024799310E+03  0.30765234078E+04  0.29566999559E+04 0.  0.
        2    1    3    3  502    0  0.13501992852E+04 -0.53308857202E+03 -0.71628007973E+03  0.16187274903E+04  0.25500000920E-02 0.  1.
       -2    1    3    3    0  502 -0.13501992852E+04  0.53308857202E+03 -0.13396791336E+03  0.14577959175E+04  0.25500000920E-02 0. -1.
</event>
<event>
 5   0  0.2672155E-06  0.3046346E+04  0.7818609E-02  0.8230619E-01
        1   -1    0    0  501    0  0.00000000000E+00  0.00000000000E+00  0.14445651613E+04  0.14445651613E+04  0.50400001928E-02 0. -1.
       -1   -1    0    0    0  501  0.00000000000E+00  0.00000000000E+00 -0.16060587282E+04  0.16060587282E+04  0.50400001928E-02 0.  1.
    10030    2    1    2    0    0  0.00000000000E+00  0.00000000000E+00 -0.16149356689E+03  0.30506238896E+04  0.30463463269E+04 0.  0.
        5    1    3    3  502    0 -0.58848144738E+03 -0.13445335439E+04 -0.48869274746E+03  0.15469077400E+04  0.46999998093E+01 0.  1.
       -5    1    3    3    0  502  0.58848144738E+03  0.13445335439E+04  0.32719918057E+03  0.15037161496E+04  0.46999998093E+01 0. -1.
</event>
<event>
 5   0  0.6780150E-06  0.3234449E+04  0.7818609E-02  0.8179778E-01
       -2   -1    0    0    0  501  0.00000000000E+00  0.00000000000E+00  0.12990275084E+04  0.12990275084E+04  0.25500000920E-02 0. -1.
        2   -1    0    0  501    0  0.00000000000E+00  0.00000000000E+00 -0.20133635442E+04  0.20133635442E+04  0.25500000920E-02 0.  1.
    10030    2    1    2    0    0  0.00000000000E+00  0.00000000000E+00 -0.71433603581E+03  0.33123910525E+04  0.32344487185E+04 0.  0.
        5    1    3    3  502    0  0.13544050890E+04  0.71454085858E+03 -0.88970934106E+03  0.17710411021E+04  0.46999998093E+01 0.  1.
       -5    1    3    3    0  502 -0.13544050890E+04 -0.71454085858E+03  0.17537330525E+03  0.15413499505E+04  0.46999998093E+01 0. -1.
</event>
<event>
 5   0  0.7217255E-06  0.3024686E+04  0.7818609E-02  0.8236716E-01
       -2   -1    0    0    0  501  0.00000000000E+00  0.00000000000E+00  0.76815385551E+03  0.76815385552E+03  0.25500000920E-02 0.  1.
        2   -1    0    0  501    0  0.00000000000E+00  0.00000000000E+00 -0.29775049241E+04  0.29775049241E+04  0.25500000920E-02 0. -1.
    10030    2    1    2    0    0  0.00000000000E+00  0.00000000000E+00 -0.22093510686E+04  0.37456587797E+04  0.30246863555E+04 0.  0.
        1    1    3    3  502    0  0.12799527357E+03  0.14589839548E+04 -0.15715972601E+04  0.21482399583E+04  0.50400001928E-02 0. -1.
       -1    1    3    3    0  502 -0.12799527357E+03 -0.14589839548E+04 -0.63775380858E+03  0.15974188214E+04  0.50400001928E-02 0.  1.
</event>
<event>
 5   0  0.2298500E-06  0.2979476E+04  0.7818609E-02  0.8249616E-01
        3   -1    0    0  501    0  0.00000000000E+00  0.00000000000E+00  0.15663202866E+04  0.15663202898E+04  0.10100000352E+00 0.  1.
       -3   -1    0    0    0  501  0.00000000000E+00  0.00000000000E+00 -0.14168999195E+04  0.14168999231E+04  0.10100000352E+00 0. -1.
    10030    2    1    2    0    0  0.00000000000E+00  0.00000000000E+00  0.14942036703E+03  0.29832202130E+04  0.29794758588E+04 0.  0.
        4    1    3    3  502    0  0.12654011269E+04  0.13523302479E+03  0.85014424221E+03  0.15304492244E+04  0.12699999809E+01 0. -1.
       -4    1    3    3    0  502 -0.12654011269E+04 -0.13523302479E+03 -0.70072387519E+03  0.14527709886E+04  0.12699999809E+01 0.  1.
</event>
<event>
 5   0  0.2504260E-06  0.3018658E+04  0.7818609E-02  0.8238423E-01
       -1   -1    0    0    0  501  0.00000000000E+00  0.00000000000E+00  0.14364899269E+04  0.14364899269E+04  0.50400001928E-02 0. -1.
        1   -1    0    0  501    0  0.00000000000E+00  0.00000000000E+00 -0.15858610626E+04  0.15858610626E+04  0.50400001928E-02 0.  1.
    10030    2    1    2    0    0  0.00000000000E+00  0.00000000000E+00 -0.14937113566E+03  0.30223509895E+04  0.30186576102E+04 0.  0.
        4    1    3    3  502    0 -0.48432067323E+03  0.38167433651E+03  0.13046174849E+04  0.14430073488E+04  0.12699999809E+01 0. -1.
       -4    1    3    3    0  502  0.48432067323E+03 -0.38167433651E+03 -0.14539886206E+04  0.15793436407E+04  0.12699999809E+01 0.  1.
</event>
<event>
 5   0  0.7193153E-06  0.2790831E+04  0.7818609E-02  0.8306121E-01
        2   -1    0    0  501    0  0.00000000000E+00  0.00000000000E+00  0.13271957780E+04  0.13271957780E+04  0.25500000920E-02 0.  1.
       -2   -1    0    0    0  501  0.00000000000E+00  0.00000000000E+00 -0.14671417591E+04  0.14671417591E+04  0.25500000920E-02 0. -1.
    10030    2    1    2    0    0  0.00000000000E+00  0.00000000000E+00 -0.13994598115E+03  0.27943375371E+04  0.27908309504E+04 0.  0.
        4    1    3    3  502    0 -0.12226258993E+03 -0.71772694720E+03  0.11219439302E+04  0.13374751987E+04  0.12699999809E+01 0.  1.
       -4    1    3    3    0  502  0.12226258993E+03  0.71772694720E+03 -0.12618899114E+04  0.14568623384E+04  0.12699999809E+01 0. -1.
</event>
<event>
 5   0  0.7201538E-06  0.2972655E+04  0.7818609E-02  0.8251583E-01
       -2   -1    0    0    0  501  0.00000000000E+00  0.00000000000E+00  0.10398657629E+04  0.10398657629E+04  0.25500000920E-02 0.  1.
        2   -1    0    0  501    0  0.00000000000E+00  0.00000000000E+00 -0.21244752104E+04  0.21244752104E+04  0.25500000920E-02 0. -1.
    10030    2    1    2    0    0  0.00000000000E+00  0.00000000000E+00 -0.10846094475E+04  0.31643409733E+04  0.29726547297E+04 0.  0.
        3    1    3    3  502    0  0.75607682015E+03  0.95958293347E+03 -0.14434873241E+04  0.18910598164E+04  0.10100000352E+00 0. -1.
       -3    1    3    3    0  502 -0.75607682015E+03 -0.95958293347E+03  0.35887787655E+03  0.12732811570E+04  0.10100000352E+00 0.  1.
</event>
<event>
 5   0  0.6780150E-06  0.2982259E+04  0.7818609E-02  0.8248815E-01
        2   -1    0    0  501    0  0.00000000000E+00  0.00000000000E+00  0.16826456535E+04  0.16826456535E+04  0.25500000920E-02 0.  1.
       -2   -1    0    0    0  501  0.00000000000E+00  0.00000000000E+00 -0.13214114729E+04  0.13214114729E+04  0.25500000920E-02 0. -1.
    10030    2    1    2    0    0  0.00000000000E+00  0.00000000000E+00  0.36123418061E+03  0.30040571264E+04  0.29822590574E+04 0.  0.
        5    1    3    3  502    0 -0.80050335190E+03  0.14688118851E+03  0.14391755152E+04  0.16533686683E+04  0.46999998093E+01 0.  1.
       -5    1    3    3    0  502  0.80050335190E+03 -0.14688118851E+03 -0.10779413346E+04  0.13506884580E+04  0.46999998093E+01 0. -1.
</event>
<event>
 5   0  0.6780150E-06  0.2992846E+04  0.7818609E-02  0.8245777E-01
       -2   -1    0    0    0  501  0.00000000000E+00  0.00000000000E+00  0.12142006731E+04  0.12142006731E+04  0.25500000920E-02 0.  1.
        2   -1    0    0  501    0  0.00000000000E+00  0.00000000000E+00 -0.18442434615E+04  0.18442434615E+04  0.25500000920E-02 0. -1.
    10030    2    1    2    0    0  0.00000000000E+00  0.00000000000E+00 -0.63004278837E+03  0.30584441346E+04  0.29928459047E+04 0.  0.
        5    1    3    3  502    0  0.49607355531E+03  0.22064423222E+03  0.11099911438E+04  0.12356679485E+04  0.46999998093E+01 0.  1.
       -5    1    3    3    0  502 -0.49607355531E+03 -0.22064423222E+03 -0.17400339322E+04  0.18227761861E+04  0.46999998093E+01 0. -1.
</event>
<event>
 5   0  0.6780150E-06  0.3016387E+04  0.7818609E-02  0.8239067E-01
       -2   -1    0    0    0  501  0.00000000000E+00  0.00000000000E+00  0.13270197823E+04  0.13270197823E+04  0.25500000920E-02 0.  1.
        2   -1    0    0  501    0  0.00000000000E+00  0.00000000000E+00 -0.17141026960E+04  0.17141026960E+04  0.25500000920E-02 0. -1.
    10030    2    1    2    0    0  0.00000000000E+00  0.00000000000E+00 -0.38708291373E+03  0.30411224783E+04  0.30163873667E+04 0.  0.
        5    1    3    3  502    0 -0.57444239129E+03 -0.77272726255E+03  0.97681124698E+03  0.13715953432E+04  0.46999998093E+01 0.  1.
       -5    1    3    3    0  502  0.57444239129E+03  0.77272726255E+03 -0.13638941607E+04  0.16695271351E+04  0.46999998093E+01 0. -1.
</event>
<event>
 5   0  0.2672155E-06  0.2641474E+04  0.7818609E-02  0.8354248E-01
       -1   -1    0    0    0  501  0.00000000000E+00  0.00000000000E+00  0.53755901773E+03  0.53755901775E+03  0.50400001928E-02 0. -1.
        1   -1    0    0  501    0  0.00000000000E+00  0.00000000000E+00 -0.32449386316E+04  0.32449386316E+04  0.50400001928E-02 0.  1.
    10030    2    1    2    0    0  0.00000000000E+00  0.00000000000E+00 -0.27073796139E+04  0.37824976494E+04  0.26414738488E+04 0.  0.
        5    1    3    3  502    0  0.11179904343E+04  0.27064398038E+03 -0.22830042653E+04  0.25564196331E+04  0.46999998093E+01 0.  1.
       -5    1    3    3    0  502 -0.11179904343E+04 -0.27064398038E+03 -0.42437534859E+03  0.12260780162E+04  0.46999998093E+01 0. -1.
</event>
<event>
 5   0  0.7217255E-06  0.2965369E+04  0.7818609E-02  0.8253690E-01
       -2   -1    0    0    0  501  0.00000000000E+00  0.00000000000E+00  0.29953508694E+04  0.29953508694E+04  0.25500000920E-02 0.  1.
        2   -1    0    0  501    0  0.00000000000E+00  0.00000000000E+00 -0.73392169216E+03  0.73392169216E+03  0.25500000920E-02 0. -1.
    10030    2    1    2    0    0  0.00000000000E+00  0.00000000000E+00  0.22614291773E+04  0.37292725616E+04  0.29653687654E+04 0.  0.
        1    1    3    3  502    0 -0.60957231595E+03 -0.10021188025E+04 -0.98554109929E+01  0.11729951542E+04  0.50400001928E-02 0. -1.
       -1    1    3    3    0  502  0.60957231595E+03  0.10021188025E+04  0.22712845883E+04  0.25562774074E+04  0.50400001928E-02 0.  1.
</event>
<event>
 5   0  0.2422083E-06  0.3007820E+04  0.7818609E-02  0.8241501E-01
        1   -1    0    0  501    0  0.00000000000E+00  0.00000000000E+00  0.19326943214E+04  0.19326943214E+04  0.50400001928E-02 0. -1.
       -1   -1    0    0    0  501  0.00000000000E+00  0.00000000000E+00 -0.11702548298E+04  0.11702548298E+04  0.50400001928E-02 0.  1.
    10030    2    1    2    0    0  0.00000000000E+00  0.00000000000E+00  0.76243949168E+03  0.31029491512E+04  0.30078197181E+04 0.  0.
        2    1    3    3  502    0  0.55978775702E+03 -0.23774146226E+03 -0.10377316826E+04  0.12028176840E+04  0.25500000920E-02 0.  1.
       -2    1    3    3    0  502 -0.55978775702E+03  0.23774146226E+03  0.18001711743E+04  0.19001314672E+04  0.25500000920E-02 0. -1.
</event>
<event>
 5   0  0.2422083E-06  0.2997345E+04  0.7818609E-02  0.8244490E-01
        1   -1    0    0  501    0  0.00000000000E+00  0.00000000000E+00  0.12082675862E+04  0.12082675862E+04  0.50400001928E-02 0.  1.
       -1   -1    0    0    0  501  0.00000000000E+00  0.00000000000E+00 -0.18588752247E+04  0.18588752247E+04  0.50400001928E-02 0. -1.
    10030    2    1    2    0    0  0.00000000000E+00  0.00000000000E+00 -0.65060763851E+03  0.30671428109E+04  0.29973446120E+04 0.  0.
        2    1    3    3  502    0  0.14370227617E+04 -0.28019975172E+03 -0.65287123484E+03  0.16030555722E+04  0.25500000920E-02 0. -1.
       -2    1    3    3    0  502 -0.14370227617E+04  0.28019975172E+03  0.22635963242E+01  0.14640872386E+04  0.25500000920E-02 0.  1.
</event>
<event>
 5   0  0.2552990E-06  0.2970279E+04  0.7818609E-02  0.8252269E-01
        1   -1    0    0  501    0  0.00000000000E+00  0.00000000000E+00  0.14902001548E+04  0.14902001548E+04  0.50400001928E-02 0.  1.
       -1   -1    0    0    0  501  0.00000000000E+00  0.00000000000E+00 -0.14800963424E+04  0.14800963424E+04  0.50400001928E-02 0. -1.
    10030    2    1    2    0    0  0.00000000000E+00  0.00000000000E+00  0.10103812417E+02  0.29702964973E+04  0.29702793126E+04 0.  0.
        3    1    3    3  502    0 -0.74664974972E+03  0.21248277479E+03  0.12711575727E+04  0.14894550558E+04  0.10100000352E+00 0.  1.
       -3    1    3    3    0  502  0.74664974972E+03 -0.21248277479E+03 -0.12610537603E+04  0.14808414415E+04  0.10100000352E+00 0. -1.
</event>
<event>
 5   0  0.7217255E-06  0.2940179E+04  0.7818609E-02  0.8261022E-01
        2   -1    0    0  501    0  0.00000000000E+00  0.00000000000E+00  0.71185442240E+03  0.71185442241E+03  0.25500000920E-02 0.  1.
       -2   -1    0    0    0  501  0.00000000000E+00  0.00000000000E+00 -0.30359618439E+04  0.30359618439E+04  0.25500000920E-02 0. -1.
    10030    2    1    2    0    0  0.00000000000E+00  0.00000000000E+00 -0.23241074215E+04  0.37478162663E+04  0.29401788142E+04 0.  0.
        1    1    3    3  502    0 -0.10749963636E+04  0.46523715512E+03 -0.22943773903E+04  0.25760881976E+04  0.50400001928E-02 0. -1.
       -1    1    3    3    0  502  0.10749963636E+04 -0.46523715512E+03 -0.29730031134E+02  0.11717280687E+04  0.50400001928E-02 0.  1.
</event>
<event>
 5   0  0.2504260E-06  0.2999038E+04  0.7818609E-02  0.8244006E-01
       -1   -1    0    0    0  501  0.00000000000E+00  0.00000000000E+00  0.16858063300E+04  0.16858063300E+04  0.50400001928E-02 0.  1.
        1   -1    0    0  501    0  0.00000000000E+00  0.00000000000E+00 -0.13338173016E+04  0.13338173016E+04  0.50400001928E-02 0. -1.
    10030    2    1    2    0    0  0.00000000000E+00  0.00000000000E+00  0.35198902838E+03  0.30196236316E+04  0.29990382793E+04 0.  0.
        4    1    3    3  502    0  0.12914385673E+04  0.50663245313E+03  0.74916993060E+03  0.15766252610E+04  0.12699999809E+01 0.  1.
       -4    1    3    3    0  502 -0.12914385673E+04 -0.50663245313E+03 -0.39718090222E+03  0.14429983706E+04  0.12699999809E+01 0. -1.
</event>
<event>
 5   0  0.2504260E-06  0.2265549E+04  0.7818609E-02  0.8491630E-01
       -1   -1    0    0    0  501  0.00000000000E+00  0.00000000000E+00  0.84399432011E+03  0.84399432013E+03  0.50400001928E-02 0.  1.
        1   -1    0    0  501    0  0.00000000000E+00  0.00000000000E+00 -0.15203640447E+04  0.15203640447E+04  0.50400001928E-02 0. -1.
    10030    2    1    2    0    0  0.00000000000E+00  0.00000000000E+00 -0.67636972458E+03  0.23643583648E+04  0.22655494859E+04 0.  0.
        4    1    3    3  502    0 -0.26463227670E+03  0.37594682880E+03 -0.14186202582E+04  0.14912582975E+04  0.12699999809E+01 0. -1.
       -4    1    3    3    0  502  0.26463227670E+03 -0.37594682880E+03  0.74225053364E+03  0.87310006732E+03  0.12699999809E+01 0.  1.
</event>
<event>
 5   0  0.2672155E-06  0.2994806E+04  0.7818609E-02  0.8245216E-01
       -1   -1    0    0    0  501  0.00000000000E+00  0.00000000000E+00  0.10880774617E+04  0.10880774617E+04  0.50400001928E-02 0.  1.
        1   -1    0    0  501    0  0.00000000000E+00  0.00000000000E+00 -0.20607131201E+04  0.20607131202E+04  0.50400001928E-02 0. -1.
    10030    2    1    2    0    0  0.00000000000E+00  0.00000000000E+00 -0.97263565843E+03  0.31487905819E+04  0.29948058375E+04 0.  0.
        5    1    3    3  502    0 -0.75518898014E+03 -0.12899891361E+04 -0.39339345348E+03  0.15456917113E+04  0.46999998093E+01 0.  1.
       -5    1    3    3    0  502  0.75518898014E+03  0.12899891361E+04 -0.57924220495E+03  0.16030988706E+04  0.46999998093E+01 0. -1.
</event>
<event>
 5   0  0.6792811E-06  0.3008945E+04  0.7818609E-02  0.8241181E-01
        2   -1    0    0  501    0  0.00000000000E+00  0.00000000000E+00  0.16609103159E+04  0.16609103159E+04  0.25500000920E-02 0. -1.
       -2   -1    0    0    0  501  0.00000000000E+00  0.00000000000E+00 -0.13627695308E+04  0.13627695308E+04  0.25500000920E-02 0.  1.
    10030    2    1    2    0    0  0.00000000000E+00  0.00000000000E+00  0.29814078515E+03  0.30236798467E+04  0.30089453115E+04 0.  0.
        2    1    3    3  502    0 -0.93039220516E+03 -0.11628358274E+04  0.36370742203E+03  0.15330035570E+04  0.25500000920E-02 0. -1.
       -2    1    3    3    0  502  0.93039220516E+03  0.11628358274E+04 -0.65566636878E+02  0.14906762897E+04  0.25500000920E-02 0.  1.
</event>
<event>
 5   0  0.7193153E-06  0.2987857E+04  0.7818609E-02  0.8247207E-01
        2   -1    0    0  501    0  0.00000000000E+00  0.00000000000E+00  0.12677958782E+04  0.12677958782E+04  0.25500000920E-02 0.  1.
       -2   -1    0    0    0  501  0.00000000000E+00  0.00000000000E+00 -0.17603952242E+04  0.17603952242E+04  0.25500000920E-02 0. -1.
    10030    2    1    2    0    0  0.00000000000E+00  0.00000000000E+00 -0.49259934592E+03  0.30281911024E+04  0.29878566292E+04 0.  0.
        4    1    3    3  502    0  0.19979650345E+03  0.98343513537E+03 -0.13679267116E+04  0.16965519177E+04  0.12699999809E+01 0. -1.
       -4    1    3    3    0  502 -0.19979650345E+03 -0.98343513537E+03  0.87532736565E+03  0.13316391847E+04  0.12699999809E+01 0.  1.
</event>
<event>
 5   0  0.6780150E-06  0.2738045E+04  0.7818609E-02  0.8322765E-01
       -2   -1    0    0    0  501  0.00000000000E+00  0.00000000000E+00  0.10273947414E+04  0.10273947414E+04  0.25500000920E-02 0.  1.
        2   -1    0    0  501    0  0.00000000000E+00  0.00000000000E+00 -0.18242484452E+04  0.18242484452E+04  0.25500000920E-02 0. -1.
    10030    2    1    2    0    0  0.00000000000E+00  0.00000000000E+00 -0.79685370377E+03  0.28516431866E+04  0.27380454778E+04 0.  0.
        5    1    3    3  502    0  0.18081058640E+03  0.63053630930E+03 -0.16499186174E+04  0.17755342969E+04  0.46999998093E+01 0. -1.
       -5    1    3    3    0  502 -0.18081058640E+03 -0.63053630930E+03  0.85306491365E+03  0.10761088897E+04  0.46999998093E+01 0.  1.
</event>
<event>
 5   0  0.7201538E-06  0.3112958E+04  0.7818609E-02  0.8212191E-01
        2   -1    0    0  501    0  0.00000000000E+00  0.00000000000E+00  0.15034910546E+04  0.15034910546E+04  0.25500000920E-02 0. -1.
       -2   -1    0    0    0  501  0.00000000000E+00  0.00000000000E+00 -0.16113343093E+04  0.16113343093E+04  0.25500000920E-02 0.  1.
    10030    2    1    2    0    0  0.00000000000E+00  0.00000000000E+00 -0.10784325477E+03  0.31148253639E+04  0.31129578989E+04 0.  0.
        3    1    3    3  502    0  0.43514791918E+03 -0.80811221407E+03 -0.13117468041E+04  0.16009618204E+04  0.10100000352E+00 0.  1.
       -3    1    3    3    0  502 -0.43514791918E+03  0.80811221407E+03  0.12039035493E+04  0.15138635435E+04  0.10100000352E+00 0. -1.
</event>
<event>
 5   0  0.6780150E-06  0.2995833E+04  0.7818609E-02  0.8244922E-01
        2   -1    0    0  501    0  0.00000000000E+00  0.00000000000E+00  0.15734402942E+04  0.15734402942E+04  0.25500000920E-02 0.  1.
       -2   -1    0    0    0  501  0.00000000000E+00  0.00000000000E+00 -0.14260175236E+04  0.14260175236E+04  0.25500000920E-02 0. -1.
    10030    2    1    2    0    0  0.00000000000E+00  0.00000000000E+00  0.14742277059E+03  0.29994578179E+04  0.29958327269E+04 0.  0.
        5    1    3    3  502    0 -0.63970730034E+02  0.76129797128E+03  0.13637053469E+04  0.15631318622E+04  0.46999998093E+01 0.  1.
       -5    1    3    3    0  502  0.63970730034E+02 -0.76129797128E+03 -0.12162825763E+04  0.14363259557E+04  0.46999998093E+01 0. -1.
</event>
<event>
 5   0  0.6792811E-06  0.3035752E+04  0.7818609E-02  0.8233595E-01
       -2   -1    0    0    0  501  0.00000000000E+00  0.00000000000E+00  0.11889779204E+04  0.11889779204E+04  0.25500000920E-02 0.  1.
        2   -1    0    0  501    0  0.00000000000E+00  0.00000000000E+00 -0.19377543374E+04  0.19377543374E+04  0.25500000920E-02 0. -1.
    10030    2    1    2    0    0  0.00000000000E+00  0.00000000000E+00 -0.74877641705E+03  0.31267322578E+04  0.30357517174E+04 0.  0.
        2    1    3    3  502    0  0.38437435362E+03 -0.14683478691E+04 -0.36144112154E+03  0.15602656161E+04  0.25500000920E-02 0.  1.
       -2    1    3    3    0  502 -0.38437435362E+03  0.14683478691E+04 -0.38733529551E+03  0.15664666417E+04  0.25500000920E-02 0. -1.
</event>
<event>
 5   0  0.2628425E-06  0.2712312E+04  0.7818609E-02  0.8331021E-01
       -1   -1    0    0    0  501  0.00000000000E+00  0.00000000000E+00  0.16384321027E+04  0.16384321027E+04  0.50400001928E-02 0. -1.
        1   -1    0    0  501    0  0.00000000000E+00  0.00000000000E+00 -0.11225117561E+04  0.11225117561E+04  0.50400001928E-02 0.  1.
    10030    2    1    2    0    0  0.00000000000E+00  0.00000000000E+00  0.51592034657E+03  0.27609438588E+04  0.27123121479E+04 0.  0.
        1    1    3    3  502    0  0.41841501463E+03  0.11723123645E+04 -0.28999626636E+03  0.12780787296E+04  0.50400001928E-02 0.  1.
       -1    1    3    3    0  502 -0.41841501463E+03 -0.11723123645E+04  0.80591661292E+03  0.14828651292E+04  0.50400001928E-02 0. -1.
</event>
<event>
 5   0  0.2504260E-06  0.2964600E+04  0.7818609E-02  0.8253912E-01
        1   -1    0    0  501    0  0.00000000000E+00  0.00000000000E+00  0.16608440248E+04  0.16608440248E+04  0.50400001928E-02 0. -1.
       -1   -1    0    0    0  501  0.00000000000E+00  0.00000000000E+00 -0.13229501627E+04  0.13229501628E+04  0.50400001928E-02 0.  1.
    10030    2    1    2    0    0  0.00000000000E+00  0.00000000000E+00  0.33789386206E+03  0.29837941876E+04  0.29646003933E+04 0.  0.
        4    1    3    3  502    0 -0.94041448814E+03 -0.11271612019E+04  0.37604715425E+03  0.15153497483E+04  0.12699999809E+01 0. -1.
       -4    1    3    3    0  502  0.94041448814E+03  0.11271612019E+04 -0.38153292185E+02  0.14684444393E+04  0.12699999809E+01 0.  1.
</event>
<event>
 5   0  0.7193153E-06  0.2983662E+04  0.7818609E-02  0.8248412E-01
        2   -1    0    0  501    0  0.00000000000E+00  0.00000000000E+00  0.21305186820E+04  0.21305186820E+04  0.25500000920E-02 0.  1.
       -2   -1    0    0    0  501  0.00000000000E+00  0.00000000000E+00 -0.10446093091E+04  0.10446093091E+04  0.25500000920E-02 0. -1.
    10030    2    1    2    0    0  0.00000000000E+00  0.00000000000E+00  0.10859093729E+04  0.31751279912E+04  0.29836619437E+04 0.  0.
        4    1    3    3  502    0 -0.73827966778E+02  0.17861323610E+02 -0.10425495777E+04  0.10453137474E+04  0.12699999809E+01 0. -1.
       -4    1    3    3    0  502  0.73827966778E+02 -0.17861323610E+02  0.21284589506E+04  0.21298142438E+04  0.12699999809E+01 0.  1.
</event>
<event>
 5   0  0.7193153E-06  0.2990587E+04  0.7818609E-02  0.8246424E-01
        2   -1    0    0  501    0  0.00000000000E+00  0.00000000000E+00  0.18717879235E+04  0.18717879235E+04  0.25500000920E-02 0.  1.
       -2   -1    0    0    0  501  0.00000000000E+00  0.00000000000E+00 -0.11945275187E+04  0.11945275188E+04  0.25500000920E-02 0. -1.
    10030    2    1    2    0    0  0.00000000000E+00  0.00000000000E+00  0.67726040472E+03  0.30663154422E+04  0.29905866875E+04 0.  0.
        4    1    3    3  502    0 -0.81129507592E+03  0.95536427353E+03  0.11747427062E+04  0.17178307932E+04  0.12699999809E+01 0.  1.
       -4    1    3    3    0  502  0.81129507592E+03 -0.95536427353E+03 -0.49748230153E+03  0.13484846490E+04  0.12699999809E+01 0. -1.
</event>
<event>
 5   0  0.2422083E-06  0.2301875E+04  0.7818609E-02  0.8477182E-01
       -1   -1    0    0    0  501  0.00000000000E+00  0.00000000000E+00  0.63080422607E+03  0.63080422609E+03  0.50400001928E-02 0.  1.
        1   -1    0    0  501    0  0.00000000000E+00  0.00000000000E+00 -0.20999498907E+04  0.20999498908E+04  0.50400001928E-02 0. -1.
    10030    2    1    2    0    0  0.00000000000E+00  0.00000000000E+00 -0.14691456647E+04  0.27307541168E+04  0.23018751188E+04 0.  0.
        2    1    3    3  502    0 -0.94064858405E+03  0.24712636338E+03 -0.14646795946E+04  0.17581744831E+04  0.25500000920E-02 0. -1.
       -2    1    3    3    0  502  0.94064858405E+03 -0.24712636338E+03 -0.44660700334E+01  0.97257963372E+03  0.25500000920E-02 0.  1.
</event>
<event>
 5   0  0.2422083E-06  0.2979078E+04  0.7818609E-02  0.8249731E-01
       -1   -1    0    0    0  501  0.00000000000E+00  0.00000000000E+00  0.15715272209E+04  0.15715272209E+04  0.50400001928E-02 0. -1.
        1   -1    0    0  501    0  0.00000000000E+00  0.00000000000E+00 -0.14118284196E+04  0.14118284196E+04  0.50400001928E-02 0.  1.
    10030    2    1    2    0    0  0.00000000000E+00  0.00000000000E+00  0.15969880124E+03  0.29833556405E+04  0.29790782418E+04 0.  0.
        2    1    3    3  502    0 -0.15926893196E+03 -0.35365080329E+03 -0.13603710449E+04  0.14145829290E+04  0.25500000920E-02 0.  1.
       -2    1    3    3    0  502  0.15926893196E+03  0.35365080329E+03  0.15200698461E+04  0.15687727115E+04  0.25500000920E-02 0. -1.
</event>
<event>
 5   0  0.6792811E-06  0.2948329E+04  0.7818609E-02  0.8258642E-01
        2   -1    0    0  501    0  0.00000000000E+00  0.00000000000E+00  0.18729702720E+04  0.18729702720E+04  0.25500000920E-02 0. -1.
       -2   -1    0    0    0  501  0.00000000000E+00  0.00000000000E+00 -0.11602755090E+04  0.11602755090E+04  0.25500000920E-02 0.  1.
    10030    2    1    2    0    0  0.00000000000E+00  0.00000000000E+00  0.71269476297E+03  0.30332457810E+04  0.29483293817E+04 0.  0.
        2    1    3    3  502    0 -0.12095098108E+04 -0.82359541157E+03  0.54020705651E+03  0.15598227618E+04  0.25500000920E-02 0. -1.
       -2    1    3    3    0  502  0.12095098108E+04  0.82359541157E+03  0.17248770646E+03  0.14734230192E+04  0.25500000920E-02 0.  1.
</event>
<event>
 5   0  0.7201538E-06  0.2991584E+04  0.7818609E-02  0.8246138E-01
        2   -1    0    0  501    0  0.00000000000E+00  0.00000000000E+00  0.78075507296E+03  0.78075507296E+03  0.25500000920E-02 0.  1.
       -2   -1    0    0    0  501  0.00000000000E+00  0.00000000000E+00 -0.28656792763E+04  0.28656792763E+04  0.25500000920E-02 0. -1.
    10030    2    1    2    0    0  0.00000000000E+00  0.00000000000E+00 -0.20849242033E+04  0.36464343492E+04  0.29915839500E+04 0.  0.
        3    1    3    3  502    0  0.95060625485E+03  0.10772333866E+04 -0.15498948780E+04  0.21133523520E+04  0.10100000352E+00 0. -1.
       -3    1    3    3    0  502 -0.95060625485E+03 -0.10772333866E+04 -0.53502932535E+03  0.15330819972E+04  0.10100000352E+00 0.  1.
</event>
<event>
 5   0  0.6792811E-06  0.2979942E+04  0.7818609E-02  0.8249482E-01
       -2   -1    0    0    0  501  0.00000000000E+00  0.00000000000E+00  0.15613154239E+04  0.15613154239E+04  0.25500000920E-02 0. -1.
        2   -1    0    0  501    0  0.00000000000E+00  0.00000000000E+00 -0.14218868314E+04  0.14218868314E+04  0.25500000920E-02 0.  1.
    10030    2    1    2    0    0  0.00000000000E+00  0.00000000000E+00  0.13942859249E+03  0.29832022553E+04  0.29799421745E+04 0.  0.
        2    1    3    3  502    0  0.34850059558E+03  0.11693536511E+04 -0.78630784614E+03  0.14515924550E+04  0.25500000920E-02 0.  1.
       -2    1    3    3    0  502 -0.34850059558E+03 -0.11693536511E+04  0.92573643863E+03  0.15316098003E+04  0.25500000920E-02 0. -1.
</event>
<event>
 5   0  0.7217255E-06  0.3001997E+04  0.7818609E-02  0.8243161E-01
       -2   -1    0    0    0  501  0.00000000000E+00  0.00000000000E+00  0.14282875345E+04  0.14282875345E+04  0.25500000920E-02 0. -1.
        2   -1    0    0  501    0  0.00000000000E+00  0.00000000000E+00 -0.15774107810E+04  0.15774107810E+04  0.25500000920E-02 0.  1.
    10030    2    1    2    0    0  0.00000000000E+00  0.00000000000E+00 -0.14912324650E+03  0.30056983155E+04  0.30019967724E+04 0.  0.
        1    1    3    3  502    0  0.38609962630E+03 -0.53457074864E+03 -0.14246148767E+04  0.15698300397E+04  0.50400001928E-02 0.  1.
       -1    1    3    3    0  502 -0.38609962630E+03  0.53457074864E+03  0.12754916302E+04  0.14358682758E+04  0.50400001928E-02 0. -1.
</event>
<event>
 5   0  0.2672155E-06  0.2975270E+04  0.7818609E-02  0.8250828E-01
       -1   -1    0    0    0  501  0.00000000000E+00  0.00000000000E+00  0.10971225891E+04  0.10971225891E+04  0.50400001928E-02 0. -1.
        1   -1    0    0  501    0  0.00000000000E+00  0.00000000000E+00 -0.20171467016E+04  0.20171467016E+04  0.50400001928E-02 0.  1.
    10030    2    1    2    0    0  0.00000000000E+00  0.00000000000E+00 -0.92002411244E+03  0.31142692907E+04  0.29752695420E+04 0.  0.
        5    1    3    3  502    0 -0.46122788261E+03  0.11488056782E+04  0.40348268857E+03  0.13020391761E+04  0.46999998093E+01 0. -1.
       -5    1    3    3    0  502  0.46122788261E+03 -0.11488056782E+04 -0.13235068010E+04  0.18122301146E+04  0.46999998093E+01 0.  1.
</event>
<event>
 5   0  0.6780150E-06  0.3000789E+04  0.7818609E-02  0.8243506E-01
       -2   -1    0    0    0  501  0.00000000000E+00  0.00000000000E+00  0.96460486722E+03  0.96460486722E+03  0.25500000920E-02 0.  1.
        2   -1    0    0  501    0  0.00000000000E+00  0.00000000000E+00 -0.23337881505E+04  0.23337881505E+04  0.25500000920E-02 0. -1.
    10030    2    1    2    0    0  0.00000000000E+00  0.00000000000E+00 -0.13691832833E+04  0.32983930177E+04  0.30007888356E+04 0.  0.
        5    1    3    3  502    0 -0.24227740876E+03 -0.10434740162E+04 -0.18393143934E+04  0.21285290445E+04  0.46999998093E+01 0. -1.
       -5    1    3    3    0  502  0.24227740876E+03  0.10434740162E+04  0.47013111014E+03  0.11698639733E+04  0.46999998093E+01 0.  1.
</event>
<event>
 5   0  0.7193153E-06  0.2819303E+04  0.7818609E-02  0.8297300E-01
        2   -1    0    0  501    0  0.00000000000E+00  0.00000000000E+00  0.15779899355E+04  0.15779899355E+04  0.25500000920E-02 0. -1.
       -2   -1    0    0    0  501  0.00000000000E+00  0.00000000000E+00 -0.12592713039E+04  0.12592713039E+04  0.25500000920E-02 0.  1.
    10030    2    1    2    0    0  0.00000000000E+00  0.00000000000E+00  0.31871863161E+03  0.28372612393E+04  0.28193030653E+04 0.  0.
        4    1    3    3  502    0 -0.78957764739E+03 -0.59478074251E+03 -0.85198909894E+03  0.13050226169E+04  0.12699999809E+01 0.  1.
       -4    1    3    3    0  502  0.78957764739E+03  0.59478074251E+03  0.11707077305E+04  0.15322386225E+04  0.12699999809E+01 0. -1.
</event>
<event>
 5   0  0.6792811E-06  0.3035602E+04  0.7818609E-02  0.8233637E-01
        2   -1    0    0  501    0  0.00000000000E+00  0.00000000000E+00  0.13585831824E+04  0.13585831824E+04  0.25500000920E-02 0.  1.
       -2   -1    0    0    0  501  0.00000000000E+00  0.00000000000E+00 -0.16956783858E+04  0.16956783858E+04  0.25500000920E-02 0. -1.
    10030    2    1    2    0    0  0.00000000000E+00  0.00000000000E+00 -0.33709520340E+03  0.30542615682E+04  0.30356021726E+04 0.  0.
        2    1    3    3  502    0 -0.54644808147E+03 -0.25699185110E+03 -0.15696119949E+04  0.16817645887E+04  0.25500000920E-02 0. -1.
       -2    1    3    3    0  502  0.54644808147E+03  0.25699185110E+03  0.12325167915E+04  0.13724969795E+04  0.25500000920E-02 0.  1.
</event>
<event>
 5   0  0.2672155E-06  0.3004659E+04  0.7818609E-02  0.8242402E-01
        1   -1    0    0  501    0  0.00000000000E+00  0.00000000000E+00  0.13471809615E+04  0.13471809615E+04  0.50400001928E-02 0. -1.
       -1   -1    0    0    0  501  0.00000000000E+00  0.00000000000E+00 -0.16753453178E+04  0.16753453178E+04  0.50400001928E-02 0.  1.
    10030    2    1    2    0    0  0.00000000000E+00  0.00000000000E+00 -0.32816435630E+03  0.30225262793E+04  0.30046585937E+04 0.  0.
        5    1    3    3  502    0 -0.57033754605E+03 -0.51904386331E+03 -0.14610434685E+04  0.16520779507E+04  0.46999998093E+01 0.  1.
       -5    1    3    3    0  502  0.57033754605E+03  0.51904386331E+03  0.11328791122E+04  0.13704483286E+04  0.46999998093E+01 0. -1.
</event>
<event>
 5   0  0.2672155E-06  0.2964483E+04  0.7818609E-02  0.8253946E-01
       -1   -1    0    0    0  501  0.00000000000E+00  0.00000000000E+00  0.12821120000E+04  0.12821120000E+04  0.50400001928E-02 0.  1.
        1   -1    0    0  501    0  0.00000000000E+00  0.00000000000E+00 -0.17136101765E+04  0.17136101765E+04  0.50400001928E-02 0. -1.
    10030    2    1    2    0    0  0.00000000000E+00  0.00000000000E+00 -0.43149817642E+03  0.29957221765E+04  0.29644832067E+04 0.  0.
        5    1    3    3  502    0 -0.92615686532E+03  0.79072350949E+03 -0.10696432421E+04  0.16208543929E+04  0.46999998093E+01 0. -1.
       -5    1    3    3    0  502  0.92615686532E+03 -0.79072350949E+03  0.63814506564E+03  0.13748677836E+04  0.46999998093E+01 0.  1.
</event>
<event>
 5   0  0.7217255E-06  0.3018129E+04  0.7818609E-02  0.8238573E-01
       -2   -1    0    0    0  501  0.00000000000E+00  0.00000000000E+00  0.11233573124E+04  0.11233573124E+04  0.25500000920E-02 0.  1.
        2   -1    0    0  501    0  0.00000000000E+00  0.00000000000E+00 -0.20272057244E+04  0.20272057244E+04  0.25500000920E-02 0. -1.
    10030    2    1    2    0    0  0.00000000000E+00  0.00000000000E+00 -0.90384841201E+03  0.31505630367E+04  0.30181294698E+04 0.  0.
        1    1    3    3  502    0 -0.36845551458E+03  0.62176385846E+02 -0.19781497191E+04  0.20131323058E+04  0.50400001928E-02 0. -1.
       -1    1    3    3    0  502  0.36845551458E+03 -0.62176385846E+02  0.10743013071E+04  0.11374307310E+04  0.50400001928E-02 0.  1.
</event>
<event>
 5   0  0.6780150E-06  0.2982557E+04  0.7818609E-02  0.8248730E-01
        2   -1    0    0  501    0  0.00000000000E+00  0.00000000000E+00  0.24439468575E+04  0.24439468575E+04  0.25500000920E-02 0. -1.
       -2   -1    0    0    0  501  0.00000000000E+00  0.00000000000E+00 -0.90996701344E+03  0.90996701344E+03  0.25500000920E-02 0.  1.
    10030    2    1    2    0    0  0.00000000000E+00  0.00000000000E+00  0.15339798441E+04  0.33539138710E+04  0.29825566368E+04 0.  0.
        5    1    3    3  502    0  0.99357168037E+03 -0.32055515195E+03  0.19644468451E+04  0.22246379001E+04  0.46999998093E+01 0. -1.
       -5    1    3    3    0  502 -0.99357168037E+03  0.32055515195E+03 -0.43046700097E+03  0.11292759709E+04  0.46999998093E+01 0.  1.
</event>
<event>
 5   0  0.6780150E-06  0.2997048E+04  0.7818609E-02  0.8244574E-01
        2   -1    0    0  501    0  0.00000000000E+00  0.00000000000E+00  0.18329368377E+04  0.18329368377E+04  0.25500000920E-02 0. -1.
       -2   -1    0    0    0  501  0.00000000000E+00  0.00000000000E+00 -0.12251234755E+04  0.12251234755E+04  0.25500000920E-02 0.  1.
    10030    2    1    2    0    0  0.00000000000E+00  0.00000000000E+00  0.60781336221E+03  0.30580603132E+04  0.29970478468E+04 0.  0.
        5    1    3    3  502    0 -0.42378808713E+02  0.59156057547E+03  0.17080802701E+04  0.18081206201E+04  0.46999998093E+01 0. -1.
       -5    1    3    3    0  502  0.42378808713E+02 -0.59156057547E+03 -0.11002669079E+04  0.12499396931E+04  0.46999998093E+01 0.  1.
</event>
<event>
 5   0  0.2504260E-06  0.2939698E+04  0.7818609E-02  0.8261163E-01
       -1   -1    0    0    0  501  0.00000000000E+00  0.00000000000E+00  0.13464180413E+04  0.13464180413E+04  0.50400001928E-02 0. -1.
        1   -1    0    0  501    0  0.00000000000E+00  0.00000000000E+00 -0.16045957778E+04  0.16045957778E+04  0.50400001928E-02 0.  1.
    10030    2    1    2    0    0  0.00000000000E+00  0.00000000000E+00 -0.25817773655E+03  0.29510138191E+04  0.29396984227E+04 0.  0.
        4    1    3    3  502    0  0.12576754269E+04  0.67094696161E+03 -0.48899054682E+03  0.15069939192E+04  0.12699999809E+01 0. -1.
       -4    1    3    3    0  502 -0.12576754269E+04 -0.67094696161E+03  0.23081281027E+03  0.14440198998E+04  0.12699999809E+01 0.  1.
</event>
<event>
 5   0  0.2504260E-06  0.3013404E+04  0.7818609E-02  0.8239914E-01
       -1   -1    0    0    0  501  0.00000000000E+00  0.00000000000E+00  0.13986528804E+04  0.13986528804E+04  0.50400001928E-02 0. -1.
        1   -1    0    0  501    0  0.00000000000E+00  0.00000000000E+00 -0.16230977047E+04  0.16230977047E+04  0.50400001928E-02 0.  1.
    10030    2    1    2    0    0  0.00000000000E+00  0.00000000000E+00 -0.22444482427E+03  0.30217505851E+04  0.30134035773E+04 0.  0.
        4    1    3    3  502    0  0.51924034615E+03  0.68906907911E+03  0.11264002174E+04  0.14188748343E+04  0.12699999809E+01 0. -1.
       -4    1    3    3    0  502 -0.51924034615E+03 -0.68906907911E+03 -0.13508450417E+04  0.16028757508E+04  0.12699999809E+01 0.  1.
</event>
<event>
 5   0  0.2422083E-06  0.2967344E+04  0.7818609E-02  0.8253118E-01
        1   -1    0    0  501    0  0.00000000000E+00  0.00000000000E+00  0.18009012597E+04  0.18009012597E+04  0.50400001928E-02 0. -1.
       -1   -1    0    0    0  501  0.00000000000E+00  0.00000000000E+00 -0.12223230801E+04  0.12223230801E+04  0.50400001928E-02 0.  1.
    10030    2    1    2    0    0  0.00000000000E+00  0.00000000000E+00  0.57857817956E+03  0.30232243398E+04  0.29673443849E+04 0.  0.
        2    1    3    3  502    0 -0.62530679712E+03  0.13514512717E+03 -0.10745799880E+04  0.12505978357E+04  0.25500000920E-02 0.  1.
       -2    1    3    3    0  502  0.62530679712E+03 -0.13514512717E+03  0.16531581676E+04  0.17726265041E+04  0.25500000920E-02 0. -1.
</event>
<event>
 5   0  0.7217255E-06  0.2863789E+04  0.7818609E-02  0.8283734E-01
       -2   -1    0    0    0  501  0.00000000000E+00  0.00000000000E+00  0.13942628098E+04  0.13942628098E+04  0.25500000920E-02 0.  1.
        2   -1    0    0  501    0  0.00000000000E+00  0.00000000000E+00 -0.14705418450E+04  0.14705418450E+04  0.25500000920E-02 0. -1.
    10030    2    1    2    0    0  0.00000000000E+00  0.00000000000E+00 -0.76279035197E+02  0.28648046549E+04  0.28637889621E+04 0.  0.
        1    1    3    3  502    0  0.46781933978E+03 -0.29772550335E+03 -0.13587692393E+04  0.14675657585E+04  0.50400001928E-02 0. -1.
       -1    1    3    3    0  502 -0.46781933978E+03  0.29772550335E+03  0.12824902041E+04  0.13972388964E+04  0.50400001928E-02 0.  1.
</event>
<event>
 5   0  0.6780150E-06  0.2939628E+04  0.7818609E-02  0.8261184E-01
        2   -1    0    0  501    0  0.00000000000E+00  0.00000000000E+00  0.17726536167E+04  0.17726536167E+04  0.25500000920E-02 0.  1.
       -2   -1    0    0    0  501  0.00000000000E+00  0.00000000000E+00 -0.12187117067E+04  0.12187117067E+04  0.25500000920E-02 0. -1.
    10030    2    1    2    0    0  0.00000000000E+00  0.00000000000E+00  0.55394190993E+03  0.29913653234E+04  0.29396283538E+04 0.  0.
        5    1    3    3  502    0 -0.86539982359E+03 -0.11673262664E+04  0.50168353750E+03  0.15372950038E+04  0.46999998093E+01 0.  1.
       -5    1    3    3    0  502  0.86539982359E+03  0.11673262664E+04  0.52258372428E+02  0.14540703196E+04  0.46999998093E+01 0. -1.
</event>
<event>
 5   0  0.7201538E-06  0.3012363E+04  0.7818609E-02  0.8240209E-01
       -2   -1    0    0    0  501  0.00000000000E+00  0.00000000000E+00  0.20738532844E+04  0.20738532844E+04  0.25500000920E-02 0.  1.
        2   -1    0    0  501    0  0.00000000000E+00  0.00000000000E+00 -0.10938976248E+04  0.10938976249E+04  0.25500000920E-02 0. -1.
    10030    2    1    2    0    0  0.00000000000E+00  0.00000000000E+00  0.97995565958E+03  0.31677509093E+04  0.30123633128E+04 0.  0.
        3    1    3    3  502    0 -0.81612354353E+03  0.56358254038E+03  0.16819836665E+04  0.19526269441E+04  0.10100000352E+00 0.  1.
       -3    1    3    3    0  502  0.81612354353E+03 -0.56358254038E+03 -0.70202800692E+03  0.12151239652E+04  0.10100000352E+00 0. -1.
</event>
<event>
 5   0  0.2504260E-06  0.2990841E+04  0.7818609E-02  0.8246351E-01
       -1   -1    0    0    0  501  0.00000000000E+00  0.00000000000E+00  0.25916902031E+04  0.25916902031E+04  0.50400001928E-02 0.  1.
        1   -1    0    0  501    0  0.00000000000E+00  0.00000000000E+00 -0.86286624033E+03  0.86286624035E+03  0.50400001928E-02 0. -1.
    10030    2    1    2    0    0  0.00000000000E+00  0.00000000000E+00  0.17288239628E+04  0.34545564435E+04  0.29908406723E+04 0.  0.
        4    1    3    3  502    0  0.83629558789E+03 -0.11220455450E+04  0.14733124375E+04  0.20320009023E+04  0.12699999809E+01 0. -1.
       -4    1    3    3    0  502 -0.83629558789E+03  0.11220455450E+04  0.25551152530E+03  0.14225555412E+04  0.12699999809E+01 0.  1.
</event>
<event>
 5   0  0.7217255E-06  0.2696839E+04  0.7818609E-02  0.8336031E-01
       -2   -1    0    0    0  501  0.00000000000E+00  0.00000000000E+00  0.11020880136E+04  0.11020880136E+04  0.25500000920E-02 0. -1.
        2   -1    0    0  501    0  0.00000000000E+00  0.00000000000E+00 -0.16498090061E+04  0.16498090061E+04  0.25500000920E-02 0.  1.
    10030    2    1    2    0    0  0.00000000000E+00  0.00000000000E+00 -0.54772099253E+03  0.27518970197E+04  0.26968386903E+04 0.  0.
        1    1    3    3  502    0  0.10456021098E+04 -0.23479375640E+03  0.56127546929E+03  0.12097280820E+04  0.50400001928E-02 0. -1.
       -1    1    3    3    0  502 -0.10456021098E+04  0.23479375640E+03 -0.11089964618E+04  0.15421689377E+04  0.50400001928E-02 0.  1.
</event>
<event>
 5   0  0.2504260E-06  0.2994084E+04  0.7818609E-02  0.8245422E-01
        1   -1    0    0  501    0  0.00000000000E+00  0.00000000000E+00  0.16313317144E+04  0.16313317144E+04  0.50400001928E-02 0.  1.
       -1   -1    0    0    0  501  0.00000000000E+00  0.00000000000E+00 -0.13738070827E+04  0.13738070828E+04  0.50400001928E-02 0. -1.
    10030    2    1    2    0    0  0.00000000000E+00  0.00000000000E+00  0.25752463161E+03  0.30051387971E+04  0.29940842096E+04 0.  0.
        4    1    3    3  502    0 -0.39902568565E+03  0.77701049739E+02  0.15748714574E+04  0.16264933665E+04  0.12699999809E+01 0.  1.
       -4    1    3    3    0  502  0.39902568565E+03 -0.77701049739E+02 -0.13173468258E+04  0.13786454306E+04  0.12699999809E+01 0. -1.
</event>
<event>
 5   0  0.7201538E-06  0.2877022E+04  0.7818609E-02  0.8279747E-01
        2   -1    0    0  501    0  0.00000000000E+00  0.00000000000E+00  0.25164651561E+04  0.25164651561E+04  0.25500000920E-02 0. -1.
       -2   -1    0    0    0  501  0.00000000000E+00  0.00000000000E+00 -0.82230993892E+03  0.82230993892E+03  0.25500000920E-02 0.  1.
    10030    2    1    2    0    0  0.00000000000E+00  0.00000000000E+00  0.16941552172E+04  0.33387750950E+04  0.28770222862E+04 0.  0.
        3    1    3    3  502    0  0.60892858795E+03 -0.12943806409E+04  0.67070107286E+03  0.15798908849E+04  0.10100000352E+00 0. -1.
       -3    1    3    3    0  502 -0.60892858795E+03  0.12943806409E+04  0.10234541443E+04  0.17588842101E+04  0.10100000352E+00 0.  1.
</event>
<event>
 5   0  0.7193153E-06  0.2928978E+04  0.7818609E-02  0.8264307E-01
       -2   -1    0    0    0  501  0.00000000000E+00  0.00000000000E+00  0.96255356365E+03  0.96255356366E+03  0.25500000920E-02 0. -1.
        2   -1    0    0  501    0  0.00000000000E+00  0.00000000000E+00 -0.22281653823E+04  0.22281653823E+04  0.25500000920E-02 0.  1.
    10030    2    1    2    0    0  0.00000000000E+00  0.00000000000E+00 -0.12656118186E+04  0.31907189459E+04  0.29289783400E+04 0.  0.
        4    1    3    3  502    0 -0.99276840923E+02  0.14072599992E+04 -0.10609826056E+04  0.17651975240E+04  0.12699999809E+01 0.  1.
       -4    1    3    3    0  502  0.99276840923E+02 -0.14072599992E+04 -0.20462921305E+03  0.14255214219E+04  0.12699999809E+01 0. -1.
</event>
<event>
 5   0  0.2628425E-06  0.2797045E+04  0.7818609E-02  0.8304186E-01
       -1   -1    0    0    0  501  0.00000000000E+00  0.00000000000E+00  0.15681207412E+04  0.15681207412E+04  0.50400001928E-02 0. -1.
        1   -1    0    0  501    0  0.00000000000E+00  0.00000000000E+00 -0.12472668805E+04  0.12472668805E+04  0.50400001928E-02 0.  1.
    10030    2    1    2    0    0  0.00000000000E+00  0.00000000000E+00  0.32085386068E+03  0.28153876218E+04  0.27970449158E+04 0.  0.
        1    1    3    3  502    0 -0.11324754088E+04  0.29913188831E+03 -0.60870754227E+03  0.13200398896E+04  0.50400001928E-02 0.  1.
       -1    1    3    3    0  502  0.11324754088E+04 -0.29913188831E+03  0.92956140295E+03  0.14953477321E+04  0.50400001928E-02 0. -1.
</event>
<event>
 5   0  0.7217255E-06  0.3029037E+04  0.7818609E-02  0.8235487E-01
        2   -1    0    0  501    0  0.00000000000E+00  0.00000000000E+00  0.18530401368E+04  0.18530401368E+04  0.25500000920E-02 0. -1.
       -2   -1    0    0    0  501  0.00000000000E+00  0.00000000000E+00 -0.12378396694E+04  0.12378396694E+04  0.25500000920E-02 0.  1.
    10030    2    1    2    0    0  0.00000000000E+00  0.00000000000E+00  0.61520046738E+03  0.30908798062E+04  0.30290372003E+04 0.  0.
        1    1    3    3  502    0 -0.64841534658E+03  0.97421090359E+03  0.12886007653E+04  0.17406956307E+04  0.50400001928E-02 0. -1.
       -1    1    3    3    0  502  0.64841534658E+03 -0.97421090359E+03 -0.67340029793E+03  0.13501841755E+04  0.50400001928E-02 0.  1.
</event>
<event>
 5   0  0.2672155E-06  0.2782916E+04  0.7818609E-02  0.8308592E-01
       -1   -1    0    0    0  501  0.00000000000E+00  0.00000000000E+00  0.18290395480E+04  0.18290395480E+04  0.50400001928E-02 0.  1.
        1   -1    0    0  501    0  0.00000000000E+00  0.00000000000E+00 -0.10585641750E+04  0.10585641750E+04  0.50400001928E-02 0. -1.
    10030    2    1    2    0    0  0.00000000000E+00  0.00000000000E+00  0.77047537301E+03  0.28876037230E+04  0.27829162691E+04 0.  0.
        5    1    3    3  502    0 -0.20524914076E+03  0.70886344982E+03 -0.83876404303E+03  0.11172116228E+04  0.46999998093E+01 0. -1.
       -5    1    3    3    0  502  0.20524914076E+03 -0.70886344982E+03  0.16092394160E+04  0.17703921002E+04  0.46999998093E+01 0.  1.
</event>
<event>
 5   0  0.2672155E-06  0.3010544E+04  0.7818609E-02  0.8240726E-01
       -1   -1    0    0    0  501  0.00000000000E+00  0.00000000000E+00  0.11168456559E+04  0.11168456559E+04  0.50400001928E-02 0.  1.
        1   -1    0    0  501    0  0.00000000000E+00  0.00000000000E+00 -0.20287886507E+04  0.20287886507E+04  0.50400001928E-02 0. -1.
    10030    2    1    2    0    0  0.00000000000E+00  0.00000000000E+00 -0.91194299483E+03  0.31456343067E+04  0.30105439983E+04 0.  0.
        5    1    3    3  502    0 -0.44536390650E+02 -0.44166910614E+03  0.10468901558E+04  0.11371262805E+04  0.46999998093E+01 0.  1.
       -5    1    3    3    0  502  0.44536390650E+02  0.44166910614E+03 -0.19588331506E+04  0.20085080262E+04  0.46999998093E+01 0. -1.
</event>
<event>
 5   0  0.2504260E-06  0.3004144E+04  0.7818609E-02  0.8242549E-01
        1   -1    0    0  501    0  0.00000000000E+00  0.00000000000E+00  0.19347300686E+04  0.19347300686E+04  0.50400001928E-02 0. -1.
       -1   -1    0    0    0  501  0.00000000000E+00  0.00000000000E+00 -0.11661679929E+04  0.11661679930E+04  0.50400001928E-02 0.  1.
    10030    2    1    2    0    0  0.00000000000E+00  0.00000000000E+00  0.76856207561E+03  0.31008980615E+04  0.30041439919E+04 0.  0.
        4    1    3    3  502    0 -0.83817396484E+03 -0.67661579521E+03 -0.69627447545E+03  0.12826317818E+04  0.12699999809E+01 0.  1.
       -4    1    3    3    0  502  0.83817396484E+03  0.67661579521E+03  0.14648365511E+04  0.18182662797E+04  0.12699999809E+01 0. -1.
</event>
<event>
 5   0  0.2552990E-06  0.3057971E+04  0.7818609E-02  0.8227368E-01
        1   -1    0    0  501    0  0.00000000000E+00  0.00000000000E+00  0.27104520891E+04  0.27104520891E+04  0.50400001928E-02 0. -1.
       -1   -1    0    0    0  501  0.00000000000E+00  0.00000000000E+00 -0.86251158785E+03  0.86251158786E+03  0.50400001928E-02 0.  1.
    10030    2    1    2    0    0  0.00000000000E+00  0.00000000000E+00  0.18479405013E+04  0.35729636770E+04  0.30579707881E+04 0.  0.
        3    1    3    3  502    0 -0.12116456902E+04 -0.83512033253E+03  0.43899553290E+03  0.15356524140E+04  0.10100000352E+00 0.  1.
       -3    1    3    3    0  502  0.12116456902E+04  0.83512033253E+03  0.14089449684E+04  0.20373112630E+04  0.10100000352E+00 0. -1.
</event>
<event>
 5   0  0.2552990E-06  0.3037400E+04  0.7818609E-02  0.8233131E-01
       -1   -1    0    0    0  501  0.00000000000E+00  0.00000000000E+00  0.25654897162E+04  0.25654897162E+04  0.50400001928E-02 0. -1.
        1   -1    0    0  501    0  0.00000000000E+00  0.00000000000E+00 -0.89902877896E+03  0.89902877897E+03  0.50400001928E-02 0.  1.
    10030    2    1    2    0    0  0.00000000000E+00  0.00000000000E+00  0.16664609372E+04  0.34645184952E+04  0.30373996030E+04 0.  0.
        3    1    3    3  502    0  0.53926182274E+03  0.13499927021E+04  0.33192124281E+03  0.14911255248E+04  0.10100000352E+00 0.  1.
       -3    1    3    3    0  502 -0.53926182274E+03 -0.13499927021E+04  0.13345396944E+04  0.19733929703E+04  0.10100000352E+00 0. -1.
</event>
<event>
 5   0  0.2504260E-06  0.2971488E+04  0.7818609E-02  0.8251920E-01
        1   -1    0    0  501    0  0.00000000000E+00  0.00000000000E+00  0.23721087708E+04  0.23721087708E+04  0.50400001928E-02 0. -1.
       -1   -1    0    0    0  501  0.00000000000E+00  0.00000000000E+00 -0.93057909118E+03  0.93057909120E+03  0.50400001928E-02 0.  1.
    10030    2    1    2    0    0  0.00000000000E+00  0.00000000000E+00  0.14415296796E+04  0.33026878620E+04  0.29714877245E+04 0.  0.
        4    1    3    3  502    0 -0.74347047873E+03 -0.81000850251E+03  0.18314298310E+04  0.21361177322E+04  0.12699999809E+01 0.  1.
       -4    1    3    3    0  502  0.74347047873E+03  0.81000850251E+03 -0.38990015139E+03  0.11665701298E+04  0.12699999809E+01 0. -1.
</event>
<event>
 5   0  0.2552990E-06  0.2524465E+04  0.7818609E-02  0.8394321E-01
       -1   -1    0    0    0  501  0.00000000000E+00  0.00000000000E+00  0.68505076586E+03  0.68505076588E+03  0.50400001928E-02 0. -1.
        1   -1    0    0  501    0  0.00000000000E+00  0.00000000000E+00 -0.23257116589E+04  0.23257116589E+04  0.50400001928E-02 0.  1.
    10030    2    1    2    0    0  0.00000000000E+00  0.00000000000E+00 -0.16406608930E+04  0.30107624248E+04  0.25244647378E+04 0.  0.
        3    1    3    3  502    0  0.10245419945E+04  0.89828224265E+02 -0.16930542729E+04  0.19809563825E+04  0.10100000352E+00 0.  1.
       -3    1    3    3    0  502 -0.10245419945E+04 -0.89828224265E+02  0.52393379834E+02  0.10298060423E+04  0.10100000352E+00 0. -1.
</event>
<event>
 5   0  0.2628425E-06  0.2936735E+04  0.7818609E-02  0.8262031E-01
        1   -1    0    0  501    0  0.00000000000E+00  0.00000000000E+00  0.15273324111E+04  0.15273324111E+04  0.50400001928E-02 0. -1.
       -1   -1    0    0    0  501  0.00000000000E+00  0.00000000000E+00 -0.14116785959E+04  0.14116785959E+04  0.50400001928E-02 0.  1.
    10030    2    1    2    0    0  0.00000000000E+00  0.00000000000E+00  0.11565381519E+03  0.29390110070E+04  0.29367345632E+04 0.  0.
        1    1    3    3  502    0  0.75816953756E+03 -0.98151067715E+03 -0.72886017174E+03  0.14385483680E+04  0.50400001928E-02 0.  1.
       -1    1    3    3    0  502 -0.75816953756E+03  0.98151067715E+03  0.84451398693E+03  0.15004626391E+04  0.50400001928E-02 0. -1.
</event>
<event>
 5   0  0.2672155E-06  0.2990691E+04  0.7818609E-02  0.8246394E-01
       -1   -1    0    0    0  501  0.00000000000E+00  0.00000000000E+00  0.21323924505E+04  0.21323924505E+04  0.50400001928E-02 0.  1.
        1   -1    0    0  501    0  0.00000000000E+00  0.00000000000E+00 -0.10486149718E+04  0.10486149718E+04  0.50400001928E-02 0. -1.
    10030    2    1    2    0    0  0.00000000000E+00  0.00000000000E+00  0.10837774787E+04  0.31810074223E+04  0.29906913244E+04 0.  0.
        5    1    3    3  502    0 -0.20264640240E+03  0.88207555742E+03  0.18079793621E+04  0.20218640699E+04  0.46999998093E+01 0.  1.
       -5    1    3    3    0  502  0.20264640240E+03 -0.88207555742E+03 -0.72420188346E+03  0.11591433524E+04  0.46999998093E+01 0. -1.
</event>
<event>
 5   0  0.7201538E-06  0.2981487E+04  0.7818609E-02  0.8249037E-01
        2   -1    0    0  501    0  0.00000000000E+00  0.00000000000E+00  0.19283176010E+04  0.19283176010E+04  0.25500000920E-02 0.  1.
       -2   -1    0    0    0  501  0.00000000000E+00  0.00000000000E+00 -0.11524635646E+04  0.11524635646E+04  0.25500000920E-02 0. -1.
    10030    2    1    2    0    0  0.00000000000E+00  0.00000000000E+00  0.77585403637E+03  0.30807811655E+04  0.29814867272E+04 0.  0.
        3    1    3    3  502    0 -0.41359268640E+03 -0.30205337962E+03  0.18345597571E+04  0.19047059266E+04  0.10100000352E+00 0.  1.
       -3    1    3    3    0  502  0.41359268640E+03  0.30205337962E+03 -0.10587057207E+04  0.11760752389E+04  0.10100000352E+00 0. -1.
</event>
<event>
 5   0  0.6792811E-06  0.3004283E+04  0.7818609E-02  0.8242509E-01
        2   -1    0    0  501    0  0.00000000000E+00  0.00000000000E+00  0.14162517726E+04  0.14162517726E+04  0.25500000920E-02 0.  1.
       -2   -1    0    0    0  501  0.00000000000E+00  0.00000000000E+00 -0.15932399967E+04  0.15932399967E+04  0.25500000920E-02 0. -1.
    10030    2    1    2    0    0  0.00000000000E+00  0.00000000000E+00 -0.17698822417E+03  0.30094917693E+04  0.30042829225E+04 0.  0.
        2    1    3    3  502    0  0.37403882155E+03 -0.12752475014E+04 -0.78989932514E+03  0.15459955283E+04  0.25500000920E-02 0. -1.
       -2    1    3    3    0  502 -0.37403882155E+03  0.12752475014E+04  0.61291110097E+03  0.14634962410E+04  0.25500000920E-02 0.  1.
</event>
<event>
 5   0  0.2672155E-06  0.2983520E+04  0.7818609E-02  0.8248453E-01
       -1   -1    0    0    0  501  0.00000000000E+00  0.00000000000E+00  0.11089535769E+04  0.11089535769E+04  0.50400001928E-02 0. -1.
        1   -1    0    0  501    0  0.00000000000E+00  0.00000000000E+00 -0.20067098308E+04  0.20067098308E+04  0.50400001928E-02 0.  1.
    10030    2    1    2    0    0  0.00000000000E+00  0.00000000000E+00 -0.89775625393E+03  0.31156634077E+04  0.29835200986E+04 0.  0.
        5    1    3    3  502    0  0.41062437381E+03 -0.12034057548E+04  0.36575470377E+03  0.13231010469E+04  0.46999998093E+01 0.  1.
       -5    1    3    3    0  502 -0.41062437381E+03  0.12034057548E+04 -0.12635109577E+04  0.17925623608E+04  0.46999998093E+01 0. -1.
</event>
<event>
 5   0  0.7201538E-06  0.3022377E+04  0.7818609E-02  0.8237370E-01
        2   -1    0    0  501    0  0.00000000000E+00  0.00000000000E+00  0.15113806442E+04  0.15113806442E+04  0.25500000920E-02 0.  1.
       -2   -1    0    0    0  501  0.00000000000E+00  0.00000000000E+00 -0.15109965667E+04  0.15109965667E+04  0.25500000920E-02 0. -1.
    10030    2    1    2    0    0  0.00000000000E+00  0.00000000000E+00  0.38407754360E+00  0.30223772109E+04  0.30223771865E+04 0.  0.
        3    1    3    3  502    0  0.39883946317E+03  0.34384525193E+03  0.14166624804E+04  0.15113686076E+04  0.10100000352E+00 0.  1.
       -3    1    3    3    0  502 -0.39883946317E+03 -0.34384525193E+03 -0.14162784028E+04  0.15110086033E+04  0.10100000352E+00 0. -1.
</event>
<event>
 5   0  0.7217255E-06  0.2918038E+04  0.7818609E-02  0.8267531E-01
        2   -1    0    0  501    0  0.00000000000E+00  0.00000000000E+00  0.24446132910E+04  0.24446132910E+04  0.25500000920E-02 0.  1.
       -2   -1    0    0    0  501  0.00000000000E+00  0.00000000000E+00 -0.87078659498E+03  0.87078659499E+03  0.25500000920E-02 0. -1.
    10030    2    1    2    0    0  0.00000000000E+00  0.00000000000E+00  0.15738266960E+04  0.33153998860E+04  0.29180380283E+04 0.  0.
        1    1    3    3  502    0  0.99187473751E+03  0.92002150758E+03  0.14076446091E+04  0.19523622653E+04  0.50400001928E-02 0.  1.
       -1    1    3    3    0  502 -0.99187473751E+03 -0.92002150758E+03  0.16618208686E+03  0.13630376207E+04  0.50400001928E-02 0. -1.
</event>
<event>
 5   0  0.7193153E-06  0.2965110E+04  0.7818609E-02  0.8253765E-01
       -2   -1    0    0    0  501  0.00000000000E+00  0.00000000000E+00  0.12547445434E+04  0.12547445434E+04  0.25500000920E-02 0.  1.
        2   -1    0    0  501    0  0.00000000000E+00  0.00000000000E+00 -0.17517267985E+04  0.17517267985E+04  0.25500000920E-02 0. -1.
    10030    2    1    2    0    0  0.00000000000E+00  0.00000000000E+00 -0.49698225512E+03  0.30064713419E+04  0.29651102118E+04 0.  0.
        4    1    3    3  502    0  0.12412858168E+04 -0.21638096091E+03  0.54366015968E+03  0.13722897585E+04  0.12699999809E+01 0.  1.
       -4    1    3    3    0  502 -0.12412858168E+04  0.21638096091E+03 -0.10406424148E+04  0.16341815834E+04  0.12699999809E+01 0. -1.
</event>
<event>
 5   0  0.6792811E-06  0.3047579E+04  0.7818609E-02  0.8230273E-01
        2   -1    0    0  501    0  0.00000000000E+00  0.00000000000E+00  0.21755720048E+04  0.21755720048E+04  0.25500000920E-02 0.  1.
       -2   -1    0    0    0  501  0.00000000000E+00  0.00000000000E+00 -0.10672753729E+04  0.10672753729E+04  0.25500000920E-02 0. -1.
    10030    2    1    2    0    0  0.00000000000E+00  0.00000000000E+00  0.11082966319E+04  0.32428473776E+04  0.30475789884E+04 0.  0.
        2    1    3    3  502    0 -0.10906607884E+04  0.36448724267E+03 -0.50968154103E+03  0.12578422710E+04  0.25500000920E-02 0. -1.
       -2    1    3    3    0  502  0.10906607884E+04 -0.36448724267E+03  0.16179781730E+04  0.19850051067E+04  0.25500000920E-02 0.  1.
</event>
<event>
 5   0  0.2672155E-06  0.3026274E+04  0.7818609E-02  0.8236268E-01
       -1   -1    0    0    0  501  0.00000000000E+00  0.00000000000E+00  0.72968868968E+03  0.72968868970E+03  0.50400001928E-02 0.  1.
        1   -1    0    0  501    0  0.00000000000E+00  0.00000000000E+00 -0.31377532887E+04  0.31377532887E+04  0.50400001928E-02 0. -1.
    10030    2    1    2    0    0  0.00000000000E+00  0.00000000000E+00 -0.24080645990E+04  0.38674419784E+04  0.30262736729E+04 0.  0.
        5    1    3    3  502    0 -0.58260072960E+02 -0.28092645662E+03  0.69460095478E+03  0.75153608463E+03  0.46999998093E+01 0.  1.
       -5    1    3    3    0  502  0.58260072960E+02  0.28092645662E+03 -0.31026655538E+04  0.31159058937E+04  0.46999998093E+01 0. -1.
</event>
<event>
 5   0  0.6792811E-06  0.3051249E+04  0.7818609E-02  0.8229246E-01
       -2   -1    0    0    0  501  0.00000000000E+00  0.00000000000E+00  0.10527353145E+04  0.10527353145E+04  0.25500000920E-02 0.  1.
        2   -1    0    0  501    0  0.00000000000E+00  0.00000000000E+00 -0.22109356674E+04  0.22109356674E+04  0.25500000920E-02 0. -1.
    10030    2    1    2    0    0  0.00000000000E+00  0.00000000000E+00 -0.11582003529E+04  0.32636709819E+04  0.30512489608E+04 0.  0.
        2    1    3    3  502    0 -0.74554201941E+03  0.10464499203E+04  0.30074745358E+03  0.13195981848E+04  0.25500000920E-02 0. -1.
       -2    1    3    3    0  502  0.74554201941E+03 -0.10464499203E+04 -0.14589478065E+04  0.19440727971E+04  0.25500000920E-02 0.  1.
</event>
<event>
 5   0  0.2672155E-06  0.3004971E+04  0.7818609E-02  0.8242313E-01
       -1   -1    0    0    0  501  0.00000000000E+00  0.00000000000E+00  0.20312486316E+04  0.20312486316E+04  0.50400001928E-02 0.  1.
        1   -1    0    0  501    0  0.00000000000E+00  0.00000000000E+00 -0.11113667111E+04  0.11113667111E+04  0.50400001928E-02 0. -1.
    10030    2    1    2    0    0  0.00000000000E+00  0.00000000000E+00  0.91988192049E+03  0.31426153427E+04  0.30049706229E+04 0.  0.
        5    1    3    3  502    0 -0.11126048816E+04 -0.19099827250E+03 -0.57697421468E+03  0.12677899263E+04  0.46999998093E+01 0.  1.
       -5    1    3    3    0  502  0.11126048816E+04  0.19099827250E+03  0.14968561352E+04  0.18748254164E+04  0.46999998093E+01 0. -1.
</event>
<event>
 5   0  0.2504260E-06  0.2630451E+04  0.7818609E-02  0.8357931E-01
       -1   -1    0    0    0  501  0.00000000000E+00  0.00000000000E+00  0.14623387002E+04  0.14623387002E+04  0.50400001928E-02 0. -1.
        1   -1    0    0  501    0  0.00000000000E+00  0.00000000000E+00 -0.11829118964E+04  0.11829118964E+04  0.50400001928E-02 0.  1.
    10030    2    1    2    0    0  0.00000000000E+00  0.00000000000E+00  0.27942680376E+03  0.26452505966E+04  0.26304507941E+04 0.  0.
        4    1    3    3  502    0 -0.30009093463E+03 -0.38507500581E+03  0.13678458225E+04  0.14523570966E+04  0.12699999809E+01 0. -1.
       -4    1    3    3    0  502  0.30009093463E+03  0.38507500581E+03 -0.10884190187E+04  0.11928935000E+04  0.12699999809E+01 0.  1.
</event>
<event>
 5   0  0.2422083E-06  0.2628248E+04  0.7818609E-02  0.8358669E-01
       -1   -1    0    0    0  501  0.00000000000E+00  0.00000000000E+00  0.65125387457E+03  0.65125387459E+03  0.50400001928E-02 0.  1.
        1   -1    0    0  501    0  0.00000000000E+00  0.00000000000E+00 -0.26516877958E+04  0.26516877958E+04  0.50400001928E-02 0. -1.
    10030    2    1    2    0    0  0.00000000000E+00  0.00000000000E+00 -0.20004339212E+04  0.33029416704E+04  0.26282480486E+04 0.  0.
        2    1    3    3  502    0  0.68698251720E+03  0.50495944741E+03  0.25648709903E+03  0.89034524452E+03  0.25500000920E-02 0.  1.
       -2    1    3    3    0  502 -0.68698251720E+03 -0.50495944741E+03 -0.22569210203E+04  0.24125964259E+04  0.25500000920E-02 0. -1.
</event>
<event>
 5   0  0.2504260E-06  0.3037703E+04  0.7818609E-02  0.8233046E-01
        1   -1    0    0  501    0  0.00000000000E+00  0.00000000000E+00  0.16710469967E+04  0.16710469967E+04  0.50400001928E-02 0. -1.
       -1   -1    0    0    0  501  0.00000000000E+00  0.00000000000E+00 -0.13805172216E+04  0.13805172216E+04  0.50400001928E-02 0.  1.
    10030    2    1    2    0    0  0.00000000000E+00  0.00000000000E+00  0.29052977515E+03  0.30515642183E+04  0.30377025246E+04 0.  0.
        4    1    3    3  502    0  0.90978923094E+03 -0.52503901206E+03  0.12473239092E+04  0.16307056621E+04  0.12699999809E+01 0. -1.
       -4    1    3    3    0  502 -0.90978923094E+03  0.52503901206E+03 -0.95679413404E+03  0.14208585562E+04  0.12699999809E+01 0.  1.
</event>
<event>
 5   0  0.7217255E-06  0.3010593E+04  0.7818609E-02  0.8240712E-01
       -2   -1    0    0    0  501  0.00000000000E+00  0.00000000000E+00  0.10816506874E+04  0.10816506874E+04  0.25500000920E-02 0.  1.
        2   -1    0    0  501    0  0.00000000000E+00  0.00000000000E+00 -0.20948704828E+04  0.20948704828E+04  0.25500000920E-02 0. -1.
    10030    2    1    2    0    0  0.00000000000E+00  0.00000000000E+00 -0.10132197955E+04  0.31765211702E+04  0.30105933619E+04 0.  0.
        1    1    3    3  502    0 -0.33271346189E+03  0.46951105552E+03 -0.19742357774E+04  0.20563914471E+04  0.50400001928E-02 0. -1.
       -1    1    3    3    0  502  0.33271346189E+03 -0.46951105552E+03  0.96101598195E+03  0.11201297231E+04  0.50400001928E-02 0.  1.
</event>
<event>
 5   0  0.7193153E-06  0.3046670E+04  0.7818609E-02  0.8230528E-01
        2   -1    0    0  501    0  0.00000000000E+00  0.00000000000E+00  0.23680889725E+04  0.23680889725E+04  0.25500000920E-02 0.  1.
       -2   -1    0    0    0  501  0.00000000000E+00  0.00000000000E+00 -0.97992507713E+03  0.97992507713E+03  0.25500000920E-02 0. -1.
    10030    2    1    2    0    0  0.00000000000E+00  0.00000000000E+00  0.13881638954E+04  0.33480140496E+04  0.30466701620E+04 0.  0.
        4    1    3    3  502    0  0.28159517742E+03 -0.17463121741E+03  0.23280074951E+04  0.23514702669E+04  0.12699999809E+01 0.  1.
       -4    1    3    3    0  502 -0.28159517742E+03  0.17463121741E+03 -0.93984359973E+03  0.99654378272E+03  0.12699999809E+01 0. -1.
</event>
<event>
 5   0  0.2552990E-06  0.2910062E+04  0.7818609E-02  0.8269890E-01
        1   -1    0    0  501    0  0.00000000000E+00  0.00000000000E+00  0.14522583634E+04  0.14522583635E+04  0.50400001928E-02 0. -1.
       -1   -1    0    0    0  501  0.00000000000E+00  0.00000000000E+00 -0.14578086660E+04  0.14578086660E+04  0.50400001928E-02 0.  1.
    10030    2    1    2    0    0  0.00000000000E+00  0.00000000000E+00 -0.55503025768E+01  0.29100670295E+04  0.29100617365E+04 0.  0.
        3    1    3    3  502    0 -0.26149317925E+03  0.51311381405E+03 -0.13389850313E+04  0.14575820365E+04  0.10100000352E+00 0.  1.
       -3    1    3    3    0  502  0.26149317925E+03 -0.51311381405E+03  0.13334347287E+04  0.14524849930E+04  0.10100000352E+00 0. -1.
</event>
<event>
 5   0  0.7201538E-06  0.2974013E+04  0.7818609E-02  0.8251191E-01
       -2   -1    0    0    0  501  0.00000000000E+00  0.00000000000E+00  0.10763524373E+04  0.10763524373E+04  0.25500000920E-02 0.  1.
        2   -1    0    0  501    0  0.00000000000E+00  0.00000000000E+00 -0.20543351953E+04  0.20543351953E+04  0.25500000920E-02 0. -1.
    10030    2    1    2    0    0  0.00000000000E+00  0.00000000000E+00 -0.97798275805E+03  0.31306876326E+04  0.29740132444E+04 0.  0.
        3    1    3    3  502    0 -0.93350281023E+03  0.21219457929E+03  0.70881666263E+03  0.11911654409E+04  0.10100000352E+00 0.  1.
       -3    1    3    3    0  502  0.93350281023E+03 -0.21219457929E+03 -0.16867994207E+04  0.19395221917E+04  0.10100000352E+00 0. -1.
</event>
<event>
 5   0  0.2552990E-06  0.2972940E+04  0.7818609E-02  0.8251500E-01
        1   -1    0    0  501    0  0.00000000000E+00  0.00000000000E+00  0.19511049945E+04  0.19511049945E+04  0.50400001928E-02 0. -1.
       -1   -1    0    0    0  501  0.00000000000E+00  0.00000000000E+00 -0.11324830955E+04  0.11324830956E+04  0.50400001928E-02 0.  1.
    10030    2    1    2    0    0  0.00000000000E+00  0.00000000000E+00  0.81862189898E+03  0.30835880901E+04  0.29729402442E+04 0.  0.
        3    1    3    3  502    0  0.12032736868E+04  0.17383123067E+03  0.12964258691E+04  0.17773027054E+04  0.10100000352E+00 0. -1.
       -3    1    3    3    0  502 -0.12032736868E+04 -0.17383123067E+03 -0.47780397015E+03  0.13062853847E+04  0.10100000352E+00 0.  1.
</event>
<event>
 5   0  0.2422083E-06  0.3019657E+04  0.7818609E-02  0.8238140E-01
        1   -1    0    0  501    0  0.00000000000E+00  0.00000000000E+00  0.14996813967E+04  0.14996813967E+04  0.50400001928E-02 0. -1.
       -1   -1    0    0    0  501  0.00000000000E+00  0.00000000000E+00 -0.15200443469E+04  0.15200443470E+04  0.50400001928E-02 0.  1.
    10030    2    1    2    0    0  0.00000000000E+00  0.00000000000E+00 -0.20362950269E+02  0.30197257436E+04  0.30196570860E+04 0.  0.
        2    1    3    3  502    0  0.11569724414E+04  0.29778542505E+03  0.91305175570E+03  0.15036372229E+04  0.25500000920E-02 0. -1.
       -2    1    3    3    0  502 -0.11569724414E+04 -0.29778542505E+03 -0.93341470597E+03  0.15160885208E+04  0.25500000920E-02 0.  1.
</event>
<event>
 5   0  0.6792811E-06  0.3049317E+04  0.7818609E-02  0.8229787E-01
       -2   -1    0    0    0  501  0.00000000000E+00  0.00000000000E+00  0.12702655586E+04  0.12702655586E+04  0.25500000920E-02 0. -1.
        2   -1    0    0  501    0  0.00000000000E+00  0.00000000000E+00 -0.18299981529E+04  0.18299981529E+04  0.25500000920E-02 0.  1.
    10030    2    1    2    0    0  0.00000000000E+00  0.00000000000E+00 -0.55973259436E+03  0.31002637115E+04  0.30493170553E+04 0.  0.
        2    1    3    3  502    0  0.85410905996E+02 -0.10379956702E+04 -0.14119570848E+04  0.17545235374E+04  0.25500000920E-02 0.  1.
       -2    1    3    3    0  502 -0.85410905996E+02  0.10379956702E+04  0.85222449039E+03  0.13457401741E+04  0.25500000920E-02 0. -1.
</event>
<event>
 5   0  0.2298500E-06  0.2979259E+04  0.7818609E-02  0.8249679E-01
       -3   -1    0    0    0  501  0.00000000000E+00  0.00000000000E+00  0.12633488044E+04  0.12633488085E+04  0.10100000352E+00 0.  1.
        3   -1    0    0  501    0  0.00000000000E+00  0.00000000000E+00 -0.17564396317E+04  0.17564396346E+04  0.10100000352E+00 0. -1.
    10030    2    1    2    0    0  0.00000000000E+00  0.00000000000E+00 -0.49309082726E+03  0.30197884430E+04  0.29792589140E+04 0.  0.
        2    1    3    3  502    0  0.36174588946E+03  0.34614176702E+03  0.11755093201E+04  0.12776918145E+04  0.25500000920E-02 0.  1.
       -2    1    3    3    0  502 -0.36174588946E+03 -0.34614176702E+03 -0.16686001473E+04  0.17420966285E+04  0.25500000920E-02 0. -1.
</event>
<event>
 5   0  0.2628425E-06  0.3044693E+04  0.7818609E-02  0.8231082E-01
        1   -1    0    0  501    0  0.00000000000E+00  0.00000000000E+00  0.30060390761E+04  0.30060390761E+04  0.50400001928E-02 0.  1.
       -1   -1    0    0    0  501  0.00000000000E+00  0.00000000000E+00 -0.77096100893E+03  0.77096100895E+03  0.50400001928E-02 0. -1.
    10030    2    1    2    0    0  0.00000000000E+00  0.00000000000E+00  0.22350780672E+04  0.37770000850E+04  0.30446930348E+04 0.  0.
        1    1    3    3  502    0 -0.10719386705E+04 -0.87557019668E+03  0.19039374307E+04  0.23538592614E+04  0.50400001928E-02 0.  1.
       -1    1    3    3    0  502  0.10719386705E+04  0.87557019668E+03  0.33114063650E+03  0.14231408236E+04  0.50400001928E-02 0. -1.
</event>
<event>
 5   0  0.7193153E-06  0.2214130E+04  0.7818609E-02  0.8512570E-01
        2   -1    0    0  501    0  0.00000000000E+00  0.00000000000E+00  0.17045957225E+04  0.17045957225E+04  0.25500000920E-02 0. -1.
       -2   -1    0    0    0  501  0.00000000000E+00  0.00000000000E+00 -0.71899334601E+03  0.71899334601E+03  0.25500000920E-02 0.  1.
    10030    2    1    2    0    0  0.00000000000E+00  0.00000000000E+00  0.98560237649E+03  0.24235890685E+04  0.22141300613E+04 0.  0.
        4    1    3    3  502    0  0.97889229034E+03  0.34393485211E+03  0.70180176699E+02  0.10399270016E+04  0.12699999809E+01 0.  1.
       -4    1    3    3    0  502 -0.97889229034E+03 -0.34393485211E+03  0.91542219980E+03  0.13836620669E+04  0.12699999809E+01 0. -1.
</event>
<event>
 5   0  0.2628425E-06  0.2951690E+04  0.7818609E-02  0.8257662E-01
       -1   -1    0    0    0  501  0.00000000000E+00  0.00000000000E+00  0.12185192395E+04  0.12185192395E+04  0.50400001928E-02 0. -1.
        1   -1    0    0  501    0  0.00000000000E+00  0.00000000000E+00 -0.17875130458E+04  0.17875130458E+04  0.50400001928E-02 0.  1.
    10030    2    1    2    0    0  0.00000000000E+00  0.00000000000E+00 -0.56899380624E+03  0.30060322853E+04  0.29516903883E+04 0.  0.
        1    1    3    3  502    0  0.12966752262E+04  0.49834563485E+03  0.22308035128E+03  0.14069398911E+04  0.50400001928E-02 0. -1.
       -1    1    3    3    0  502 -0.12966752262E+04 -0.49834563485E+03 -0.79207415752E+03  0.15990923942E+04  0.50400001928E-02 0.  1.
</event>
<event>
 5   0  0.7193153E-06  0.2907331E+04  0.7818609E-02  0.8270700E-01
        2   -1    0    0  501    0  0.00000000000E+00  0.00000000000E+00  0.10466450843E+04  0.10466450843E+04  0.25500000920E-02 0.  1.
       -2   -1    0    0    0  501  0.00000000000E+00  0.00000000000E+00 -0.20189678369E+04  0.20189678369E+04  0.25500000920E-02 0. -1.
    10030    2    1    2    0    0  0.00000000000E+00  0.00000000000E+00 -0.97232275258E+03  0.30656129212E+04  0.29073305707E+04 0.  0.
        4    1    3    3  502    0  0.59152537702E+03 -0.64524661118E+03 -0.17099034286E+04  0.19209416464E+04  0.12699999809E+01 0. -1.
       -4    1    3    3    0  502 -0.59152537702E+03  0.64524661118E+03  0.73758067597E+03  0.11446712748E+04  0.12699999809E+01 0.  1.
</event>
<event>
 5   0  0.6780150E-06  0.2999228E+04  0.7818609E-02  0.8243951E-01
        2   -1    0    0  501    0  0.00000000000E+00  0.00000000000E+00  0.19252083917E+04  0.19252083917E+04  0.25500000920E-02 0.  1.
       -2   -1    0    0    0  501  0.00000000000E+00  0.00000000000E+00 -0.11681028754E+04  0.11681028754E+04  0.25500000920E-02 0. -1.
    10030    2    1    2    0    0  0.00000000000E+00  0.00000000000E+00  0.75710551632E+03  0.30933112671E+04  0.29992275393E+04 0.  0.
        5    1    3    3  502    0  0.84078269352E+03 -0.37984270508E+03 -0.84074361544E+03  0.12482259151E+04  0.46999998093E+01 0. -1.
       -5    1    3    3    0  502 -0.84078269352E+03  0.37984270508E+03  0.15978491318E+04  0.18450853520E+04  0.46999998093E+01 0.  1.
</event>
<event>
 5   0  0.2504260E-06  0.2526665E+04  0.7818609E-02  0.8393547E-01
        1   -1    0    0  501    0  0.00000000000E+00  0.00000000000E+00  0.25151251188E+04  0.25151251189E+04  0.50400001928E-02 0.  1.
       -1   -1    0    0    0  501  0.00000000000E+00  0.00000000000E+00 -0.63456435831E+03  0.63456435833E+03  0.50400001928E-02 0. -1.
    10030    2    1    2    0    0  0.00000000000E+00  0.00000000000E+00  0.18805607605E+04  0.31496894772E+04  0.25266648034E+04 0.  0.
        4    1    3    3  502    0  0.47308056689E+03  0.42864461343E+03  0.22992615466E+04  0.23862411236E+04  0.12699999809E+01 0.  1.
       -4    1    3    3    0  502 -0.47308056689E+03 -0.42864461343E+03 -0.41870078608E+03  0.76344835357E+03  0.12699999809E+01 0. -1.
</event>
<event>
 5   0  0.6780150E-06  0.2995740E+04  0.7818609E-02  0.8244948E-01
       -2   -1    0    0    0  501  0.00000000000E+00  0.00000000000E+00  0.11198596342E+04  0.11198596342E+04  0.25500000920E-02 0. -1.
        2   -1    0    0  501    0  0.00000000000E+00  0.00000000000E+00 -0.20034785078E+04  0.20034785078E+04  0.25500000920E-02 0.  1.
    10030    2    1    2    0    0  0.00000000000E+00  0.00000000000E+00 -0.88361887351E+03  0.31233381420E+04  0.29957401148E+04 0.  0.
        5    1    3    3  502    0  0.36269666309E+03 -0.12602192091E+04  0.31282298611E+03  0.13481771527E+04  0.46999998093E+01 0. -1.
       -5    1    3    3    0  502 -0.36269666309E+03  0.12602192091E+04 -0.11964418596E+04  0.17751609893E+04  0.46999998093E+01 0.  1.
</event>
<event>
 5   0  0.2422083E-06  0.2965932E+04  0.7818609E-02  0.8253527E-01
        1   -1    0    0  501    0  0.00000000000E+00  0.00000000000E+00  0.28778112046E+04  0.28778112046E+04  0.50400001928E-02 0.  1.
       -1   -1    0    0    0  501  0.00000000000E+00  0.00000000000E+00 -0.76418773226E+03  0.76418773228E+03  0.50400001928E-02 0. -1.
    10030    2    1    2    0    0  0.00000000000E+00  0.00000000000E+00  0.21136234723E+04  0.36419989369E+04  0.29659319064E+04 0.  0.
        2    1    3    3  502    0 -0.10664851824E+03 -0.14444589050E+04  0.66588439058E+03  0.15941259224E+04  0.25500000920E-02 0. -1.
       -2    1    3    3    0  502  0.10664851824E+03  0.14444589050E+04  0.14477390818E+04  0.20478730145E+04  0.25500000920E-02 0.  1.
</event>
<event>
 5   0  0.6792811E-06  0.2970192E+04  0.7818609E-02  0.8252294E-01
       -2   -1    0    0    0  501  0.00000000000E+00  0.00000000000E+00  0.13192144661E+04  0.13192144661E+04  0.25500000920E-02 0. -1.
        2   -1    0    0  501    0  0.00000000000E+00  0.00000000000E+00 -0.16718359181E+04  0.16718359181E+04  0.25500000920E-02 0.  1.
    10030    2    1    2    0    0  0.00000000000E+00  0.00000000000E+00 -0.35262145203E+03  0.29910503841E+04  0.29701919992E+04 0.  0.
        2    1    3    3  502    0  0.13919022762E+04  0.51779323164E+03 -0.17340066435E+03  0.14951821186E+04  0.25500000920E-02 0.  1.
       -2    1    3    3    0  502 -0.13919022762E+04 -0.51779323164E+03 -0.17922078768E+03  0.14958682656E+04  0.25500000920E-02 0. -1.
</event>
<event>
 5   0  0.2672155E-06  0.2986917E+04  0.7818609E-02  0.8247477E-01
        1   -1    0    0  501    0  0.00000000000E+00  0.00000000000E+00  0.23595091843E+04  0.23595091843E+04  0.50400001928E-02 0.  1.
       -1   -1    0    0    0  501  0.00000000000E+00  0.00000000000E+00 -0.94528889144E+03  0.94528889145E+03  0.50400001928E-02 0. -1.
    10030    2    1    2    0    0  0.00000000000E+00  0.00000000000E+00  0.14142202929E+04  0.33047980758E+04  0.29869166853E+04 0.  0.
        5    1    3    3  502    0  0.14741061186E+04 -0.11846034233E+03  0.47668137428E+03  0.15537917892E+04  0.46999998093E+01 0.  1.
       -5    1    3    3    0  502 -0.14741061186E+04  0.11846034233E+03  0.93753891861E+03  0.17510062866E+04  0.46999998093E+01 0. -1.
</event>
</LesHouchesEvents>
