<LesHouchesEvents version="3.0">
<header>
<!--
#*********************************************************************
#                                                                    *
#                        MadGraph5_aMC@NLO                           *
#                                                                    *
#                           Going Beyond                             *
#                                                                    *
#                   http://madgraph.hep.uiuc.edu                     *
#                   http://madgraph.phys.ucl.ac.be                   *
#                   http://amcatnlo.cern.ch                          *
#                                                                    *
#                     The MadGraph5_aMC@NLO team                     *
#                                                                    *
#....................................................................*
#                                                                    *
# This file contains all the information necessary to reproduce      *
# the events generated:                                              *
#                                                                    *
# 1. software version                                                *
# 2. proc_card          : code generation info including model       *
# 3. param_card         : model primary parameters in the LH format  *
# 4. run_card           : running parameters (collider and cuts)     *
# 5. pythia_card        : present only if pythia has been run        *
# 6. pgs_card           : present only if pgs has been run           *
# 7. delphes_cards      : present only if delphes has been run       *
#                                                                    *
#                                                                    *
#*********************************************************************
-->
<MGVersion>
#5.2.2.3
</MGVersion>
<MG5ProcCard>
#************************************************************
#*                     MadGraph5_aMC@NLO                    *
#*                                                          *
#*                *                       *                 *
#*                  *        * *        *                   *
#*                    * * * * 5 * * * *                     *
#*                  *        * *        *                   *
#*                *                       *                 *
#*                                                          *
#*                                                          *
#*         VERSION 2.2.3                 2015-02-10         *
#*                                                          *
#*    The MadGraph5_aMC@NLO Development Team - Find us at   *
#*    https://server06.fynu.ucl.ac.be/projects/madgraph     *
#*                                                          *
#************************************************************
#*                                                          *
#*               Command File for MadGraph5_aMC@NLO         *
#*                                                          *
#*     run as ./bin/mg5_aMC  filename                       *
#*                                                          *
#************************************************************
set group_subprocesses Auto
set ignore_six_quark_processes False
set loop_optimized_output True
set gauge unitary
set complex_mass_scheme False
import model sm
define p = g u c d s u~ c~ d~ s~
define j = g u c d s u~ c~ d~ s~
define l+ = e+ mu+
define l- = e- mu-
define vl = ve vm vt
define vl~ = ve~ vm~ vt~
import model Zprime_UFO
generate p p > zph, zph > j j
add process p p > zph, zph > b b~
output Dijet_signal
</MG5ProcCard>
<MGProcCard>
#*********************************************************************
#                        MadGraph/MadEvent                           *
#                   http://madgraph.hep.uiuc.edu                     *
#                                                                    *
#                          proc_card.dat                             *
#*********************************************************************
#                                                                    *
#            This Files is generated by MADGRAPH 5                   *
#                                                                    *
# WARNING: This Files is generated for MADEVENT (compatibility issue)*
#          This files is NOT a valid MG4 proc_card.dat               *
#          Running this in MG4 will NEVER reproduce the result of MG5*
#                                                                    *
#*********************************************************************
#*********************************************************************
# Process(es) requested : mg2 input                                  *
#*********************************************************************
# Begin PROCESS # This is TAG. Do not modify this line
p p > zph , zph > j j           #Process
# Be carefull the coupling are here in MG5 convention
          
end_coup           # End the couplings input

done               # this tells MG there are no more procs
# End PROCESS  # This is TAG. Do not modify this line
#*********************************************************************
# Model information                                                  *
#*********************************************************************
# Begin MODEL  # This is TAG. Do not modify this line
Zprime_UFO
# End   MODEL  # This is TAG. Do not modify this line
#*********************************************************************
# Start multiparticle definitions                                    *
#*********************************************************************
# Begin MULTIPARTICLES # This is TAG. Do not modify this line

# End  MULTIPARTICLES # This is TAG. Do not modify this line
</MGProcCard>
<MGRunCard>
#*********************************************************************
#                       MadGraph5_aMC@NLO                            *
#                                                                    *
#                     run_card.dat MadEvent                          *
#                                                                    *
#  This file is used to set the parameters of the run.               *
#                                                                    *
#  Some notation/conventions:                                        *
#                                                                    *
#   Lines starting with a '# ' are info or comments                  *
#                                                                    *
#   mind the format:   value    = variable     ! comment             *
#*********************************************************************
#
#*******************                                                 
# Running parameters
#*******************                                                 
#                                                                    
#*********************************************************************
# Tag name for the run (one word)                                    *
#*********************************************************************
  tag_1     = run_tag ! name of the run 
#*********************************************************************
# Run to generate the grid pack                                      *
#*********************************************************************
  .false.     = gridpack  !True = setting up the grid pack
#*********************************************************************
# Number of events and rnd seed                                      *
# Warning: Do not generate more than 1M events in a single run       *
# If you want to run Pythia, avoid more than 50k events in a run.    *
#*********************************************************************
  2000 = nevents ! Number of unweighted events requested 
 1236 = iseed   ! rnd seed (0=assigned automatically=default))
#*********************************************************************
# Collider type and energy                                           *
# lpp: 0=No PDF, 1=proton, -1=antiproton, 2=photon from proton,      *
#                                         3=photon from electron     *
#*********************************************************************
        1     = lpp1    ! beam 1 type 
        1     = lpp2    ! beam 2 type
     4000     = ebeam1  ! beam 1 total energy in GeV
     4000     = ebeam2  ! beam 2 total energy in GeV
#*********************************************************************
# Beam polarization from -100 (left-handed) to 100 (right-handed)    *
#*********************************************************************
        0     = polbeam1 ! beam polarization for beam 1
        0     = polbeam2 ! beam polarization for beam 2
#*********************************************************************
# PDF CHOICE: this automatically fixes also alpha_s and its evol.    *
#*********************************************************************
 'nn23lo1'    = pdlabel     ! PDF set                                     
 230000    = lhaid     ! if pdlabel=lhapdf, this is the lhapdf number
#*********************************************************************
# Renormalization and factorization scales                           *
#*********************************************************************
 F        = fixed_ren_scale  ! if .true. use fixed ren scale
 F        = fixed_fac_scale  ! if .true. use fixed fac scale
 91.1880  = scale            ! fixed ren scale
 91.1880  = dsqrt_q2fact1    ! fixed fact scale for pdf1
 91.1880  = dsqrt_q2fact2    ! fixed fact scale for pdf2
 1        = scalefact        ! scale factor for event-by-event scales
#*********************************************************************
# Matching - Warning! ickkw > 1 is still beta
#*********************************************************************
 0        = ickkw            ! 0 no matching, 1 MLM, 2 CKKW matching
 1        = highestmult      ! for ickkw=2, highest mult group
 1        = ktscheme         ! for ickkw=1, 1 Durham kT, 2 Pythia pTE
 1        = alpsfact         ! scale factor for QCD emission vx
 F        = chcluster        ! cluster only according to channel diag
 T        = pdfwgt           ! for ickkw=1, perform pdf reweighting
 5        = asrwgtflavor     ! highest quark flavor for a_s reweight
 T        = clusinfo         ! include clustering tag in output
 3.0      = lhe_version       ! Change the way clustering information pass to shower.        
#*********************************************************************
#**********************************************************
#
#**********************************************************
# Automatic ptj and mjj cuts if xqcut > 0
# (turn off for VBF and single top processes)
#**********************************************************
   T  = auto_ptj_mjj  ! Automatic setting of ptj and mjj
#**********************************************************
#                                                                    
#**********************************
# BW cutoff (M+/-bwcutoff*Gamma)
#**********************************
  15  = bwcutoff      ! (M+/-bwcutoff*Gamma)
#**********************************************************
# Apply pt/E/eta/dr/mij cuts on decay products or not
# (note that etmiss/ptll/ptheavy/ht/sorted cuts always apply)
#**********************************************************
   T  = cut_decays    ! Cut decay products 
#*************************************************************
# Number of helicities to sum per event (0 = all helicities)
# 0 gives more stable result, but longer run time (needed for
# long decay chains e.g.).
# Use >=2 if most helicities contribute, e.g. pure QCD.
#*************************************************************
   0  = nhel          ! Number of helicities used per event
#*******************                                                 
# Standard Cuts
#*******************                                                 
#                                                                    
#*********************************************************************
# Minimum and maximum pt's (for max, -1 means no cut)                *
#*********************************************************************
 20  = ptj       ! minimum pt for the jets 
  0  = ptb       ! minimum pt for the b 
 10  = pta       ! minimum pt for the photons 
 10  = ptl       ! minimum pt for the charged leptons 
  0  = misset    ! minimum missing Et (sum of neutrino's momenta)
  0  = ptheavy   ! minimum pt for one heavy final state
 1.0 = ptonium   ! minimum pt for the quarkonium states
 -1  = ptjmax    ! maximum pt for the jets
 -1  = ptbmax    ! maximum pt for the b
 -1  = ptamax    ! maximum pt for the photons
 -1  = ptlmax    ! maximum pt for the charged leptons
 -1  = missetmax ! maximum missing Et (sum of neutrino's momenta)
#*********************************************************************
# Minimum and maximum E's (in the center of mass frame)              *
#*********************************************************************
  0  = ej     ! minimum E for the jets 
  0  = eb     ! minimum E for the b 
  0  = ea     ! minimum E for the photons 
  0  = el     ! minimum E for the charged leptons 
 -1   = ejmax ! maximum E for the jets
 -1   = ebmax ! maximum E for the b
 -1   = eamax ! maximum E for the photons
 -1   = elmax ! maximum E for the charged leptons
#*********************************************************************
# Maximum and minimum absolute rapidity (for max, -1 means no cut)   *
#*********************************************************************
   5  = etaj    ! max rap for the jets 
  -1  = etab    ! max rap for the b
 2.5  = etaa    ! max rap for the photons 
 2.5  = etal    ! max rap for the charged leptons 
 0.6  = etaonium ! max rap for the quarkonium states
   0  = etajmin ! min rap for the jets
   0  = etabmin ! min rap for the b
   0  = etaamin ! min rap for the photons
   0  = etalmin ! main rap for the charged leptons
#*********************************************************************
# Minimum and maximum DeltaR distance                                *
#*********************************************************************
 0.4 = drjj    ! min distance between jets 
 0   = drbb    ! min distance between b's 
 0.4 = drll    ! min distance between leptons 
 0.4 = draa    ! min distance between gammas 
 0   = drbj    ! min distance between b and jet 
 0.4 = draj    ! min distance between gamma and jet 
 0.4 = drjl    ! min distance between jet and lepton 
 0   = drab    ! min distance between gamma and b 
 0   = drbl    ! min distance between b and lepton 
 0.4 = dral    ! min distance between gamma and lepton 
 -1  = drjjmax ! max distance between jets
 -1  = drbbmax ! max distance between b's
 -1  = drllmax ! max distance between leptons
 -1  = draamax ! max distance between gammas
 -1  = drbjmax ! max distance between b and jet
 -1  = drajmax ! max distance between gamma and jet
 -1  = drjlmax ! max distance between jet and lepton
 -1  = drabmax ! max distance between gamma and b
 -1  = drblmax ! max distance between b and lepton
 -1  = dralmax ! maxdistance between gamma and lepton
#*********************************************************************
# Minimum and maximum invariant mass for pairs                       *
# WARNING: for four lepton final state mmll cut require to have      *
#          different lepton masses for each flavor!                  *           
#*********************************************************************
 0   = mmjj    ! min invariant mass of a jet pair 
 0   = mmbb    ! min invariant mass of a b pair 
 0   = mmaa    ! min invariant mass of gamma gamma pair
 0   = mmll    ! min invariant mass of l+l- (same flavour) lepton pair
 -1  = mmjjmax ! max invariant mass of a jet pair
 -1  = mmbbmax ! max invariant mass of a b pair
 -1  = mmaamax ! max invariant mass of gamma gamma pair
 -1  = mmllmax ! max invariant mass of l+l- (same flavour) lepton pair
#*********************************************************************
# Minimum and maximum invariant mass for all letpons                 *
#*********************************************************************
 0   = mmnl    ! min invariant mass for all letpons (l+- and vl) 
 -1  = mmnlmax ! max invariant mass for all letpons (l+- and vl) 
#*********************************************************************
# Minimum and maximum pt for 4-momenta sum of leptons                *
#*********************************************************************
 0   = ptllmin  ! Minimum pt for 4-momenta sum of leptons(l and vl)
 -1  = ptllmax  ! Maximum pt for 4-momenta sum of leptons(l and vl)
#*********************************************************************
# Inclusive cuts                                                     *
#*********************************************************************
 0  = xptj ! minimum pt for at least one jet  
 0  = xptb ! minimum pt for at least one b 
 0  = xpta ! minimum pt for at least one photon 
 0  = xptl ! minimum pt for at least one charged lepton 
#*********************************************************************
# Control the pt's of the jets sorted by pt                          *
#*********************************************************************
 0   = ptj1min ! minimum pt for the leading jet in pt
 0   = ptj2min ! minimum pt for the second jet in pt
 0   = ptj3min ! minimum pt for the third jet in pt
 0   = ptj4min ! minimum pt for the fourth jet in pt
 -1  = ptj1max ! maximum pt for the leading jet in pt 
 -1  = ptj2max ! maximum pt for the second jet in pt
 -1  = ptj3max ! maximum pt for the third jet in pt
 -1  = ptj4max ! maximum pt for the fourth jet in pt
 0   = cutuse  ! reject event if fails any (0) / all (1) jet pt cuts
#*********************************************************************
# Control the pt's of leptons sorted by pt                           *
#*********************************************************************
 0   = ptl1min ! minimum pt for the leading lepton in pt
 0   = ptl2min ! minimum pt for the second lepton in pt
 0   = ptl3min ! minimum pt for the third lepton in pt
 0   = ptl4min ! minimum pt for the fourth lepton in pt
 -1  = ptl1max ! maximum pt for the leading lepton in pt 
 -1  = ptl2max ! maximum pt for the second lepton in pt
 -1  = ptl3max ! maximum pt for the third lepton in pt
 -1  = ptl4max ! maximum pt for the fourth lepton in pt
#*********************************************************************
# Control the Ht(k)=Sum of k leading jets                            *
#*********************************************************************
 0   = htjmin ! minimum jet HT=Sum(jet pt)
 -1  = htjmax ! maximum jet HT=Sum(jet pt)
 0   = ihtmin  !inclusive Ht for all partons (including b)
 -1  = ihtmax  !inclusive Ht for all partons (including b)
 0   = ht2min ! minimum Ht for the two leading jets
 0   = ht3min ! minimum Ht for the three leading jets
 0   = ht4min ! minimum Ht for the four leading jets
 -1  = ht2max ! maximum Ht for the two leading jets
 -1  = ht3max ! maximum Ht for the three leading jets
 -1  = ht4max ! maximum Ht for the four leading jets
#***********************************************************************
# Photon-isolation cuts, according to hep-ph/9801442                   *
# When ptgmin=0, all the other parameters are ignored                  *
# When ptgmin>0, pta and draj are not going to be used                 *
#***********************************************************************
   0 = ptgmin ! Min photon transverse momentum
 0.4 = R0gamma ! Radius of isolation code
 1.0 = xn ! n parameter of eq.(3.4) in hep-ph/9801442
 1.0 = epsgamma ! epsilon_gamma parameter of eq.(3.4) in hep-ph/9801442
 .true. = isoEM ! isolate photons from EM energy (photons and leptons)
#*********************************************************************
# WBF cuts                                                           *
#*********************************************************************
 0   = xetamin ! minimum rapidity for two jets in the WBF case  
 0   = deltaeta ! minimum rapidity for two jets in the WBF case 
#*********************************************************************
# KT DURHAM CUT                                                      *
#*********************************************************************
 -1    =  ktdurham        
 0.4  =  dparameter 
#*********************************************************************
# maximal pdg code for quark to be considered as a light jet         *
# (otherwise b cuts are applied)                                     *
#*********************************************************************
 4 = maxjetflavor    ! Maximum jet pdg code
#*********************************************************************
# Jet measure cuts                                                   *
#*********************************************************************
 0   = xqcut   ! minimum kt jet measure between partons
#*********************************************************************
#
#*********************************************************************
# Store info for systematics studies                                 *
# WARNING: If use_syst is T, matched Pythia output is                *
#          meaningful ONLY if plotted taking matchscale              *
#          reweighting into account!                                 *
#*********************************************************************
   F  = use_syst      ! Enable systematics studies
#
#**************************************
# Parameter of the systematics study
#  will be used by SysCalc (if installed)
#**************************************                                  
#
0.5 1 2 = sys_scalefact  # factorization/renormalization scale factor
0.5 1 2 = sys_alpsfact  # \alpha_s emission scale factors
30 50 = sys_matchscale # variation of merging scale
# PDF sets and number of members (0 or none for all members).
CT10nlo.LHgrid = sys_pdf # matching scales
# MSTW2008nlo68cl.LHgrid 1  = sys_pdf
</MGRunCard>
<slha>
######################################################################
## PARAM_CARD AUTOMATICALY GENERATED BY MG5 FOLLOWING UFO MODEL   ####
######################################################################
##                                                                  ##
##  Width set on Auto will be computed following the information    ##
##        present in the decay.py files of the model.               ##
##        See  arXiv:1402.1178 for more details.                    ##
##                                                                  ##
######################################################################

###################################
## INFORMATION FOR CKMBLOCK
###################################
Block ckmblock 
    1 2.277360e-01 # cabi 

###################################
## INFORMATION FOR FRBLOCK
###################################
Block frblock 
    1 6.000000e-01 # gz 

###################################
## INFORMATION FOR MASS
###################################
Block mass 
    1 5.040000e-03 # MD 
    2 2.550000e-03 # MU 
    3 1.010000e-01 # MS 
    4 1.270000e+00 # MC 
    5 4.700000e+00 # MB 
    6 1.720000e+02 # MT 
   11 5.110000e-04 # Me 
   13 1.056600e-01 # MM 
   15 1.777000e+00 # MTA 
   23 9.118760e+01 # MZ 
   25 1.200000e+02 # MH 
  10030 1.500000e+03 # MZph 
  10031 3.000000e+02 # MZpl 
## Dependent parameters, given by model restrictions.
## Those values should be edited following the 
## analytical expression. MG5 ignores those values 
## but they are important for interfacing the output of MG5
## to external program such as Pythia.
  12 0.000000 # ve : 0.0 
  14 0.000000 # vm : 0.0 
  16 0.000000 # vt : 0.0 
  21 0.000000 # g : 0.0 
  22 0.000000 # a : 0.0 
  24 79.824360 # w+ : cmath.sqrt(MZ__exp__2/2. + cmath.sqrt(MZ__exp__4/4. - (aEW*cmath.pi*MZ__exp__2)/(Gf*sqrt__2))) 

###################################
## INFORMATION FOR SMINPUTS
###################################
Block sminputs 
    1 1.279000e+02 # aEWM1 
    2 1.166370e-05 # Gf 
    3 1.184000e-01 # aS 

###################################
## INFORMATION FOR YUKAWA
###################################
Block yukawa 
    1 5.040000e-03 # ymdo 
    2 2.550000e-03 # ymup 
    3 1.010000e-01 # yms 
    4 1.270000e+00 # ymc 
    5 4.700000e+00 # ymb 
    6 1.720000e+02 # ymt 
   11 5.110000e-04 # yme 
   13 1.056600e-01 # ymm 
   15 1.777000e+00 # ymtau 

###################################
## INFORMATION FOR DECAY
###################################
DECAY   6 1.508336e+00 # WT 
DECAY  23 2.495200e+00 # WZ 
DECAY  24 2.085000e+00 # WW 
DECAY  25 5.753088e-03 # WH 
## Dependent parameters, given by model restrictions.
## Those values should be edited following the 
## analytical expression. MG5 ignores those values 
## but they are important for interfacing the output of MG5
## to external program such as Pythia.
DECAY  1 0.000000 # d : 0.0 
DECAY  2 0.000000 # u : 0.0 
DECAY  3 0.000000 # s : 0.0 
DECAY  4 0.000000 # c : 0.0 
DECAY  5 0.000000 # b : 0.0 
DECAY  11 0.000000 # e- : 0.0 
DECAY  12 0.000000 # ve : 0.0 
DECAY  13 0.000000 # mu- : 0.0 
DECAY  14 0.000000 # vm : 0.0 
DECAY  15 0.000000 # ta- : 0.0 
DECAY  16 0.000000 # vt : 0.0 
DECAY  21 0.000000 # g : 0.0 
DECAY  22 0.000000 # a : 0.0 
DECAY  10030 0.308725 # zph : (gz__exp__2*MZph*(5 + cmath.sqrt(1 - (4*MT__exp__2)/MZph__exp__2)))/(144.*cmath.pi) 
DECAY  10031 0.132629 # zpl : (5*gz__exp__2*MZpl)/(144.*cmath.pi) 
#===========================================================
# QUANTUM NUMBERS OF NEW STATE(S) (NON SM PDG CODE)
#===========================================================

Block QNUMBERS 10030  # zph 
        1 0  # 3 times electric charge
        2 3  # number of spin states (2S+1)
        3 1  # colour rep (1: singlet, 3: triplet, 8: octet)
        4 0  # Particle/Antiparticle distinction (0=own anti)
Block QNUMBERS 10031  # zpl 
        1 0  # 3 times electric charge
        2 3  # number of spin states (2S+1)
        3 1  # colour rep (1: singlet, 3: triplet, 8: octet)
        4 0  # Particle/Antiparticle distinction (0=own anti)
</slha>
## END BANNER##
<MGGenerationInfo>
#  Number of Events        :         3991
#  Integrated weight (pb)  :  0.80345E-01
#  Max wgt                 :  0.27341E-04
#  Average wgt             :  0.20132E-04
</MGGenerationInfo>
</header>
<init>
     2212     2212  0.40000000000E+04  0.40000000000E+04 0 0  247000  247000 2   1
  0.80415478235E-01  0.16321304419E-03  0.27340720000E-04   0
</init>
<event>
 5   0  0.2618901E-04  0.1499196E+04  0.7818609E-02  0.8884987E-01
       -2   -1    0    0    0  501  0.00000000000E+00  0.00000000000E+00  0.28973712738E+03  0.28973712739E+03  0.25500000920E-02 0. -1.
        2   -1    0    0  501    0  0.00000000000E+00  0.00000000000E+00 -0.19393354669E+04  0.19393354669E+04  0.25500000920E-02 0.  1.
    10030    2    1    2    0    0  0.00000000000E+00  0.00000000000E+00 -0.16495983395E+04  0.22290725943E+04  0.14991964344E+04 0.  0.
        1    1    3    3  502    0 -0.68007535010E+03 -0.29504865870E+03 -0.65962351853E+03  0.99230004486E+03  0.50400001928E-02 0. -1.
       -1    1    3    3    0  502  0.68007535010E+03  0.29504865870E+03 -0.98997482101E+03  0.12367725495E+04  0.50400001928E-02 0.  1.
</event>
<event>
 5   0  0.2618901E-04  0.1501363E+04  0.7818609E-02  0.8883547E-01
        2   -1    0    0  501    0  0.00000000000E+00  0.00000000000E+00  0.11047401124E+04  0.11047401124E+04  0.25500000920E-02 0. -1.
       -2   -1    0    0    0  501  0.00000000000E+00  0.00000000000E+00 -0.51009496933E+03  0.51009496933E+03  0.25500000920E-02 0.  1.
    10030    2    1    2    0    0  0.00000000000E+00  0.00000000000E+00  0.59464514312E+03  0.16148350818E+04  0.15013625462E+04 0.  0.
        1    1    3    3  502    0  0.37192701711E+02 -0.55456546595E+02  0.11015395273E+04  0.11035615324E+04  0.50400001928E-02 0. -1.
       -1    1    3    3    0  502 -0.37192701711E+02  0.55456546595E+02 -0.50689438414E+03  0.51127354940E+03  0.50400001928E-02 0.  1.
</event>
<event>
 5   0  0.2646718E-04  0.1503496E+04  0.7818609E-02  0.8882131E-01
       -2   -1    0    0    0  501  0.00000000000E+00  0.00000000000E+00  0.56623193242E+03  0.56623193243E+03  0.25500000920E-02 0. -1.
        2   -1    0    0  501    0  0.00000000000E+00  0.00000000000E+00 -0.99804518213E+03  0.99804518213E+03  0.25500000920E-02 0.  1.
    10030    2    1    2    0    0  0.00000000000E+00  0.00000000000E+00 -0.43181324971E+03  0.15642771146E+04  0.15034959955E+04 0.  0.
        3    1    3    3  502    0  0.51196536854E+03  0.36797251513E+03  0.21004954929E+03  0.66455483885E+03  0.10100000352E+00 0.  1.
       -3    1    3    3    0  502 -0.51196536854E+03 -0.36797251513E+03 -0.64186279900E+03  0.89972227571E+03  0.10100000352E+00 0. -1.
</event>
<event>
 5   0  0.2618901E-04  0.1500193E+04  0.7818609E-02  0.8884324E-01
        2   -1    0    0  501    0  0.00000000000E+00  0.00000000000E+00  0.10000110062E+04  0.10000110062E+04  0.25500000920E-02 0.  1.
       -2   -1    0    0    0  501  0.00000000000E+00  0.00000000000E+00 -0.56263869539E+03  0.56263869539E+03  0.25500000920E-02 0. -1.
    10030    2    1    2    0    0  0.00000000000E+00  0.00000000000E+00  0.43737231083E+03  0.15626497016E+04  0.15001931715E+04 0.  0.
        1    1    3    3  502    0 -0.13452052618E+03  0.49017698506E+03 -0.35589058442E+03  0.62050572660E+03  0.50400001928E-02 0. -1.
       -1    1    3    3    0  502  0.13452052618E+03 -0.49017698506E+03  0.79326289525E+03  0.94214397501E+03  0.50400001928E-02 0.  1.
</event>
<event>
 5   0  0.2646718E-04  0.1527519E+04  0.7818609E-02  0.8866356E-01
        2   -1    0    0  501    0  0.00000000000E+00  0.00000000000E+00  0.40022544434E+03  0.40022544435E+03  0.25500000920E-02 0. -1.
       -2   -1    0    0    0  501  0.00000000000E+00  0.00000000000E+00 -0.14575004539E+04  0.14575004539E+04  0.25500000920E-02 0.  1.
    10030    2    1    2    0    0  0.00000000000E+00  0.00000000000E+00 -0.10572750095E+04  0.18577258982E+04  0.15275192526E+04 0.  0.
        3    1    3    3  502    0  0.56289850473E+03  0.10351246115E+03 -0.11436877210E+04  0.12789023300E+04  0.10100000352E+00 0.  1.
       -3    1    3    3    0  502 -0.56289850473E+03 -0.10351246115E+03  0.86412711483E+02  0.57882356824E+03  0.10100000352E+00 0. -1.
</event>
<event>
 5   0  0.1426929E-04  0.1516712E+04  0.7818609E-02  0.8873415E-01
        1   -1    0    0  501    0  0.00000000000E+00  0.00000000000E+00  0.14726451798E+04  0.14726451798E+04  0.50400001928E-02 0.  1.
       -1   -1    0    0    0  501  0.00000000000E+00  0.00000000000E+00 -0.39052421357E+03  0.39052421361E+03  0.50400001928E-02 0. -1.
    10030    2    1    2    0    0  0.00000000000E+00  0.00000000000E+00  0.10821209662E+04  0.18631693934E+04  0.15167117073E+04 0.  0.
        1    1    3    3  502    0  0.56295849721E+02 -0.72558319435E+03  0.27913347198E+03  0.77945858763E+03  0.50400001928E-02 0. -1.
       -1    1    3    3    0  502 -0.56295849721E+02  0.72558319435E+03  0.80298749422E+03  0.10837108058E+04  0.50400001928E-02 0.  1.
</event>
<event>
 5   0  0.1474203E-04  0.1497421E+04  0.7818609E-02  0.8886169E-01
        1   -1    0    0  501    0  0.00000000000E+00  0.00000000000E+00  0.14904400077E+04  0.14904400077E+04  0.50400001928E-02 0. -1.
       -1   -1    0    0    0  501  0.00000000000E+00  0.00000000000E+00 -0.37610890297E+03  0.37610890300E+03  0.50400001928E-02 0.  1.
    10030    2    1    2    0    0  0.00000000000E+00  0.00000000000E+00  0.11143311048E+04  0.18665489107E+04  0.14974214587E+04 0.  0.
        3    1    3    3  502    0  0.34927401422E+03 -0.57644034200E+00 -0.26833486305E+03  0.44045008596E+03  0.10100000352E+00 0.  1.
       -3    1    3    3    0  502 -0.34927401422E+03  0.57644034200E+00  0.13826659678E+04  0.14260988248E+04  0.10100000352E+00 0. -1.
</event>
<event>
 5   0  0.2618901E-04  0.1488164E+04  0.7818609E-02  0.8892362E-01
       -2   -1    0    0    0  501  0.00000000000E+00  0.00000000000E+00  0.25162196160E+03  0.25162196161E+03  0.25500000920E-02 0. -1.
        2   -1    0    0  501    0  0.00000000000E+00  0.00000000000E+00 -0.22003576560E+04  0.22003576560E+04  0.25500000920E-02 0.  1.
    10030    2    1    2    0    0  0.00000000000E+00  0.00000000000E+00 -0.19487356944E+04  0.24519796176E+04  0.14881643856E+04 0.  0.
        1    1    3    3  502    0  0.33842723869E+02  0.28216222789E+03 -0.21074187940E+04  0.21264935519E+04  0.50400001928E-02 0.  1.
       -1    1    3    3    0  502 -0.33842723869E+02 -0.28216222789E+03  0.15868309966E+03  0.32548606568E+03  0.50400001928E-02 0. -1.
</event>
<event>
 5   0  0.1443750E-04  0.1499473E+04  0.7818609E-02  0.8884803E-01
       -1   -1    0    0    0  501  0.00000000000E+00  0.00000000000E+00  0.40429296511E+03  0.40429296514E+03  0.50400001928E-02 0.  1.
        1   -1    0    0  501    0  0.00000000000E+00  0.00000000000E+00 -0.13903411523E+04  0.13903411523E+04  0.50400001928E-02 0. -1.
    10030    2    1    2    0    0  0.00000000000E+00  0.00000000000E+00 -0.98604818719E+03  0.17946341175E+04  0.14994734369E+04 0.  0.
        2    1    3    3  502    0  0.27752649689E+03 -0.53028971263E+02 -0.13241813879E+04  0.13539901685E+04  0.25500000920E-02 0. -1.
       -2    1    3    3    0  502 -0.27752649689E+03  0.53028971263E+02  0.33813320076E+03  0.44064394893E+03  0.25500000920E-02 0.  1.
</event>
<event>
 5   0  0.2618901E-04  0.1499174E+04  0.7818609E-02  0.8885002E-01
       -2   -1    0    0    0  501  0.00000000000E+00  0.00000000000E+00  0.39444148272E+03  0.39444148273E+03  0.25500000920E-02 0. -1.
        2   -1    0    0  501    0  0.00000000000E+00  0.00000000000E+00 -0.14244977051E+04  0.14244977051E+04  0.25500000920E-02 0.  1.
    10030    2    1    2    0    0  0.00000000000E+00  0.00000000000E+00 -0.10300562224E+04  0.18189391879E+04  0.14991744221E+04 0.  0.
        1    1    3    3  502    0  0.37980077062E+03 -0.28033970391E+03 -0.12214965651E+04  0.13095391684E+04  0.50400001928E-02 0.  1.
       -1    1    3    3    0  502 -0.37980077062E+03  0.28033970391E+03  0.19144034274E+03  0.50940001944E+03  0.50400001928E-02 0. -1.
</event>
<event>
 5   0  0.1004313E-04  0.1500777E+04  0.7818609E-02  0.8883936E-01
        4   -1    0    0  501    0  0.00000000000E+00  0.00000000000E+00  0.74929816920E+03  0.74929924547E+03  0.12699999809E+01 0. -1.
       -4   -1    0    0    0  501  0.00000000000E+00  0.00000000000E+00 -0.75147830998E+03  0.75147938313E+03  0.12699999809E+01 0.  1.
    10030    2    1    2    0    0  0.00000000000E+00  0.00000000000E+00 -0.21801407834E+01  0.15007786286E+04  0.15007770451E+04 0.  0.
        2    1    3    3  502    0 -0.25445472643E+03  0.60453457546E+03  0.36342872807E+03  0.74985978764E+03  0.25500000920E-02 0. -1.
       -2    1    3    3    0  502  0.25445472643E+03 -0.60453457546E+03 -0.36560886885E+03  0.75091884097E+03  0.25500000920E-02 0.  1.
</event>
<event>
 5   0  0.2734072E-04  0.1520898E+04  0.7818609E-02  0.8870674E-01
        2   -1    0    0  501    0  0.00000000000E+00  0.00000000000E+00  0.51301164614E+03  0.51301164615E+03  0.25500000920E-02 0.  1.
       -2   -1    0    0    0  501  0.00000000000E+00  0.00000000000E+00 -0.11272304046E+04  0.11272304046E+04  0.25500000920E-02 0. -1.
    10030    2    1    2    0    0  0.00000000000E+00  0.00000000000E+00 -0.61421875841E+03  0.16402420507E+04  0.15208975316E+04 0.  0.
        5    1    3    3  502    0  0.46586853929E+03  0.24263562876E+03  0.28590652680E+03  0.59805532880E+03  0.46999998093E+01 0.  1.
       -5    1    3    3    0  502 -0.46586853929E+03 -0.24263562876E+03 -0.90012528521E+03  0.10421867219E+04  0.46999998093E+01 0. -1.
</event>
<event>
 5   0  0.1484251E-04  0.1501651E+04  0.7818609E-02  0.8883356E-01
       -1   -1    0    0    0  501  0.00000000000E+00  0.00000000000E+00  0.59756757678E+03  0.59756757680E+03  0.50400001928E-02 0.  1.
        1   -1    0    0  501    0  0.00000000000E+00  0.00000000000E+00 -0.94338965468E+03  0.94338965470E+03  0.50400001928E-02 0. -1.
    10030    2    1    2    0    0  0.00000000000E+00  0.00000000000E+00 -0.34582207790E+03  0.15409572315E+04  0.15016511844E+04 0.  0.
        5    1    3    3  502    0  0.48297647238E+03 -0.57091847868E+03 -0.24177036116E+03  0.78593204522E+03  0.46999998093E+01 0. -1.
       -5    1    3    3    0  502 -0.48297647238E+03  0.57091847868E+03 -0.10405171674E+03  0.75502518628E+03  0.46999998093E+01 0.  1.
</event>
<event>
 5   0  0.1004313E-04  0.1508225E+04  0.7818609E-02  0.8879002E-01
        3   -1    0    0  501    0  0.00000000000E+00  0.00000000000E+00  0.11021421496E+04  0.11021421543E+04  0.10100000352E+00 0.  1.
       -3   -1    0    0    0  501  0.00000000000E+00  0.00000000000E+00 -0.51598196789E+03  0.51598197777E+03  0.10100000352E+00 0. -1.
    10030    2    1    2    0    0  0.00000000000E+00  0.00000000000E+00  0.58616018174E+03  0.16181241320E+04  0.15082247671E+04 0.  0.
        3    1    3    3  502    0  0.67137228947E+03 -0.12119052807E+03  0.63783204879E+03  0.93394733675E+03  0.10100000352E+00 0.  1.
       -3    1    3    3    0  502 -0.67137228947E+03  0.12119052807E+03 -0.51671867052E+02  0.68417679528E+03  0.10100000352E+00 0. -1.
</event>
<event>
 5   0  0.1426929E-04  0.1503266E+04  0.7818609E-02  0.8882284E-01
        1   -1    0    0  501    0  0.00000000000E+00  0.00000000000E+00  0.16342714020E+04  0.16342714020E+04  0.50400001928E-02 0.  1.
       -1   -1    0    0    0  501  0.00000000000E+00  0.00000000000E+00 -0.34569056735E+03  0.34569056738E+03  0.50400001928E-02 0. -1.
    10030    2    1    2    0    0  0.00000000000E+00  0.00000000000E+00  0.12885808347E+04  0.19799619694E+04  0.15032660552E+04 0.  0.
        1    1    3    3  502    0  0.11345056316E+03 -0.66577801958E+03  0.20980323616E+03  0.70721199054E+03  0.50400001928E-02 0. -1.
       -1    1    3    3    0  502 -0.11345056316E+03  0.66577801958E+03  0.10787775985E+04  0.12727499789E+04  0.50400001928E-02 0.  1.
</event>
<event>
 5   0  0.1474203E-04  0.1502628E+04  0.7818609E-02  0.8882707E-01
       -1   -1    0    0    0  501  0.00000000000E+00  0.00000000000E+00  0.54827796910E+03  0.54827796913E+03  0.50400001928E-02 0.  1.
        1   -1    0    0  501    0  0.00000000000E+00  0.00000000000E+00 -0.10295371894E+04  0.10295371894E+04  0.50400001928E-02 0. -1.
    10030    2    1    2    0    0  0.00000000000E+00  0.00000000000E+00 -0.48125922029E+03  0.15778151585E+04  0.15026277774E+04 0.  0.
        3    1    3    3  502    0  0.11349503934E+02 -0.74940176910E+03 -0.29560110550E+03  0.80567477715E+03  0.10100000352E+00 0.  1.
       -3    1    3    3    0  502 -0.11349503934E+02  0.74940176910E+03 -0.18565811479E+03  0.77214038138E+03  0.10100000352E+00 0. -1.
</event>
<event>
 5   0  0.1474203E-04  0.1480895E+04  0.7818609E-02  0.8897258E-01
        1   -1    0    0  501    0  0.00000000000E+00  0.00000000000E+00  0.52168835221E+03  0.52168835223E+03  0.50400001928E-02 0. -1.
       -1   -1    0    0    0  501  0.00000000000E+00  0.00000000000E+00 -0.10509383041E+04  0.10509383041E+04  0.50400001928E-02 0.  1.
    10030    2    1    2    0    0  0.00000000000E+00  0.00000000000E+00 -0.52924995190E+03  0.15726266564E+04  0.14808946920E+04 0.  0.
        3    1    3    3  502    0 -0.65329657734E+03  0.26854249269E+03 -0.50053611029E+03  0.86570658785E+03  0.10100000352E+00 0.  1.
       -3    1    3    3    0  502  0.65329657734E+03 -0.26854249269E+03 -0.28713841613E+02  0.70692006850E+03  0.10100000352E+00 0. -1.
</event>
<event>
 5   0  0.2618901E-04  0.1497587E+04  0.7818609E-02  0.8886059E-01
        2   -1    0    0  501    0  0.00000000000E+00  0.00000000000E+00  0.30558473472E+04  0.30558473472E+04  0.25500000920E-02 0.  1.
       -2   -1    0    0    0  501  0.00000000000E+00  0.00000000000E+00 -0.18348150880E+03  0.18348150881E+03  0.25500000920E-02 0. -1.
    10030    2    1    2    0    0  0.00000000000E+00  0.00000000000E+00  0.28723658384E+04  0.32393288560E+04  0.14975867012E+04 0.  0.
        1    1    3    3  502    0  0.80596102170E+01  0.15939582271E+03  0.30186293874E+04  0.30228455739E+04  0.50400001928E-02 0.  1.
       -1    1    3    3    0  502 -0.80596102170E+01 -0.15939582271E+03 -0.14626354899E+03  0.21648328204E+03  0.50400001928E-02 0. -1.
</event>
<event>
 5   0  0.1427609E-04  0.1494918E+04  0.7818609E-02  0.8887840E-01
       -1   -1    0    0    0  501  0.00000000000E+00  0.00000000000E+00  0.10225992439E+04  0.10225992440E+04  0.50400001928E-02 0.  1.
        1   -1    0    0  501    0  0.00000000000E+00  0.00000000000E+00 -0.54634757999E+03  0.54634758001E+03  0.50400001928E-02 0. -1.
    10030    2    1    2    0    0  0.00000000000E+00  0.00000000000E+00  0.47625166395E+03  0.15689468240E+04  0.14949175526E+04 0.  0.
        4    1    3    3  502    0 -0.24823353652E+03 -0.69539930467E+03  0.11621449870E+03  0.74746739340E+03  0.12699999809E+01 0.  1.
       -4    1    3    3    0  502  0.24823353652E+03  0.69539930467E+03  0.36003716525E+03  0.82147943057E+03  0.12699999809E+01 0. -1.
</event>
<event>
 5   0  0.1426929E-04  0.1496657E+04  0.7818609E-02  0.8886679E-01
       -1   -1    0    0    0  501  0.00000000000E+00  0.00000000000E+00  0.46925766295E+03  0.46925766297E+03  0.50400001928E-02 0. -1.
        1   -1    0    0  501    0  0.00000000000E+00  0.00000000000E+00 -0.11933649012E+04  0.11933649012E+04  0.50400001928E-02 0.  1.
    10030    2    1    2    0    0  0.00000000000E+00  0.00000000000E+00 -0.72410723821E+03  0.16626225641E+04  0.14966571078E+04 0.  0.
        1    1    3    3  502    0 -0.31937654552E+03 -0.42300550644E+03  0.22478759963E+03  0.57572953831E+03  0.50400001928E-02 0. -1.
       -1    1    3    3    0  502  0.31937654552E+03  0.42300550644E+03 -0.94889483784E+03  0.10868930258E+04  0.50400001928E-02 0.  1.
</event>
<event>
 5   0  0.2696040E-04  0.1498226E+04  0.7818609E-02  0.8885633E-01
       -2   -1    0    0    0  501  0.00000000000E+00  0.00000000000E+00  0.49379539395E+03  0.49379539396E+03  0.25500000920E-02 0.  1.
        2   -1    0    0  501    0  0.00000000000E+00  0.00000000000E+00 -0.11364436458E+04  0.11364436458E+04  0.25500000920E-02 0. -1.
    10030    2    1    2    0    0  0.00000000000E+00  0.00000000000E+00 -0.64264825180E+03  0.16302390397E+04  0.14982264686E+04 0.  0.
        2    1    3    3  502    0 -0.14755227497E+03 -0.61793543359E+03 -0.75323047996E+03  0.98537913002E+03  0.25500000920E-02 0. -1.
       -2    1    3    3    0  502  0.14755227497E+03  0.61793543359E+03  0.11058222816E+03  0.64485990969E+03  0.25500000920E-02 0.  1.
</event>
<event>
 5   0  0.1474203E-04  0.1497511E+04  0.7818609E-02  0.8886110E-01
        1   -1    0    0  501    0  0.00000000000E+00  0.00000000000E+00  0.83506014029E+03  0.83506014031E+03  0.50400001928E-02 0.  1.
       -1   -1    0    0    0  501  0.00000000000E+00  0.00000000000E+00 -0.67137063633E+03  0.67137063635E+03  0.50400001928E-02 0. -1.
    10030    2    1    2    0    0  0.00000000000E+00  0.00000000000E+00  0.16368950396E+03  0.15064307767E+04  0.14975110788E+04 0.  0.
        3    1    3    3  502    0 -0.58463611516E+03  0.44920698756E+03  0.21319254119E+03  0.76748770325E+03  0.10100000352E+00 0. -1.
       -3    1    3    3    0  502  0.58463611516E+03 -0.44920698756E+03 -0.49503037229E+02  0.73894307340E+03  0.10100000352E+00 0.  1.
</event>
<event>
 5   0  0.1004313E-04  0.1488819E+04  0.7818609E-02  0.8891922E-01
        3   -1    0    0  501    0  0.00000000000E+00  0.00000000000E+00  0.73278419188E+03  0.73278419884E+03  0.10100000352E+00 0.  1.
       -3   -1    0    0    0  501  0.00000000000E+00  0.00000000000E+00 -0.75621930507E+03  0.75621931181E+03  0.10100000352E+00 0. -1.
    10030    2    1    2    0    0  0.00000000000E+00  0.00000000000E+00 -0.23435113185E+02  0.14890035107E+04  0.14888190791E+04 0.  0.
        5    1    3    3  502    0 -0.53538058034E+03  0.51719462292E+03 -0.12628036857E+02  0.74451608518E+03  0.46999998093E+01 0. -1.
       -5    1    3    3    0  502  0.53538058034E+03 -0.51719462292E+03 -0.10807076329E+02  0.74448742547E+03  0.46999998093E+01 0.  1.
</event>
<event>
 5   0  0.2646718E-04  0.1501894E+04  0.7818609E-02  0.8883194E-01
       -2   -1    0    0    0  501  0.00000000000E+00  0.00000000000E+00  0.46003889246E+03  0.46003889247E+03  0.25500000920E-02 0. -1.
        2   -1    0    0  501    0  0.00000000000E+00  0.00000000000E+00 -0.12258127635E+04  0.12258127635E+04  0.25500000920E-02 0.  1.
    10030    2    1    2    0    0  0.00000000000E+00  0.00000000000E+00 -0.76577387102E+03  0.16858516559E+04  0.15018941988E+04 0.  0.
        3    1    3    3  502    0  0.73120630688E+03  0.41423494404E+02 -0.56917514829E+03  0.92754456968E+03  0.10100000352E+00 0. -1.
       -3    1    3    3    0  502 -0.73120630688E+03 -0.41423494404E+02 -0.19659872273E+03  0.75830708627E+03  0.10100000352E+00 0.  1.
</event>
<event>
 5   0  0.1426929E-04  0.1500804E+04  0.7818609E-02  0.8883918E-01
       -1   -1    0    0    0  501  0.00000000000E+00  0.00000000000E+00  0.59088385789E+03  0.59088385791E+03  0.50400001928E-02 0. -1.
        1   -1    0    0  501    0  0.00000000000E+00  0.00000000000E+00 -0.95298455368E+03  0.95298455370E+03  0.50400001928E-02 0.  1.
    10030    2    1    2    0    0  0.00000000000E+00  0.00000000000E+00 -0.36210069580E+03  0.15438684116E+04  0.15008040373E+04 0.  0.
        1    1    3    3  502    0  0.69428793137E+03 -0.57183582724E+02 -0.46797581742E+03  0.83923003968E+03  0.50400001928E-02 0.  1.
       -1    1    3    3    0  502 -0.69428793137E+03  0.57183582724E+02  0.10587512163E+03  0.70463837193E+03  0.50400001928E-02 0. -1.
</event>
<event>
 5   0  0.2696040E-04  0.1481080E+04  0.7818609E-02  0.8897133E-01
       -2   -1    0    0    0  501  0.00000000000E+00  0.00000000000E+00  0.29427843964E+03  0.29427843965E+03  0.25500000920E-02 0.  1.
        2   -1    0    0  501    0  0.00000000000E+00  0.00000000000E+00 -0.18635383544E+04  0.18635383544E+04  0.25500000920E-02 0. -1.
    10030    2    1    2    0    0  0.00000000000E+00  0.00000000000E+00 -0.15692599148E+04  0.21578167941E+04  0.14810795511E+04 0.  0.
        2    1    3    3  502    0 -0.28775549080E+03  0.27868342948E+03 -0.16920611341E+04  0.17388325273E+04  0.25500000920E-02 0. -1.
       -2    1    3    3    0  502  0.28775549080E+03 -0.27868342948E+03  0.12280121932E+03  0.41898426680E+03  0.25500000920E-02 0.  1.
</event>
<event>
 5   0  0.1443750E-04  0.1494018E+04  0.7818609E-02  0.8888441E-01
        1   -1    0    0  501    0  0.00000000000E+00  0.00000000000E+00  0.13581646731E+04  0.13581646731E+04  0.50400001928E-02 0.  1.
       -1   -1    0    0    0  501  0.00000000000E+00  0.00000000000E+00 -0.41086510462E+03  0.41086510465E+03  0.50400001928E-02 0. -1.
    10030    2    1    2    0    0  0.00000000000E+00  0.00000000000E+00  0.94729956850E+03  0.17690297778E+04  0.14940180327E+04 0.  0.
        2    1    3    3  502    0 -0.22442859107E+03  0.71140999620E+03  0.52026830742E+03  0.90947868963E+03  0.25500000920E-02 0.  1.
       -2    1    3    3    0  502  0.22442859107E+03 -0.71140999620E+03  0.42703126108E+03  0.85955108814E+03  0.25500000920E-02 0. -1.
</event>
<event>
 5   0  0.2646718E-04  0.1513438E+04  0.7818609E-02  0.8875566E-01
       -2   -1    0    0    0  501  0.00000000000E+00  0.00000000000E+00  0.50759654889E+03  0.50759654890E+03  0.25500000920E-02 0.  1.
        2   -1    0    0  501    0  0.00000000000E+00  0.00000000000E+00 -0.11281081614E+04  0.11281081614E+04  0.25500000920E-02 0. -1.
    10030    2    1    2    0    0  0.00000000000E+00  0.00000000000E+00 -0.62051161254E+03  0.16357047103E+04  0.15134382175E+04 0.  0.
        3    1    3    3  502    0  0.24929552396E+02 -0.41713854151E+03  0.37158112103E+03  0.55919458608E+03  0.10100000352E+00 0.  1.
       -3    1    3    3    0  502 -0.24929552396E+02  0.41713854151E+03 -0.99209273357E+03  0.10765101242E+04  0.10100000352E+00 0. -1.
</event>
<event>
 5   0  0.2734072E-04  0.1489271E+04  0.7818609E-02  0.8891619E-01
       -2   -1    0    0    0  501  0.00000000000E+00  0.00000000000E+00  0.66345296557E+03  0.66345296558E+03  0.25500000920E-02 0.  1.
        2   -1    0    0  501    0  0.00000000000E+00  0.00000000000E+00 -0.83575169898E+03  0.83575169898E+03  0.25500000920E-02 0. -1.
    10030    2    1    2    0    0  0.00000000000E+00  0.00000000000E+00 -0.17229873340E+03  0.14992046646E+04  0.14892708863E+04 0.  0.
        5    1    3    3  502    0 -0.22325458253E+03  0.70255055974E+02 -0.79774594022E+03  0.83138382030E+03  0.46999998093E+01 0. -1.
       -5    1    3    3    0  502  0.22325458253E+03 -0.70255055974E+02  0.62544720682E+03  0.66782084426E+03  0.46999998093E+01 0.  1.
</event>
<event>
 5   0  0.1443750E-04  0.1507322E+04  0.7818609E-02  0.8879599E-01
        1   -1    0    0  501    0  0.00000000000E+00  0.00000000000E+00  0.14210523709E+04  0.14210523709E+04  0.50400001928E-02 0.  1.
       -1   -1    0    0    0  501  0.00000000000E+00  0.00000000000E+00 -0.39970698261E+03  0.39970698264E+03  0.50400001928E-02 0. -1.
    10030    2    1    2    0    0  0.00000000000E+00  0.00000000000E+00  0.10213453883E+04  0.18207593535E+04  0.15073215388E+04 0.  0.
        2    1    3    3  502    0  0.26788097947E+03 -0.62485547924E+03  0.11776601717E+03  0.68998074169E+03  0.25500000920E-02 0. -1.
       -2    1    3    3    0  502 -0.26788097947E+03  0.62485547924E+03  0.90357937111E+03  0.11307786118E+04  0.25500000920E-02 0.  1.
</event>
<event>
 5   0  0.2646718E-04  0.1498243E+04  0.7818609E-02  0.8885622E-01
        2   -1    0    0  501    0  0.00000000000E+00  0.00000000000E+00  0.94168914106E+03  0.94168914106E+03  0.25500000920E-02 0.  1.
       -2   -1    0    0    0  501  0.00000000000E+00  0.00000000000E+00 -0.59593211560E+03  0.59593211560E+03  0.25500000920E-02 0. -1.
    10030    2    1    2    0    0  0.00000000000E+00  0.00000000000E+00  0.34575702546E+03  0.15376212567E+04  0.14982427067E+04 0.  0.
        3    1    3    3  502    0 -0.72434632858E+02 -0.66268143997E+03 -0.17784814454E+03  0.68994451924E+03  0.10100000352E+00 0. -1.
       -3    1    3    3    0  502  0.72434632858E+02  0.66268143997E+03  0.52360517000E+03  0.84767673742E+03  0.10100000352E+00 0.  1.
</event>
<event>
 5   0  0.2618901E-04  0.1498529E+04  0.7818609E-02  0.8885432E-01
        2   -1    0    0  501    0  0.00000000000E+00  0.00000000000E+00  0.56461129296E+03  0.56461129297E+03  0.25500000920E-02 0. -1.
       -2   -1    0    0    0  501  0.00000000000E+00  0.00000000000E+00 -0.99430773456E+03  0.99430773457E+03  0.25500000920E-02 0.  1.
    10030    2    1    2    0    0  0.00000000000E+00  0.00000000000E+00 -0.42969644160E+03  0.15589190275E+04  0.14985291130E+04 0.  0.
        1    1    3    3  502    0 -0.29203562924E+02  0.33620960502E+03 -0.91076706240E+03  0.97128079800E+03  0.50400001928E-02 0.  1.
       -1    1    3    3    0  502  0.29203562924E+02 -0.33620960502E+03  0.48107062080E+03  0.58763822954E+03  0.50400001928E-02 0. -1.
</event>
<event>
 5   0  0.1474203E-04  0.1502301E+04  0.7818609E-02  0.8882924E-01
        1   -1    0    0  501    0  0.00000000000E+00  0.00000000000E+00  0.64401965434E+03  0.64401965436E+03  0.50400001928E-02 0. -1.
       -1   -1    0    0    0  501  0.00000000000E+00  0.00000000000E+00 -0.87610279381E+03  0.87610279383E+03  0.50400001928E-02 0.  1.
    10030    2    1    2    0    0  0.00000000000E+00  0.00000000000E+00 -0.23208313947E+03  0.15201224482E+04  0.15023014591E+04 0.  0.
        3    1    3    3  502    0  0.38482429330E+03  0.56640893701E+02  0.53417708978E+03  0.66078975552E+03  0.10100000352E+00 0. -1.
       -3    1    3    3    0  502 -0.38482429330E+03 -0.56640893701E+02 -0.76626022925E+03  0.85933269267E+03  0.10100000352E+00 0.  1.
</event>
<event>
 5   0  0.2646718E-04  0.1499486E+04  0.7818609E-02  0.8884795E-01
       -2   -1    0    0    0  501  0.00000000000E+00  0.00000000000E+00  0.98606078178E+03  0.98606078178E+03  0.25500000920E-02 0.  1.
        2   -1    0    0  501    0  0.00000000000E+00  0.00000000000E+00 -0.57006090982E+03  0.57006090983E+03  0.25500000920E-02 0. -1.
    10030    2    1    2    0    0  0.00000000000E+00  0.00000000000E+00  0.41599987196E+03  0.15561216916E+04  0.14994861872E+04 0.  0.
        3    1    3    3  502    0  0.27755088500E+03 -0.22616955592E+03  0.89161195769E+03  0.96081166474E+03  0.10100000352E+00 0.  1.
       -3    1    3    3    0  502 -0.27755088500E+03  0.22616955592E+03 -0.47561208574E+03  0.59531002687E+03  0.10100000352E+00 0. -1.
</event>
<event>
 5   0  0.1427609E-04  0.1498768E+04  0.7818609E-02  0.8885272E-01
        1   -1    0    0  501    0  0.00000000000E+00  0.00000000000E+00  0.11212515504E+04  0.11212515504E+04  0.50400001928E-02 0. -1.
       -1   -1    0    0    0  501  0.00000000000E+00  0.00000000000E+00 -0.50084811272E+03  0.50084811274E+03  0.50400001928E-02 0.  1.
    10030    2    1    2    0    0  0.00000000000E+00  0.00000000000E+00  0.62040343766E+03  0.16220996631E+04  0.14987684583E+04 0.  0.
        4    1    3    3  502    0 -0.25848772002E+03  0.67104133135E+03  0.53841509800E+03  0.89833445912E+03  0.12699999809E+01 0. -1.
       -4    1    3    3    0  502  0.25848772002E+03 -0.67104133135E+03  0.81988339656E+02  0.72376520400E+03  0.12699999809E+01 0.  1.
</event>
<event>
 5   0  0.1426929E-04  0.1511645E+04  0.7818609E-02  0.8876746E-01
        1   -1    0    0  501    0  0.00000000000E+00  0.00000000000E+00  0.42141433879E+03  0.42141433882E+03  0.50400001928E-02 0. -1.
       -1   -1    0    0    0  501  0.00000000000E+00  0.00000000000E+00 -0.13555955389E+04  0.13555955389E+04  0.50400001928E-02 0.  1.
    10030    2    1    2    0    0  0.00000000000E+00  0.00000000000E+00 -0.93418120013E+03  0.17770098778E+04  0.15116446643E+04 0.  0.
        1    1    3    3  502    0  0.35431041861E+03 -0.40883448960E+03  0.15337781799E+03  0.56232220986E+03  0.50400001928E-02 0. -1.
       -1    1    3    3    0  502 -0.35431041861E+03  0.40883448960E+03 -0.10875590181E+04  0.12146876679E+04  0.50400001928E-02 0.  1.
</event>
<event>
 5   0  0.1474203E-04  0.1501206E+04  0.7818609E-02  0.8883652E-01
       -1   -1    0    0    0  501  0.00000000000E+00  0.00000000000E+00  0.11756979313E+04  0.11756979313E+04  0.50400001928E-02 0. -1.
        1   -1    0    0  501    0  0.00000000000E+00  0.00000000000E+00 -0.47920861145E+03  0.47920861148E+03  0.50400001928E-02 0.  1.
    10030    2    1    2    0    0  0.00000000000E+00  0.00000000000E+00  0.69648931985E+03  0.16549065428E+04  0.15012056131E+04 0.  0.
        3    1    3    3  502    0  0.72774507338E+02  0.66554590574E+03  0.72233682981E+03  0.98489491189E+03  0.10100000352E+00 0. -1.
       -3    1    3    3    0  502 -0.72774507338E+02 -0.66554590574E+03 -0.25847509961E+02  0.67001163090E+03  0.10100000352E+00 0.  1.
</event>
<event>
 5   0  0.2641347E-04  0.1501246E+04  0.7818609E-02  0.8883625E-01
       -2   -1    0    0    0  501  0.00000000000E+00  0.00000000000E+00  0.72195634749E+03  0.72195634750E+03  0.25500000920E-02 0. -1.
        2   -1    0    0  501    0  0.00000000000E+00  0.00000000000E+00 -0.78042740682E+03  0.78042740682E+03  0.25500000920E-02 0.  1.
    10030    2    1    2    0    0  0.00000000000E+00  0.00000000000E+00 -0.58471059330E+02  0.15023837543E+04  0.15012455097E+04 0.  0.
        4    1    3    3  502    0 -0.16238187916E+02  0.49990720540E+03 -0.58935803874E+03  0.77299120530E+03  0.12699999809E+01 0.  1.
       -4    1    3    3    0  502  0.16238187916E+02 -0.49990720540E+03  0.53088697941E+03  0.72939254902E+03  0.12699999809E+01 0. -1.
</event>
<event>
 5   0  0.2641347E-04  0.1495138E+04  0.7818609E-02  0.8887692E-01
        2   -1    0    0  501    0  0.00000000000E+00  0.00000000000E+00  0.12375201754E+04  0.12375201754E+04  0.25500000920E-02 0.  1.
       -2   -1    0    0    0  501  0.00000000000E+00  0.00000000000E+00 -0.45159641731E+03  0.45159641731E+03  0.25500000920E-02 0. -1.
    10030    2    1    2    0    0  0.00000000000E+00  0.00000000000E+00  0.78592375814E+03  0.16891165928E+04  0.14951383583E+04 0.  0.
        4    1    3    3  502    0 -0.55319461499E+03  0.21329950171E+03 -0.12145683559E+03  0.60520602714E+03  0.12699999809E+01 0. -1.
       -4    1    3    3    0  502  0.55319461499E+03 -0.21329950171E+03  0.90738059373E+03  0.10839105656E+04  0.12699999809E+01 0.  1.
</event>
<event>
 5   0  0.1004313E-04  0.1494871E+04  0.7818609E-02  0.8887871E-01
        4   -1    0    0  501    0  0.00000000000E+00  0.00000000000E+00  0.82799416874E+03  0.82799514272E+03  0.12699999809E+01 0.  1.
       -4   -1    0    0    0  501  0.00000000000E+00  0.00000000000E+00 -0.67471242039E+03  0.67471361564E+03  0.12699999809E+01 0. -1.
    10030    2    1    2    0    0  0.00000000000E+00  0.00000000000E+00  0.15328174835E+03  0.15027087584E+04  0.14948706694E+04 0.  0.
        1    1    3    3  502    0  0.50452206421E+02 -0.69870834520E+03 -0.18534181869E+03  0.72463119349E+03  0.50400001928E-02 0. -1.
       -1    1    3    3    0  502 -0.50452206421E+02  0.69870834520E+03  0.33862356704E+03  0.77807756488E+03  0.50400001928E-02 0.  1.
</event>
<event>
 5   0  0.1474203E-04  0.1493477E+04  0.7818609E-02  0.8888803E-01
       -1   -1    0    0    0  501  0.00000000000E+00  0.00000000000E+00  0.60798571170E+03  0.60798571172E+03  0.50400001928E-02 0. -1.
        1   -1    0    0  501    0  0.00000000000E+00  0.00000000000E+00 -0.91715644705E+03  0.91715644706E+03  0.50400001928E-02 0.  1.
    10030    2    1    2    0    0  0.00000000000E+00  0.00000000000E+00 -0.30917073534E+03  0.15251421588E+04  0.14934765016E+04 0.  0.
        3    1    3    3  502    0  0.85353286998E+02 -0.25083062386E+03 -0.86754048113E+03  0.90709849635E+03  0.10100000352E+00 0.  1.
       -3    1    3    3    0  502 -0.85353286998E+02  0.25083062386E+03  0.55836974579E+03  0.61804366244E+03  0.10100000352E+00 0. -1.
</event>
<event>
 5   0  0.1484251E-04  0.1502427E+04  0.7818609E-02  0.8882841E-01
        1   -1    0    0  501    0  0.00000000000E+00  0.00000000000E+00  0.10837695097E+04  0.10837695097E+04  0.50400001928E-02 0.  1.
       -1   -1    0    0    0  501  0.00000000000E+00  0.00000000000E+00 -0.52070251709E+03  0.52070251711E+03  0.50400001928E-02 0. -1.
    10030    2    1    2    0    0  0.00000000000E+00  0.00000000000E+00  0.56306699259E+03  0.16044720268E+04  0.15024267192E+04 0.  0.
        5    1    3    3  502    0  0.24979257738E+03 -0.38896462685E+03 -0.35080665455E+03  0.58032509125E+03  0.46999998093E+01 0. -1.
       -5    1    3    3    0  502 -0.24979257738E+03  0.38896462685E+03  0.91387364714E+03  0.10241469355E+04  0.46999998093E+01 0.  1.
</event>
<event>
 5   0  0.2696040E-04  0.1501835E+04  0.7818609E-02  0.8883234E-01
        2   -1    0    0  501    0  0.00000000000E+00  0.00000000000E+00  0.68489314436E+03  0.68489314436E+03  0.25500000920E-02 0. -1.
       -2   -1    0    0    0  501  0.00000000000E+00  0.00000000000E+00 -0.82330657893E+03  0.82330657893E+03  0.25500000920E-02 0.  1.
    10030    2    1    2    0    0  0.00000000000E+00  0.00000000000E+00 -0.13841343457E+03  0.15081997233E+04  0.15018349198E+04 0.  0.
        2    1    3    3  502    0 -0.20878539334E+03  0.27439216797E+02 -0.79304764616E+03  0.82052959738E+03  0.25500000920E-02 0.  1.
       -2    1    3    3    0  502  0.20878539334E+03 -0.27439216797E+02  0.65463421159E+03  0.68767012592E+03  0.25500000920E-02 0. -1.
</event>
<event>
 5   0  0.2646718E-04  0.1498552E+04  0.7818609E-02  0.8885416E-01
        2   -1    0    0  501    0  0.00000000000E+00  0.00000000000E+00  0.22216988044E+04  0.22216988044E+04  0.25500000920E-02 0. -1.
       -2   -1    0    0    0  501  0.00000000000E+00  0.00000000000E+00 -0.25269615171E+03  0.25269615173E+03  0.25500000920E-02 0.  1.
    10030    2    1    2    0    0  0.00000000000E+00  0.00000000000E+00  0.19690026527E+04  0.24743949561E+04  0.14985522856E+04 0.  0.
        3    1    3    3  502    0  0.47054149059E+03  0.14278680421E+03  0.19179969854E+04  0.19800277302E+04  0.10100000352E+00 0. -1.
       -3    1    3    3    0  502 -0.47054149059E+03 -0.14278680421E+03  0.51005667250E+02  0.49436722598E+03  0.10100000352E+00 0.  1.
</event>
<event>
 5   0  0.2618901E-04  0.1498399E+04  0.7818609E-02  0.8885519E-01
       -2   -1    0    0    0  501  0.00000000000E+00  0.00000000000E+00  0.18909706697E+04  0.18909706697E+04  0.25500000920E-02 0. -1.
        2   -1    0    0  501    0  0.00000000000E+00  0.00000000000E+00 -0.29683144726E+03  0.29683144727E+03  0.25500000920E-02 0.  1.
    10030    2    1    2    0    0  0.00000000000E+00  0.00000000000E+00  0.15941392224E+04  0.21878021170E+04  0.14983985593E+04 0.  0.
        1    1    3    3  502    0  0.20786422560E+03  0.69045242434E+03  0.10940379797E+04  0.13102866815E+04  0.50400001928E-02 0. -1.
       -1    1    3    3    0  502 -0.20786422560E+03 -0.69045242434E+03  0.50010124274E+03  0.87751543552E+03  0.50400001928E-02 0.  1.
</event>
<event>
 5   0  0.2696040E-04  0.1495643E+04  0.7818609E-02  0.8887355E-01
       -2   -1    0    0    0  501  0.00000000000E+00  0.00000000000E+00  0.66207895435E+03  0.66207895436E+03  0.25500000920E-02 0. -1.
        2   -1    0    0  501    0  0.00000000000E+00  0.00000000000E+00 -0.84466829613E+03  0.84466829613E+03  0.25500000920E-02 0.  1.
    10030    2    1    2    0    0  0.00000000000E+00  0.00000000000E+00 -0.18258934178E+03  0.15067472505E+04  0.14956431423E+04 0.  0.
        2    1    3    3  502    0 -0.52481129309E+03  0.12366207436E+03 -0.61332897789E+03  0.81663433501E+03  0.25500000920E-02 0.  1.
       -2    1    3    3    0  502  0.52481129309E+03 -0.12366207436E+03  0.43073963611E+03  0.69011291548E+03  0.25500000920E-02 0. -1.
</event>
<event>
 5   0  0.2646718E-04  0.1479605E+04  0.7818609E-02  0.8898130E-01
        2   -1    0    0  501    0  0.00000000000E+00  0.00000000000E+00  0.62103673833E+03  0.62103673833E+03  0.25500000920E-02 0.  1.
       -2   -1    0    0    0  501  0.00000000000E+00  0.00000000000E+00 -0.88128036541E+03  0.88128036542E+03  0.25500000920E-02 0. -1.
    10030    2    1    2    0    0  0.00000000000E+00  0.00000000000E+00 -0.26024362709E+03  0.15023171037E+04  0.14796046549E+04 0.  0.
        3    1    3    3  502    0 -0.31718096141E+03  0.43384947539E+03  0.38609007700E+03  0.66173611609E+03  0.10100000352E+00 0.  1.
       -3    1    3    3    0  502  0.31718096141E+03 -0.43384947539E+03 -0.64633370409E+03  0.84058098766E+03  0.10100000352E+00 0. -1.
</event>
<event>
 5   0  0.1474203E-04  0.1495801E+04  0.7818609E-02  0.8887250E-01
       -1   -1    0    0    0  501  0.00000000000E+00  0.00000000000E+00  0.11040947402E+04  0.11040947402E+04  0.50400001928E-02 0. -1.
        1   -1    0    0  501    0  0.00000000000E+00  0.00000000000E+00 -0.50661850488E+03  0.50661850491E+03  0.50400001928E-02 0.  1.
    10030    2    1    2    0    0  0.00000000000E+00  0.00000000000E+00  0.59747623532E+03  0.16107132451E+04  0.14958005570E+04 0.  0.
        3    1    3    3  502    0 -0.62786650862E+03  0.38707903590E+03  0.43196988536E+03  0.85477747089E+03  0.10100000352E+00 0. -1.
       -3    1    3    3    0  502  0.62786650862E+03 -0.38707903590E+03  0.16550634996E+03  0.75593577423E+03  0.10100000352E+00 0.  1.
</event>
<event>
 5   0  0.2734072E-04  0.1495634E+04  0.7818609E-02  0.8887362E-01
       -2   -1    0    0    0  501  0.00000000000E+00  0.00000000000E+00  0.67996145162E+03  0.67996145162E+03  0.25500000920E-02 0. -1.
        2   -1    0    0  501    0  0.00000000000E+00  0.00000000000E+00 -0.82244385197E+03  0.82244385197E+03  0.25500000920E-02 0.  1.
    10030    2    1    2    0    0  0.00000000000E+00  0.00000000000E+00 -0.14248240035E+03  0.15024053036E+04  0.14956337994E+04 0.  0.
        5    1    3    3  502    0  0.72982770689E+03  0.13561581818E+03 -0.16202678015E+03  0.75981241064E+03  0.46999998093E+01 0.  1.
       -5    1    3    3    0  502 -0.72982770689E+03 -0.13561581818E+03  0.19544379800E+02  0.74259289295E+03  0.46999998093E+01 0. -1.
</event>
<event>
 5   0  0.1484251E-04  0.1498261E+04  0.7818609E-02  0.8885610E-01
       -1   -1    0    0    0  501  0.00000000000E+00  0.00000000000E+00  0.46163972716E+03  0.46163972718E+03  0.50400001928E-02 0. -1.
        1   -1    0    0  501    0  0.00000000000E+00  0.00000000000E+00 -0.12156589236E+04  0.12156589236E+04  0.50400001928E-02 0.  1.
    10030    2    1    2    0    0  0.00000000000E+00  0.00000000000E+00 -0.75401919646E+03  0.16772986508E+04  0.14982609303E+04 0.  0.
        5    1    3    3  502    0 -0.19505832473E+03 -0.72327285107E+03 -0.37507163734E+03  0.83777812711E+03  0.46999998093E+01 0. -1.
       -5    1    3    3    0  502  0.19505832473E+03  0.72327285107E+03 -0.37894755912E+03  0.83952052369E+03  0.46999998093E+01 0.  1.
</event>
<event>
 5   0  0.1474203E-04  0.1526310E+04  0.7818609E-02  0.8867143E-01
        1   -1    0    0  501    0  0.00000000000E+00  0.00000000000E+00  0.89057216373E+03  0.89057216375E+03  0.50400001928E-02 0. -1.
       -1   -1    0    0    0  501  0.00000000000E+00  0.00000000000E+00 -0.65396762414E+03  0.65396762416E+03  0.50400001928E-02 0.  1.
    10030    2    1    2    0    0  0.00000000000E+00  0.00000000000E+00  0.23660453960E+03  0.15445397879E+04  0.15263097485E+04 0.  0.
        3    1    3    3  502    0 -0.17686514075E+03  0.53641737652E+03  0.63763800615E+03  0.85182575503E+03  0.10100000352E+00 0. -1.
       -3    1    3    3    0  502  0.17686514075E+03 -0.53641737652E+03 -0.40103346656E+03  0.69271403287E+03  0.10100000352E+00 0.  1.
</event>
<event>
 5   0  0.2646718E-04  0.1502832E+04  0.7818609E-02  0.8882572E-01
       -2   -1    0    0    0  501  0.00000000000E+00  0.00000000000E+00  0.24474552590E+03  0.24474552592E+03  0.25500000920E-02 0. -1.
        2   -1    0    0  501    0  0.00000000000E+00  0.00000000000E+00 -0.23069911317E+04  0.23069911317E+04  0.25500000920E-02 0.  1.
    10030    2    1    2    0    0  0.00000000000E+00  0.00000000000E+00 -0.20622456058E+04  0.25517366576E+04  0.15028316709E+04 0.  0.
        3    1    3    3  502    0 -0.79434557344E+02  0.51160831414E+03 -0.10644337505E+03  0.52856704238E+03  0.10100000352E+00 0. -1.
       -3    1    3    3    0  502  0.79434557344E+02 -0.51160831414E+03 -0.19558022307E+04  0.20231696152E+04  0.10100000352E+00 0.  1.
</event>
<event>
 5   0  0.1426929E-04  0.1538276E+04  0.7818609E-02  0.8859391E-01
       -1   -1    0    0    0  501  0.00000000000E+00  0.00000000000E+00  0.31538136853E+03  0.31538136857E+03  0.50400001928E-02 0. -1.
        1   -1    0    0  501    0  0.00000000000E+00  0.00000000000E+00 -0.18757394926E+04  0.18757394927E+04  0.50400001928E-02 0.  1.
    10030    2    1    2    0    0  0.00000000000E+00  0.00000000000E+00 -0.15603581241E+04  0.21911208612E+04  0.15382760328E+04 0.  0.
        1    1    3    3  502    0  0.50341379913E+03 -0.55571505691E+03 -0.53624199108E+03  0.92184605583E+03  0.50400001928E-02 0.  1.
       -1    1    3    3    0  502 -0.50341379913E+03  0.55571505691E+03 -0.10241161330E+04  0.12692748054E+04  0.50400001928E-02 0. -1.
</event>
<event>
 5   0  0.1474203E-04  0.1490976E+04  0.7818609E-02  0.8890476E-01
       -1   -1    0    0    0  501  0.00000000000E+00  0.00000000000E+00  0.83023411067E+03  0.83023411069E+03  0.50400001928E-02 0.  1.
        1   -1    0    0  501    0  0.00000000000E+00  0.00000000000E+00 -0.66939247419E+03  0.66939247421E+03  0.50400001928E-02 0. -1.
    10030    2    1    2    0    0  0.00000000000E+00  0.00000000000E+00  0.16084163648E+03  0.14996265849E+04  0.14909761440E+04 0.  0.
        3    1    3    3  502    0  0.46526979656E+03  0.29942601708E+01 -0.50542531712E+03  0.68697868276E+03  0.10100000352E+00 0. -1.
       -3    1    3    3    0  502 -0.46526979656E+03 -0.29942601708E+01  0.66626695361E+03  0.81264790214E+03  0.10100000352E+00 0.  1.
</event>
<event>
 5   0  0.1443750E-04  0.1501494E+04  0.7818609E-02  0.8883460E-01
       -1   -1    0    0    0  501  0.00000000000E+00  0.00000000000E+00  0.87778652640E+03  0.87778652642E+03  0.50400001928E-02 0. -1.
        1   -1    0    0  501    0  0.00000000000E+00  0.00000000000E+00 -0.64209349383E+03  0.64209349385E+03  0.50400001928E-02 0.  1.
    10030    2    1    2    0    0  0.00000000000E+00  0.00000000000E+00  0.23569303257E+03  0.15198800203E+04  0.15014939462E+04 0.  0.
        2    1    3    3  502    0 -0.51629680561E+02  0.47667258608E+03 -0.46692871039E+03  0.66925690047E+03  0.25500000920E-02 0.  1.
       -2    1    3    3    0  502  0.51629680561E+02 -0.47667258608E+03  0.70262174296E+03  0.85062311979E+03  0.25500000920E-02 0. -1.
</event>
<event>
 5   0  0.1484251E-04  0.1500085E+04  0.7818609E-02  0.8884396E-01
        1   -1    0    0  501    0  0.00000000000E+00  0.00000000000E+00  0.23030277371E+04  0.23030277371E+04  0.50400001928E-02 0.  1.
       -1   -1    0    0    0  501  0.00000000000E+00  0.00000000000E+00 -0.24427139050E+03  0.24427139055E+03  0.50400001928E-02 0. -1.
    10030    2    1    2    0    0  0.00000000000E+00  0.00000000000E+00  0.20587563466E+04  0.25472991276E+04  0.15000850479E+04 0.  0.
        5    1    3    3  502    0  0.34073551295E+03  0.53896963681E+03  0.16999735692E+04  0.18156324477E+04  0.46999998093E+01 0.  1.
       -5    1    3    3    0  502 -0.34073551295E+03 -0.53896963681E+03  0.35878277740E+03  0.73166667995E+03  0.46999998093E+01 0. -1.
</event>
<event>
 5   0  0.2641347E-04  0.1500438E+04  0.7818609E-02  0.8884162E-01
        2   -1    0    0  501    0  0.00000000000E+00  0.00000000000E+00  0.40125999001E+03  0.40125999002E+03  0.25500000920E-02 0.  1.
       -2   -1    0    0    0  501  0.00000000000E+00  0.00000000000E+00 -0.14026531180E+04  0.14026531180E+04  0.25500000920E-02 0. -1.
    10030    2    1    2    0    0  0.00000000000E+00  0.00000000000E+00 -0.10013931280E+04  0.18039131081E+04  0.15004380376E+04 0.  0.
        4    1    3    3  502    0 -0.65602403376E+03 -0.18359250252E+03 -0.12288678993E+03  0.69222576945E+03  0.12699999809E+01 0.  1.
       -4    1    3    3    0  502  0.65602403376E+03  0.18359250252E+03 -0.87850633809E+03  0.11116873386E+04  0.12699999809E+01 0. -1.
</event>
<event>
 5   0  0.2618901E-04  0.1493721E+04  0.7818609E-02  0.8888639E-01
        2   -1    0    0  501    0  0.00000000000E+00  0.00000000000E+00  0.11847169122E+04  0.11847169122E+04  0.25500000920E-02 0. -1.
       -2   -1    0    0    0  501  0.00000000000E+00  0.00000000000E+00 -0.47083004325E+03  0.47083004326E+03  0.25500000920E-02 0.  1.
    10030    2    1    2    0    0  0.00000000000E+00  0.00000000000E+00  0.71388686893E+03  0.16555469554E+04  0.14937206098E+04 0.  0.
        1    1    3    3  502    0 -0.58583780023E+03 -0.10304630297E+03 -0.14362274285E+03  0.61192480013E+03  0.50400001928E-02 0.  1.
       -1    1    3    3    0  502  0.58583780023E+03  0.10304630297E+03  0.85750961178E+03  0.10436221553E+04  0.50400001928E-02 0. -1.
</event>
<event>
 5   0  0.1427609E-04  0.1492490E+04  0.7818609E-02  0.8889462E-01
        1   -1    0    0  501    0  0.00000000000E+00  0.00000000000E+00  0.17163268474E+04  0.17163268474E+04  0.50400001928E-02 0. -1.
       -1   -1    0    0    0  501  0.00000000000E+00  0.00000000000E+00 -0.32446132599E+03  0.32446132603E+03  0.50400001928E-02 0.  1.
    10030    2    1    2    0    0  0.00000000000E+00  0.00000000000E+00  0.13918655214E+04  0.20407881735E+04  0.14924901136E+04 0.  0.
        4    1    3    3  502    0 -0.45046854242E+03  0.58427670335E+03  0.54257429132E+03  0.91580000453E+03  0.12699999809E+01 0.  1.
       -4    1    3    3    0  502  0.45046854242E+03 -0.58427670335E+03  0.84929123012E+03  0.11249881689E+04  0.12699999809E+01 0. -1.
</event>
<event>
 5   0  0.2696040E-04  0.1509440E+04  0.7818609E-02  0.8878199E-01
        2   -1    0    0  501    0  0.00000000000E+00  0.00000000000E+00  0.66985795243E+03  0.66985795243E+03  0.25500000920E-02 0.  1.
       -2   -1    0    0    0  501  0.00000000000E+00  0.00000000000E+00 -0.85033326874E+03  0.85033326874E+03  0.25500000920E-02 0. -1.
    10030    2    1    2    0    0  0.00000000000E+00  0.00000000000E+00 -0.18047531631E+03  0.15201912212E+04  0.15094402966E+04 0.  0.
        2    1    3    3  502    0  0.43387686461E+03  0.12563378130E+02  0.53157016263E+03  0.68627531642E+03  0.25500000920E-02 0.  1.
       -2    1    3    3    0  502 -0.43387686461E+03 -0.12563378130E+02 -0.71204547894E+03  0.83391590475E+03  0.25500000920E-02 0. -1.
</event>
<event>
 5   0  0.1484251E-04  0.1514138E+04  0.7818609E-02  0.8875106E-01
       -1   -1    0    0    0  501  0.00000000000E+00  0.00000000000E+00  0.31909861819E+03  0.31909861823E+03  0.50400001928E-02 0. -1.
        1   -1    0    0  501    0  0.00000000000E+00  0.00000000000E+00 -0.17961629066E+04  0.17961629066E+04  0.50400001928E-02 0.  1.
    10030    2    1    2    0    0  0.00000000000E+00  0.00000000000E+00 -0.14770642884E+04  0.21152615249E+04  0.15141375124E+04 0.  0.
        5    1    3    3  502    0  0.56244333363E+03  0.48088324042E+03 -0.96179045920E+03  0.12135296337E+04  0.46999998093E+01 0.  1.
       -5    1    3    3    0  502 -0.56244333363E+03 -0.48088324042E+03 -0.51527382924E+03  0.90173189117E+03  0.46999998093E+01 0. -1.
</event>
<event>
 5   0  0.2696040E-04  0.1499322E+04  0.7818609E-02  0.8884904E-01
       -2   -1    0    0    0  501  0.00000000000E+00  0.00000000000E+00  0.73917645997E+03  0.73917645998E+03  0.25500000920E-02 0.  1.
        2   -1    0    0  501    0  0.00000000000E+00  0.00000000000E+00 -0.76029443664E+03  0.76029443664E+03  0.25500000920E-02 0. -1.
    10030    2    1    2    0    0  0.00000000000E+00  0.00000000000E+00 -0.21117976664E+02  0.14994708966E+04  0.14993221805E+04 0.  0.
        2    1    3    3  502    0  0.35443051494E+03  0.65626802189E+03 -0.85952430840E+02  0.75079726082E+03  0.25500000920E-02 0. -1.
       -2    1    3    3    0  502 -0.35443051494E+03 -0.65626802189E+03  0.64834454176E+02  0.74867363580E+03  0.25500000920E-02 0.  1.
</event>
<event>
 5   0  0.1427609E-04  0.1498545E+04  0.7818609E-02  0.8885421E-01
        1   -1    0    0  501    0  0.00000000000E+00  0.00000000000E+00  0.10384750403E+04  0.10384750403E+04  0.50400001928E-02 0. -1.
       -1   -1    0    0    0  501  0.00000000000E+00  0.00000000000E+00 -0.54060953678E+03  0.54060953681E+03  0.50400001928E-02 0.  1.
    10030    2    1    2    0    0  0.00000000000E+00  0.00000000000E+00  0.49786550352E+03  0.15790845771E+04  0.14985453087E+04 0.  0.
        4    1    3    3  502    0 -0.31970602046E+03  0.64956284607E+03  0.45234665812E+03  0.85367613445E+03  0.12699999809E+01 0.  1.
       -4    1    3    3    0  502  0.31970602046E+03 -0.64956284607E+03  0.45518845396E+02  0.72540844267E+03  0.12699999809E+01 0. -1.
</event>
<event>
 5   0  0.1443750E-04  0.1501244E+04  0.7818609E-02  0.8883626E-01
        1   -1    0    0  501    0  0.00000000000E+00  0.00000000000E+00  0.13458472799E+04  0.13458472799E+04  0.50400001928E-02 0.  1.
       -1   -1    0    0    0  501  0.00000000000E+00  0.00000000000E+00 -0.41864570102E+03  0.41864570105E+03  0.50400001928E-02 0. -1.
    10030    2    1    2    0    0  0.00000000000E+00  0.00000000000E+00  0.92720157888E+03  0.17644929810E+04  0.15012437217E+04 0.  0.
        2    1    3    3  502    0  0.73628100267E+03 -0.14273165091E+03  0.49984934510E+03  0.90129429537E+03  0.25500000920E-02 0.  1.
       -2    1    3    3    0  502 -0.73628100267E+03  0.14273165091E+03  0.42735223378E+03  0.86319868558E+03  0.25500000920E-02 0. -1.
</event>
<event>
 5   0  0.1443750E-04  0.1498024E+04  0.7818609E-02  0.8885768E-01
        1   -1    0    0  501    0  0.00000000000E+00  0.00000000000E+00  0.10418774300E+04  0.10418774300E+04  0.50400001928E-02 0.  1.
       -1   -1    0    0    0  501  0.00000000000E+00  0.00000000000E+00 -0.53846903413E+03  0.53846903415E+03  0.50400001928E-02 0. -1.
    10030    2    1    2    0    0  0.00000000000E+00  0.00000000000E+00  0.50340839586E+03  0.15803464642E+04  0.14980236760E+04 0.  0.
        2    1    3    3  502    0  0.50939956921E+03 -0.26263097694E+03 -0.25703734510E+03  0.62811714508E+03  0.25500000920E-02 0. -1.
       -2    1    3    3    0  502 -0.50939956921E+03  0.26263097694E+03  0.76044574096E+03  0.95222931908E+03  0.25500000920E-02 0.  1.
</event>
<event>
 5   0  0.2696040E-04  0.1502407E+04  0.7818609E-02  0.8882854E-01
       -2   -1    0    0    0  501  0.00000000000E+00  0.00000000000E+00  0.62560409842E+03  0.62560409842E+03  0.25500000920E-02 0. -1.
        2   -1    0    0  501    0  0.00000000000E+00  0.00000000000E+00 -0.90201923299E+03  0.90201923300E+03  0.25500000920E-02 0.  1.
    10030    2    1    2    0    0  0.00000000000E+00  0.00000000000E+00 -0.27641513458E+03  0.15276233314E+04  0.15024073070E+04 0.  0.
        2    1    3    3  502    0 -0.34519017916E+03 -0.51686081085E+03  0.29078067914E+03  0.68618857536E+03  0.25500000920E-02 0. -1.
       -2    1    3    3    0  502  0.34519017916E+03  0.51686081085E+03 -0.56719581372E+03  0.84143475605E+03  0.25500000920E-02 0.  1.
</event>
<event>
 5   0  0.1484251E-04  0.1492363E+04  0.7818609E-02  0.8889547E-01
        1   -1    0    0  501    0  0.00000000000E+00  0.00000000000E+00  0.79049063735E+03  0.79049063737E+03  0.50400001928E-02 0. -1.
       -1   -1    0    0    0  501  0.00000000000E+00  0.00000000000E+00 -0.70435623123E+03  0.70435623125E+03  0.50400001928E-02 0.  1.
    10030    2    1    2    0    0  0.00000000000E+00  0.00000000000E+00  0.86134406123E+02  0.14948468686E+04  0.14923632348E+04 0.  0.
        5    1    3    3  502    0  0.40861814868E+03  0.92837731230E+01  0.66837364683E+03  0.78345414776E+03  0.46999998093E+01 0. -1.
       -5    1    3    3    0  502 -0.40861814868E+03 -0.92837731230E+01 -0.58223924071E+03  0.71139272086E+03  0.46999998093E+01 0.  1.
</event>
<event>
 5   0  0.2734072E-04  0.1493417E+04  0.7818609E-02  0.8888842E-01
        2   -1    0    0  501    0  0.00000000000E+00  0.00000000000E+00  0.16175382126E+04  0.16175382126E+04  0.25500000920E-02 0.  1.
       -2   -1    0    0    0  501  0.00000000000E+00  0.00000000000E+00 -0.34470497235E+03  0.34470497236E+03  0.25500000920E-02 0. -1.
    10030    2    1    2    0    0  0.00000000000E+00  0.00000000000E+00  0.12728332402E+04  0.19622431849E+04  0.14934168405E+04 0.  0.
        5    1    3    3  502    0 -0.51215167830E+03 -0.22038964477E+03  0.12890047053E+04  0.14044309016E+04  0.46999998093E+01 0.  1.
       -5    1    3    3    0  502  0.51215167830E+03  0.22038964477E+03 -0.16171465118E+02  0.55781228329E+03  0.46999998093E+01 0. -1.
</event>
<event>
 5   0  0.2734072E-04  0.1486901E+04  0.7818609E-02  0.8893211E-01
        2   -1    0    0  501    0  0.00000000000E+00  0.00000000000E+00  0.85834814884E+03  0.85834814884E+03  0.25500000920E-02 0. -1.
       -2   -1    0    0    0  501  0.00000000000E+00  0.00000000000E+00 -0.64393303215E+03  0.64393303215E+03  0.25500000920E-02 0.  1.
    10030    2    1    2    0    0  0.00000000000E+00  0.00000000000E+00  0.21441511669E+03  0.15022811810E+04  0.14869011078E+04 0.  0.
        5    1    3    3  502    0  0.20570148871E+03 -0.30278258517E+03 -0.54656074127E+03  0.65783062428E+03  0.46999998093E+01 0.  1.
       -5    1    3    3    0  502 -0.20570148871E+03  0.30278258517E+03  0.76097585796E+03  0.84445055672E+03  0.46999998093E+01 0. -1.
</event>
<event>
 5   0  0.2641347E-04  0.1494350E+04  0.7818609E-02  0.8888219E-01
        2   -1    0    0  501    0  0.00000000000E+00  0.00000000000E+00  0.12578164327E+04  0.12578164327E+04  0.25500000920E-02 0. -1.
       -2   -1    0    0    0  501  0.00000000000E+00  0.00000000000E+00 -0.44384116625E+03  0.44384116626E+03  0.25500000920E-02 0.  1.
    10030    2    1    2    0    0  0.00000000000E+00  0.00000000000E+00  0.81397526649E+03  0.17016575990E+04  0.14943503103E+04 0.  0.
        4    1    3    3  502    0 -0.52000382278E+02 -0.35259705029E+03 -0.34080205032E+03  0.49312916162E+03  0.12699999809E+01 0.  1.
       -4    1    3    3    0  502  0.52000382278E+02  0.35259705029E+03  0.11547773168E+04  0.12085284374E+04  0.12699999809E+01 0. -1.
</event>
<event>
 5   0  0.1427609E-04  0.1505589E+04  0.7818609E-02  0.8880745E-01
        1   -1    0    0  501    0  0.00000000000E+00  0.00000000000E+00  0.51761706965E+03  0.51761706967E+03  0.50400001928E-02 0.  1.
       -1   -1    0    0    0  501  0.00000000000E+00  0.00000000000E+00 -0.10948244790E+04  0.10948244790E+04  0.50400001928E-02 0. -1.
    10030    2    1    2    0    0  0.00000000000E+00  0.00000000000E+00 -0.57720740937E+03  0.16124415487E+04  0.15055893712E+04 0.  0.
        4    1    3    3  502    0  0.56694643146E+03 -0.23917996862E+03 -0.75304306548E+03  0.97247662435E+03  0.12699999809E+01 0. -1.
       -4    1    3    3    0  502 -0.56694643146E+03  0.23917996862E+03  0.17583565612E+03  0.63996492435E+03  0.12699999809E+01 0.  1.
</event>
<event>
 5   0  0.1443750E-04  0.1516588E+04  0.7818609E-02  0.8873496E-01
       -1   -1    0    0    0  501  0.00000000000E+00  0.00000000000E+00  0.41854199131E+03  0.41854199134E+03  0.50400001928E-02 0.  1.
        1   -1    0    0  501    0  0.00000000000E+00  0.00000000000E+00 -0.13738410439E+04  0.13738410439E+04  0.50400001928E-02 0. -1.
    10030    2    1    2    0    0  0.00000000000E+00  0.00000000000E+00 -0.95529905254E+03  0.17923830352E+04  0.15165884956E+04 0.  0.
        2    1    3    3  502    0 -0.66746691682E+03 -0.15776610489E+03 -0.95401380945E+02  0.69246202234E+03  0.25500000920E-02 0.  1.
       -2    1    3    3    0  502  0.66746691682E+03  0.15776610489E+03 -0.85989767160E+03  0.10999210129E+04  0.25500000920E-02 0. -1.
</event>
<event>
 5   0  0.2696040E-04  0.1507431E+04  0.7818609E-02  0.8879526E-01
       -2   -1    0    0    0  501  0.00000000000E+00  0.00000000000E+00  0.44714821873E+03  0.44714821874E+03  0.25500000920E-02 0. -1.
        2   -1    0    0  501    0  0.00000000000E+00  0.00000000000E+00 -0.12704668273E+04  0.12704668273E+04  0.25500000920E-02 0.  1.
    10030    2    1    2    0    0  0.00000000000E+00  0.00000000000E+00 -0.82331860860E+03  0.17176150461E+04  0.15074308990E+04 0.  0.
        2    1    3    3  502    0  0.22453649375E+03 -0.51691838466E+03 -0.98190573372E+03  0.11321484546E+04  0.25500000920E-02 0.  1.
       -2    1    3    3    0  502 -0.22453649375E+03  0.51691838466E+03  0.15858712512E+03  0.58546659144E+03  0.25500000920E-02 0. -1.
</event>
<event>
 5   0  0.1443750E-04  0.1501946E+04  0.7818609E-02  0.8883160E-01
       -1   -1    0    0    0  501  0.00000000000E+00  0.00000000000E+00  0.40035610677E+03  0.40035610681E+03  0.50400001928E-02 0. -1.
        1   -1    0    0  501    0  0.00000000000E+00  0.00000000000E+00 -0.14086469337E+04  0.14086469337E+04  0.50400001928E-02 0.  1.
    10030    2    1    2    0    0  0.00000000000E+00  0.00000000000E+00 -0.10082908269E+04  0.18090030405E+04  0.15019459408E+04 0.  0.
        2    1    3    3  502    0 -0.24041629153E+03 -0.57524246728E+03  0.76920511011E-01  0.62346122199E+03  0.25500000920E-02 0. -1.
       -2    1    3    3    0  502  0.24041629153E+03  0.57524246728E+03 -0.10083677474E+04  0.11855418185E+04  0.25500000920E-02 0.  1.
</event>
<event>
 5   0  0.2646718E-04  0.1528491E+04  0.7818609E-02  0.8865725E-01
        2   -1    0    0  501    0  0.00000000000E+00  0.00000000000E+00  0.11270063878E+04  0.11270063878E+04  0.25500000920E-02 0. -1.
       -2   -1    0    0    0  501  0.00000000000E+00  0.00000000000E+00 -0.51825009818E+03  0.51825009819E+03  0.25500000920E-02 0.  1.
    10030    2    1    2    0    0  0.00000000000E+00  0.00000000000E+00  0.60875628961E+03  0.16452564860E+04  0.15284909828E+04 0.  0.
        3    1    3    3  502    0 -0.71225838243E+03  0.21896849288E+03  0.48708595285E+03  0.89023139682E+03  0.10100000352E+00 0. -1.
       -3    1    3    3    0  502  0.71225838243E+03 -0.21896849288E+03  0.12167033676E+03  0.75502508916E+03  0.10100000352E+00 0.  1.
</event>
<event>
 5   0  0.2734072E-04  0.1501529E+04  0.7818609E-02  0.8883437E-01
       -2   -1    0    0    0  501  0.00000000000E+00  0.00000000000E+00  0.37049982477E+03  0.37049982478E+03  0.25500000920E-02 0. -1.
        2   -1    0    0  501    0  0.00000000000E+00  0.00000000000E+00 -0.15213162581E+04  0.15213162581E+04  0.25500000920E-02 0.  1.
    10030    2    1    2    0    0  0.00000000000E+00  0.00000000000E+00 -0.11508164333E+04  0.18918160828E+04  0.15015290967E+04 0.  0.
        5    1    3    3  502    0 -0.20995603917E+03 -0.36548334937E+03 -0.13581518008E+04  0.14220611875E+04  0.46999998093E+01 0.  1.
       -5    1    3    3    0  502  0.20995603917E+03  0.36548334937E+03  0.20733536751E+03  0.46975489531E+03  0.46999998093E+01 0. -1.
</event>
<event>
 5   0  0.1484251E-04  0.1486523E+04  0.7818609E-02  0.8893465E-01
        1   -1    0    0  501    0  0.00000000000E+00  0.00000000000E+00  0.41702675125E+03  0.41702675128E+03  0.50400001928E-02 0.  1.
       -1   -1    0    0    0  501  0.00000000000E+00  0.00000000000E+00 -0.13247058159E+04  0.13247058159E+04  0.50400001928E-02 0. -1.
    10030    2    1    2    0    0  0.00000000000E+00  0.00000000000E+00 -0.90767906469E+03  0.17417325672E+04  0.14865231419E+04 0.  0.
        5    1    3    3  502    0 -0.10347672469E+03  0.71759188773E+03 -0.26213385236E+03  0.77096160503E+03  0.46999998093E+01 0.  1.
       -5    1    3    3    0  502  0.10347672469E+03 -0.71759188773E+03 -0.64554521233E+03  0.97077096220E+03  0.46999998093E+01 0. -1.
</event>
<event>
 5   0  0.1474203E-04  0.1499873E+04  0.7818609E-02  0.8884537E-01
       -1   -1    0    0    0  501  0.00000000000E+00  0.00000000000E+00  0.86813758107E+03  0.86813758109E+03  0.50400001928E-02 0. -1.
        1   -1    0    0  501    0  0.00000000000E+00  0.00000000000E+00 -0.64782940076E+03  0.64782940078E+03  0.50400001928E-02 0.  1.
    10030    2    1    2    0    0  0.00000000000E+00  0.00000000000E+00  0.22030818032E+03  0.15159669819E+04  0.14998733933E+04 0.  0.
        3    1    3    3  502    0  0.35027652624E+03  0.80508737249E+01 -0.56001900639E+03  0.66059046248E+03  0.10100000352E+00 0.  1.
       -3    1    3    3    0  502 -0.35027652624E+03 -0.80508737249E+01  0.78032718671E+03  0.85537651939E+03  0.10100000352E+00 0. -1.
</event>
<event>
 5   0  0.2646718E-04  0.1500036E+04  0.7818609E-02  0.8884429E-01
        2   -1    0    0  501    0  0.00000000000E+00  0.00000000000E+00  0.89182653725E+03  0.89182653726E+03  0.25500000920E-02 0.  1.
       -2   -1    0    0    0  501  0.00000000000E+00  0.00000000000E+00 -0.63075857120E+03  0.63075857121E+03  0.25500000920E-02 0. -1.
    10030    2    1    2    0    0  0.00000000000E+00  0.00000000000E+00  0.26106796605E+03  0.15225851085E+04  0.15000363094E+04 0.  0.
        3    1    3    3  502    0  0.70512052002E+03 -0.22634953940E+03  0.25105451253E+03  0.78195744142E+03  0.10100000352E+00 0. -1.
       -3    1    3    3    0  502 -0.70512052002E+03  0.22634953940E+03  0.10013453521E+02  0.74062766704E+03  0.10100000352E+00 0.  1.
</event>
<event>
 5   0  0.2618901E-04  0.1496321E+04  0.7818609E-02  0.8886903E-01
        2   -1    0    0  501    0  0.00000000000E+00  0.00000000000E+00  0.88806737563E+03  0.88806737563E+03  0.25500000920E-02 0. -1.
       -2   -1    0    0    0  501  0.00000000000E+00  0.00000000000E+00 -0.63029448818E+03  0.63029448819E+03  0.25500000920E-02 0.  1.
    10030    2    1    2    0    0  0.00000000000E+00  0.00000000000E+00  0.25777288744E+03  0.15183618638E+04  0.14963207838E+04 0.  0.
        1    1    3    3  502    0 -0.38761843509E+03 -0.41696183526E+03  0.62146322078E+03  0.84280588399E+03  0.50400001928E-02 0. -1.
       -1    1    3    3    0  502  0.38761843509E+03  0.41696183526E+03 -0.36369033334E+03  0.67555597982E+03  0.50400001928E-02 0.  1.
</event>
<event>
 5   0  0.2618901E-04  0.1505400E+04  0.7818609E-02  0.8880870E-01
        2   -1    0    0  501    0  0.00000000000E+00  0.00000000000E+00  0.90426071814E+03  0.90426071814E+03  0.25500000920E-02 0.  1.
       -2   -1    0    0    0  501  0.00000000000E+00  0.00000000000E+00 -0.62654217476E+03  0.62654217476E+03  0.25500000920E-02 0. -1.
    10030    2    1    2    0    0  0.00000000000E+00  0.00000000000E+00  0.27771854338E+03  0.15308028929E+04  0.15054002483E+04 0.  0.
        1    1    3    3  502    0  0.45875704253E+03 -0.44103194743E+03 -0.26990685498E+03  0.69124302030E+03  0.50400001928E-02 0. -1.
       -1    1    3    3    0  502 -0.45875704253E+03  0.44103194743E+03  0.54762539836E+03  0.83955987260E+03  0.50400001928E-02 0.  1.
</event>
<event>
 5   0  0.2696040E-04  0.1482874E+04  0.7818609E-02  0.8895922E-01
       -2   -1    0    0    0  501  0.00000000000E+00  0.00000000000E+00  0.36769041834E+03  0.36769041835E+03  0.25500000920E-02 0.  1.
        2   -1    0    0  501    0  0.00000000000E+00  0.00000000000E+00 -0.14950861851E+04  0.14950861851E+04  0.25500000920E-02 0. -1.
    10030    2    1    2    0    0  0.00000000000E+00  0.00000000000E+00 -0.11273957668E+04  0.18627766035E+04  0.14828740538E+04 0.  0.
        2    1    3    3  502    0  0.47537104547E+03  0.31364792934E+03  0.32664915490E+02  0.57045565223E+03  0.25500000920E-02 0.  1.
       -2    1    3    3    0  502 -0.47537104547E+03 -0.31364792934E+03 -0.11600606823E+04  0.12923209513E+04  0.25500000920E-02 0. -1.
</event>
<event>
 5   0  0.1426929E-04  0.1494816E+04  0.7818609E-02  0.8887907E-01
        1   -1    0    0  501    0  0.00000000000E+00  0.00000000000E+00  0.79283785638E+03  0.79283785639E+03  0.50400001928E-02 0.  1.
       -1   -1    0    0    0  501  0.00000000000E+00  0.00000000000E+00 -0.70458136137E+03  0.70458136139E+03  0.50400001928E-02 0. -1.
    10030    2    1    2    0    0  0.00000000000E+00  0.00000000000E+00  0.88256495002E+02  0.14974192178E+04  0.14948160773E+04 0.  0.
        1    1    3    3  502    0  0.45042612107E+02 -0.53564782495E+03  0.56433147755E+03  0.77936990310E+03  0.50400001928E-02 0.  1.
       -1    1    3    3    0  502 -0.45042612107E+02  0.53564782495E+03 -0.47607498255E+03  0.71804931468E+03  0.50400001928E-02 0. -1.
</event>
<event>
 5   0  0.2618901E-04  0.1495998E+04  0.7818609E-02  0.8887118E-01
       -2   -1    0    0    0  501  0.00000000000E+00  0.00000000000E+00  0.50526060563E+03  0.50526060564E+03  0.25500000920E-02 0. -1.
        2   -1    0    0  501    0  0.00000000000E+00  0.00000000000E+00 -0.11073547349E+04  0.11073547349E+04  0.25500000920E-02 0.  1.
    10030    2    1    2    0    0  0.00000000000E+00  0.00000000000E+00 -0.60209412925E+03  0.16126153405E+04  0.14959982941E+04 0.  0.
        1    1    3    3  502    0  0.53638848544E+03 -0.37094871477E+03 -0.69591801197E+03  0.95373866217E+03  0.50400001928E-02 0.  1.
       -1    1    3    3    0  502 -0.53638848544E+03  0.37094871477E+03  0.93823882717E+02  0.65887667837E+03  0.50400001928E-02 0. -1.
</event>
<event>
 5   0  0.2641347E-04  0.1502707E+04  0.7818609E-02  0.8882655E-01
        2   -1    0    0  501    0  0.00000000000E+00  0.00000000000E+00  0.19455821435E+04  0.19455821435E+04  0.25500000920E-02 0. -1.
       -2   -1    0    0    0  501  0.00000000000E+00  0.00000000000E+00 -0.29016106970E+03  0.29016106971E+03  0.25500000920E-02 0.  1.
    10030    2    1    2    0    0  0.00000000000E+00  0.00000000000E+00  0.16554210738E+04  0.22357432132E+04  0.15027071517E+04 0.  0.
        4    1    3    3  502    0  0.71929745294E+02  0.58766297656E+03  0.13943314203E+03  0.60824738082E+03  0.12699999809E+01 0.  1.
       -4    1    3    3    0  502 -0.71929745294E+02 -0.58766297656E+03  0.15159879318E+04  0.16274958324E+04  0.12699999809E+01 0. -1.
</event>
<event>
 5   0  0.2646718E-04  0.1498357E+04  0.7818609E-02  0.8885546E-01
        2   -1    0    0  501    0  0.00000000000E+00  0.00000000000E+00  0.17474440082E+04  0.17474440082E+04  0.25500000920E-02 0.  1.
       -2   -1    0    0    0  501  0.00000000000E+00  0.00000000000E+00 -0.32119405149E+03  0.32119405150E+03  0.25500000920E-02 0. -1.
    10030    2    1    2    0    0  0.00000000000E+00  0.00000000000E+00  0.14262499567E+04  0.20686380597E+04  0.14983572615E+04 0.  0.
        3    1    3    3  502    0 -0.27592220692E+03 -0.56858390647E+03  0.12685464331E+04  0.14172617211E+04  0.10100000352E+00 0. -1.
       -3    1    3    3    0  502  0.27592220692E+03  0.56858390647E+03  0.15770352366E+03  0.65137633864E+03  0.10100000352E+00 0.  1.
</event>
<event>
 5   0  0.1474203E-04  0.1499425E+04  0.7818609E-02  0.8884835E-01
        1   -1    0    0  501    0  0.00000000000E+00  0.00000000000E+00  0.40044745168E+03  0.40044745171E+03  0.50400001928E-02 0.  1.
       -1   -1    0    0    0  501  0.00000000000E+00  0.00000000000E+00 -0.14036023323E+04  0.14036023323E+04  0.50400001928E-02 0. -1.
    10030    2    1    2    0    0  0.00000000000E+00  0.00000000000E+00 -0.10031548806E+04  0.18040497841E+04  0.14994251928E+04 0.  0.
        3    1    3    3  502    0 -0.34696960544E+03  0.39141639567E+03  0.14463788368E+03  0.54269220512E+03  0.10100000352E+00 0.  1.
       -3    1    3    3    0  502  0.34696960544E+03 -0.39141639567E+03 -0.11477927643E+04  0.12613575789E+04  0.10100000352E+00 0. -1.
</event>
<event>
 5   0  0.1004313E-04  0.1495218E+04  0.7818609E-02  0.8887639E-01
        4   -1    0    0  501    0  0.00000000000E+00  0.00000000000E+00  0.45457901079E+03  0.45458078484E+03  0.12699999809E+01 0.  1.
       -4   -1    0    0    0  501  0.00000000000E+00  0.00000000000E+00 -0.12295263894E+04  0.12295270453E+04  0.12699999809E+01 0. -1.
    10030    2    1    2    0    0  0.00000000000E+00  0.00000000000E+00 -0.77494737858E+03  0.16841078301E+04  0.14952176243E+04 0.  0.
        5    1    3    3  502    0  0.68186976023E+03 -0.26308578196E+03 -0.21032690495E+03  0.76053927942E+03  0.46999998093E+01 0. -1.
       -5    1    3    3    0  502 -0.68186976023E+03  0.26308578196E+03 -0.56462047363E+03  0.92356855070E+03  0.46999998093E+01 0.  1.
</event>
<event>
 5   0  0.2618901E-04  0.1496774E+04  0.7818609E-02  0.8886601E-01
        2   -1    0    0  501    0  0.00000000000E+00  0.00000000000E+00  0.15104224013E+04  0.15104224013E+04  0.25500000920E-02 0.  1.
       -2   -1    0    0    0  501  0.00000000000E+00  0.00000000000E+00 -0.37081243650E+03  0.37081243651E+03  0.25500000920E-02 0. -1.
    10030    2    1    2    0    0  0.00000000000E+00  0.00000000000E+00  0.11396099648E+04  0.18812348379E+04  0.14967744129E+04 0.  0.
        1    1    3    3  502    0  0.15003705141E+02 -0.59470356069E+03  0.11405159546E+04  0.12863413540E+04  0.50400001928E-02 0.  1.
       -1    1    3    3    0  502 -0.15003705141E+02  0.59470356069E+03 -0.90598979035E+00  0.59489348384E+03  0.50400001928E-02 0. -1.
</event>
<event>
 5   0  0.2641347E-04  0.1499100E+04  0.7818609E-02  0.8885051E-01
       -2   -1    0    0    0  501  0.00000000000E+00  0.00000000000E+00  0.46364247210E+03  0.46364247210E+03  0.25500000920E-02 0.  1.
        2   -1    0    0  501    0  0.00000000000E+00  0.00000000000E+00 -0.12117644636E+04  0.12117644636E+04  0.25500000920E-02 0. -1.
    10030    2    1    2    0    0  0.00000000000E+00  0.00000000000E+00 -0.74812199151E+03  0.16754069357E+04  0.14991003589E+04 0.  0.
        4    1    3    3  502    0  0.13468220094E+03 -0.73731586846E+03 -0.36616831639E+03  0.83417913781E+03  0.12699999809E+01 0.  1.
       -4    1    3    3    0  502 -0.13468220094E+03  0.73731586846E+03 -0.38195367512E+03  0.84122779790E+03  0.12699999809E+01 0. -1.
</event>
<event>
 5   0  0.2646718E-04  0.1510407E+04  0.7818609E-02  0.8877562E-01
        2   -1    0    0  501    0  0.00000000000E+00  0.00000000000E+00  0.17722517513E+04  0.17722517513E+04  0.25500000920E-02 0.  1.
       -2   -1    0    0    0  501  0.00000000000E+00  0.00000000000E+00 -0.32181214308E+03  0.32181214309E+03  0.25500000920E-02 0. -1.
    10030    2    1    2    0    0  0.00000000000E+00  0.00000000000E+00  0.14504396083E+04  0.20940638944E+04  0.15104067455E+04 0.  0.
        3    1    3    3  502    0  0.54971435978E+03  0.30886512943E+03  0.14898000096E+03  0.64790323075E+03  0.10100000352E+00 0. -1.
       -3    1    3    3    0  502 -0.54971435978E+03 -0.30886512943E+03  0.13014596073E+04  0.14461606637E+04  0.10100000352E+00 0.  1.
</event>
<event>
 5   0  0.1426929E-04  0.1504170E+04  0.7818609E-02  0.8881685E-01
       -1   -1    0    0    0  501  0.00000000000E+00  0.00000000000E+00  0.38202634623E+03  0.38202634626E+03  0.50400001928E-02 0. -1.
        1   -1    0    0  501    0  0.00000000000E+00  0.00000000000E+00 -0.14806095104E+04  0.14806095104E+04  0.50400001928E-02 0.  1.
    10030    2    1    2    0    0  0.00000000000E+00  0.00000000000E+00 -0.10985831642E+04  0.18626358567E+04  0.15041699924E+04 0.  0.
        1    1    3    3  502    0 -0.11885777765E+03 -0.58391600499E+01 -0.14688772854E+04  0.14736898407E+04  0.50400001928E-02 0.  1.
       -1    1    3    3    0  502  0.11885777765E+03  0.58391600499E+01  0.37029412121E+03  0.38894601595E+03  0.50400001928E-02 0. -1.
</event>
<event>
 5   0  0.2696040E-04  0.1501504E+04  0.7818609E-02  0.8883453E-01
        2   -1    0    0  501    0  0.00000000000E+00  0.00000000000E+00  0.11303124078E+04  0.11303124078E+04  0.25500000920E-02 0.  1.
       -2   -1    0    0    0  501  0.00000000000E+00  0.00000000000E+00 -0.49864873004E+03  0.49864873004E+03  0.25500000920E-02 0. -1.
    10030    2    1    2    0    0  0.00000000000E+00  0.00000000000E+00  0.63166367772E+03  0.16289611378E+04  0.15015043745E+04 0.  0.
        2    1    3    3  502    0  0.32730315414E+03  0.66087903348E+03  0.46825888785E+03  0.87358733831E+03  0.25500000920E-02 0.  1.
       -2    1    3    3    0  502 -0.32730315414E+03 -0.66087903348E+03  0.16340478987E+03  0.75537379949E+03  0.25500000920E-02 0. -1.
</event>
<event>
 5   0  0.1426929E-04  0.1502335E+04  0.7818609E-02  0.8882902E-01
       -1   -1    0    0    0  501  0.00000000000E+00  0.00000000000E+00  0.99074696568E+03  0.99074696570E+03  0.50400001928E-02 0. -1.
        1   -1    0    0  501    0  0.00000000000E+00  0.00000000000E+00 -0.56952208969E+03  0.56952208971E+03  0.50400001928E-02 0.  1.
    10030    2    1    2    0    0  0.00000000000E+00  0.00000000000E+00  0.42122487599E+03  0.15602690554E+04  0.15023345596E+04 0.  0.
        1    1    3    3  502    0  0.25686228680E+03 -0.11576958096E+03  0.93379200144E+03  0.97537086907E+03  0.50400001928E-02 0. -1.
       -1    1    3    3    0  502 -0.25686228680E+03  0.11576958096E+03 -0.51256712545E+03  0.58489818633E+03  0.50400001928E-02 0.  1.
</event>
<event>
 5   0  0.1443750E-04  0.1504033E+04  0.7818609E-02  0.8881775E-01
       -1   -1    0    0    0  501  0.00000000000E+00  0.00000000000E+00  0.10816892367E+04  0.10816892368E+04  0.50400001928E-02 0.  1.
        1   -1    0    0  501    0  0.00000000000E+00  0.00000000000E+00 -0.52282016664E+03  0.52282016667E+03  0.50400001928E-02 0. -1.
    10030    2    1    2    0    0  0.00000000000E+00  0.00000000000E+00  0.55886907010E+03  0.16045094034E+04  0.15040331739E+04 0.  0.
        2    1    3    3  502    0 -0.21992796750E+03 -0.63620308449E+03  0.63710256483E+03  0.92683458811E+03  0.25500000920E-02 0.  1.
       -2    1    3    3    0  502  0.21992796750E+03  0.63620308449E+03 -0.78233494728E+02  0.67767481531E+03  0.25500000920E-02 0. -1.
</event>
<event>
 5   0  0.2734072E-04  0.1498294E+04  0.7818609E-02  0.8885588E-01
       -2   -1    0    0    0  501  0.00000000000E+00  0.00000000000E+00  0.35238843583E+03  0.35238843584E+03  0.25500000920E-02 0.  1.
        2   -1    0    0  501    0  0.00000000000E+00  0.00000000000E+00 -0.15926219726E+04  0.15926219726E+04  0.25500000920E-02 0. -1.
    10030    2    1    2    0    0  0.00000000000E+00  0.00000000000E+00 -0.12402335368E+04  0.19450104085E+04  0.14982944514E+04 0.  0.
        5    1    3    3  502    0 -0.67111702301E+03 -0.11746816265E+03 -0.21580484095E+03  0.71469619223E+03  0.46999998093E+01 0.  1.
       -5    1    3    3    0  502  0.67111702301E+03  0.11746816265E+03 -0.10244286958E+04  0.12303142162E+04  0.46999998093E+01 0. -1.
</event>
<event>
 5   0  0.1426929E-04  0.1480985E+04  0.7818609E-02  0.8897197E-01
        1   -1    0    0  501    0  0.00000000000E+00  0.00000000000E+00  0.10894963726E+04  0.10894963726E+04  0.50400001928E-02 0.  1.
       -1   -1    0    0    0  501  0.00000000000E+00  0.00000000000E+00 -0.50328710591E+03  0.50328710594E+03  0.50400001928E-02 0. -1.
    10030    2    1    2    0    0  0.00000000000E+00  0.00000000000E+00  0.58620926668E+03  0.15927834785E+04  0.14809854507E+04 0.  0.
        1    1    3    3  502    0 -0.62075324166E+03  0.13525967331E+03 -0.11600507030E+03  0.64582268667E+03  0.50400001928E-02 0.  1.
       -1    1    3    3    0  502  0.62075324166E+03 -0.13525967331E+03  0.70221433698E+03  0.94696079187E+03  0.50400001928E-02 0. -1.
</event>
<event>
 5   0  0.2641347E-04  0.1497272E+04  0.7818609E-02  0.8886269E-01
        2   -1    0    0  501    0  0.00000000000E+00  0.00000000000E+00  0.14790782670E+04  0.14790782670E+04  0.25500000920E-02 0. -1.
       -2   -1    0    0    0  501  0.00000000000E+00  0.00000000000E+00 -0.37892255728E+03  0.37892255728E+03  0.25500000920E-02 0.  1.
    10030    2    1    2    0    0  0.00000000000E+00  0.00000000000E+00  0.11001557097E+04  0.18580008243E+04  0.14972723458E+04 0.  0.
        4    1    3    3  502    0  0.23337228876E+03 -0.48887158743E+03  0.11912842488E+04  0.13086702520E+04  0.12699999809E+01 0. -1.
       -4    1    3    3    0  502 -0.23337228876E+03  0.48887158743E+03 -0.91128539034E+02  0.54933057232E+03  0.12699999809E+01 0.  1.
</event>
<event>
 5   0  0.1484251E-04  0.1499311E+04  0.7818609E-02  0.8884911E-01
       -1   -1    0    0    0  501  0.00000000000E+00  0.00000000000E+00  0.15971039881E+04  0.15971039881E+04  0.50400001928E-02 0. -1.
        1   -1    0    0  501    0  0.00000000000E+00  0.00000000000E+00 -0.35187634397E+03  0.35187634400E+03  0.50400001928E-02 0.  1.
    10030    2    1    2    0    0  0.00000000000E+00  0.00000000000E+00  0.12452276441E+04  0.19489803321E+04  0.14993106580E+04 0.  0.
        5    1    3    3  502    0  0.44076178512E+03  0.21003137090E+03 -0.11682896927E+03  0.50205101936E+03  0.46999998093E+01 0.  1.
       -5    1    3    3    0  502 -0.44076178512E+03 -0.21003137090E+03  0.13620566134E+04  0.14469293128E+04  0.46999998093E+01 0. -1.
</event>
<event>
 5   0  0.2646718E-04  0.1501505E+04  0.7818609E-02  0.8883453E-01
        2   -1    0    0  501    0  0.00000000000E+00  0.00000000000E+00  0.12337805923E+04  0.12337805923E+04  0.25500000920E-02 0.  1.
       -2   -1    0    0    0  501  0.00000000000E+00  0.00000000000E+00 -0.45683128916E+03  0.45683128917E+03  0.25500000920E-02 0. -1.
    10030    2    1    2    0    0  0.00000000000E+00  0.00000000000E+00  0.77694930310E+03  0.16906118814E+04  0.15015053493E+04 0.  0.
        3    1    3    3  502    0 -0.59988616683E+03 -0.32381315327E+03  0.34363371104E+02  0.68256810859E+03  0.10100000352E+00 0. -1.
       -3    1    3    3    0  502  0.59988616683E+03  0.32381315327E+03  0.74258593200E+03  0.10080437729E+04  0.10100000352E+00 0.  1.
</event>
<event>
 5   0  0.2646718E-04  0.1505468E+04  0.7818609E-02  0.8880825E-01
        2   -1    0    0  501    0  0.00000000000E+00  0.00000000000E+00  0.35707184610E+03  0.35707184611E+03  0.25500000920E-02 0. -1.
       -2   -1    0    0    0  501  0.00000000000E+00  0.00000000000E+00 -0.15868194137E+04  0.15868194137E+04  0.25500000920E-02 0.  1.
    10030    2    1    2    0    0  0.00000000000E+00  0.00000000000E+00 -0.12297475676E+04  0.19438912598E+04  0.15054680833E+04 0.  0.
        3    1    3    3  502    0 -0.66724610654E+03  0.28917954585E+03 -0.86580397999E+03  0.11306894881E+04  0.10100000352E+00 0. -1.
       -3    1    3    3    0  502  0.66724610654E+03 -0.28917954585E+03 -0.36394358762E+03  0.81320177176E+03  0.10100000352E+00 0.  1.
</event>
<event>
 5   0  0.1474203E-04  0.1494451E+04  0.7818609E-02  0.8888152E-01
       -1   -1    0    0    0  501  0.00000000000E+00  0.00000000000E+00  0.93384760988E+03  0.93384760989E+03  0.50400001928E-02 0. -1.
        1   -1    0    0  501    0  0.00000000000E+00  0.00000000000E+00 -0.59789815299E+03  0.59789815301E+03  0.50400001928E-02 0.  1.
    10030    2    1    2    0    0  0.00000000000E+00  0.00000000000E+00  0.33594945689E+03  0.15317457629E+04  0.14944507501E+04 0.  0.
        3    1    3    3  502    0  0.51133058268E+03  0.50986506856E+03 -0.28977905040E+02  0.72267633288E+03  0.10100000352E+00 0.  1.
       -3    1    3    3    0  502 -0.51133058268E+03 -0.50986506856E+03  0.36492736193E+03  0.80906943003E+03  0.10100000352E+00 0. -1.
</event>
<event>
 5   0  0.2696040E-04  0.1502559E+04  0.7818609E-02  0.8882753E-01
       -2   -1    0    0    0  501  0.00000000000E+00  0.00000000000E+00  0.71917706166E+03  0.71917706167E+03  0.25500000920E-02 0. -1.
        2   -1    0    0  501    0  0.00000000000E+00  0.00000000000E+00 -0.78481492807E+03  0.78481492808E+03  0.25500000920E-02 0.  1.
    10030    2    1    2    0    0  0.00000000000E+00  0.00000000000E+00 -0.65637866410E+02  0.15039919897E+04  0.15025590091E+04 0.  0.
        2    1    3    3  502    0  0.77668278174E+02 -0.69496426802E+03  0.24205760162E+03  0.73999971471E+03  0.25500000920E-02 0. -1.
       -2    1    3    3    0  502 -0.77668278174E+02  0.69496426802E+03 -0.30769546803E+03  0.76399227504E+03  0.25500000920E-02 0.  1.
</event>
<event>
 5   0  0.2641347E-04  0.1500650E+04  0.7818609E-02  0.8884021E-01
        2   -1    0    0  501    0  0.00000000000E+00  0.00000000000E+00  0.15488327990E+04  0.15488327990E+04  0.25500000920E-02 0.  1.
       -2   -1    0    0    0  501  0.00000000000E+00  0.00000000000E+00 -0.36349164494E+03  0.36349164495E+03  0.25500000920E-02 0. -1.
    10030    2    1    2    0    0  0.00000000000E+00  0.00000000000E+00  0.11853411541E+04  0.19123244440E+04  0.15006502349E+04 0.  0.
        4    1    3    3  502    0 -0.68161133405E+03  0.29836343430E+03  0.71603353706E+03  0.10326279043E+04  0.12699999809E+01 0.  1.
       -4    1    3    3    0  502  0.68161133405E+03 -0.29836343430E+03  0.46930761705E+03  0.87969653970E+03  0.12699999809E+01 0. -1.
</event>
<event>
 5   0  0.2641347E-04  0.1543276E+04  0.7818609E-02  0.8856174E-01
       -2   -1    0    0    0  501  0.00000000000E+00  0.00000000000E+00  0.25030018166E+03  0.25030018167E+03  0.25500000920E-02 0.  1.
        2   -1    0    0  501    0  0.00000000000E+00  0.00000000000E+00 -0.23788433593E+04  0.23788433593E+04  0.25500000920E-02 0. -1.
    10030    2    1    2    0    0  0.00000000000E+00  0.00000000000E+00 -0.21285431776E+04  0.26291435410E+04  0.15432756397E+04 0.  0.
        4    1    3    3  502    0 -0.25559071151E+03  0.71464372473E+03 -0.82710177439E+03  0.11225601201E+04  0.12699999809E+01 0.  1.
       -4    1    3    3    0  502  0.25559071151E+03 -0.71464372473E+03 -0.13014414033E+04  0.15065834209E+04  0.12699999809E+01 0. -1.
</event>
<event>
 5   0  0.1427609E-04  0.1491446E+04  0.7818609E-02  0.8890161E-01
        1   -1    0    0  501    0  0.00000000000E+00  0.00000000000E+00  0.11786731353E+04  0.11786731353E+04  0.50400001928E-02 0.  1.
       -1   -1    0    0    0  501  0.00000000000E+00  0.00000000000E+00 -0.47180431912E+03  0.47180431914E+03  0.50400001928E-02 0. -1.
    10030    2    1    2    0    0  0.00000000000E+00  0.00000000000E+00  0.70686881614E+03  0.16504774544E+04  0.14914463800E+04 0.  0.
        4    1    3    3  502    0  0.22822926757E+03  0.10347483391E+02  0.11389894637E+04  0.11616773563E+04  0.12699999809E+01 0.  1.
       -4    1    3    3    0  502 -0.22822926757E+03 -0.10347483391E+02 -0.43212064751E+03  0.48880009809E+03  0.12699999809E+01 0. -1.
</event>
<event>
 5   0  0.1474203E-04  0.1496218E+04  0.7818609E-02  0.8886972E-01
        1   -1    0    0  501    0  0.00000000000E+00  0.00000000000E+00  0.22231934476E+04  0.22231934476E+04  0.50400001928E-02 0.  1.
       -1   -1    0    0    0  501  0.00000000000E+00  0.00000000000E+00 -0.25174008574E+03  0.25174008579E+03  0.50400001928E-02 0. -1.
    10030    2    1    2    0    0  0.00000000000E+00  0.00000000000E+00  0.19714533619E+04  0.24749335334E+04  0.14962177772E+04 0.  0.
        3    1    3    3  502    0 -0.14464761639E+03 -0.18315852732E+03 -0.18998024514E+03  0.30093601114E+03  0.10100000352E+00 0. -1.
       -3    1    3    3    0  502  0.14464761639E+03  0.18315852732E+03  0.21614336070E+04  0.21739975223E+04  0.10100000352E+00 0.  1.
</event>
<event>
 5   0  0.1426929E-04  0.1497533E+04  0.7818609E-02  0.8886095E-01
       -1   -1    0    0    0  501  0.00000000000E+00  0.00000000000E+00  0.87482381458E+03  0.87482381459E+03  0.50400001928E-02 0. -1.
        1   -1    0    0  501    0  0.00000000000E+00  0.00000000000E+00 -0.64087357410E+03  0.64087357412E+03  0.50400001928E-02 0.  1.
    10030    2    1    2    0    0  0.00000000000E+00  0.00000000000E+00  0.23395024048E+03  0.15156973887E+04  0.14975332581E+04 0.  0.
        1    1    3    3  502    0 -0.10020417060E+03 -0.70586308544E+03  0.34859113182E+03  0.79359898463E+03  0.50400001928E-02 0.  1.
       -1    1    3    3    0  502  0.10020417060E+03  0.70586308544E+03 -0.11464089134E+03  0.72209840409E+03  0.50400001928E-02 0. -1.
</event>
<event>
 5   0  0.1443750E-04  0.1505549E+04  0.7818609E-02  0.8880771E-01
       -1   -1    0    0    0  501  0.00000000000E+00  0.00000000000E+00  0.51840802993E+03  0.51840802995E+03  0.50400001928E-02 0.  1.
        1   -1    0    0  501    0  0.00000000000E+00  0.00000000000E+00 -0.10930953885E+04  0.10930953885E+04  0.50400001928E-02 0. -1.
    10030    2    1    2    0    0  0.00000000000E+00  0.00000000000E+00 -0.57468735858E+03  0.16115034185E+04  0.15055489722E+04 0.  0.
        2    1    3    3  502    0 -0.48790564231E+03  0.28762006382E+03  0.24342920703E+03  0.61646978495E+03  0.25500000920E-02 0.  1.
       -2    1    3    3    0  502  0.48790564231E+03 -0.28762006382E+03 -0.81811656562E+03  0.99503363353E+03  0.25500000920E-02 0. -1.
</event>
<event>
 5   0  0.1426929E-04  0.1496305E+04  0.7818609E-02  0.8886914E-01
       -1   -1    0    0    0  501  0.00000000000E+00  0.00000000000E+00  0.60789995313E+03  0.60789995315E+03  0.50400001928E-02 0. -1.
        1   -1    0    0  501    0  0.00000000000E+00  0.00000000000E+00 -0.92076381102E+03  0.92076381104E+03  0.50400001928E-02 0.  1.
    10030    2    1    2    0    0  0.00000000000E+00  0.00000000000E+00 -0.31286385789E+03  0.15286637642E+04  0.14963051528E+04 0.  0.
        1    1    3    3  502    0  0.57933837583E+03  0.36693139950E+03  0.14913607512E+03  0.70179282881E+03  0.50400001928E-02 0. -1.
       -1    1    3    3    0  502 -0.57933837583E+03 -0.36693139950E+03 -0.46199993300E+03  0.82687093538E+03  0.50400001928E-02 0.  1.
</event>
<event>
 5   0  0.2696040E-04  0.1537352E+04  0.7818609E-02  0.8859988E-01
        2   -1    0    0  501    0  0.00000000000E+00  0.00000000000E+00  0.10302560295E+04  0.10302560295E+04  0.25500000920E-02 0. -1.
       -2   -1    0    0    0  501  0.00000000000E+00  0.00000000000E+00 -0.57351026674E+03  0.57351026675E+03  0.25500000920E-02 0.  1.
    10030    2    1    2    0    0  0.00000000000E+00  0.00000000000E+00  0.45674576272E+03  0.16037662962E+04  0.15373515021E+04 0.  0.
        2    1    3    3  502    0 -0.31292639180E+03  0.17581016798E+02 -0.50382506471E+03  0.59335631342E+03  0.25500000920E-02 0.  1.
       -2    1    3    3    0  502  0.31292639180E+03 -0.17581016798E+02  0.96057082742E+03  0.10104099828E+04  0.25500000920E-02 0. -1.
</event>
<event>
 5   0  0.1427609E-04  0.1501522E+04  0.7818609E-02  0.8883442E-01
        1   -1    0    0  501    0  0.00000000000E+00  0.00000000000E+00  0.70046080785E+03  0.70046080787E+03  0.50400001928E-02 0.  1.
       -1   -1    0    0    0  501  0.00000000000E+00  0.00000000000E+00 -0.80467287757E+03  0.80467287759E+03  0.50400001928E-02 0. -1.
    10030    2    1    2    0    0  0.00000000000E+00  0.00000000000E+00 -0.10421206973E+03  0.15051336855E+04  0.15015216467E+04 0.  0.
        4    1    3    3  502    0 -0.75696670819E+02 -0.72655567869E+03 -0.22580606333E+03  0.76459344186E+03  0.12699999809E+01 0. -1.
       -4    1    3    3    0  502  0.75696670819E+02  0.72655567869E+03  0.12159399360E+03  0.74054024359E+03  0.12699999809E+01 0.  1.
</event>
<event>
 5   0  0.2696040E-04  0.1505577E+04  0.7818609E-02  0.8880753E-01
        2   -1    0    0  501    0  0.00000000000E+00  0.00000000000E+00  0.23777980263E+04  0.23777980263E+04  0.25500000920E-02 0. -1.
       -2   -1    0    0    0  501  0.00000000000E+00  0.00000000000E+00 -0.23832573076E+03  0.23832573077E+03  0.25500000920E-02 0.  1.
    10030    2    1    2    0    0  0.00000000000E+00  0.00000000000E+00  0.21394722955E+04  0.26161237571E+04  0.15055769024E+04 0.  0.
        2    1    3    3  502    0  0.38808159239E+03 -0.32938269826E+03  0.10603679828E+03  0.51994623459E+03  0.25500000920E-02 0.  1.
       -2    1    3    3    0  502 -0.38808159239E+03  0.32938269826E+03  0.20334354972E+04  0.20961775225E+04  0.25500000920E-02 0. -1.
</event>
<event>
 5   0  0.1426929E-04  0.1510559E+04  0.7818609E-02  0.8877461E-01
        1   -1    0    0  501    0  0.00000000000E+00  0.00000000000E+00  0.93186804109E+03  0.93186804110E+03  0.50400001928E-02 0. -1.
       -1   -1    0    0    0  501  0.00000000000E+00  0.00000000000E+00 -0.61215456839E+03  0.61215456841E+03  0.50400001928E-02 0.  1.
    10030    2    1    2    0    0  0.00000000000E+00  0.00000000000E+00  0.31971347269E+03  0.15440226095E+04  0.15105592057E+04 0.  0.
        1    1    3    3  502    0  0.22263915585E+03 -0.10385865251E+03  0.88988614848E+03  0.92317504879E+03  0.50400001928E-02 0. -1.
       -1    1    3    3    0  502 -0.22263915585E+03  0.10385865251E+03 -0.57017267579E+03  0.62084756073E+03  0.50400001928E-02 0.  1.
</event>
<event>
 5   0  0.1474203E-04  0.1501344E+04  0.7818609E-02  0.8883560E-01
       -1   -1    0    0    0  501  0.00000000000E+00  0.00000000000E+00  0.95813546997E+03  0.95813546998E+03  0.50400001928E-02 0.  1.
        1   -1    0    0  501    0  0.00000000000E+00  0.00000000000E+00 -0.58813011539E+03  0.58813011541E+03  0.50400001928E-02 0. -1.
    10030    2    1    2    0    0  0.00000000000E+00  0.00000000000E+00  0.37000535458E+03  0.15462655854E+04  0.15013438308E+04 0.  0.
        3    1    3    3  502    0 -0.32356306548E+03  0.51997190606E+02 -0.51056510982E+03  0.60669061864E+03  0.10100000352E+00 0. -1.
       -3    1    3    3    0  502  0.32356306548E+03 -0.51997190606E+02  0.88057046440E+03  0.93957496675E+03  0.10100000352E+00 0.  1.
</event>
<event>
 5   0  0.2696040E-04  0.1504217E+04  0.7818609E-02  0.8881654E-01
        2   -1    0    0  501    0  0.00000000000E+00  0.00000000000E+00  0.21813006839E+04  0.21813006839E+04  0.25500000920E-02 0. -1.
       -2   -1    0    0    0  501  0.00000000000E+00  0.00000000000E+00 -0.25932546866E+03  0.25932546868E+03  0.25500000920E-02 0.  1.
    10030    2    1    2    0    0  0.00000000000E+00  0.00000000000E+00  0.19219752153E+04  0.24406261526E+04  0.15042165033E+04 0.  0.
        2    1    3    3  502    0  0.61337534968E+03  0.20532383198E+03  0.33831143300E+03  0.72996015048E+03  0.25500000920E-02 0.  1.
       -2    1    3    3    0  502 -0.61337534968E+03 -0.20532383198E+03  0.15836637823E+04  0.17106660021E+04  0.25500000920E-02 0. -1.
</event>
<event>
 5   0  0.2618901E-04  0.1500835E+04  0.7818609E-02  0.8883898E-01
       -2   -1    0    0    0  501  0.00000000000E+00  0.00000000000E+00  0.14328111408E+04  0.14328111408E+04  0.25500000920E-02 0.  1.
        2   -1    0    0  501    0  0.00000000000E+00  0.00000000000E+00 -0.39302220518E+03  0.39302220519E+03  0.25500000920E-02 0. -1.
    10030    2    1    2    0    0  0.00000000000E+00  0.00000000000E+00  0.10397889357E+04  0.18258333460E+04  0.15008352264E+04 0.  0.
        1    1    3    3  502    0  0.53014908750E+03  0.17348371268E+03  0.11305611286E+04  0.12606835919E+04  0.50400001928E-02 0.  1.
       -1    1    3    3    0  502 -0.53014908750E+03 -0.17348371268E+03 -0.90772192888E+02  0.56514975411E+03  0.50400001928E-02 0. -1.
</event>
<event>
 5   0  0.2734072E-04  0.1499504E+04  0.7818609E-02  0.8884783E-01
       -2   -1    0    0    0  501  0.00000000000E+00  0.00000000000E+00  0.45485208208E+03  0.45485208208E+03  0.25500000920E-02 0. -1.
        2   -1    0    0  501    0  0.00000000000E+00  0.00000000000E+00 -0.12358476243E+04  0.12358476243E+04  0.25500000920E-02 0.  1.
    10030    2    1    2    0    0  0.00000000000E+00  0.00000000000E+00 -0.78099554222E+03  0.16906997064E+04  0.14995037380E+04 0.  0.
        5    1    3    3  502    0 -0.31136159645E+03 -0.67172428447E+03 -0.52364959909E+03  0.90685751401E+03  0.46999998093E+01 0. -1.
       -5    1    3    3    0  502  0.31136159645E+03  0.67172428447E+03 -0.25734594313E+03  0.78384219237E+03  0.46999998093E+01 0.  1.
</event>
<event>
 5   0  0.1427609E-04  0.1495645E+04  0.7818609E-02  0.8887354E-01
        1   -1    0    0  501    0  0.00000000000E+00  0.00000000000E+00  0.36085571740E+03  0.36085571743E+03  0.50400001928E-02 0. -1.
       -1   -1    0    0    0  501  0.00000000000E+00  0.00000000000E+00 -0.15497569901E+04  0.15497569901E+04  0.50400001928E-02 0.  1.
    10030    2    1    2    0    0  0.00000000000E+00  0.00000000000E+00 -0.11889012727E+04  0.19106127075E+04  0.14956452393E+04 0.  0.
        4    1    3    3  502    0 -0.16730055160E+03  0.70742240081E+03 -0.37025487742E+03  0.81579790076E+03  0.12699999809E+01 0. -1.
       -4    1    3    3    0  502  0.16730055160E+03 -0.70742240081E+03 -0.81864639526E+03  0.10948148068E+04  0.12699999809E+01 0.  1.
</event>
<event>
 5   0  0.1426929E-04  0.1500611E+04  0.7818609E-02  0.8884047E-01
       -1   -1    0    0    0  501  0.00000000000E+00  0.00000000000E+00  0.54970705714E+03  0.54970705717E+03  0.50400001928E-02 0. -1.
        1   -1    0    0  501    0  0.00000000000E+00  0.00000000000E+00 -0.10241057368E+04  0.10241057368E+04  0.50400001928E-02 0.  1.
    10030    2    1    2    0    0  0.00000000000E+00  0.00000000000E+00 -0.47439867965E+03  0.15738127940E+04  0.15006107434E+04 0.  0.
        1    1    3    3  502    0  0.43758463058E+03  0.22723354897E+03 -0.83033396808E+03  0.96569658447E+03  0.50400001928E-02 0.  1.
       -1    1    3    3    0  502 -0.43758463058E+03 -0.22723354897E+03  0.35593528842E+03  0.60811620951E+03  0.50400001928E-02 0. -1.
</event>
<event>
 5   0  0.1474203E-04  0.1499265E+04  0.7818609E-02  0.8884942E-01
       -1   -1    0    0    0  501  0.00000000000E+00  0.00000000000E+00  0.28128686505E+03  0.28128686509E+03  0.50400001928E-02 0.  1.
        1   -1    0    0  501    0  0.00000000000E+00  0.00000000000E+00 -0.19977779308E+04  0.19977779308E+04  0.50400001928E-02 0. -1.
    10030    2    1    2    0    0  0.00000000000E+00  0.00000000000E+00 -0.17164910658E+04  0.22790647959E+04  0.14992647415E+04 0.  0.
        3    1    3    3  502    0  0.22911124189E+03  0.50991874718E+03 -0.99037074298E+02  0.56773007863E+03  0.10100000352E+00 0.  1.
       -3    1    3    3    0  502 -0.22911124189E+03 -0.50991874718E+03 -0.16174539915E+04  0.17113347173E+04  0.10100000352E+00 0. -1.
</event>
<event>
 5   0  0.2646718E-04  0.1497663E+04  0.7818609E-02  0.8886008E-01
       -2   -1    0    0    0  501  0.00000000000E+00  0.00000000000E+00  0.90152349621E+03  0.90152349621E+03  0.25500000920E-02 0. -1.
        2   -1    0    0  501    0  0.00000000000E+00  0.00000000000E+00 -0.62200125813E+03  0.62200125813E+03  0.25500000920E-02 0.  1.
    10030    2    1    2    0    0  0.00000000000E+00  0.00000000000E+00  0.27952223808E+03  0.15235247543E+04  0.14976631783E+04 0.  0.
        3    1    3    3  502    0 -0.57211754761E+03  0.47517066821E+03  0.50826725239E+02  0.74544551673E+03  0.10100000352E+00 0.  1.
       -3    1    3    3    0  502  0.57211754761E+03 -0.47517066821E+03  0.22869551284E+03  0.77807923761E+03  0.10100000352E+00 0. -1.
</event>
<event>
 5   0  0.2696040E-04  0.1502950E+04  0.7818609E-02  0.8882493E-01
       -2   -1    0    0    0  501  0.00000000000E+00  0.00000000000E+00  0.39113340690E+03  0.39113340691E+03  0.25500000920E-02 0.  1.
        2   -1    0    0  501    0  0.00000000000E+00  0.00000000000E+00 -0.14437907920E+04  0.14437907920E+04  0.25500000920E-02 0. -1.
    10030    2    1    2    0    0  0.00000000000E+00  0.00000000000E+00 -0.10526573851E+04  0.18349241989E+04  0.15029501806E+04 0.  0.
        2    1    3    3  502    0 -0.37650904829E+03 -0.26790303320E+02 -0.13196556560E+04  0.13725770777E+04  0.25500000920E-02 0. -1.
       -2    1    3    3    0  502  0.37650904829E+03  0.26790303320E+02  0.26699827092E+03  0.46234712120E+03  0.25500000920E-02 0.  1.
</event>
<event>
 5   0  0.1004313E-04  0.1503047E+04  0.7818609E-02  0.8882429E-01
       -4   -1    0    0    0  501  0.00000000000E+00  0.00000000000E+00  0.67008529641E+03  0.67008649991E+03  0.12699999809E+01 0. -1.
        4   -1    0    0  501    0  0.00000000000E+00  0.00000000000E+00 -0.84285675786E+03  0.84285771466E+03  0.12699999809E+01 0.  1.
    10030    2    1    2    0    0  0.00000000000E+00  0.00000000000E+00 -0.17277146145E+03  0.15129442146E+04  0.15030469781E+04 0.  0.
        3    1    3    3  502    0 -0.47931019705E+03 -0.53612363655E+03 -0.30604440857E+03  0.78155614570E+03  0.10100000352E+00 0.  1.
       -3    1    3    3    0  502  0.47931019705E+03  0.53612363655E+03  0.13327294712E+03  0.73138806888E+03  0.10100000352E+00 0. -1.
</event>
<event>
 5   0  0.1443750E-04  0.1500069E+04  0.7818609E-02  0.8884407E-01
       -1   -1    0    0    0  501  0.00000000000E+00  0.00000000000E+00  0.23277995652E+03  0.23277995658E+03  0.50400001928E-02 0. -1.
        1   -1    0    0  501    0  0.00000000000E+00  0.00000000000E+00 -0.24166668499E+04  0.24166668499E+04  0.50400001928E-02 0.  1.
    10030    2    1    2    0    0  0.00000000000E+00  0.00000000000E+00 -0.21838868933E+04  0.26494468064E+04  0.15000688042E+04 0.  0.
        2    1    3    3  502    0 -0.84796466310E+02 -0.68816149835E+03 -0.15970781196E+04  0.17410959791E+04  0.25500000920E-02 0.  1.
       -2    1    3    3    0  502  0.84796466310E+02  0.68816149835E+03 -0.58680877375E+03  0.90835082730E+03  0.25500000920E-02 0. -1.
</event>
<event>
 5   0  0.2641347E-04  0.1501276E+04  0.7818609E-02  0.8883605E-01
        2   -1    0    0  501    0  0.00000000000E+00  0.00000000000E+00  0.11439510300E+04  0.11439510300E+04  0.25500000920E-02 0. -1.
       -2   -1    0    0    0  501  0.00000000000E+00  0.00000000000E+00 -0.49255387779E+03  0.49255387779E+03  0.25500000920E-02 0.  1.
    10030    2    1    2    0    0  0.00000000000E+00  0.00000000000E+00  0.65139715220E+03  0.16365049078E+04  0.15012761449E+04 0.  0.
        4    1    3    3  502    0 -0.27818078225E+03 -0.27522834513E+03 -0.37256348953E+03  0.54031505274E+03  0.12699999809E+01 0.  1.
       -4    1    3    3    0  502  0.27818078225E+03  0.27522834513E+03  0.10239606417E+04  0.10961898550E+04  0.12699999809E+01 0. -1.
</event>
<event>
 5   0  0.1474203E-04  0.1503920E+04  0.7818609E-02  0.8881850E-01
       -1   -1    0    0    0  501  0.00000000000E+00  0.00000000000E+00  0.89061875030E+03  0.89061875032E+03  0.50400001928E-02 0. -1.
        1   -1    0    0  501    0  0.00000000000E+00  0.00000000000E+00 -0.63488866272E+03  0.63488866274E+03  0.50400001928E-02 0.  1.
    10030    2    1    2    0    0  0.00000000000E+00  0.00000000000E+00  0.25573008758E+03  0.15255074131E+04  0.15039198747E+04 0.  0.
        3    1    3    3  502    0 -0.14045564419E+03  0.13467989938E+03  0.86463628155E+03  0.88626315102E+03  0.10100000352E+00 0. -1.
       -3    1    3    3    0  502  0.14045564419E+03 -0.13467989938E+03 -0.60890619397E+03  0.63924426203E+03  0.10100000352E+00 0.  1.
</event>
<event>
 5   0  0.2618901E-04  0.1499184E+04  0.7818609E-02  0.8884996E-01
        2   -1    0    0  501    0  0.00000000000E+00  0.00000000000E+00  0.53515756614E+03  0.53515756615E+03  0.25500000920E-02 0. -1.
       -2   -1    0    0    0  501  0.00000000000E+00  0.00000000000E+00 -0.10499483893E+04  0.10499483893E+04  0.25500000920E-02 0.  1.
    10030    2    1    2    0    0  0.00000000000E+00  0.00000000000E+00 -0.51479082319E+03  0.15851059555E+04  0.14991835440E+04 0.  0.
        1    1    3    3  502    0  0.46985671842E+03  0.41178631901E+03 -0.69532528231E+03  0.93477834625E+03  0.50400001928E-02 0.  1.
       -1    1    3    3    0  502 -0.46985671842E+03 -0.41178631901E+03  0.18053445911E+03  0.65032760923E+03  0.50400001928E-02 0. -1.
</event>
<event>
 5   0  0.1004313E-04  0.1501969E+04  0.7818609E-02  0.8883144E-01
        4   -1    0    0  501    0  0.00000000000E+00  0.00000000000E+00  0.10876741090E+04  0.10876748504E+04  0.12699999809E+01 0. -1.
       -4   -1    0    0    0  501  0.00000000000E+00  0.00000000000E+00 -0.51851583309E+03  0.51851738839E+03  0.12699999809E+01 0.  1.
    10030    2    1    2    0    0  0.00000000000E+00  0.00000000000E+00  0.56915827591E+03  0.16061922388E+04  0.15019694954E+04 0.  0.
        5    1    3    3  502    0  0.22105247120E+03  0.11870714063E+03  0.10415086810E+04  0.10713160144E+04  0.46999998093E+01 0. -1.
       -5    1    3    3    0  502 -0.22105247120E+03 -0.11870714063E+03 -0.47235040506E+03  0.53487622439E+03  0.46999998093E+01 0.  1.
</event>
<event>
 5   0  0.1427609E-04  0.1502051E+04  0.7818609E-02  0.8883090E-01
        1   -1    0    0  501    0  0.00000000000E+00  0.00000000000E+00  0.55813985292E+03  0.55813985294E+03  0.50400001928E-02 0.  1.
       -1   -1    0    0    0  501  0.00000000000E+00  0.00000000000E+00 -0.10105698084E+04  0.10105698085E+04  0.50400001928E-02 0. -1.
    10030    2    1    2    0    0  0.00000000000E+00  0.00000000000E+00 -0.45242995553E+03  0.15687096614E+04  0.15020509769E+04 0.  0.
        4    1    3    3  502    0  0.27829697770E+03 -0.69752692861E+03 -0.21923657275E+03  0.78234219602E+03  0.12699999809E+01 0. -1.
       -4    1    3    3    0  502 -0.27829697770E+03  0.69752692861E+03 -0.23319338277E+03  0.78636746538E+03  0.12699999809E+01 0.  1.
</event>
<event>
 5   0  0.2641347E-04  0.1507342E+04  0.7818609E-02  0.8879585E-01
        2   -1    0    0  501    0  0.00000000000E+00  0.00000000000E+00  0.12799662270E+04  0.12799662270E+04  0.25500000920E-02 0. -1.
       -2   -1    0    0    0  501  0.00000000000E+00  0.00000000000E+00 -0.44377752731E+03  0.44377752731E+03  0.25500000920E-02 0.  1.
    10030    2    1    2    0    0  0.00000000000E+00  0.00000000000E+00  0.83618869965E+03  0.17237437543E+04  0.15073423596E+04 0.  0.
        4    1    3    3  502    0 -0.17974301319E+03  0.68612703948E+03  0.70951445862E+03  0.10032398741E+04  0.12699999809E+01 0. -1.
       -4    1    3    3    0  502  0.17974301319E+03 -0.68612703948E+03  0.12667424103E+03  0.72050388017E+03  0.12699999809E+01 0.  1.
</event>
<event>
 5   0  0.2696040E-04  0.1500170E+04  0.7818609E-02  0.8884340E-01
        2   -1    0    0  501    0  0.00000000000E+00  0.00000000000E+00  0.11879784033E+04  0.11879784033E+04  0.25500000920E-02 0. -1.
       -2   -1    0    0    0  501  0.00000000000E+00  0.00000000000E+00 -0.47360103427E+03  0.47360103427E+03  0.25500000920E-02 0.  1.
    10030    2    1    2    0    0  0.00000000000E+00  0.00000000000E+00  0.71437736906E+03  0.16615794376E+04  0.15001703910E+04 0.  0.
        2    1    3    3  502    0  0.40173598439E+03 -0.58927611441E+02 -0.34135408772E+03  0.53045911978E+03  0.25500000920E-02 0.  1.
       -2    1    3    3    0  502 -0.40173598439E+03  0.58927611441E+02  0.10557314568E+04  0.11311203178E+04  0.25500000920E-02 0. -1.
</event>
<event>
 5   0  0.1484251E-04  0.1501828E+04  0.7818609E-02  0.8883238E-01
       -1   -1    0    0    0  501  0.00000000000E+00  0.00000000000E+00  0.83634797780E+03  0.83634797782E+03  0.50400001928E-02 0.  1.
        1   -1    0    0  501    0  0.00000000000E+00  0.00000000000E+00 -0.67420722646E+03  0.67420722648E+03  0.50400001928E-02 0. -1.
    10030    2    1    2    0    0  0.00000000000E+00  0.00000000000E+00  0.16214075134E+03  0.15105552043E+04  0.15018280201E+04 0.  0.
        5    1    3    3  502    0 -0.47241724502E+03  0.27796316953E+03 -0.43514511210E+03  0.69986779865E+03  0.46999998093E+01 0. -1.
       -5    1    3    3    0  502  0.47241724502E+03 -0.27796316953E+03  0.59728586344E+03  0.81068740565E+03  0.46999998093E+01 0.  1.
</event>
<event>
 5   0  0.2734072E-04  0.1499105E+04  0.7818609E-02  0.8885048E-01
       -2   -1    0    0    0  501  0.00000000000E+00  0.00000000000E+00  0.52133642153E+03  0.52133642153E+03  0.25500000920E-02 0.  1.
        2   -1    0    0  501    0  0.00000000000E+00  0.00000000000E+00 -0.10776705953E+04  0.10776705953E+04  0.25500000920E-02 0. -1.
    10030    2    1    2    0    0  0.00000000000E+00  0.00000000000E+00 -0.55633417377E+03  0.15990070168E+04  0.14991049753E+04 0.  0.
        5    1    3    3  502    0 -0.24491005511E+03 -0.19900362781E+03  0.44701040741E+03  0.54719628407E+03  0.46999998093E+01 0. -1.
       -5    1    3    3    0  502  0.24491005511E+03  0.19900362781E+03 -0.10033445812E+04  0.10518107328E+04  0.46999998093E+01 0.  1.
</event>
<event>
 5   0  0.2696040E-04  0.1500628E+04  0.7818609E-02  0.8884036E-01
        2   -1    0    0  501    0  0.00000000000E+00  0.00000000000E+00  0.84331691865E+03  0.84331691865E+03  0.25500000920E-02 0.  1.
       -2   -1    0    0    0  501  0.00000000000E+00  0.00000000000E+00 -0.66756744395E+03  0.66756744395E+03  0.25500000920E-02 0. -1.
    10030    2    1    2    0    0  0.00000000000E+00  0.00000000000E+00  0.17574947470E+03  0.15108843626E+04  0.15006277617E+04 0.  0.
        2    1    3    3  502    0 -0.62493537015E+02 -0.42141521231E+03 -0.53398310800E+03  0.68310627502E+03  0.25500000920E-02 0. -1.
       -2    1    3    3    0  502  0.62493537015E+02  0.42141521231E+03  0.70973258270E+03  0.82777808759E+03  0.25500000920E-02 0.  1.
</event>
<event>
 5   0  0.2734072E-04  0.1499453E+04  0.7818609E-02  0.8884817E-01
        2   -1    0    0  501    0  0.00000000000E+00  0.00000000000E+00  0.10268462419E+04  0.10268462420E+04  0.25500000920E-02 0.  1.
       -2   -1    0    0    0  501  0.00000000000E+00  0.00000000000E+00 -0.54739436757E+03  0.54739436757E+03  0.25500000920E-02 0. -1.
    10030    2    1    2    0    0  0.00000000000E+00  0.00000000000E+00  0.47945187438E+03  0.15742406095E+04  0.14994530326E+04 0.  0.
        5    1    3    3  502    0 -0.22960857222E+03  0.71045200493E+03  0.16847642532E+03  0.76542050118E+03  0.46999998093E+01 0.  1.
       -5    1    3    3    0  502  0.22960857222E+03 -0.71045200493E+03  0.31097544906E+03  0.80882010834E+03  0.46999998093E+01 0. -1.
</event>
<event>
 5   0  0.1474203E-04  0.1503748E+04  0.7818609E-02  0.8881964E-01
       -1   -1    0    0    0  501  0.00000000000E+00  0.00000000000E+00  0.33462440028E+03  0.33462440032E+03  0.50400001928E-02 0. -1.
        1   -1    0    0  501    0  0.00000000000E+00  0.00000000000E+00 -0.16894004255E+04  0.16894004255E+04  0.50400001928E-02 0.  1.
    10030    2    1    2    0    0  0.00000000000E+00  0.00000000000E+00 -0.13547760252E+04  0.20240248258E+04  0.15037481229E+04 0.  0.
        3    1    3    3  502    0 -0.18727069296E+02 -0.39859195318E+03 -0.15351188018E+04  0.15861324012E+04  0.10100000352E+00 0.  1.
       -3    1    3    3    0  502  0.18727069296E+02  0.39859195318E+03  0.18034277661E+03  0.43789242462E+03  0.10100000352E+00 0. -1.
</event>
<event>
 5   0  0.2618901E-04  0.1490431E+04  0.7818609E-02  0.8890841E-01
        2   -1    0    0  501    0  0.00000000000E+00  0.00000000000E+00  0.11316425105E+04  0.11316425105E+04  0.25500000920E-02 0.  1.
       -2   -1    0    0    0  501  0.00000000000E+00  0.00000000000E+00 -0.49074348566E+03  0.49074348567E+03  0.25500000920E-02 0. -1.
    10030    2    1    2    0    0  0.00000000000E+00  0.00000000000E+00  0.64089902483E+03  0.16223859962E+04  0.14904310653E+04 0.  0.
        1    1    3    3  502    0  0.43481404720E+03  0.27914086100E+03  0.90498690643E+03  0.10421056457E+04  0.50400001928E-02 0.  1.
       -1    1    3    3    0  502 -0.43481404720E+03 -0.27914086100E+03 -0.26408788159E+03  0.58028035048E+03  0.50400001928E-02 0. -1.
</event>
<event>
 5   0  0.1474203E-04  0.1499300E+04  0.7818609E-02  0.8884918E-01
       -1   -1    0    0    0  501  0.00000000000E+00  0.00000000000E+00  0.46375767499E+03  0.46375767502E+03  0.50400001928E-02 0.  1.
        1   -1    0    0  501    0  0.00000000000E+00  0.00000000000E+00 -0.12117865707E+04  0.12117865707E+04  0.50400001928E-02 0. -1.
    10030    2    1    2    0    0  0.00000000000E+00  0.00000000000E+00 -0.74802889568E+03  0.16755442457E+04  0.14993002670E+04 0.  0.
        3    1    3    3  502    0  0.30839820147E+03 -0.66897512562E+03 -0.52942291135E+03  0.90715257737E+03  0.10100000352E+00 0. -1.
       -3    1    3    3    0  502 -0.30839820147E+03  0.66897512562E+03 -0.21860598433E+03  0.76839166832E+03  0.10100000352E+00 0.  1.
</event>
<event>
 5   0  0.2696040E-04  0.1502275E+04  0.7818609E-02  0.8882941E-01
       -2   -1    0    0    0  501  0.00000000000E+00  0.00000000000E+00  0.93266211067E+03  0.93266211068E+03  0.25500000920E-02 0. -1.
        2   -1    0    0  501    0  0.00000000000E+00  0.00000000000E+00 -0.60494344956E+03  0.60494344957E+03  0.25500000920E-02 0.  1.
    10030    2    1    2    0    0  0.00000000000E+00  0.00000000000E+00  0.32771866111E+03  0.15376055602E+04  0.15022753869E+04 0.  0.
        2    1    3    3  502    0 -0.40726771080E+03  0.17895117646E+03  0.78333480524E+03  0.90083512860E+03  0.25500000920E-02 0. -1.
       -2    1    3    3    0  502  0.40726771080E+03 -0.17895117646E+03 -0.45561614413E+03  0.63677043164E+03  0.25500000920E-02 0.  1.
</event>
<event>
 5   0  0.2646718E-04  0.1497529E+04  0.7818609E-02  0.8886098E-01
        2   -1    0    0  501    0  0.00000000000E+00  0.00000000000E+00  0.75865988995E+03  0.75865988996E+03  0.25500000920E-02 0.  1.
       -2   -1    0    0    0  501  0.00000000000E+00  0.00000000000E+00 -0.73899812883E+03  0.73899812883E+03  0.25500000920E-02 0. -1.
    10030    2    1    2    0    0  0.00000000000E+00  0.00000000000E+00  0.19661761123E+02  0.14976580188E+04  0.14975289501E+04 0.  0.
        3    1    3    3  502    0  0.32074292439E+03  0.35078699053E+03  0.58843125455E+03  0.75642507084E+03  0.10100000352E+00 0.  1.
       -3    1    3    3    0  502 -0.32074292439E+03 -0.35078699053E+03 -0.56876949343E+03  0.74123294795E+03  0.10100000352E+00 0. -1.
</event>
<event>
 5   0  0.2618901E-04  0.1504459E+04  0.7818609E-02  0.8881493E-01
        2   -1    0    0  501    0  0.00000000000E+00  0.00000000000E+00  0.11782509551E+04  0.11782509551E+04  0.25500000920E-02 0. -1.
       -2   -1    0    0    0  501  0.00000000000E+00  0.00000000000E+00 -0.48024490511E+03  0.48024490512E+03  0.25500000920E-02 0.  1.
    10030    2    1    2    0    0  0.00000000000E+00  0.00000000000E+00  0.69800604996E+03  0.16584958602E+04  0.15044587307E+04 0.  0.
        1    1    3    3  502    0 -0.67269574968E+03  0.30768571740E+02  0.71856214460E+03  0.98478313974E+03  0.50400001928E-02 0. -1.
       -1    1    3    3    0  502  0.67269574968E+03 -0.30768571740E+02 -0.20556094640E+02  0.67371272045E+03  0.50400001928E-02 0.  1.
</event>
<event>
 5   0  0.2734072E-04  0.1504319E+04  0.7818609E-02  0.8881586E-01
       -2   -1    0    0    0  501  0.00000000000E+00  0.00000000000E+00  0.33702294872E+03  0.33702294873E+03  0.25500000920E-02 0.  1.
        2   -1    0    0  501    0  0.00000000000E+00  0.00000000000E+00 -0.16786499591E+04  0.16786499591E+04  0.25500000920E-02 0. -1.
    10030    2    1    2    0    0  0.00000000000E+00  0.00000000000E+00 -0.13416270104E+04  0.20156729078E+04  0.15043185289E+04 0.  0.
        5    1    3    3  502    0  0.95156540135E+02  0.46262908244E+03  0.11351850500E+03  0.48578696568E+03  0.46999998093E+01 0.  1.
       -5    1    3    3    0  502 -0.95156540135E+02 -0.46262908244E+03 -0.14551455154E+04  0.15298859421E+04  0.46999998093E+01 0. -1.
</event>
<event>
 5   0  0.1427609E-04  0.1503658E+04  0.7818609E-02  0.8882024E-01
       -1   -1    0    0    0  501  0.00000000000E+00  0.00000000000E+00  0.71383955692E+03  0.71383955694E+03  0.50400001928E-02 0. -1.
        1   -1    0    0  501    0  0.00000000000E+00  0.00000000000E+00 -0.79183973392E+03  0.79183973394E+03  0.50400001928E-02 0.  1.
    10030    2    1    2    0    0  0.00000000000E+00  0.00000000000E+00 -0.78000177004E+02  0.15056792909E+04  0.15036575738E+04 0.  0.
        4    1    3    3  502    0  0.31214345607E+03 -0.16490010739E+03  0.62568403214E+03  0.71840636381E+03  0.12699999809E+01 0. -1.
       -4    1    3    3    0  502 -0.31214345607E+03  0.16490010739E+03 -0.70368420915E+03  0.78727292707E+03  0.12699999809E+01 0.  1.
</event>
<event>
 5   0  0.1484251E-04  0.1499367E+04  0.7818609E-02  0.8884874E-01
        1   -1    0    0  501    0  0.00000000000E+00  0.00000000000E+00  0.83925314477E+03  0.83925314479E+03  0.50400001928E-02 0. -1.
       -1   -1    0    0    0  501  0.00000000000E+00  0.00000000000E+00 -0.66967282367E+03  0.66967282369E+03  0.50400001928E-02 0.  1.
    10030    2    1    2    0    0  0.00000000000E+00  0.00000000000E+00  0.16958032110E+03  0.15089259685E+04  0.14993665639E+04 0.  0.
        5    1    3    3  502    0 -0.10506104718E+03 -0.55981684858E+03 -0.40572913717E+03  0.69933607825E+03  0.46999998093E+01 0.  1.
       -5    1    3    3    0  502  0.10506104718E+03  0.55981684858E+03  0.57530945827E+03  0.80958989023E+03  0.46999998093E+01 0. -1.
</event>
<event>
 5   0  0.2641347E-04  0.1500214E+04  0.7818609E-02  0.8884310E-01
       -2   -1    0    0    0  501  0.00000000000E+00  0.00000000000E+00  0.24871360239E+03  0.24871360240E+03  0.25500000920E-02 0.  1.
        2   -1    0    0  501    0  0.00000000000E+00  0.00000000000E+00 -0.22622834497E+04  0.22622834497E+04  0.25500000920E-02 0. -1.
    10030    2    1    2    0    0  0.00000000000E+00  0.00000000000E+00 -0.20135698473E+04  0.25109970521E+04  0.15002142066E+04 0.  0.
        4    1    3    3  502    0 -0.61036528476E+03  0.40672142047E+03 -0.74378119449E+03  0.10445956983E+04  0.12699999809E+01 0.  1.
       -4    1    3    3    0  502  0.61036528476E+03 -0.40672142047E+03 -0.12697886528E+04  0.14664013538E+04  0.12699999809E+01 0. -1.
</event>
<event>
 5   0  0.1427609E-04  0.1497248E+04  0.7818609E-02  0.8886285E-01
       -1   -1    0    0    0  501  0.00000000000E+00  0.00000000000E+00  0.44937874823E+03  0.44937874826E+03  0.50400001928E-02 0.  1.
        1   -1    0    0  501    0  0.00000000000E+00  0.00000000000E+00 -0.12471399304E+04  0.12471399305E+04  0.50400001928E-02 0. -1.
    10030    2    1    2    0    0  0.00000000000E+00  0.00000000000E+00 -0.79776118221E+03  0.16965186787E+04  0.14972483840E+04 0.  0.
        4    1    3    3  502    0 -0.32826701290E+03  0.56155441623E+03  0.21027058044E+02  0.65080438245E+03  0.12699999809E+01 0.  1.
       -4    1    3    3    0  502  0.32826701290E+03 -0.56155441623E+03 -0.81878824026E+03  0.10457142963E+04  0.12699999809E+01 0. -1.
</event>
<event>
 5   0  0.1426929E-04  0.1499626E+04  0.7818609E-02  0.8884702E-01
        1   -1    0    0  501    0  0.00000000000E+00  0.00000000000E+00  0.46264752811E+03  0.46264752814E+03  0.50400001928E-02 0.  1.
       -1   -1    0    0    0  501  0.00000000000E+00  0.00000000000E+00 -0.12152215388E+04  0.12152215388E+04  0.50400001928E-02 0. -1.
    10030    2    1    2    0    0  0.00000000000E+00  0.00000000000E+00 -0.75257401065E+03  0.16778690669E+04  0.14996256080E+04 0.  0.
        1    1    3    3  502    0  0.48749705017E+03 -0.56217489099E+03 -0.47959382966E+03  0.88527070631E+03  0.50400001928E-02 0. -1.
       -1    1    3    3    0  502 -0.48749705017E+03  0.56217489099E+03 -0.27298018099E+03  0.79259836060E+03  0.50400001928E-02 0.  1.
</event>
<event>
 5   0  0.2618901E-04  0.1498048E+04  0.7818609E-02  0.8885752E-01
       -2   -1    0    0    0  501  0.00000000000E+00  0.00000000000E+00  0.47778031781E+03  0.47778031782E+03  0.25500000920E-02 0. -1.
        2   -1    0    0  501    0  0.00000000000E+00  0.00000000000E+00 -0.11742572034E+04  0.11742572035E+04  0.25500000920E-02 0.  1.
    10030    2    1    2    0    0  0.00000000000E+00  0.00000000000E+00 -0.69647688564E+03  0.16520375213E+04  0.14980480364E+04 0.  0.
        1    1    3    3  502    0 -0.66954722578E+03 -0.10829238077E+03  0.22629868746E+01  0.67825205375E+03  0.50400001928E-02 0. -1.
       -1    1    3    3    0  502  0.66954722578E+03  0.10829238077E+03 -0.69873987251E+03  0.97378546752E+03  0.50400001928E-02 0.  1.
</event>
<event>
 5   0  0.1484251E-04  0.1484857E+04  0.7818609E-02  0.8894586E-01
        1   -1    0    0  501    0  0.00000000000E+00  0.00000000000E+00  0.14295541993E+04  0.14295541993E+04  0.50400001928E-02 0. -1.
       -1   -1    0    0    0  501  0.00000000000E+00  0.00000000000E+00 -0.38557457712E+03  0.38557457716E+03  0.50400001928E-02 0.  1.
    10030    2    1    2    0    0  0.00000000000E+00  0.00000000000E+00  0.10439796222E+04  0.18151287765E+04  0.14848565667E+04 0.  0.
        5    1    3    3  502    0  0.36698286458E+03  0.16509514062E+03 -0.24067615898E+03  0.46891356544E+03  0.46999998093E+01 0.  1.
       -5    1    3    3    0  502 -0.36698286458E+03 -0.16509514062E+03  0.12846557812E+04  0.13462152111E+04  0.46999998093E+01 0. -1.
</event>
<event>
 5   0  0.2641347E-04  0.1498786E+04  0.7818609E-02  0.8885261E-01
        2   -1    0    0  501    0  0.00000000000E+00  0.00000000000E+00  0.17610876312E+04  0.17610876312E+04  0.25500000920E-02 0.  1.
       -2   -1    0    0    0  501  0.00000000000E+00  0.00000000000E+00 -0.31888801358E+03  0.31888801359E+03  0.25500000920E-02 0. -1.
    10030    2    1    2    0    0  0.00000000000E+00  0.00000000000E+00  0.14421996176E+04  0.20799756448E+04  0.14987858239E+04 0.  0.
        4    1    3    3  502    0  0.68768206370E+02 -0.49023442660E+03 -0.59674666525E+02  0.49861963254E+03  0.12699999809E+01 0. -1.
       -4    1    3    3    0  502 -0.68768206370E+02  0.49023442660E+03  0.15018742841E+04  0.15813560122E+04  0.12699999809E+01 0.  1.
</event>
<event>
 5   0  0.2618901E-04  0.1484229E+04  0.7818609E-02  0.8895009E-01
       -2   -1    0    0    0  501  0.00000000000E+00  0.00000000000E+00  0.21566786665E+03  0.21566786667E+03  0.25500000920E-02 0. -1.
        2   -1    0    0  501    0  0.00000000000E+00  0.00000000000E+00 -0.25536204424E+04  0.25536204424E+04  0.25500000920E-02 0.  1.
    10030    2    1    2    0    0  0.00000000000E+00  0.00000000000E+00 -0.23379525757E+04  0.27692883091E+04  0.14842289218E+04 0.  0.
        1    1    3    3  502    0 -0.19011877721E+03 -0.17563895735E+02 -0.25070104392E+04  0.25142702683E+04  0.50400001928E-02 0.  1.
       -1    1    3    3    0  502  0.19011877721E+03  0.17563895735E+02  0.16905786346E+03  0.25501804074E+03  0.50400001928E-02 0. -1.
</event>
<event>
 5   0  0.2646718E-04  0.1498858E+04  0.7818609E-02  0.8885213E-01
       -2   -1    0    0    0  501  0.00000000000E+00  0.00000000000E+00  0.11034034662E+04  0.11034034662E+04  0.25500000920E-02 0.  1.
        2   -1    0    0  501    0  0.00000000000E+00  0.00000000000E+00 -0.50901053250E+03  0.50901053250E+03  0.25500000920E-02 0. -1.
    10030    2    1    2    0    0  0.00000000000E+00  0.00000000000E+00  0.59439293368E+03  0.16124139987E+04  0.14988582133E+04 0.  0.
        3    1    3    3  502    0 -0.67586785079E+03  0.15590709966E+03  0.60249220568E+03  0.91874982643E+03  0.10100000352E+00 0. -1.
       -3    1    3    3    0  502  0.67586785079E+03 -0.15590709966E+03 -0.80992720026E+01  0.69366417225E+03  0.10100000352E+00 0.  1.
</event>
<event>
 5   0  0.2696040E-04  0.1505688E+04  0.7818609E-02  0.8880679E-01
        2   -1    0    0  501    0  0.00000000000E+00  0.00000000000E+00  0.14218679181E+04  0.14218679181E+04  0.25500000920E-02 0.  1.
       -2   -1    0    0    0  501  0.00000000000E+00  0.00000000000E+00 -0.39861222884E+03  0.39861222885E+03  0.25500000920E-02 0. -1.
    10030    2    1    2    0    0  0.00000000000E+00  0.00000000000E+00  0.10232556893E+04  0.18204801469E+04  0.15056878029E+04 0.  0.
        2    1    3    3  502    0  0.63657678622E+03 -0.30948362063E+03  0.82168698826E+03  0.10845181524E+04  0.25500000920E-02 0.  1.
       -2    1    3    3    0  502 -0.63657678622E+03  0.30948362063E+03  0.20156870100E+03  0.73596199455E+03  0.25500000920E-02 0. -1.
</event>
<event>
 5   0  0.2618901E-04  0.1500729E+04  0.7818609E-02  0.8883968E-01
        2   -1    0    0  501    0  0.00000000000E+00  0.00000000000E+00  0.77181882930E+03  0.77181882930E+03  0.25500000920E-02 0. -1.
       -2   -1    0    0    0  501  0.00000000000E+00  0.00000000000E+00 -0.72950638479E+03  0.72950638480E+03  0.25500000920E-02 0.  1.
    10030    2    1    2    0    0  0.00000000000E+00  0.00000000000E+00  0.42312444509E+02  0.15013252141E+04  0.15007288414E+04 0.  0.
        1    1    3    3  502    0  0.38755163829E+03  0.45828067035E+02 -0.61999648942E+03  0.73259274565E+03  0.50400001928E-02 0.  1.
       -1    1    3    3    0  502 -0.38755163829E+03 -0.45828067035E+02  0.66230893392E+03  0.76873246845E+03  0.50400001928E-02 0. -1.
</event>
<event>
 5   0  0.2646718E-04  0.1492032E+04  0.7818609E-02  0.8889769E-01
        2   -1    0    0  501    0  0.00000000000E+00  0.00000000000E+00  0.12120754743E+04  0.12120754743E+04  0.25500000920E-02 0.  1.
       -2   -1    0    0    0  501  0.00000000000E+00  0.00000000000E+00 -0.45916282400E+03  0.45916282400E+03  0.25500000920E-02 0. -1.
    10030    2    1    2    0    0  0.00000000000E+00  0.00000000000E+00  0.75291265026E+03  0.16712382983E+04  0.14920321681E+04 0.  0.
        3    1    3    3  502    0  0.72881144794E+02 -0.64754263072E+03 -0.30371227395E+02  0.65233851759E+03  0.10100000352E+00 0. -1.
       -3    1    3    3    0  502 -0.72881144794E+02  0.64754263072E+03  0.78328387766E+03  0.10188997807E+04  0.10100000352E+00 0.  1.
</event>
<event>
 5   0  0.2696040E-04  0.1494609E+04  0.7818609E-02  0.8888046E-01
       -2   -1    0    0    0  501  0.00000000000E+00  0.00000000000E+00  0.60442561530E+03  0.60442561531E+03  0.25500000920E-02 0. -1.
        2   -1    0    0  501    0  0.00000000000E+00  0.00000000000E+00 -0.92395827998E+03  0.92395827998E+03  0.25500000920E-02 0.  1.
    10030    2    1    2    0    0  0.00000000000E+00  0.00000000000E+00 -0.31953266468E+03  0.15283838953E+04  0.14946090484E+04 0.  0.
        2    1    3    3  502    0 -0.22199201613E+03 -0.45637449405E+03  0.40117857583E+03  0.64691760198E+03  0.25500000920E-02 0. -1.
       -2    1    3    3    0  502  0.22199201613E+03  0.45637449405E+03 -0.72071124051E+03  0.88146629331E+03  0.25500000920E-02 0.  1.
</event>
<event>
 5   0  0.1474203E-04  0.1500279E+04  0.7818609E-02  0.8884268E-01
        1   -1    0    0  501    0  0.00000000000E+00  0.00000000000E+00  0.86419850065E+03  0.86419850066E+03  0.50400001928E-02 0.  1.
       -1   -1    0    0    0  501  0.00000000000E+00  0.00000000000E+00 -0.65113398350E+03  0.65113398352E+03  0.50400001928E-02 0. -1.
    10030    2    1    2    0    0  0.00000000000E+00  0.00000000000E+00  0.21306451715E+03  0.15153324842E+04  0.15002786572E+04 0.  0.
        3    1    3    3  502    0  0.14816300907E+03  0.73529633842E+03  0.11642953750E+03  0.75905785679E+03  0.10100000352E+00 0. -1.
       -3    1    3    3    0  502 -0.14816300907E+03 -0.73529633842E+03  0.96634979645E+02  0.75627462739E+03  0.10100000352E+00 0.  1.
</event>
<event>
 5   0  0.1426929E-04  0.1502622E+04  0.7818609E-02  0.8882711E-01
        1   -1    0    0  501    0  0.00000000000E+00  0.00000000000E+00  0.19573906293E+04  0.19573906293E+04  0.50400001928E-02 0. -1.
       -1   -1    0    0    0  501  0.00000000000E+00  0.00000000000E+00 -0.28837787051E+03  0.28837787055E+03  0.50400001928E-02 0.  1.
    10030    2    1    2    0    0  0.00000000000E+00  0.00000000000E+00  0.16690127588E+04  0.22457684999E+04  0.15026218972E+04 0.  0.
        1    1    3    3  502    0 -0.16053611874E+03 -0.64102363046E+03  0.30024323813E+03  0.72582996790E+03  0.50400001928E-02 0.  1.
       -1    1    3    3    0  502  0.16053611874E+03  0.64102363046E+03  0.13687695207E+04  0.15199385320E+04  0.50400001928E-02 0. -1.
</event>
<event>
 5   0  0.2696040E-04  0.1495449E+04  0.7818609E-02  0.8887485E-01
        2   -1    0    0  501    0  0.00000000000E+00  0.00000000000E+00  0.15811798612E+04  0.15811798612E+04  0.25500000920E-02 0. -1.
       -2   -1    0    0    0  501  0.00000000000E+00  0.00000000000E+00 -0.35359164783E+03  0.35359164784E+03  0.25500000920E-02 0.  1.
    10030    2    1    2    0    0  0.00000000000E+00  0.00000000000E+00  0.12275882133E+04  0.19347715090E+04  0.14954490866E+04 0.  0.
        2    1    3    3  502    0 -0.17466415881E+03  0.20380274709E+03  0.15167038078E+04  0.15402706154E+04  0.25500000920E-02 0. -1.
       -2    1    3    3    0  502  0.17466415881E+03 -0.20380274709E+03 -0.28911559445E+03  0.39450089361E+03  0.25500000920E-02 0.  1.
</event>
<event>
 5   0  0.2734072E-04  0.1497365E+04  0.7818609E-02  0.8886207E-01
       -2   -1    0    0    0  501  0.00000000000E+00  0.00000000000E+00  0.38932515455E+03  0.38932515456E+03  0.25500000920E-02 0.  1.
        2   -1    0    0  501    0  0.00000000000E+00  0.00000000000E+00 -0.14397353199E+04  0.14397353199E+04  0.25500000920E-02 0. -1.
    10030    2    1    2    0    0  0.00000000000E+00  0.00000000000E+00 -0.10504101654E+04  0.18290604745E+04  0.14973645861E+04 0.  0.
        5    1    3    3  502    0  0.22002508106E+03  0.20346038409E+03  0.31284645078E+03  0.43324606860E+03  0.46999998093E+01 0.  1.
       -5    1    3    3    0  502 -0.22002508106E+03 -0.20346038409E+03 -0.13632566161E+04  0.13958144059E+04  0.46999998093E+01 0. -1.
</event>
<event>
 5   0  0.2734072E-04  0.1498858E+04  0.7818609E-02  0.8885213E-01
        2   -1    0    0  501    0  0.00000000000E+00  0.00000000000E+00  0.10699099350E+04  0.10699099351E+04  0.25500000920E-02 0.  1.
       -2   -1    0    0    0  501  0.00000000000E+00  0.00000000000E+00 -0.52494465458E+03  0.52494465459E+03  0.25500000920E-02 0. -1.
    10030    2    1    2    0    0  0.00000000000E+00  0.00000000000E+00  0.54496528046E+03  0.15948545896E+04  0.14988575667E+04 0.  0.
        5    1    3    3  502    0 -0.52070703698E+03 -0.48842454719E+03  0.30012885798E+02  0.71457485261E+03  0.46999998093E+01 0. -1.
       -5    1    3    3    0  502  0.52070703698E+03  0.48842454719E+03  0.51495239467E+03  0.88027973704E+03  0.46999998093E+01 0.  1.
</event>
<event>
 5   0  0.1427609E-04  0.1501051E+04  0.7818609E-02  0.8883754E-01
        1   -1    0    0  501    0  0.00000000000E+00  0.00000000000E+00  0.19268288041E+04  0.19268288041E+04  0.50400001928E-02 0. -1.
       -1   -1    0    0    0  501  0.00000000000E+00  0.00000000000E+00 -0.29233970142E+03  0.29233970146E+03  0.50400001928E-02 0.  1.
    10030    2    1    2    0    0  0.00000000000E+00  0.00000000000E+00  0.16344891026E+04  0.22191685055E+04  0.15010510415E+04 0.  0.
        4    1    3    3  502    0  0.14431727299E+02  0.69577894710E+03  0.12327022266E+04  0.14155822161E+04  0.12699999809E+01 0. -1.
       -4    1    3    3    0  502 -0.14431727299E+02 -0.69577894710E+03  0.40178687600E+03  0.80358628946E+03  0.12699999809E+01 0.  1.
</event>
<event>
 5   0  0.1484251E-04  0.1498918E+04  0.7818609E-02  0.8885173E-01
        1   -1    0    0  501    0  0.00000000000E+00  0.00000000000E+00  0.15165213337E+04  0.15165213337E+04  0.50400001928E-02 0. -1.
       -1   -1    0    0    0  501  0.00000000000E+00  0.00000000000E+00 -0.37037975323E+03  0.37037975326E+03  0.50400001928E-02 0.  1.
    10030    2    1    2    0    0  0.00000000000E+00  0.00000000000E+00  0.11461415805E+04  0.18869010870E+04  0.14989180063E+04 0.  0.
        5    1    3    3  502    0  0.12950817907E+03 -0.71759537075E+03  0.35521026972E+03  0.81111769201E+03  0.46999998093E+01 0. -1.
       -5    1    3    3    0  502 -0.12950817907E+03  0.71759537075E+03  0.79093131076E+03  0.10757833950E+04  0.46999998093E+01 0.  1.
</event>
<event>
 5   0  0.2618901E-04  0.1512737E+04  0.7818609E-02  0.8876027E-01
        2   -1    0    0  501    0  0.00000000000E+00  0.00000000000E+00  0.21554741414E+04  0.21554741414E+04  0.25500000920E-02 0.  1.
       -2   -1    0    0    0  501  0.00000000000E+00  0.00000000000E+00 -0.26541405025E+03  0.26541405026E+03  0.25500000920E-02 0. -1.
    10030    2    1    2    0    0  0.00000000000E+00  0.00000000000E+00  0.18900600911E+04  0.24208881917E+04  0.15127367545E+04 0.  0.
        1    1    3    3  502    0 -0.60253763805E+03 -0.20880538427E+03  0.29410042651E+03  0.70224380001E+03  0.50400001928E-02 0.  1.
       -1    1    3    3    0  502  0.60253763805E+03  0.20880538427E+03  0.15959596646E+04  0.17186443917E+04  0.50400001928E-02 0. -1.
</event>
<event>
 5   0  0.2641347E-04  0.1485737E+04  0.7818609E-02  0.8893994E-01
        2   -1    0    0  501    0  0.00000000000E+00  0.00000000000E+00  0.96735746847E+03  0.96735746847E+03  0.25500000920E-02 0.  1.
       -2   -1    0    0    0  501  0.00000000000E+00  0.00000000000E+00 -0.57047517549E+03  0.57047517549E+03  0.25500000920E-02 0. -1.
    10030    2    1    2    0    0  0.00000000000E+00  0.00000000000E+00  0.39688229298E+03  0.15378326440E+04  0.14857367487E+04 0.  0.
        4    1    3    3  502    0  0.24948254154E+03  0.61485364567E+03  0.54416688253E+03  0.85814087018E+03  0.12699999809E+01 0.  1.
       -4    1    3    3    0  502 -0.24948254154E+03 -0.61485364567E+03 -0.14728458955E+03  0.67969177378E+03  0.12699999809E+01 0. -1.
</event>
<event>
 5   0  0.2696040E-04  0.1473978E+04  0.7818609E-02  0.8901944E-01
        2   -1    0    0  501    0  0.00000000000E+00  0.00000000000E+00  0.68640747561E+03  0.68640747562E+03  0.25500000920E-02 0. -1.
       -2   -1    0    0    0  501  0.00000000000E+00  0.00000000000E+00 -0.79129827897E+03  0.79129827897E+03  0.25500000920E-02 0.  1.
    10030    2    1    2    0    0  0.00000000000E+00  0.00000000000E+00 -0.10489080335E+03  0.14777057546E+04  0.14739783637E+04 0.  0.
        2    1    3    3  502    0  0.21513056045E+03 -0.39852587054E+03  0.53044472739E+03  0.69747805439E+03  0.25500000920E-02 0. -1.
       -2    1    3    3    0  502 -0.21513056045E+03  0.39852587054E+03 -0.63533553074E+03  0.78022770020E+03  0.25500000920E-02 0.  1.
</event>
<event>
 5   0  0.2696040E-04  0.1497092E+04  0.7818609E-02  0.8886389E-01
        2   -1    0    0  501    0  0.00000000000E+00  0.00000000000E+00  0.74940782834E+03  0.74940782835E+03  0.25500000920E-02 0.  1.
       -2   -1    0    0    0  501  0.00000000000E+00  0.00000000000E+00 -0.74768473834E+03  0.74768473835E+03  0.25500000920E-02 0. -1.
    10030    2    1    2    0    0  0.00000000000E+00  0.00000000000E+00  0.17230899994E+01  0.14970925667E+04  0.14970915751E+04 0.  0.
        2    1    3    3  502    0  0.74587646275E+01 -0.35612121213E+03 -0.65750265462E+03  0.74778853410E+03  0.25500000920E-02 0. -1.
       -2    1    3    3    0  502 -0.74587646275E+01  0.35612121213E+03  0.65922574462E+03  0.74930403260E+03  0.25500000920E-02 0.  1.
</event>
<event>
 5   0  0.1004313E-04  0.1504578E+04  0.7818609E-02  0.8881414E-01
        4   -1    0    0  501    0  0.00000000000E+00  0.00000000000E+00  0.69568437271E+03  0.69568553193E+03  0.12699999809E+01 0. -1.
       -4   -1    0    0    0  501  0.00000000000E+00  0.00000000000E+00 -0.81349705212E+03  0.81349804346E+03  0.12699999809E+01 0.  1.
    10030    2    1    2    0    0  0.00000000000E+00  0.00000000000E+00 -0.11781267941E+03  0.15091835754E+04  0.15045780926E+04 0.  0.
        1    1    3    3  502    0 -0.13149743981E+03  0.60985044328E+03  0.36277275276E+03  0.72167389451E+03  0.50400001928E-02 0. -1.
       -1    1    3    3    0  502  0.13149743981E+03 -0.60985044328E+03 -0.48058543217E+03  0.78750968088E+03  0.50400001928E-02 0.  1.
</event>
<event>
 5   0  0.1474203E-04  0.1502976E+04  0.7818609E-02  0.8882476E-01
       -1   -1    0    0    0  501  0.00000000000E+00  0.00000000000E+00  0.97889702651E+03  0.97889702652E+03  0.50400001928E-02 0.  1.
        1   -1    0    0  501    0  0.00000000000E+00  0.00000000000E+00 -0.57690861700E+03  0.57690861702E+03  0.50400001928E-02 0. -1.
    10030    2    1    2    0    0  0.00000000000E+00  0.00000000000E+00  0.40198840951E+03  0.15558056435E+04  0.15029758877E+04 0.  0.
        3    1    3    3  502    0  0.73421791547E+02  0.39896424557E+03 -0.45383203873E+03  0.60870909168E+03  0.10100000352E+00 0. -1.
       -3    1    3    3    0  502 -0.73421791547E+02 -0.39896424557E+03  0.85582044824E+03  0.94709655186E+03  0.10100000352E+00 0.  1.
</event>
<event>
 5   0  0.2734072E-04  0.1499872E+04  0.7818609E-02  0.8884538E-01
       -2   -1    0    0    0  501  0.00000000000E+00  0.00000000000E+00  0.35717517031E+03  0.35717517032E+03  0.25500000920E-02 0. -1.
        2   -1    0    0  501    0  0.00000000000E+00  0.00000000000E+00 -0.15745889962E+04  0.15745889962E+04  0.25500000920E-02 0.  1.
    10030    2    1    2    0    0  0.00000000000E+00  0.00000000000E+00 -0.12174138259E+04  0.19317641666E+04  0.14998721184E+04 0.  0.
        5    1    3    3  502    0  0.60178661728E+03 -0.22872531390E+03 -0.11040575629E+04  0.12780561780E+04  0.46999998093E+01 0.  1.
       -5    1    3    3    0  502 -0.60178661728E+03  0.22872531390E+03 -0.11335626306E+03  0.65370798857E+03  0.46999998093E+01 0. -1.
</event>
<event>
 5   0  0.2618901E-04  0.1514476E+04  0.7818609E-02  0.8874883E-01
       -2   -1    0    0    0  501  0.00000000000E+00  0.00000000000E+00  0.30034478696E+03  0.30034478697E+03  0.25500000920E-02 0. -1.
        2   -1    0    0  501    0  0.00000000000E+00  0.00000000000E+00 -0.19091715325E+04  0.19091715325E+04  0.25500000920E-02 0.  1.
    10030    2    1    2    0    0  0.00000000000E+00  0.00000000000E+00 -0.16088267455E+04  0.22095163195E+04  0.15144764339E+04 0.  0.
        1    1    3    3  502    0  0.47844356673E+03  0.58656056306E+03 -0.83529919979E+03  0.11272472195E+04  0.50400001928E-02 0. -1.
       -1    1    3    3    0  502 -0.47844356673E+03 -0.58656056306E+03 -0.77352754574E+03  0.10822691000E+04  0.50400001928E-02 0.  1.
</event>
<event>
 5   0  0.1427609E-04  0.1495256E+04  0.7818609E-02  0.8887614E-01
        1   -1    0    0  501    0  0.00000000000E+00  0.00000000000E+00  0.18828642390E+04  0.18828642390E+04  0.50400001928E-02 0. -1.
       -1   -1    0    0    0  501  0.00000000000E+00  0.00000000000E+00 -0.29686021458E+03  0.29686021463E+03  0.50400001928E-02 0.  1.
    10030    2    1    2    0    0  0.00000000000E+00  0.00000000000E+00  0.15860040244E+04  0.21797244536E+04  0.14952558070E+04 0.  0.
        4    1    3    3  502    0  0.21417466861E+03 -0.35173608279E+03  0.17026219803E+04  0.17517169524E+04  0.12699999809E+01 0. -1.
       -4    1    3    3    0  502 -0.21417466861E+03  0.35173608279E+03 -0.11661795585E+03  0.42800750127E+03  0.12699999809E+01 0.  1.
</event>
<event>
 5   0  0.1474203E-04  0.1474561E+04  0.7818609E-02  0.8901548E-01
       -1   -1    0    0    0  501  0.00000000000E+00  0.00000000000E+00  0.32908834467E+03  0.32908834470E+03  0.50400001928E-02 0. -1.
        1   -1    0    0  501    0  0.00000000000E+00  0.00000000000E+00 -0.16517822594E+04  0.16517822595E+04  0.50400001928E-02 0.  1.
    10030    2    1    2    0    0  0.00000000000E+00  0.00000000000E+00 -0.13226939148E+04  0.19808706042E+04  0.14745606662E+04 0.  0.
        3    1    3    3  502    0  0.44954973620E+02  0.45481970696E+03 -0.14385268475E+04  0.15093844496E+04  0.10100000352E+00 0.  1.
       -3    1    3    3    0  502 -0.44954973620E+02 -0.45481970696E+03  0.11583293268E+03  0.47148615460E+03  0.10100000352E+00 0. -1.
</event>
<event>
 5   0  0.2734072E-04  0.1500241E+04  0.7818609E-02  0.8884293E-01
       -2   -1    0    0    0  501  0.00000000000E+00  0.00000000000E+00  0.64305545730E+03  0.64305545731E+03  0.25500000920E-02 0.  1.
        2   -1    0    0  501    0  0.00000000000E+00  0.00000000000E+00 -0.87501068630E+03  0.87501068631E+03  0.25500000920E-02 0. -1.
    10030    2    1    2    0    0  0.00000000000E+00  0.00000000000E+00 -0.23195522900E+03  0.15180661436E+04  0.15002405101E+04 0.  0.
        5    1    3    3  502    0 -0.66518525283E+03  0.24919022880E+03 -0.35986237717E+03  0.79629781565E+03  0.46999998093E+01 0. -1.
       -5    1    3    3    0  502  0.66518525283E+03 -0.24919022880E+03  0.12790714817E+03  0.72176832797E+03  0.46999998093E+01 0.  1.
</event>
<event>
 5   0  0.2734072E-04  0.1492542E+04  0.7818609E-02  0.8889428E-01
       -2   -1    0    0    0  501  0.00000000000E+00  0.00000000000E+00  0.43310629650E+03  0.43310629651E+03  0.25500000920E-02 0.  1.
        2   -1    0    0  501    0  0.00000000000E+00  0.00000000000E+00 -0.12858738120E+04  0.12858738120E+04  0.25500000920E-02 0. -1.
    10030    2    1    2    0    0  0.00000000000E+00  0.00000000000E+00 -0.85276751551E+03  0.17189801085E+04  0.14925415163E+04 0.  0.
        5    1    3    3  502    0 -0.60813521983E+03 -0.42044826269E+03 -0.30953865683E+03  0.80152445831E+03  0.46999998093E+01 0. -1.
       -5    1    3    3    0  502  0.60813521983E+03  0.42044826269E+03 -0.54322885868E+03  0.91745565021E+03  0.46999998093E+01 0.  1.
</event>
<event>
 5   0  0.2696040E-04  0.1500481E+04  0.7818609E-02  0.8884133E-01
       -2   -1    0    0    0  501  0.00000000000E+00  0.00000000000E+00  0.55818832101E+03  0.55818832102E+03  0.25500000920E-02 0.  1.
        2   -1    0    0  501    0  0.00000000000E+00  0.00000000000E+00 -0.10083710701E+04  0.10083710701E+04  0.25500000920E-02 0. -1.
    10030    2    1    2    0    0  0.00000000000E+00  0.00000000000E+00 -0.45018274908E+03  0.15665593911E+04  0.15004811956E+04 0.  0.
        2    1    3    3  502    0  0.25135776104E+03 -0.19534516737E+02 -0.96281976315E+03  0.99528097425E+03  0.25500000920E-02 0. -1.
       -2    1    3    3    0  502 -0.25135776104E+03  0.19534516737E+02  0.51263701407E+03  0.57127841687E+03  0.25500000920E-02 0.  1.
</event>
<event>
 5   0  0.2641347E-04  0.1469253E+04  0.7818609E-02  0.8905161E-01
        2   -1    0    0  501    0  0.00000000000E+00  0.00000000000E+00  0.61434173655E+03  0.61434173656E+03  0.25500000920E-02 0.  1.
       -2   -1    0    0    0  501  0.00000000000E+00  0.00000000000E+00 -0.87846178854E+03  0.87846178854E+03  0.25500000920E-02 0. -1.
    10030    2    1    2    0    0  0.00000000000E+00  0.00000000000E+00 -0.26412005198E+03  0.14928035251E+04  0.14692525184E+04 0.  0.
        4    1    3    3  502    0 -0.11193403826E+03 -0.37503947333E+02 -0.86876065084E+03  0.87674537714E+03  0.12699999809E+01 0. -1.
       -4    1    3    3    0  502  0.11193403826E+03  0.37503947333E+02  0.60464059886E+03  0.61605814796E+03  0.12699999809E+01 0.  1.
</event>
<event>
 5   0  0.1426929E-04  0.1512907E+04  0.7818609E-02  0.8875915E-01
        1   -1    0    0  501    0  0.00000000000E+00  0.00000000000E+00  0.82248379420E+03  0.82248379421E+03  0.50400001928E-02 0. -1.
       -1   -1    0    0    0  501  0.00000000000E+00  0.00000000000E+00 -0.69572467692E+03  0.69572467694E+03  0.50400001928E-02 0.  1.
    10030    2    1    2    0    0  0.00000000000E+00  0.00000000000E+00  0.12675911728E+03  0.15182084711E+04  0.15129074949E+04 0.  0.
        1    1    3    3  502    0  0.12280438465E+03  0.59678579317E+03  0.51326731934E+03  0.79666651803E+03  0.50400001928E-02 0.  1.
       -1    1    3    3    0  502 -0.12280438465E+03 -0.59678579317E+03 -0.38650820206E+03  0.72154195312E+03  0.50400001928E-02 0. -1.
</event>
<event>
 5   0  0.1426929E-04  0.1483017E+04  0.7818609E-02  0.8895825E-01
       -1   -1    0    0    0  501  0.00000000000E+00  0.00000000000E+00  0.72033005456E+03  0.72033005457E+03  0.50400001928E-02 0. -1.
        1   -1    0    0  501    0  0.00000000000E+00  0.00000000000E+00 -0.76331010033E+03  0.76331010035E+03  0.50400001928E-02 0.  1.
    10030    2    1    2    0    0  0.00000000000E+00  0.00000000000E+00 -0.42980045777E+02  0.14836401549E+04  0.14830174729E+04 0.  0.
        1    1    3    3  502    0  0.47872754816E+03  0.12682431298E+03 -0.57360101850E+03  0.75781435733E+03  0.50400001928E-02 0.  1.
       -1    1    3    3    0  502 -0.47872754816E+03 -0.12682431298E+03  0.53062097272E+03  0.72582579759E+03  0.50400001928E-02 0. -1.
</event>
<event>
 5   0  0.1474203E-04  0.1477622E+04  0.7818609E-02  0.8899472E-01
        1   -1    0    0  501    0  0.00000000000E+00  0.00000000000E+00  0.13340829340E+04  0.13340829340E+04  0.50400001928E-02 0. -1.
       -1   -1    0    0    0  501  0.00000000000E+00  0.00000000000E+00 -0.40915137366E+03  0.40915137369E+03  0.50400001928E-02 0.  1.
    10030    2    1    2    0    0  0.00000000000E+00  0.00000000000E+00  0.92493156037E+03  0.17432343077E+04  0.14776222319E+04 0.  0.
        3    1    3    3  502    0 -0.17621193086E+03 -0.16255941806E+03  0.12869168780E+04  0.13090573975E+04  0.10100000352E+00 0. -1.
       -3    1    3    3    0  502  0.17621193086E+03  0.16255941806E+03 -0.36198531762E+03  0.43417691020E+03  0.10100000352E+00 0.  1.
</event>
<event>
 5   0  0.2618901E-04  0.1540968E+04  0.7818609E-02  0.8857658E-01
        2   -1    0    0  501    0  0.00000000000E+00  0.00000000000E+00  0.20641390101E+04  0.20641390101E+04  0.25500000920E-02 0.  1.
       -2   -1    0    0    0  501  0.00000000000E+00  0.00000000000E+00 -0.28759948459E+03  0.28759948460E+03  0.25500000920E-02 0. -1.
    10030    2    1    2    0    0  0.00000000000E+00  0.00000000000E+00  0.17765395255E+04  0.23517384947E+04  0.15409676381E+04 0.  0.
        1    1    3    3  502    0 -0.30243513411E+03 -0.67801766849E+03  0.12027826249E+04  0.14134571136E+04  0.50400001928E-02 0.  1.
       -1    1    3    3    0  502  0.30243513411E+03  0.67801766849E+03  0.57375690056E+03  0.93828138108E+03  0.50400001928E-02 0. -1.
</event>
<event>
 5   0  0.1004313E-04  0.1499084E+04  0.7818609E-02  0.8885062E-01
        3   -1    0    0  501    0  0.00000000000E+00  0.00000000000E+00  0.51243194443E+03  0.51243195438E+03  0.10100000352E+00 0. -1.
       -3   -1    0    0    0  501  0.00000000000E+00  0.00000000000E+00 -0.10963668593E+04  0.10963668639E+04  0.10100000352E+00 0.  1.
    10030    2    1    2    0    0  0.00000000000E+00  0.00000000000E+00 -0.58393491483E+03  0.16087988183E+04  0.14990842715E+04 0.  0.
        1    1    3    3  502    0 -0.30124045769E+03  0.31834990513E+02 -0.10277502534E+04  0.10714615548E+04  0.50400001928E-02 0.  1.
       -1    1    3    3    0  502  0.30124045769E+03 -0.31834990513E+02  0.44381533858E+03  0.53733726351E+03  0.50400001928E-02 0. -1.
</event>
<event>
 5   0  0.2641347E-04  0.1504884E+04  0.7818609E-02  0.8881211E-01
        2   -1    0    0  501    0  0.00000000000E+00  0.00000000000E+00  0.13800578967E+04  0.13800578967E+04  0.25500000920E-02 0. -1.
       -2   -1    0    0    0  501  0.00000000000E+00  0.00000000000E+00 -0.41025032100E+03  0.41025032101E+03  0.25500000920E-02 0.  1.
    10030    2    1    2    0    0  0.00000000000E+00  0.00000000000E+00  0.96980757567E+03  0.17903082177E+04  0.15048843080E+04 0.  0.
        4    1    3    3  502    0 -0.57788751386E+03  0.48124010010E+03  0.51456368055E+03  0.91122083320E+03  0.12699999809E+01 0.  1.
       -4    1    3    3    0  502  0.57788751386E+03 -0.48124010010E+03  0.45524389512E+03  0.87908738448E+03  0.12699999809E+01 0. -1.
</event>
<event>
 5   0  0.1427609E-04  0.1500216E+04  0.7818609E-02  0.8884310E-01
       -1   -1    0    0    0  501  0.00000000000E+00  0.00000000000E+00  0.30373991777E+03  0.30373991781E+03  0.50400001928E-02 0. -1.
        1   -1    0    0  501    0  0.00000000000E+00  0.00000000000E+00 -0.18524456767E+04  0.18524456767E+04  0.50400001928E-02 0.  1.
    10030    2    1    2    0    0  0.00000000000E+00  0.00000000000E+00 -0.15487057589E+04  0.21561855945E+04  0.15002155813E+04 0.  0.
        4    1    3    3  502    0 -0.68510274399E+03  0.29267742296E+03 -0.89993141063E+03  0.11682910598E+04  0.12699999809E+01 0.  1.
       -4    1    3    3    0  502  0.68510274399E+03 -0.29267742296E+03 -0.64877434829E+03  0.98789453467E+03  0.12699999809E+01 0. -1.
</event>
<event>
 5   0  0.1484251E-04  0.1489247E+04  0.7818609E-02  0.8891635E-01
       -1   -1    0    0    0  501  0.00000000000E+00  0.00000000000E+00  0.54567653792E+03  0.54567653794E+03  0.50400001928E-02 0. -1.
        1   -1    0    0  501    0  0.00000000000E+00  0.00000000000E+00 -0.10161044575E+04  0.10161044575E+04  0.50400001928E-02 0.  1.
    10030    2    1    2    0    0  0.00000000000E+00  0.00000000000E+00 -0.47042791959E+03  0.15617809955E+04  0.14892472764E+04 0.  0.
        5    1    3    3  502    0 -0.37584497926E+03 -0.55826176900E+02  0.43633911056E+03  0.57861033508E+03  0.46999998093E+01 0. -1.
       -5    1    3    3    0  502  0.37584497926E+03  0.55826176900E+02 -0.90676703015E+03  0.98317066038E+03  0.46999998093E+01 0.  1.
</event>
<event>
 5   0  0.2618901E-04  0.1499001E+04  0.7818609E-02  0.8885117E-01
       -2   -1    0    0    0  501  0.00000000000E+00  0.00000000000E+00  0.47533326960E+03  0.47533326961E+03  0.25500000920E-02 0. -1.
        2   -1    0    0  501    0  0.00000000000E+00  0.00000000000E+00 -0.11818048814E+04  0.11818048814E+04  0.25500000920E-02 0.  1.
    10030    2    1    2    0    0  0.00000000000E+00  0.00000000000E+00 -0.70647161184E+03  0.16571381511E+04  0.14990012386E+04 0.  0.
        1    1    3    3  502    0  0.24716847210E+03  0.23177523431E+01 -0.11354494289E+04  0.11620426116E+04  0.50400001928E-02 0.  1.
       -1    1    3    3    0  502 -0.24716847210E+03 -0.23177523431E+01  0.42897781708E+03  0.49509553942E+03  0.50400001928E-02 0. -1.
</event>
<event>
 5   0  0.1474203E-04  0.1489515E+04  0.7818609E-02  0.8891456E-01
        1   -1    0    0  501    0  0.00000000000E+00  0.00000000000E+00  0.54676757636E+03  0.54676757638E+03  0.50400001928E-02 0.  1.
       -1   -1    0    0    0  501  0.00000000000E+00  0.00000000000E+00 -0.10144411647E+04  0.10144411648E+04  0.50400001928E-02 0. -1.
    10030    2    1    2    0    0  0.00000000000E+00  0.00000000000E+00 -0.46767358839E+03  0.15612087411E+04  0.14895147358E+04 0.  0.
        3    1    3    3  502    0 -0.10376489461E+03  0.61882809681E+03 -0.65433018910E+03  0.90656680577E+03  0.10100000352E+00 0. -1.
       -3    1    3    3    0  502  0.10376489461E+03 -0.61882809681E+03  0.18665660071E+03  0.65464193537E+03  0.10100000352E+00 0.  1.
</event>
<event>
 5   0  0.2696040E-04  0.1517976E+04  0.7818609E-02  0.8872586E-01
        2   -1    0    0  501    0  0.00000000000E+00  0.00000000000E+00  0.13115762287E+04  0.13115762287E+04  0.25500000920E-02 0.  1.
       -2   -1    0    0    0  501  0.00000000000E+00  0.00000000000E+00 -0.43921400510E+03  0.43921400511E+03  0.25500000920E-02 0. -1.
    10030    2    1    2    0    0  0.00000000000E+00  0.00000000000E+00  0.87236222360E+03  0.17507902338E+04  0.15179758212E+04 0.  0.
        2    1    3    3  502    0 -0.18816466684E+03 -0.66408565100E+03  0.80026484592E+03  0.10568062818E+04  0.25500000920E-02 0.  1.
       -2    1    3    3    0  502  0.18816466684E+03  0.66408565100E+03  0.72097377684E+02  0.69398395197E+03  0.25500000920E-02 0. -1.
</event>
<event>
 5   0  0.2696040E-04  0.1506941E+04  0.7818609E-02  0.8879850E-01
        2   -1    0    0  501    0  0.00000000000E+00  0.00000000000E+00  0.78423442772E+03  0.78423442772E+03  0.25500000920E-02 0.  1.
       -2   -1    0    0    0  501  0.00000000000E+00  0.00000000000E+00 -0.72391376365E+03  0.72391376366E+03  0.25500000920E-02 0. -1.
    10030    2    1    2    0    0  0.00000000000E+00  0.00000000000E+00  0.60320664066E+02  0.15081481914E+04  0.15069414005E+04 0.  0.
        2    1    3    3  502    0  0.20992100028E+03 -0.21897884278E+03 -0.66010175006E+03  0.72646602149E+03  0.25500000920E-02 0. -1.
       -2    1    3    3    0  502 -0.20992100028E+03  0.21897884278E+03  0.72042241413E+03  0.78168216989E+03  0.25500000920E-02 0.  1.
</event>
<event>
 5   0  0.2641347E-04  0.1533338E+04  0.7818609E-02  0.8862581E-01
        2   -1    0    0  501    0  0.00000000000E+00  0.00000000000E+00  0.20530353537E+04  0.20530353537E+04  0.25500000920E-02 0. -1.
       -2   -1    0    0    0  501  0.00000000000E+00  0.00000000000E+00 -0.28629865744E+03  0.28629865745E+03  0.25500000920E-02 0.  1.
    10030    2    1    2    0    0  0.00000000000E+00  0.00000000000E+00  0.17667366963E+04  0.23393340111E+04  0.15333378825E+04 0.  0.
        4    1    3    3  502    0  0.27043755091E+03  0.35785046013E+03  0.18319562051E+04  0.18860696093E+04  0.12699999809E+01 0. -1.
       -4    1    3    3    0  502 -0.27043755091E+03 -0.35785046013E+03 -0.65219508842E+02  0.45326440186E+03  0.12699999809E+01 0.  1.
</event>
<event>
 5   0  0.2646718E-04  0.1487120E+04  0.7818609E-02  0.8893064E-01
        2   -1    0    0  501    0  0.00000000000E+00  0.00000000000E+00  0.61133661716E+03  0.61133661717E+03  0.25500000920E-02 0. -1.
       -2   -1    0    0    0  501  0.00000000000E+00  0.00000000000E+00 -0.90438104831E+03  0.90438104831E+03  0.25500000920E-02 0.  1.
    10030    2    1    2    0    0  0.00000000000E+00  0.00000000000E+00 -0.29304443115E+03  0.15157176655E+04  0.14871197002E+04 0.  0.
        3    1    3    3  502    0 -0.38032407816E+02  0.96463304655E+02  0.60393156265E+03  0.61276828880E+03  0.10100000352E+00 0. -1.
       -3    1    3    3    0  502  0.38032407816E+02 -0.96463304655E+02 -0.89697599380E+03  0.90294937668E+03  0.10100000352E+00 0.  1.
</event>
<event>
 5   0  0.2618901E-04  0.1501865E+04  0.7818609E-02  0.8883214E-01
       -2   -1    0    0    0  501  0.00000000000E+00  0.00000000000E+00  0.67330769469E+03  0.67330769470E+03  0.25500000920E-02 0. -1.
        2   -1    0    0  501    0  0.00000000000E+00  0.00000000000E+00 -0.83750667294E+03  0.83750667295E+03  0.25500000920E-02 0.  1.
    10030    2    1    2    0    0  0.00000000000E+00  0.00000000000E+00 -0.16419897825E+03  0.15108143676E+04  0.15018650902E+04 0.  0.
        1    1    3    3  502    0  0.45012259322E+03  0.13614677351E+03  0.50684052975E+03  0.69139975086E+03  0.50400001928E-02 0. -1.
       -1    1    3    3    0  502 -0.45012259322E+03 -0.13614677351E+03 -0.67103950801E+03  0.81941461678E+03  0.50400001928E-02 0.  1.
</event>
<event>
 5   0  0.2734072E-04  0.1503266E+04  0.7818609E-02  0.8882284E-01
       -2   -1    0    0    0  501  0.00000000000E+00  0.00000000000E+00  0.33231460251E+03  0.33231460252E+03  0.25500000920E-02 0.  1.
        2   -1    0    0  501    0  0.00000000000E+00  0.00000000000E+00 -0.17000532349E+04  0.17000532349E+04  0.25500000920E-02 0. -1.
    10030    2    1    2    0    0  0.00000000000E+00  0.00000000000E+00 -0.13677386324E+04  0.20323678374E+04  0.15032664634E+04 0.  0.
        5    1    3    3  502    0 -0.19747005108E+03  0.72024845131E+03 -0.79841356402E+03  0.10932696657E+04  0.46999998093E+01 0. -1.
       -5    1    3    3    0  502  0.19747005108E+03 -0.72024845131E+03 -0.56932506838E+03  0.93909817174E+03  0.46999998093E+01 0.  1.
</event>
<event>
 5   0  0.1427609E-04  0.1494562E+04  0.7818609E-02  0.8888077E-01
       -1   -1    0    0    0  501  0.00000000000E+00  0.00000000000E+00  0.59201841555E+03  0.59201841557E+03  0.50400001928E-02 0.  1.
        1   -1    0    0  501    0  0.00000000000E+00  0.00000000000E+00 -0.94326219659E+03  0.94326219660E+03  0.50400001928E-02 0. -1.
    10030    2    1    2    0    0  0.00000000000E+00  0.00000000000E+00 -0.35124378104E+03  0.15352806122E+04  0.14945615961E+04 0.  0.
        4    1    3    3  502    0  0.74636752941E+03  0.20296724866E+02 -0.20729256867E+03  0.77488597092E+03  0.12699999809E+01 0.  1.
       -4    1    3    3    0  502 -0.74636752941E+03 -0.20296724866E+02 -0.14395121237E+03  0.76039464125E+03  0.12699999809E+01 0. -1.
</event>
<event>
 5   0  0.1484251E-04  0.1506216E+04  0.7818609E-02  0.8880330E-01
       -1   -1    0    0    0  501  0.00000000000E+00  0.00000000000E+00  0.20143890087E+03  0.20143890093E+03  0.50400001928E-02 0. -1.
        1   -1    0    0  501    0  0.00000000000E+00  0.00000000000E+00 -0.28156029139E+04  0.28156029139E+04  0.50400001928E-02 0.  1.
    10030    2    1    2    0    0  0.00000000000E+00  0.00000000000E+00 -0.26141640130E+04  0.30170418148E+04  0.15062163940E+04 0.  0.
        5    1    3    3  502    0  0.58754748114E+03 -0.24351381383E+03 -0.21148861965E+04  0.22084557352E+04  0.46999998093E+01 0.  1.
       -5    1    3    3    0  502 -0.58754748114E+03  0.24351381383E+03 -0.49927781648E+03  0.80858607961E+03  0.46999998093E+01 0. -1.
</event>
<event>
 5   0  0.2641347E-04  0.1497094E+04  0.7818609E-02  0.8886388E-01
       -2   -1    0    0    0  501  0.00000000000E+00  0.00000000000E+00  0.22308132758E+03  0.22308132759E+03  0.25500000920E-02 0. -1.
        2   -1    0    0  501    0  0.00000000000E+00  0.00000000000E+00 -0.25117419281E+04  0.25117419281E+04  0.25500000920E-02 0.  1.
    10030    2    1    2    0    0  0.00000000000E+00  0.00000000000E+00 -0.22886606005E+04  0.27348232557E+04  0.14970941505E+04 0.  0.
        4    1    3    3  502    0 -0.23509039317E+03 -0.48326996726E+03 -0.20961793319E+04  0.21639747592E+04  0.12699999809E+01 0.  1.
       -4    1    3    3    0  502  0.23509039317E+03  0.48326996726E+03 -0.19248126859E+03  0.57084849643E+03  0.12699999809E+01 0. -1.
</event>
<event>
 5   0  0.2696040E-04  0.1501327E+04  0.7818609E-02  0.8883571E-01
       -2   -1    0    0    0  501  0.00000000000E+00  0.00000000000E+00  0.55836411110E+03  0.55836411111E+03  0.25500000920E-02 0. -1.
        2   -1    0    0  501    0  0.00000000000E+00  0.00000000000E+00 -0.10091907189E+04  0.10091907189E+04  0.25500000920E-02 0.  1.
    10030    2    1    2    0    0  0.00000000000E+00  0.00000000000E+00 -0.45082660776E+03  0.15675548300E+04  0.15013272510E+04 0.  0.
        2    1    3    3  502    0 -0.33863997690E+03  0.15743009128E+02 -0.92471240592E+03  0.98489487255E+03  0.25500000920E-02 0.  1.
       -2    1    3    3    0  502  0.33863997690E+03 -0.15743009128E+02  0.47388579816E+03  0.58265995743E+03  0.25500000920E-02 0. -1.
</event>
<event>
 5   0  0.1484251E-04  0.1481842E+04  0.7818609E-02  0.8896618E-01
       -1   -1    0    0    0  501  0.00000000000E+00  0.00000000000E+00  0.27519729694E+03  0.27519729698E+03  0.50400001928E-02 0.  1.
        1   -1    0    0  501    0  0.00000000000E+00  0.00000000000E+00 -0.19948007845E+04  0.19948007846E+04  0.50400001928E-02 0. -1.
    10030    2    1    2    0    0  0.00000000000E+00  0.00000000000E+00 -0.17196034876E+04  0.22699980815E+04  0.14818418052E+04 0.  0.
        5    1    3    3  502    0 -0.61430102488E+03  0.76508780110E+02 -0.23619013578E+03  0.66259128642E+03  0.46999998093E+01 0.  1.
       -5    1    3    3    0  502  0.61430102488E+03 -0.76508780110E+02 -0.14834133518E+04  0.16074067951E+04  0.46999998093E+01 0. -1.
</event>
<event>
 5   0  0.1443750E-04  0.1496468E+04  0.7818609E-02  0.8886805E-01
        1   -1    0    0  501    0  0.00000000000E+00  0.00000000000E+00  0.56926932788E+03  0.56926932790E+03  0.50400001928E-02 0. -1.
       -1   -1    0    0    0  501  0.00000000000E+00  0.00000000000E+00 -0.98346115565E+03  0.98346115566E+03  0.50400001928E-02 0.  1.
    10030    2    1    2    0    0  0.00000000000E+00  0.00000000000E+00 -0.41419182777E+03  0.15527304836E+04  0.14964682036E+04 0.  0.
        2    1    3    3  502    0  0.33763884372E+03 -0.31036712596E+03 -0.82053106463E+03  0.93999945196E+03  0.25500000920E-02 0.  1.
       -2    1    3    3    0  502 -0.33763884372E+03  0.31036712596E+03  0.40633923686E+03  0.61273103160E+03  0.25500000920E-02 0. -1.
</event>
<event>
 5   0  0.2734072E-04  0.1498134E+04  0.7818609E-02  0.8885694E-01
       -2   -1    0    0    0  501  0.00000000000E+00  0.00000000000E+00  0.73894991871E+03  0.73894991872E+03  0.25500000920E-02 0.  1.
        2   -1    0    0  501    0  0.00000000000E+00  0.00000000000E+00 -0.75932309024E+03  0.75932309024E+03  0.25500000920E-02 0. -1.
    10030    2    1    2    0    0  0.00000000000E+00  0.00000000000E+00 -0.20373171527E+02  0.14982730090E+04  0.14981344877E+04 0.  0.
        5    1    3    3  502    0 -0.28419183546E+03 -0.47629374028E+03  0.49330700158E+03  0.74229011456E+03  0.46999998093E+01 0.  1.
       -5    1    3    3    0  502  0.28419183546E+03  0.47629374028E+03 -0.51368017310E+03  0.75598289439E+03  0.46999998093E+01 0. -1.
</event>
<event>
 5   0  0.1443750E-04  0.1502452E+04  0.7818609E-02  0.8882824E-01
        1   -1    0    0  501    0  0.00000000000E+00  0.00000000000E+00  0.66931354926E+03  0.66931354928E+03  0.50400001928E-02 0. -1.
       -1   -1    0    0    0  501  0.00000000000E+00  0.00000000000E+00 -0.84316328628E+03  0.84316328629E+03  0.50400001928E-02 0.  1.
    10030    2    1    2    0    0  0.00000000000E+00  0.00000000000E+00 -0.17384973701E+03  0.15124768356E+04  0.15024521447E+04 0.  0.
        2    1    3    3  502    0 -0.47004202724E+03  0.38290842470E+03  0.35963638359E+03  0.70490899944E+03  0.25500000920E-02 0. -1.
       -2    1    3    3    0  502  0.47004202724E+03 -0.38290842470E+03 -0.53348612060E+03  0.80756783614E+03  0.25500000920E-02 0.  1.
</event>
<event>
 5   0  0.1474203E-04  0.1497863E+04  0.7818609E-02  0.8885875E-01
       -1   -1    0    0    0  501  0.00000000000E+00  0.00000000000E+00  0.18769269843E+04  0.18769269844E+04  0.50400001928E-02 0. -1.
        1   -1    0    0  501    0  0.00000000000E+00  0.00000000000E+00 -0.29883875661E+03  0.29883875665E+03  0.50400001928E-02 0.  1.
    10030    2    1    2    0    0  0.00000000000E+00  0.00000000000E+00  0.15780882277E+04  0.21757657410E+04  0.14978631797E+04 0.  0.
        3    1    3    3  502    0  0.36393926317E+03 -0.45677661301E+03  0.10803070144E+03  0.59394217237E+03  0.10100000352E+00 0.  1.
       -3    1    3    3    0  502 -0.36393926317E+03  0.45677661301E+03  0.14700575263E+04  0.15818235686E+04  0.10100000352E+00 0. -1.
</event>
<event>
 5   0  0.1426929E-04  0.1498643E+04  0.7818609E-02  0.8885356E-01
        1   -1    0    0  501    0  0.00000000000E+00  0.00000000000E+00  0.13994344479E+04  0.13994344479E+04  0.50400001928E-02 0.  1.
       -1   -1    0    0    0  501  0.00000000000E+00  0.00000000000E+00 -0.40122126854E+03  0.40122126857E+03  0.50400001928E-02 0. -1.
    10030    2    1    2    0    0  0.00000000000E+00  0.00000000000E+00  0.99821317933E+03  0.18006557164E+04  0.14986432056E+04 0.  0.
        1    1    3    3  502    0 -0.23209397837E+03 -0.67237987040E+03  0.78221928997E+03  0.10572744783E+04  0.50400001928E-02 0.  1.
       -1    1    3    3    0  502  0.23209397837E+03  0.67237987040E+03  0.21599388935E+03  0.74338123811E+03  0.50400001928E-02 0. -1.
</event>
<event>
 5   0  0.2618901E-04  0.1505178E+04  0.7818609E-02  0.8881017E-01
       -2   -1    0    0    0  501  0.00000000000E+00  0.00000000000E+00  0.55718767706E+03  0.55718767707E+03  0.25500000920E-02 0. -1.
        2   -1    0    0  501    0  0.00000000000E+00  0.00000000000E+00 -0.10165166369E+04  0.10165166369E+04  0.25500000920E-02 0.  1.
    10030    2    1    2    0    0  0.00000000000E+00  0.00000000000E+00 -0.45932895980E+03  0.15737043139E+04  0.15051784527E+04 0.  0.
        1    1    3    3  502    0  0.10235711369E+03 -0.70038668129E+03 -0.49698434490E+03  0.86487682427E+03  0.50400001928E-02 0. -1.
       -1    1    3    3    0  502 -0.10235711369E+03  0.70038668129E+03  0.37655385103E+02  0.70882748966E+03  0.50400001928E-02 0.  1.
</event>
<event>
 5   0  0.1004313E-04  0.1500409E+04  0.7818609E-02  0.8884181E-01
        3   -1    0    0  501    0  0.00000000000E+00  0.00000000000E+00  0.10781827154E+04  0.10781827202E+04  0.10100000352E+00 0. -1.
       -3   -1    0    0    0  501  0.00000000000E+00  0.00000000000E+00 -0.52199547140E+03  0.52199548117E+03  0.10100000352E+00 0.  1.
    10030    2    1    2    0    0  0.00000000000E+00  0.00000000000E+00  0.55618724404E+03  0.16001782013E+04  0.15004086195E+04 0.  0.
        3    1    3    3  502    0 -0.14987391858E+02  0.10248541051E+03  0.10705206170E+04  0.10755195409E+04  0.10100000352E+00 0. -1.
       -3    1    3    3    0  502  0.14987391858E+02 -0.10248541051E+03 -0.51433337292E+03  0.52465866045E+03  0.10100000352E+00 0.  1.
</event>
<event>
 5   0  0.2646718E-04  0.1499631E+04  0.7818609E-02  0.8884698E-01
        2   -1    0    0  501    0  0.00000000000E+00  0.00000000000E+00  0.47633072968E+03  0.47633072969E+03  0.25500000920E-02 0. -1.
       -2   -1    0    0    0  501  0.00000000000E+00  0.00000000000E+00 -0.11803214792E+04  0.11803214792E+04  0.25500000920E-02 0.  1.
    10030    2    1    2    0    0  0.00000000000E+00  0.00000000000E+00 -0.70399074953E+03  0.16566522089E+04  0.14996311433E+04 0.  0.
        3    1    3    3  502    0  0.53296926712E+02 -0.29338871964E+03  0.40801206208E+03  0.50536259875E+03  0.10100000352E+00 0. -1.
       -3    1    3    3    0  502 -0.53296926712E+02  0.29338871964E+03 -0.11120028116E+04  0.11512896102E+04  0.10100000352E+00 0.  1.
</event>
<event>
 5   0  0.2734072E-04  0.1512302E+04  0.7818609E-02  0.8876313E-01
        2   -1    0    0  501    0  0.00000000000E+00  0.00000000000E+00  0.11971723428E+04  0.11971723428E+04  0.25500000920E-02 0.  1.
       -2   -1    0    0    0  501  0.00000000000E+00  0.00000000000E+00 -0.47759598201E+03  0.47759598202E+03  0.25500000920E-02 0. -1.
    10030    2    1    2    0    0  0.00000000000E+00  0.00000000000E+00  0.71957636079E+03  0.16747683248E+04  0.15123024839E+04 0.  0.
        5    1    3    3  502    0 -0.12474154466E+03  0.59087730322E+03 -0.14411798706E+03  0.62087722185E+03  0.46999998093E+01 0. -1.
       -5    1    3    3    0  502  0.12474154466E+03 -0.59087730322E+03  0.86369434785E+03  0.10538911030E+04  0.46999998093E+01 0.  1.
</event>
<event>
 5   0  0.2641347E-04  0.1501769E+04  0.7818609E-02  0.8883277E-01
       -2   -1    0    0    0  501  0.00000000000E+00  0.00000000000E+00  0.71224702644E+03  0.71224702644E+03  0.25500000920E-02 0. -1.
        2   -1    0    0  501    0  0.00000000000E+00  0.00000000000E+00 -0.79161787848E+03  0.79161787848E+03  0.25500000920E-02 0.  1.
    10030    2    1    2    0    0  0.00000000000E+00  0.00000000000E+00 -0.79370852041E+02  0.15038649049E+04  0.15017689303E+04 0.  0.
        4    1    3    3  502    0 -0.67274363592E+03 -0.37493925053E+02  0.29219237818E+03  0.73441663438E+03  0.12699999809E+01 0. -1.
       -4    1    3    3    0  502  0.67274363592E+03  0.37493925053E+02 -0.37156323022E+03  0.76944827054E+03  0.12699999809E+01 0.  1.
</event>
<event>
 5   0  0.2618901E-04  0.1489539E+04  0.7818609E-02  0.8891439E-01
       -2   -1    0    0    0  501  0.00000000000E+00  0.00000000000E+00  0.96018574059E+03  0.96018574059E+03  0.25500000920E-02 0.  1.
        2   -1    0    0  501    0  0.00000000000E+00  0.00000000000E+00 -0.57768187620E+03  0.57768187621E+03  0.25500000920E-02 0. -1.
    10030    2    1    2    0    0  0.00000000000E+00  0.00000000000E+00  0.38250386439E+03  0.15378676168E+04  0.14895393921E+04 0.  0.
        1    1    3    3  502    0 -0.53132759680E+03 -0.30722831853E+03  0.62682097711E+03  0.87727007939E+03  0.50400001928E-02 0.  1.
       -1    1    3    3    0  502  0.53132759680E+03  0.30722831853E+03 -0.24431711272E+03  0.66059753741E+03  0.50400001928E-02 0. -1.
</event>
<event>
 5   0  0.1443750E-04  0.1504607E+04  0.7818609E-02  0.8881395E-01
       -1   -1    0    0    0  501  0.00000000000E+00  0.00000000000E+00  0.57023779927E+03  0.57023779929E+03  0.50400001928E-02 0.  1.
        1   -1    0    0  501    0  0.00000000000E+00  0.00000000000E+00 -0.99249972293E+03  0.99249972294E+03  0.50400001928E-02 0. -1.
    10030    2    1    2    0    0  0.00000000000E+00  0.00000000000E+00 -0.42226192366E+03  0.15627375222E+04  0.15046074010E+04 0.  0.
        2    1    3    3  502    0  0.18825933114E+03 -0.54009379538E+03 -0.71870143647E+03  0.91851763095E+03  0.25500000920E-02 0. -1.
       -2    1    3    3    0  502 -0.18825933114E+03  0.54009379538E+03  0.29643951281E+03  0.64421989129E+03  0.25500000920E-02 0.  1.
</event>
<event>
 5   0  0.1474203E-04  0.1496962E+04  0.7818609E-02  0.8886476E-01
       -1   -1    0    0    0  501  0.00000000000E+00  0.00000000000E+00  0.48324339552E+03  0.48324339554E+03  0.50400001928E-02 0. -1.
        1   -1    0    0  501    0  0.00000000000E+00  0.00000000000E+00 -0.11592993308E+04  0.11592993308E+04  0.50400001928E-02 0.  1.
    10030    2    1    2    0    0  0.00000000000E+00  0.00000000000E+00 -0.67605593525E+03  0.16425427263E+04  0.14969619167E+04 0.  0.
        3    1    3    3  502    0  0.66236121454E+03 -0.90669158042E+02  0.31275534100E+02  0.66926933591E+03  0.10100000352E+00 0. -1.
       -3    1    3    3    0  502 -0.66236121454E+03  0.90669158042E+02 -0.70733146935E+03  0.97327339041E+03  0.10100000352E+00 0.  1.
</event>
<event>
 5   0  0.2646718E-04  0.1501652E+04  0.7818609E-02  0.8883355E-01
        2   -1    0    0  501    0  0.00000000000E+00  0.00000000000E+00  0.13823835598E+04  0.13823835598E+04  0.25500000920E-02 0.  1.
       -2   -1    0    0    0  501  0.00000000000E+00  0.00000000000E+00 -0.40780257534E+03  0.40780257535E+03  0.25500000920E-02 0. -1.
    10030    2    1    2    0    0  0.00000000000E+00  0.00000000000E+00  0.97458098448E+03  0.17901861352E+04  0.15016518582E+04 0.  0.
        3    1    3    3  502    0 -0.37166391340E+03 -0.42367366976E+03  0.10787025034E+04  0.12170589731E+04  0.10100000352E+00 0.  1.
       -3    1    3    3    0  502  0.37166391340E+03  0.42367366976E+03 -0.10412151894E+03  0.57312716205E+03  0.10100000352E+00 0. -1.
</event>
<event>
 5   0  0.2646718E-04  0.1499628E+04  0.7818609E-02  0.8884700E-01
        2   -1    0    0  501    0  0.00000000000E+00  0.00000000000E+00  0.10743070070E+04  0.10743070070E+04  0.25500000920E-02 0. -1.
       -2   -1    0    0    0  501  0.00000000000E+00  0.00000000000E+00 -0.52333363741E+03  0.52333363742E+03  0.25500000920E-02 0.  1.
    10030    2    1    2    0    0  0.00000000000E+00  0.00000000000E+00  0.55097336955E+03  0.15976406444E+04  0.14996279454E+04 0.  0.
        3    1    3    3  502    0  0.63266797594E+03 -0.24536995700E+03 -0.64337137859E+02  0.68162633538E+03  0.10100000352E+00 0.  1.
       -3    1    3    3    0  502 -0.63266797594E+03  0.24536995700E+03  0.61531050741E+03  0.91601430901E+03  0.10100000352E+00 0. -1.
</event>
<event>
 5   0  0.1443750E-04  0.1500495E+04  0.7818609E-02  0.8884124E-01
       -1   -1    0    0    0  501  0.00000000000E+00  0.00000000000E+00  0.78766621018E+03  0.78766621020E+03  0.50400001928E-02 0. -1.
        1   -1    0    0  501    0  0.00000000000E+00  0.00000000000E+00 -0.71460651150E+03  0.71460651151E+03  0.50400001928E-02 0.  1.
    10030    2    1    2    0    0  0.00000000000E+00  0.00000000000E+00  0.73059698685E+02  0.15022727217E+04  0.15004951219E+04 0.  0.
        2    1    3    3  502    0  0.49914870713E+03  0.10057376718E+02  0.59721187866E+03  0.77840388660E+03  0.25500000920E-02 0. -1.
       -2    1    3    3    0  502 -0.49914870713E+03 -0.10057376718E+02 -0.52415217998E+03  0.72386883511E+03  0.25500000920E-02 0.  1.
</event>
<event>
 5   0  0.1426929E-04  0.1480230E+04  0.7818609E-02  0.8897707E-01
        1   -1    0    0  501    0  0.00000000000E+00  0.00000000000E+00  0.10646299897E+04  0.10646299897E+04  0.50400001928E-02 0.  1.
       -1   -1    0    0    0  501  0.00000000000E+00  0.00000000000E+00 -0.51451685926E+03  0.51451685929E+03  0.50400001928E-02 0. -1.
    10030    2    1    2    0    0  0.00000000000E+00  0.00000000000E+00  0.55011313041E+03  0.15791468490E+04  0.14802298181E+04 0.  0.
        1    1    3    3  502    0 -0.63300008251E+03 -0.17288033053E+03  0.64026843367E+03  0.91679898578E+03  0.50400001928E-02 0.  1.
       -1    1    3    3    0  502  0.63300008251E+03  0.17288033053E+03 -0.90155303257E+02  0.66234786319E+03  0.50400001928E-02 0. -1.
</event>
<event>
 5   0  0.2734072E-04  0.1502343E+04  0.7818609E-02  0.8882897E-01
       -2   -1    0    0    0  501  0.00000000000E+00  0.00000000000E+00  0.27760889499E+03  0.27760889501E+03  0.25500000920E-02 0. -1.
        2   -1    0    0  501    0  0.00000000000E+00  0.00000000000E+00 -0.20325660882E+04  0.20325660882E+04  0.25500000920E-02 0.  1.
    10030    2    1    2    0    0  0.00000000000E+00  0.00000000000E+00 -0.17549571932E+04  0.23101749832E+04  0.15023427382E+04 0.  0.
        5    1    3    3  502    0 -0.12217532911E+03 -0.39018014869E+03 -0.18464452530E+04  0.18911767559E+04  0.46999998093E+01 0.  1.
       -5    1    3    3    0  502  0.12217532911E+03  0.39018014869E+03  0.91488059779E+02  0.41899822739E+03  0.46999998093E+01 0. -1.
</event>
<event>
 5   0  0.1427609E-04  0.1499549E+04  0.7818609E-02  0.8884753E-01
       -1   -1    0    0    0  501  0.00000000000E+00  0.00000000000E+00  0.81459412995E+03  0.81459412996E+03  0.50400001928E-02 0.  1.
        1   -1    0    0  501    0  0.00000000000E+00  0.00000000000E+00 -0.69011259090E+03  0.69011259092E+03  0.50400001928E-02 0. -1.
    10030    2    1    2    0    0  0.00000000000E+00  0.00000000000E+00  0.12448153905E+03  0.15047067209E+04  0.14995488196E+04 0.  0.
        4    1    3    3  502    0 -0.71119360342E+03  0.23522567182E+03  0.94485306523E+02  0.75502088996E+03  0.12699999809E+01 0.  1.
       -4    1    3    3    0  502  0.71119360342E+03 -0.23522567182E+03  0.29996232524E+02  0.74968583093E+03  0.12699999809E+01 0. -1.
</event>
<event>
 5   0  0.1426929E-04  0.1515265E+04  0.7818609E-02  0.8874365E-01
        1   -1    0    0  501    0  0.00000000000E+00  0.00000000000E+00  0.16244277174E+04  0.16244277174E+04  0.50400001928E-02 0. -1.
       -1   -1    0    0    0  501  0.00000000000E+00  0.00000000000E+00 -0.35335930976E+03  0.35335930980E+03  0.50400001928E-02 0.  1.
    10030    2    1    2    0    0  0.00000000000E+00  0.00000000000E+00  0.12710684076E+04  0.19777870272E+04  0.15152645406E+04 0.  0.
        1    1    3    3  502    0 -0.67671507277E+03 -0.19709830143E+03  0.27283745347E+03  0.75579845605E+03  0.50400001928E-02 0. -1.
       -1    1    3    3    0  502  0.67671507277E+03  0.19709830143E+03  0.99823095418E+03  0.12219885712E+04  0.50400001928E-02 0.  1.
</event>
<event>
 5   0  0.2641347E-04  0.1498781E+04  0.7818609E-02  0.8885264E-01
        2   -1    0    0  501    0  0.00000000000E+00  0.00000000000E+00  0.63822478348E+03  0.63822478349E+03  0.25500000920E-02 0. -1.
       -2   -1    0    0    0  501  0.00000000000E+00  0.00000000000E+00 -0.87991924462E+03  0.87991924462E+03  0.25500000920E-02 0.  1.
    10030    2    1    2    0    0  0.00000000000E+00  0.00000000000E+00 -0.24169446114E+03  0.15181440281E+04  0.14987811974E+04 0.  0.
        4    1    3    3  502    0 -0.61700314157E+02  0.64036747109E+03 -0.51013935323E+03  0.82104884107E+03  0.12699999809E+01 0.  1.
       -4    1    3    3    0  502  0.61700314157E+02 -0.64036747109E+03  0.26844489210E+03  0.69709518704E+03  0.12699999809E+01 0. -1.
</event>
<event>
 5   0  0.1426929E-04  0.1482891E+04  0.7818609E-02  0.8895911E-01
       -1   -1    0    0    0  501  0.00000000000E+00  0.00000000000E+00  0.60626672895E+03  0.60626672898E+03  0.50400001928E-02 0.  1.
        1   -1    0    0  501    0  0.00000000000E+00  0.00000000000E+00 -0.90676464768E+03  0.90676464770E+03  0.50400001928E-02 0. -1.
    10030    2    1    2    0    0  0.00000000000E+00  0.00000000000E+00 -0.30049791873E+03  0.15130313767E+04  0.14828907403E+04 0.  0.
        1    1    3    3  502    0  0.87434111291E+02 -0.71587439051E+03 -0.32585280449E+03  0.79139175951E+03  0.50400001928E-02 0. -1.
       -1    1    3    3    0  502 -0.87434111291E+02  0.71587439051E+03  0.25354885761E+02  0.72163961716E+03  0.50400001928E-02 0.  1.
</event>
<event>
 5   0  0.1426929E-04  0.1494309E+04  0.7818609E-02  0.8888246E-01
        1   -1    0    0  501    0  0.00000000000E+00  0.00000000000E+00  0.18508591154E+04  0.18508591154E+04  0.50400001928E-02 0. -1.
       -1   -1    0    0    0  501  0.00000000000E+00  0.00000000000E+00 -0.30161131614E+03  0.30161131618E+03  0.50400001928E-02 0.  1.
    10030    2    1    2    0    0  0.00000000000E+00  0.00000000000E+00  0.15492477992E+04  0.21524704316E+04  0.14943092770E+04 0.  0.
        1    1    3    3  502    0 -0.46867691284E+03  0.49658561940E+03  0.12114962563E+04  0.13906755571E+04  0.50400001928E-02 0. -1.
       -1    1    3    3    0  502  0.46867691284E+03 -0.49658561940E+03  0.33775154298E+03  0.76179487451E+03  0.50400001928E-02 0.  1.
</event>
<event>
 5   0  0.1426929E-04  0.1494308E+04  0.7818609E-02  0.8888247E-01
       -1   -1    0    0    0  501  0.00000000000E+00  0.00000000000E+00  0.41888007784E+03  0.41888007787E+03  0.50400001928E-02 0. -1.
        1   -1    0    0  501    0  0.00000000000E+00  0.00000000000E+00 -0.13326934532E+04  0.13326934532E+04  0.50400001928E-02 0.  1.
    10030    2    1    2    0    0  0.00000000000E+00  0.00000000000E+00 -0.91381337533E+03  0.17515735310E+04  0.14943075151E+04 0.  0.
        1    1    3    3  502    0  0.71134674087E+03 -0.19593363042E+03 -0.31903625660E+03  0.80385838699E+03  0.50400001928E-02 0. -1.
       -1    1    3    3    0  502 -0.71134674087E+03  0.19593363042E+03 -0.59477711873E+03  0.94771514405E+03  0.50400001928E-02 0.  1.
</event>
<event>
 5   0  0.1484251E-04  0.1513754E+04  0.7818609E-02  0.8875358E-01
        1   -1    0    0  501    0  0.00000000000E+00  0.00000000000E+00  0.73106021987E+03  0.73106021989E+03  0.50400001928E-02 0.  1.
       -1   -1    0    0    0  501  0.00000000000E+00  0.00000000000E+00 -0.78360532063E+03  0.78360532065E+03  0.50400001928E-02 0. -1.
    10030    2    1    2    0    0  0.00000000000E+00  0.00000000000E+00 -0.52545100756E+02  0.15146655405E+04  0.15137538479E+04 0.  0.
        5    1    3    3  502    0 -0.44651202939E+03  0.57044118517E+03  0.19309554925E+03  0.74972269492E+03  0.46999998093E+01 0.  1.
       -5    1    3    3    0  502  0.44651202939E+03 -0.57044118517E+03 -0.24564065001E+03  0.76494284562E+03  0.46999998093E+01 0. -1.
</event>
<event>
 5   0  0.1484251E-04  0.1503706E+04  0.7818609E-02  0.8881992E-01
       -1   -1    0    0    0  501  0.00000000000E+00  0.00000000000E+00  0.45117091301E+03  0.45117091304E+03  0.50400001928E-02 0.  1.
        1   -1    0    0  501    0  0.00000000000E+00  0.00000000000E+00 -0.12529236979E+04  0.12529236979E+04  0.50400001928E-02 0. -1.
    10030    2    1    2    0    0  0.00000000000E+00  0.00000000000E+00 -0.80175278485E+03  0.17040946109E+04  0.15037057275E+04 0.  0.
        5    1    3    3  502    0  0.35505617826E+03  0.23074352274E+03 -0.11049177286E+04  0.11832889503E+04  0.46999998093E+01 0. -1.
       -5    1    3    3    0  502 -0.35505617826E+03 -0.23074352274E+03  0.30316494372E+03  0.52080566060E+03  0.46999998093E+01 0.  1.
</event>
<event>
 5   0  0.1443750E-04  0.1503640E+04  0.7818609E-02  0.8882036E-01
       -1   -1    0    0    0  501  0.00000000000E+00  0.00000000000E+00  0.89531449239E+03  0.89531449241E+03  0.50400001928E-02 0. -1.
        1   -1    0    0  501    0  0.00000000000E+00  0.00000000000E+00 -0.63132393915E+03  0.63132393917E+03  0.50400001928E-02 0.  1.
    10030    2    1    2    0    0  0.00000000000E+00  0.00000000000E+00  0.26399055324E+03  0.15266384316E+04  0.15036402125E+04 0.  0.
        2    1    3    3  502    0  0.33787789079E+03 -0.47218655927E+03  0.61691091335E+03  0.84717217309E+03  0.25500000920E-02 0. -1.
       -2    1    3    3    0  502 -0.33787789079E+03  0.47218655927E+03 -0.35292036010E+03  0.67946625849E+03  0.25500000920E-02 0.  1.
</event>
<event>
 5   0  0.1443750E-04  0.1501067E+04  0.7818609E-02  0.8883743E-01
       -1   -1    0    0    0  501  0.00000000000E+00  0.00000000000E+00  0.64760063295E+03  0.64760063297E+03  0.50400001928E-02 0.  1.
        1   -1    0    0  501    0  0.00000000000E+00  0.00000000000E+00 -0.86982750453E+03  0.86982750454E+03  0.50400001928E-02 0. -1.
    10030    2    1    2    0    0  0.00000000000E+00  0.00000000000E+00 -0.22222687158E+03  0.15174281375E+04  0.15010674102E+04 0.  0.
        2    1    3    3  502    0 -0.19135980019E+03  0.34660293220E+03  0.53344784372E+03  0.66431827290E+03  0.25500000920E-02 0.  1.
       -2    1    3    3    0  502  0.19135980019E+03 -0.34660293220E+03 -0.75567471530E+03  0.85310986460E+03  0.25500000920E-02 0. -1.
</event>
<event>
 5   0  0.1443750E-04  0.1500353E+04  0.7818609E-02  0.8884218E-01
        1   -1    0    0  501    0  0.00000000000E+00  0.00000000000E+00  0.51217515702E+03  0.51217515705E+03  0.50400001928E-02 0. -1.
       -1   -1    0    0    0  501  0.00000000000E+00  0.00000000000E+00 -0.10987742718E+04  0.10987742718E+04  0.50400001928E-02 0.  1.
    10030    2    1    2    0    0  0.00000000000E+00  0.00000000000E+00 -0.58659911476E+03  0.16109494288E+04  0.15003531387E+04 0.  0.
        2    1    3    3  502    0 -0.65784876525E+03 -0.35786885372E+03 -0.24613222868E+03  0.78829955500E+03  0.25500000920E-02 0. -1.
       -2    1    3    3    0  502  0.65784876525E+03  0.35786885372E+03 -0.34046688608E+03  0.82264987384E+03  0.25500000920E-02 0.  1.
</event>
<event>
 5   0  0.2734072E-04  0.1500160E+04  0.7818609E-02  0.8884346E-01
       -2   -1    0    0    0  501  0.00000000000E+00  0.00000000000E+00  0.39495104797E+03  0.39495104798E+03  0.25500000920E-02 0.  1.
        2   -1    0    0  501    0  0.00000000000E+00  0.00000000000E+00 -0.14245316067E+04  0.14245316067E+04  0.25500000920E-02 0. -1.
    10030    2    1    2    0    0  0.00000000000E+00  0.00000000000E+00 -0.10295805588E+04  0.18194826547E+04  0.15001603260E+04 0.  0.
        5    1    3    3  502    0  0.39561693164E+03 -0.31867176151E+03 -0.11841012333E+04  0.12884806048E+04  0.46999998093E+01 0. -1.
       -5    1    3    3    0  502 -0.39561693164E+03  0.31867176151E+03  0.15452067454E+03  0.53100204994E+03  0.46999998093E+01 0.  1.
</event>
<event>
 5   0  0.1426929E-04  0.1496239E+04  0.7818609E-02  0.8886957E-01
        1   -1    0    0  501    0  0.00000000000E+00  0.00000000000E+00  0.19852847421E+04  0.19852847421E+04  0.50400001928E-02 0.  1.
       -1   -1    0    0    0  501  0.00000000000E+00  0.00000000000E+00 -0.28191580721E+03  0.28191580726E+03  0.50400001928E-02 0. -1.
    10030    2    1    2    0    0  0.00000000000E+00  0.00000000000E+00  0.17033689349E+04  0.22672005494E+04  0.14962394871E+04 0.  0.
        1    1    3    3  502    0 -0.44255019362E+03 -0.27412679909E+03  0.16658307064E+04  0.17452759433E+04  0.50400001928E-02 0.  1.
       -1    1    3    3    0  502  0.44255019362E+03  0.27412679909E+03  0.37538228550E+02  0.52192460613E+03  0.50400001928E-02 0. -1.
</event>
<event>
 5   0  0.1004313E-04  0.1499850E+04  0.7818609E-02  0.8884552E-01
       -3   -1    0    0    0  501  0.00000000000E+00  0.00000000000E+00  0.84385767147E+03  0.84385767752E+03  0.10100000352E+00 0.  1.
        3   -1    0    0  501    0  0.00000000000E+00  0.00000000000E+00 -0.66644852886E+03  0.66644853651E+03  0.10100000352E+00 0. -1.
    10030    2    1    2    0    0  0.00000000000E+00  0.00000000000E+00  0.17740914262E+03  0.15103062140E+04  0.14998502779E+04 0.  0.
        2    1    3    3  502    0  0.20892137891E+02  0.72378613970E+03  0.28521846635E+03  0.77823674483E+03  0.25500000920E-02 0.  1.
       -2    1    3    3    0  502 -0.20892137891E+02 -0.72378613970E+03 -0.10780932374E+03  0.73206946920E+03  0.25500000920E-02 0. -1.
</event>
<event>
 5   0  0.2646718E-04  0.1548848E+04  0.7818609E-02  0.8852604E-01
        2   -1    0    0  501    0  0.00000000000E+00  0.00000000000E+00  0.24551264939E+04  0.24551264939E+04  0.25500000920E-02 0.  1.
       -2   -1    0    0    0  501  0.00000000000E+00  0.00000000000E+00 -0.24427776090E+03  0.24427776091E+03  0.25500000920E-02 0. -1.
    10030    2    1    2    0    0  0.00000000000E+00  0.00000000000E+00  0.22108487330E+04  0.26994042548E+04  0.15488483498E+04 0.  0.
        3    1    3    3  502    0  0.14268225209E+03 -0.11790623495E+03  0.24160083228E+04  0.24230881807E+04  0.10100000352E+00 0.  1.
       -3    1    3    3    0  502 -0.14268225209E+03  0.11790623495E+03 -0.20515958983E+03  0.27631607410E+03  0.10100000352E+00 0. -1.
</event>
<event>
 5   0  0.1427609E-04  0.1509290E+04  0.7818609E-02  0.8878298E-01
        1   -1    0    0  501    0  0.00000000000E+00  0.00000000000E+00  0.22463226400E+04  0.22463226400E+04  0.50400001928E-02 0.  1.
       -1   -1    0    0    0  501  0.00000000000E+00  0.00000000000E+00 -0.25352069452E+03  0.25352069457E+03  0.50400001928E-02 0. -1.
    10030    2    1    2    0    0  0.00000000000E+00  0.00000000000E+00  0.19928019455E+04  0.24998433346E+04  0.15092902648E+04 0.  0.
        4    1    3    3  502    0  0.44551054489E+03 -0.12449646457E+02 -0.12250050907E+02  0.44585459059E+03  0.12699999809E+01 0. -1.
       -4    1    3    3    0  502 -0.44551054489E+03  0.12449646457E+02  0.20050519964E+04  0.20539887440E+04  0.12699999809E+01 0.  1.
</event>
<event>
 5   0  0.2641347E-04  0.1501159E+04  0.7818609E-02  0.8883683E-01
       -2   -1    0    0    0  501  0.00000000000E+00  0.00000000000E+00  0.59870052648E+03  0.59870052648E+03  0.25500000920E-02 0.  1.
        2   -1    0    0  501    0  0.00000000000E+00  0.00000000000E+00 -0.94098676214E+03  0.94098676214E+03  0.25500000920E-02 0. -1.
    10030    2    1    2    0    0  0.00000000000E+00  0.00000000000E+00 -0.34228623566E+03  0.15396872886E+04  0.15011585791E+04 0.  0.
        4    1    3    3  502    0 -0.58631161261E+03 -0.39841535320E+03  0.81910851759E+02  0.71358748677E+03  0.12699999809E+01 0.  1.
       -4    1    3    3    0  502  0.58631161261E+03  0.39841535320E+03 -0.42419708742E+03  0.82609980185E+03  0.12699999809E+01 0. -1.
</event>
<event>
 5   0  0.2618901E-04  0.1480785E+04  0.7818609E-02  0.8897332E-01
       -2   -1    0    0    0  501  0.00000000000E+00  0.00000000000E+00  0.31947030752E+03  0.31947030753E+03  0.25500000920E-02 0.  1.
        2   -1    0    0  501    0  0.00000000000E+00  0.00000000000E+00 -0.17159055265E+04  0.17159055265E+04  0.25500000920E-02 0. -1.
    10030    2    1    2    0    0  0.00000000000E+00  0.00000000000E+00 -0.13964352190E+04  0.20353758340E+04  0.14807847463E+04 0.  0.
        1    1    3    3  502    0  0.17140641629E+03 -0.61055277399E+03 -0.17296550478E+03  0.65732177451E+03  0.50400001928E-02 0.  1.
       -1    1    3    3    0  502 -0.17140641629E+03  0.61055277399E+03 -0.12234697142E+04  0.13780540595E+04  0.50400001928E-02 0. -1.
</event>
<event>
 5   0  0.1474203E-04  0.1496176E+04  0.7818609E-02  0.8887000E-01
       -1   -1    0    0    0  501  0.00000000000E+00  0.00000000000E+00  0.55056832638E+03  0.55056832640E+03  0.50400001928E-02 0.  1.
        1   -1    0    0  501    0  0.00000000000E+00  0.00000000000E+00 -0.10164686978E+04  0.10164686978E+04  0.50400001928E-02 0. -1.
    10030    2    1    2    0    0  0.00000000000E+00  0.00000000000E+00 -0.46590037138E+03  0.15670370242E+04  0.14961757514E+04 0.  0.
        3    1    3    3  502    0 -0.61791066352E+02 -0.28573659698E+03  0.48826450112E+03  0.56909205933E+03  0.10100000352E+00 0.  1.
       -3    1    3    3    0  502  0.61791066352E+02  0.28573659698E+03 -0.95416487250E+03  0.99794496484E+03  0.10100000352E+00 0. -1.
</event>
<event>
 5   0  0.2646718E-04  0.1513600E+04  0.7818609E-02  0.8875459E-01
        2   -1    0    0  501    0  0.00000000000E+00  0.00000000000E+00  0.10474772464E+04  0.10474772464E+04  0.25500000920E-02 0.  1.
       -2   -1    0    0    0  501  0.00000000000E+00  0.00000000000E+00 -0.54678617897E+03  0.54678617897E+03  0.25500000920E-02 0. -1.
    10030    2    1    2    0    0  0.00000000000E+00  0.00000000000E+00  0.50069106744E+03  0.15942634254E+04  0.15135997901E+04 0.  0.
        3    1    3    3  502    0 -0.18827657024E+03 -0.72416222368E+03  0.36991664064E+03  0.83468396673E+03  0.10100000352E+00 0.  1.
       -3    1    3    3    0  502  0.18827657024E+03  0.72416222368E+03  0.13077442680E+03  0.75957945865E+03  0.10100000352E+00 0. -1.
</event>
<event>
 5   0  0.1427609E-04  0.1497267E+04  0.7818609E-02  0.8886272E-01
        1   -1    0    0  501    0  0.00000000000E+00  0.00000000000E+00  0.51628900301E+03  0.51628900303E+03  0.50400001928E-02 0.  1.
       -1   -1    0    0    0  501  0.00000000000E+00  0.00000000000E+00 -0.10855395672E+04  0.10855395672E+04  0.50400001928E-02 0. -1.
    10030    2    1    2    0    0  0.00000000000E+00  0.00000000000E+00 -0.56925056420E+03  0.16018285703E+04  0.14972670315E+04 0.  0.
        4    1    3    3  502    0  0.55784217035E+03 -0.36814937415E+02 -0.81729920022E+03  0.99021352354E+03  0.12699999809E+01 0. -1.
       -4    1    3    3    0  502 -0.55784217035E+03  0.36814937415E+02  0.24804863601E+03  0.61161504671E+03  0.12699999809E+01 0.  1.
</event>
<event>
 5   0  0.2696040E-04  0.1499264E+04  0.7818609E-02  0.8884943E-01
        2   -1    0    0  501    0  0.00000000000E+00  0.00000000000E+00  0.74512637107E+03  0.74512637107E+03  0.25500000920E-02 0. -1.
       -2   -1    0    0    0  501  0.00000000000E+00  0.00000000000E+00 -0.75416461443E+03  0.75416461443E+03  0.25500000920E-02 0.  1.
    10030    2    1    2    0    0  0.00000000000E+00  0.00000000000E+00 -0.90382433611E+01  0.14992909855E+04  0.14992637424E+04 0.  0.
        2    1    3    3  502    0 -0.56105199357E+03 -0.15347091817E+01  0.49264808369E+03  0.74664839730E+03  0.25500000920E-02 0. -1.
       -2    1    3    3    0  502  0.56105199357E+03  0.15347091817E+01 -0.50168632705E+03  0.75264258820E+03  0.25500000920E-02 0.  1.
</event>
<event>
 5   0  0.1427609E-04  0.1503677E+04  0.7818609E-02  0.8882011E-01
        1   -1    0    0  501    0  0.00000000000E+00  0.00000000000E+00  0.67059098426E+03  0.67059098428E+03  0.50400001928E-02 0. -1.
       -1   -1    0    0    0  501  0.00000000000E+00  0.00000000000E+00 -0.84293010862E+03  0.84293010863E+03  0.50400001928E-02 0.  1.
    10030    2    1    2    0    0  0.00000000000E+00  0.00000000000E+00 -0.17233912435E+03  0.15135210929E+04  0.15036772675E+04 0.  0.
        4    1    3    3  502    0 -0.52465115579E+03  0.42632532361E+03 -0.41733345936E+03  0.79446897109E+03  0.12699999809E+01 0.  1.
       -4    1    3    3    0  502  0.52465115579E+03 -0.42632532361E+03  0.24499433501E+03  0.71905212183E+03  0.12699999809E+01 0. -1.
</event>
<event>
 5   0  0.1427609E-04  0.1494260E+04  0.7818609E-02  0.8888279E-01
       -1   -1    0    0    0  501  0.00000000000E+00  0.00000000000E+00  0.59602947378E+03  0.59602947380E+03  0.50400001928E-02 0. -1.
        1   -1    0    0  501    0  0.00000000000E+00  0.00000000000E+00 -0.93653575484E+03  0.93653575485E+03  0.50400001928E-02 0.  1.
    10030    2    1    2    0    0  0.00000000000E+00  0.00000000000E+00 -0.34050628106E+03  0.15325652287E+04  0.14942595667E+04 0.  0.
        4    1    3    3  502    0  0.59589200137E+03  0.24433723828E+03 -0.55866071754E+03  0.85257924765E+03  0.12699999809E+01 0.  1.
       -4    1    3    3    0  502 -0.59589200137E+03 -0.24433723828E+03  0.21815443648E+03  0.67998598100E+03  0.12699999809E+01 0. -1.
</event>
<event>
 5   0  0.1443750E-04  0.1484824E+04  0.7818609E-02  0.8894608E-01
        1   -1    0    0  501    0  0.00000000000E+00  0.00000000000E+00  0.70670253356E+03  0.70670253358E+03  0.50400001928E-02 0.  1.
       -1   -1    0    0    0  501  0.00000000000E+00  0.00000000000E+00 -0.77992547831E+03  0.77992547833E+03  0.50400001928E-02 0. -1.
    10030    2    1    2    0    0  0.00000000000E+00  0.00000000000E+00 -0.73222944749E+02  0.14866280119E+04  0.14848236414E+04 0.  0.
        2    1    3    3  502    0 -0.26712929573E+03 -0.26678245912E+03  0.60341833175E+03  0.71178973316E+03  0.25500000920E-02 0.  1.
       -2    1    3    3    0  502  0.26712929573E+03  0.26678245912E+03 -0.67664127650E+03  0.77483827874E+03  0.25500000920E-02 0. -1.
</event>
<event>
 5   0  0.2696040E-04  0.1498945E+04  0.7818609E-02  0.8885155E-01
        2   -1    0    0  501    0  0.00000000000E+00  0.00000000000E+00  0.12977612001E+04  0.12977612001E+04  0.25500000920E-02 0. -1.
       -2   -1    0    0    0  501  0.00000000000E+00  0.00000000000E+00 -0.43282927756E+03  0.43282927756E+03  0.25500000920E-02 0.  1.
    10030    2    1    2    0    0  0.00000000000E+00  0.00000000000E+00  0.86493192252E+03  0.17305904776E+04  0.14989450192E+04 0.  0.
        2    1    3    3  502    0  0.70924012743E+01 -0.46589412632E+03 -0.24528029510E+03  0.52656439518E+03  0.25500000920E-02 0.  1.
       -2    1    3    3    0  502 -0.70924012743E+01  0.46589412632E+03  0.11102122176E+04  0.12040260825E+04  0.25500000920E-02 0. -1.
</event>
<event>
 5   0  0.2618901E-04  0.1502205E+04  0.7818609E-02  0.8882988E-01
       -2   -1    0    0    0  501  0.00000000000E+00  0.00000000000E+00  0.27185547830E+03  0.27185547832E+03  0.25500000920E-02 0.  1.
        2   -1    0    0  501    0  0.00000000000E+00  0.00000000000E+00 -0.20752018253E+04  0.20752018253E+04  0.25500000920E-02 0. -1.
    10030    2    1    2    0    0  0.00000000000E+00  0.00000000000E+00 -0.18033463470E+04  0.23470573036E+04  0.15022050257E+04 0.  0.
        1    1    3    3  502    0 -0.96055244499E+02  0.63597891441E+03 -0.15077167462E+04  0.16391783235E+04  0.50400001928E-02 0. -1.
       -1    1    3    3    0  502  0.96055244499E+02 -0.63597891441E+03 -0.29562960083E+03  0.70787898011E+03  0.50400001928E-02 0.  1.
</event>
<event>
 5   0  0.2734072E-04  0.1499478E+04  0.7818609E-02  0.8884800E-01
        2   -1    0    0  501    0  0.00000000000E+00  0.00000000000E+00  0.16467703543E+04  0.16467703543E+04  0.25500000920E-02 0. -1.
       -2   -1    0    0    0  501  0.00000000000E+00  0.00000000000E+00 -0.34133978259E+03  0.34133978260E+03  0.25500000920E-02 0.  1.
    10030    2    1    2    0    0  0.00000000000E+00  0.00000000000E+00  0.13054305717E+04  0.19881101369E+04  0.14994775553E+04 0.  0.
        5    1    3    3  502    0 -0.57539318369E+03 -0.11014665529E+03  0.12730128572E+04  0.14013541402E+04  0.46999998093E+01 0. -1.
       -5    1    3    3    0  502  0.57539318369E+03  0.11014665529E+03  0.32417714498E+02  0.58675599675E+03  0.46999998093E+01 0.  1.
</event>
<event>
 5   0  0.2618901E-04  0.1493877E+04  0.7818609E-02  0.8888535E-01
        2   -1    0    0  501    0  0.00000000000E+00  0.00000000000E+00  0.84263287736E+03  0.84263287736E+03  0.25500000920E-02 0. -1.
       -2   -1    0    0    0  501  0.00000000000E+00  0.00000000000E+00 -0.66211207941E+03  0.66211207942E+03  0.25500000920E-02 0.  1.
    10030    2    1    2    0    0  0.00000000000E+00  0.00000000000E+00  0.18052079795E+03  0.15047449568E+04  0.14938773800E+04 0.  0.
        1    1    3    3  502    0 -0.19072047857E+03  0.29819922055E+03 -0.57226328411E+03  0.67289103312E+03  0.50400001928E-02 0.  1.
       -1    1    3    3    0  502  0.19072047857E+03 -0.29819922055E+03  0.75278408206E+03  0.83185392366E+03  0.50400001928E-02 0. -1.
</event>
<event>
 5   0  0.1426929E-04  0.1502289E+04  0.7818609E-02  0.8882932E-01
        1   -1    0    0  501    0  0.00000000000E+00  0.00000000000E+00  0.38144347042E+03  0.38144347045E+03  0.50400001928E-02 0. -1.
       -1   -1    0    0    0  501  0.00000000000E+00  0.00000000000E+00 -0.14791647614E+04  0.14791647614E+04  0.50400001928E-02 0.  1.
    10030    2    1    2    0    0  0.00000000000E+00  0.00000000000E+00 -0.10977212910E+04  0.18606082318E+04  0.15022885741E+04 0.  0.
        1    1    3    3  502    0 -0.42034751335E+03 -0.50579265667E+03 -0.99832331930E+03  0.11954780188E+04  0.50400001928E-02 0.  1.
       -1    1    3    3    0  502  0.42034751335E+03  0.50579265667E+03 -0.99397971658E+02  0.66513021305E+03  0.50400001928E-02 0. -1.
</event>
<event>
 5   0  0.2734072E-04  0.1462605E+04  0.7818609E-02  0.8909708E-01
        2   -1    0    0  501    0  0.00000000000E+00  0.00000000000E+00  0.57091498385E+03  0.57091498385E+03  0.25500000920E-02 0.  1.
       -2   -1    0    0    0  501  0.00000000000E+00  0.00000000000E+00 -0.93674721516E+03  0.93674721516E+03  0.25500000920E-02 0. -1.
    10030    2    1    2    0    0  0.00000000000E+00  0.00000000000E+00 -0.36583223131E+03  0.15076621990E+04  0.14626045552E+04 0.  0.
        5    1    3    3  502    0 -0.48184408596E+03  0.15200726118E+03 -0.72788136284E+03  0.88606619335E+03  0.46999998093E+01 0. -1.
       -5    1    3    3    0  502  0.48184408596E+03 -0.15200726118E+03  0.36204913153E+03  0.62159600567E+03  0.46999998093E+01 0.  1.
</event>
<event>
 5   0  0.1004313E-04  0.1498169E+04  0.7818609E-02  0.8885671E-01
        3   -1    0    0  501    0  0.00000000000E+00  0.00000000000E+00  0.11765682290E+04  0.11765682333E+04  0.10100000352E+00 0.  1.
       -3   -1    0    0    0  501  0.00000000000E+00  0.00000000000E+00 -0.47691898253E+03  0.47691899322E+03  0.10100000352E+00 0. -1.
    10030    2    1    2    0    0  0.00000000000E+00  0.00000000000E+00  0.69964924642E+03  0.16534872265E+04  0.14981691961E+04 0.  0.
        1    1    3    3  502    0  0.43422544000E+03 -0.74056787767E+02  0.10185182763E+04  0.11096916778E+04  0.50400001928E-02 0.  1.
       -1    1    3    3    0  502 -0.43422544000E+03  0.74056787767E+02 -0.31886902989E+03  0.54379554872E+03  0.50400001928E-02 0. -1.
</event>
<event>
 5   0  0.2641347E-04  0.1510145E+04  0.7818609E-02  0.8877734E-01
        2   -1    0    0  501    0  0.00000000000E+00  0.00000000000E+00  0.13813437123E+04  0.13813437123E+04  0.25500000920E-02 0.  1.
       -2   -1    0    0    0  501  0.00000000000E+00  0.00000000000E+00 -0.41273919484E+03  0.41273919485E+03  0.25500000920E-02 0. -1.
    10030    2    1    2    0    0  0.00000000000E+00  0.00000000000E+00  0.96860451749E+03  0.17940829072E+04  0.15101452799E+04 0.  0.
        4    1    3    3  502    0 -0.70231018380E+03  0.10435992512E+03  0.17908861715E+03  0.73226015454E+03  0.12699999809E+01 0. -1.
       -4    1    3    3    0  502  0.70231018380E+03 -0.10435992512E+03  0.78951590034E+03  0.10618227526E+04  0.12699999809E+01 0.  1.
</event>
<event>
 5   0  0.2641347E-04  0.1512485E+04  0.7818609E-02  0.8876193E-01
        2   -1    0    0  501    0  0.00000000000E+00  0.00000000000E+00  0.61970395289E+03  0.61970395290E+03  0.25500000920E-02 0.  1.
       -2   -1    0    0    0  501  0.00000000000E+00  0.00000000000E+00 -0.92286443819E+03  0.92286443820E+03  0.25500000920E-02 0. -1.
    10030    2    1    2    0    0  0.00000000000E+00  0.00000000000E+00 -0.30316048530E+03  0.15425683911E+04  0.15124850285E+04 0.  0.
        4    1    3    3  502    0 -0.42723043697E+03 -0.99929983914E+02  0.47661677591E+03  0.64782483121E+03  0.12699999809E+01 0.  1.
       -4    1    3    3    0  502  0.42723043697E+03  0.99929983914E+02 -0.77977726121E+03  0.89474355989E+03  0.12699999809E+01 0. -1.
</event>
<event>
 5   0  0.1443750E-04  0.1493427E+04  0.7818609E-02  0.8888836E-01
        1   -1    0    0  501    0  0.00000000000E+00  0.00000000000E+00  0.10176219428E+04  0.10176219428E+04  0.50400001928E-02 0.  1.
       -1   -1    0    0    0  501  0.00000000000E+00  0.00000000000E+00 -0.54792571750E+03  0.54792571752E+03  0.50400001928E-02 0. -1.
    10030    2    1    2    0    0  0.00000000000E+00  0.00000000000E+00  0.46969622529E+03  0.15655476603E+04  0.14934272439E+04 0.  0.
        2    1    3    3  502    0 -0.29249195757E+03  0.10558828660E+03 -0.47681840321E+03  0.56925936194E+03  0.25500000920E-02 0. -1.
       -2    1    3    3    0  502  0.29249195757E+03 -0.10558828660E+03  0.94651462850E+03  0.99628829838E+03  0.25500000920E-02 0.  1.
</event>
<event>
 5   0  0.1426929E-04  0.1504217E+04  0.7818609E-02  0.8881654E-01
       -1   -1    0    0    0  501  0.00000000000E+00  0.00000000000E+00  0.65198378659E+03  0.65198378661E+03  0.50400001928E-02 0. -1.
        1   -1    0    0  501    0  0.00000000000E+00  0.00000000000E+00 -0.86760881444E+03  0.86760881445E+03  0.50400001928E-02 0.  1.
    10030    2    1    2    0    0  0.00000000000E+00  0.00000000000E+00 -0.21562502784E+03  0.15195926011E+04  0.15042165803E+04 0.  0.
        1    1    3    3  502    0  0.30179754959E+03 -0.55713408863E+02 -0.80147619966E+03  0.85822482108E+03  0.50400001928E-02 0. -1.
       -1    1    3    3    0  502 -0.30179754959E+03  0.55713408863E+02  0.58585117182E+03  0.66136777999E+03  0.50400001928E-02 0.  1.
</event>
<event>
 5   0  0.1484251E-04  0.1504230E+04  0.7818609E-02  0.8881645E-01
        1   -1    0    0  501    0  0.00000000000E+00  0.00000000000E+00  0.12930804923E+04  0.12930804923E+04  0.50400001928E-02 0. -1.
       -1   -1    0    0    0  501  0.00000000000E+00  0.00000000000E+00 -0.43746454777E+03  0.43746454780E+03  0.50400001928E-02 0.  1.
    10030    2    1    2    0    0  0.00000000000E+00  0.00000000000E+00  0.85561594453E+03  0.17305450401E+04  0.15042298665E+04 0.  0.
        5    1    3    3  502    0  0.70331987102E+03 -0.12593075617E+03  0.69794977150E+03  0.99883600748E+03  0.46999998093E+01 0.  1.
       -5    1    3    3    0  502 -0.70331987102E+03  0.12593075617E+03  0.15766617304E+03  0.73170903263E+03  0.46999998093E+01 0. -1.
</event>
<event>
 5   0  0.2641347E-04  0.1497974E+04  0.7818609E-02  0.8885802E-01
       -2   -1    0    0    0  501  0.00000000000E+00  0.00000000000E+00  0.42668456960E+03  0.42668456961E+03  0.25500000920E-02 0. -1.
        2   -1    0    0  501    0  0.00000000000E+00  0.00000000000E+00 -0.13147446575E+04  0.13147446575E+04  0.25500000920E-02 0.  1.
    10030    2    1    2    0    0  0.00000000000E+00  0.00000000000E+00 -0.88806008789E+03  0.17414292271E+04  0.14979736424E+04 0.  0.
        4    1    3    3  502    0  0.44097249996E+03 -0.50743622841E+03 -0.82789405716E+03  0.10664700907E+04  0.12699999809E+01 0. -1.
       -4    1    3    3    0  502 -0.44097249996E+03  0.50743622841E+03 -0.60166030728E+02  0.67495913638E+03  0.12699999809E+01 0.  1.
</event>
<event>
 5   0  0.2734072E-04  0.1459296E+04  0.7818609E-02  0.8911981E-01
       -2   -1    0    0    0  501  0.00000000000E+00  0.00000000000E+00  0.44970597579E+03  0.44970597580E+03  0.25500000920E-02 0. -1.
        2   -1    0    0  501    0  0.00000000000E+00  0.00000000000E+00 -0.11838534519E+04  0.11838534519E+04  0.25500000920E-02 0.  1.
    10030    2    1    2    0    0  0.00000000000E+00  0.00000000000E+00 -0.73414747615E+03  0.16335594277E+04  0.14592956819E+04 0.  0.
        5    1    3    3  502    0 -0.62970642124E+03  0.89411693432E+02 -0.76731674697E+03  0.99665526039E+03  0.46999998093E+01 0.  1.
       -5    1    3    3    0  502  0.62970642124E+03 -0.89411693432E+02  0.33169270821E+02  0.63690416736E+03  0.46999998093E+01 0. -1.
</event>
<event>
 5   0  0.2618901E-04  0.1500773E+04  0.7818609E-02  0.8883939E-01
        2   -1    0    0  501    0  0.00000000000E+00  0.00000000000E+00  0.10218173782E+04  0.10218173782E+04  0.25500000920E-02 0.  1.
       -2   -1    0    0    0  501  0.00000000000E+00  0.00000000000E+00 -0.55105709542E+03  0.55105709542E+03  0.25500000920E-02 0. -1.
    10030    2    1    2    0    0  0.00000000000E+00  0.00000000000E+00  0.47076028282E+03  0.15728744737E+04  0.15007727563E+04 0.  0.
        1    1    3    3  502    0 -0.41805727332E+03  0.21631487253E+03 -0.37708936266E+03  0.60312552202E+03  0.50400001928E-02 0. -1.
       -1    1    3    3    0  502  0.41805727332E+03 -0.21631487253E+03  0.84784964548E+03  0.96974895164E+03  0.50400001928E-02 0.  1.
</event>
<event>
 5   0  0.2618901E-04  0.1497773E+04  0.7818609E-02  0.8885935E-01
       -2   -1    0    0    0  501  0.00000000000E+00  0.00000000000E+00  0.46781561483E+03  0.46781561484E+03  0.25500000920E-02 0.  1.
        2   -1    0    0  501    0  0.00000000000E+00  0.00000000000E+00 -0.11988290058E+04  0.11988290058E+04  0.25500000920E-02 0. -1.
    10030    2    1    2    0    0  0.00000000000E+00  0.00000000000E+00 -0.73101339098E+03  0.16666446206E+04  0.14977729180E+04 0.  0.
        1    1    3    3  502    0  0.25472049002E+03 -0.69936365569E+03 -0.27348516696E+03  0.79296039467E+03  0.50400001928E-02 0. -1.
       -1    1    3    3    0  502 -0.25472049002E+03  0.69936365569E+03 -0.45752822402E+03  0.87368422598E+03  0.50400001928E-02 0.  1.
</event>
<event>
 5   0  0.1484251E-04  0.1499558E+04  0.7818609E-02  0.8884747E-01
       -1   -1    0    0    0  501  0.00000000000E+00  0.00000000000E+00  0.93748467442E+03  0.93748467443E+03  0.50400001928E-02 0. -1.
        1   -1    0    0  501    0  0.00000000000E+00  0.00000000000E+00 -0.59965656223E+03  0.59965656225E+03  0.50400001928E-02 0.  1.
    10030    2    1    2    0    0  0.00000000000E+00  0.00000000000E+00  0.33782811219E+03  0.15371412367E+04  0.14995583844E+04 0.  0.
        5    1    3    3  502    0 -0.21033496933E+02  0.54924686227E+03  0.69162787151E+03  0.88345103223E+03  0.46999998093E+01 0. -1.
       -5    1    3    3    0  502  0.21033496933E+02 -0.54924686227E+03 -0.35379975932E+03  0.65369020445E+03  0.46999998093E+01 0.  1.
</event>
<event>
 5   0  0.1484251E-04  0.1495228E+04  0.7818609E-02  0.8887633E-01
       -1   -1    0    0    0  501  0.00000000000E+00  0.00000000000E+00  0.16364536535E+04  0.16364536535E+04  0.50400001928E-02 0. -1.
        1   -1    0    0  501    0  0.00000000000E+00  0.00000000000E+00 -0.34154748632E+03  0.34154748635E+03  0.50400001928E-02 0.  1.
    10030    2    1    2    0    0  0.00000000000E+00  0.00000000000E+00  0.12949061672E+04  0.19780011399E+04  0.14952279183E+04 0.  0.
        5    1    3    3  502    0 -0.74260664022E+03  0.35149992336E+02  0.54325278620E+03  0.92078543851E+03  0.46999998093E+01 0.  1.
       -5    1    3    3    0  502  0.74260664022E+03 -0.35149992336E+02  0.75165338102E+03  0.10572157014E+04  0.46999998093E+01 0. -1.
</event>
<event>
 5   0  0.2641347E-04  0.1496030E+04  0.7818609E-02  0.8887097E-01
        2   -1    0    0  501    0  0.00000000000E+00  0.00000000000E+00  0.11762915388E+04  0.11762915388E+04  0.25500000920E-02 0.  1.
       -2   -1    0    0    0  501  0.00000000000E+00  0.00000000000E+00 -0.47566967747E+03  0.47566967748E+03  0.25500000920E-02 0. -1.
    10030    2    1    2    0    0  0.00000000000E+00  0.00000000000E+00  0.70062186130E+03  0.16519612163E+04  0.14960297014E+04 0.  0.
        4    1    3    3  502    0  0.20985812403E+03  0.14717667874E+03 -0.42565986141E+03  0.49687960061E+03  0.12699999809E+01 0. -1.
       -4    1    3    3    0  502 -0.20985812403E+03 -0.14717667874E+03  0.11262817227E+04  0.11550816156E+04  0.12699999809E+01 0.  1.
</event>
<event>
 5   0  0.1427609E-04  0.1499419E+04  0.7818609E-02  0.8884839E-01
        1   -1    0    0  501    0  0.00000000000E+00  0.00000000000E+00  0.91746989603E+03  0.91746989604E+03  0.50400001928E-02 0.  1.
       -1   -1    0    0    0  501  0.00000000000E+00  0.00000000000E+00 -0.61262429371E+03  0.61262429373E+03  0.50400001928E-02 0. -1.
    10030    2    1    2    0    0  0.00000000000E+00  0.00000000000E+00  0.30484560232E+03  0.15300941898E+04  0.14994190169E+04 0.  0.
        4    1    3    3  502    0  0.34134143840E+03  0.26606994883E+02  0.83303145980E+03  0.90064695395E+03  0.12699999809E+01 0.  1.
       -4    1    3    3    0  502 -0.34134143840E+03 -0.26606994883E+02 -0.52818585748E+03  0.62944723583E+03  0.12699999809E+01 0. -1.
</event>
<event>
 5   0  0.2641347E-04  0.1496291E+04  0.7818609E-02  0.8886923E-01
       -2   -1    0    0    0  501  0.00000000000E+00  0.00000000000E+00  0.44551963251E+03  0.44551963252E+03  0.25500000920E-02 0. -1.
        2   -1    0    0  501    0  0.00000000000E+00  0.00000000000E+00 -0.12563351784E+04  0.12563351784E+04  0.25500000920E-02 0.  1.
    10030    2    1    2    0    0  0.00000000000E+00  0.00000000000E+00 -0.81081554593E+03  0.17018548110E+04  0.14962913981E+04 0.  0.
        4    1    3    3  502    0  0.58295040780E+03 -0.37043010471E+03 -0.78381817350E+02  0.69512226451E+03  0.12699999809E+01 0. -1.
       -4    1    3    3    0  502 -0.58295040780E+03  0.37043010471E+03 -0.73243372858E+03  0.10067325465E+04  0.12699999809E+01 0.  1.
</event>
<event>
 5   0  0.1474203E-04  0.1503040E+04  0.7818609E-02  0.8882434E-01
        1   -1    0    0  501    0  0.00000000000E+00  0.00000000000E+00  0.58582426611E+03  0.58582426613E+03  0.50400001928E-02 0.  1.
       -1   -1    0    0    0  501  0.00000000000E+00  0.00000000000E+00 -0.96408199515E+03  0.96408199516E+03  0.50400001928E-02 0. -1.
    10030    2    1    2    0    0  0.00000000000E+00  0.00000000000E+00 -0.37825772904E+03  0.15499062613E+04  0.15030404217E+04 0.  0.
        3    1    3    3  502    0  0.16651206438E+03  0.10810556174E+03 -0.93655316893E+03  0.95736352996E+03  0.10100000352E+00 0. -1.
       -3    1    3    3    0  502 -0.16651206438E+03 -0.10810556174E+03  0.55829543989E+03  0.59254273134E+03  0.10100000352E+00 0.  1.
</event>
<event>
 5   0  0.1427609E-04  0.1495839E+04  0.7818609E-02  0.8887225E-01
       -1   -1    0    0    0  501  0.00000000000E+00  0.00000000000E+00  0.75911100346E+03  0.75911100348E+03  0.50400001928E-02 0.  1.
        1   -1    0    0  501    0  0.00000000000E+00  0.00000000000E+00 -0.73689269567E+03  0.73689269569E+03  0.50400001928E-02 0. -1.
    10030    2    1    2    0    0  0.00000000000E+00  0.00000000000E+00  0.22218307792E+02  0.14960036992E+04  0.14958386994E+04 0.  0.
        4    1    3    3  502    0 -0.17828428886E+03  0.72319498360E+03  0.78832713245E+02  0.74900766453E+03  0.12699999809E+01 0. -1.
       -4    1    3    3    0  502  0.17828428886E+03 -0.72319498360E+03 -0.56614405452E+02  0.74699603463E+03  0.12699999809E+01 0.  1.
</event>
<event>
 5   0  0.1443750E-04  0.1489797E+04  0.7818609E-02  0.8891266E-01
       -1   -1    0    0    0  501  0.00000000000E+00  0.00000000000E+00  0.44411764217E+03  0.44411764219E+03  0.50400001928E-02 0.  1.
        1   -1    0    0  501    0  0.00000000000E+00  0.00000000000E+00 -0.12493852485E+04  0.12493852485E+04  0.50400001928E-02 0. -1.
    10030    2    1    2    0    0  0.00000000000E+00  0.00000000000E+00 -0.80526760633E+03  0.16935028907E+04  0.14897973429E+04 0.  0.
        2    1    3    3  502    0 -0.40000396258E+03  0.34875718607E+03  0.19156300926E+03  0.56420841135E+03  0.25500000920E-02 0.  1.
       -2    1    3    3    0  502  0.40000396258E+03 -0.34875718607E+03 -0.99683061559E+03  0.11292944794E+04  0.25500000920E-02 0. -1.
</event>
<event>
 5   0  0.2618901E-04  0.1499506E+04  0.7818609E-02  0.8884782E-01
       -2   -1    0    0    0  501  0.00000000000E+00  0.00000000000E+00  0.25954970563E+03  0.25954970564E+03  0.25500000920E-02 0.  1.
        2   -1    0    0  501    0  0.00000000000E+00  0.00000000000E+00 -0.21657867716E+04  0.21657867716E+04  0.25500000920E-02 0. -1.
    10030    2    1    2    0    0  0.00000000000E+00  0.00000000000E+00 -0.19062370660E+04  0.24253364772E+04  0.14995056773E+04 0.  0.
        1    1    3    3  502    0  0.35085779190E+03 -0.27233469887E+03 -0.19301041409E+04  0.19805477458E+04  0.50400001928E-02 0. -1.
       -1    1    3    3    0  502 -0.35085779190E+03  0.27233469887E+03  0.23867074983E+02  0.44478873147E+03  0.50400001928E-02 0.  1.
</event>
<event>
 5   0  0.1426929E-04  0.1507681E+04  0.7818609E-02  0.8879361E-01
       -1   -1    0    0    0  501  0.00000000000E+00  0.00000000000E+00  0.41646924316E+03  0.41646924319E+03  0.50400001928E-02 0.  1.
        1   -1    0    0  501    0  0.00000000000E+00  0.00000000000E+00 -0.13645074982E+04  0.13645074982E+04  0.50400001928E-02 0. -1.
    10030    2    1    2    0    0  0.00000000000E+00  0.00000000000E+00 -0.94803825505E+03  0.17809767414E+04  0.15076808748E+04 0.  0.
        1    1    3    3  502    0  0.59908974001E+02 -0.72638795324E+03 -0.70138460939E+03  0.10115181235E+04  0.50400001928E-02 0. -1.
       -1    1    3    3    0  502 -0.59908974001E+02  0.72638795324E+03 -0.24665364566E+03  0.76945861794E+03  0.50400001928E-02 0.  1.
</event>
<event>
 5   0  0.2618901E-04  0.1490333E+04  0.7818609E-02  0.8890907E-01
       -2   -1    0    0    0  501  0.00000000000E+00  0.00000000000E+00  0.87606170025E+03  0.87606170026E+03  0.25500000920E-02 0. -1.
        2   -1    0    0  501    0  0.00000000000E+00  0.00000000000E+00 -0.63382892981E+03  0.63382892981E+03  0.25500000920E-02 0.  1.
    10030    2    1    2    0    0  0.00000000000E+00  0.00000000000E+00  0.24223277045E+03  0.15098906301E+04  0.14903331841E+04 0.  0.
        1    1    3    3  502    0  0.90456786777E+02  0.23285227174E+03  0.83237672373E+03  0.86905329006E+03  0.50400001928E-02 0. -1.
       -1    1    3    3    0  502 -0.90456786777E+02 -0.23285227174E+03 -0.59014395328E+03  0.64083734001E+03  0.50400001928E-02 0.  1.
</event>
<event>
 5   0  0.2696040E-04  0.1504225E+04  0.7818609E-02  0.8881648E-01
       -2   -1    0    0    0  501  0.00000000000E+00  0.00000000000E+00  0.43526407638E+03  0.43526407639E+03  0.25500000920E-02 0.  1.
        2   -1    0    0  501    0  0.00000000000E+00  0.00000000000E+00 -0.12996098064E+04  0.12996098064E+04  0.25500000920E-02 0. -1.
    10030    2    1    2    0    0  0.00000000000E+00  0.00000000000E+00 -0.86434573002E+03  0.17348738828E+04  0.15042253316E+04 0.  0.
        2    1    3    3  502    0  0.46348593674E+03 -0.12885634608E+03  0.23461994434E+03  0.53522863318E+03  0.25500000920E-02 0.  1.
       -2    1    3    3    0  502 -0.46348593674E+03  0.12885634608E+03 -0.10989656744E+04  0.11996452496E+04  0.25500000920E-02 0. -1.
</event>
<event>
 5   0  0.2641347E-04  0.1502512E+04  0.7818609E-02  0.8882784E-01
       -2   -1    0    0    0  501  0.00000000000E+00  0.00000000000E+00  0.74885310058E+03  0.74885310059E+03  0.25500000920E-02 0. -1.
        2   -1    0    0  501    0  0.00000000000E+00  0.00000000000E+00 -0.75366635489E+03  0.75366635489E+03  0.25500000920E-02 0.  1.
    10030    2    1    2    0    0  0.00000000000E+00  0.00000000000E+00 -0.48132543078E+01  0.15025194555E+04  0.15025117459E+04 0.  0.
        4    1    3    3  502    0  0.14254985497E+03  0.56530107189E+03 -0.47622126875E+03  0.75277757189E+03  0.12699999809E+01 0.  1.
       -4    1    3    3    0  502 -0.14254985497E+03 -0.56530107189E+03  0.47140801444E+03  0.74974188359E+03  0.12699999809E+01 0. -1.
</event>
<event>
 5   0  0.1443750E-04  0.1503999E+04  0.7818609E-02  0.8881798E-01
        1   -1    0    0  501    0  0.00000000000E+00  0.00000000000E+00  0.42514287023E+03  0.42514287026E+03  0.50400001928E-02 0.  1.
       -1   -1    0    0    0  501  0.00000000000E+00  0.00000000000E+00 -0.13301492541E+04  0.13301492542E+04  0.50400001928E-02 0. -1.
    10030    2    1    2    0    0  0.00000000000E+00  0.00000000000E+00 -0.90500638392E+03  0.17552921244E+04  0.15039992976E+04 0.  0.
        2    1    3    3  502    0  0.35911855999E+03 -0.49270493386E+03  0.61250939666E+02  0.61276094000E+03  0.25500000920E-02 0.  1.
       -2    1    3    3    0  502 -0.35911855999E+03  0.49270493386E+03 -0.96625732358E+03  0.11425311844E+04  0.25500000920E-02 0. -1.
</event>
<event>
 5   0  0.1426929E-04  0.1498776E+04  0.7818609E-02  0.8885267E-01
        1   -1    0    0  501    0  0.00000000000E+00  0.00000000000E+00  0.89269434688E+03  0.89269434690E+03  0.50400001928E-02 0. -1.
       -1   -1    0    0    0  501  0.00000000000E+00  0.00000000000E+00 -0.62908695931E+03  0.62908695933E+03  0.50400001928E-02 0.  1.
    10030    2    1    2    0    0  0.00000000000E+00  0.00000000000E+00  0.26360738757E+03  0.15217813062E+04  0.14987759970E+04 0.  0.
        1    1    3    3  502    0 -0.43977131864E+03  0.59460928900E+03  0.25458690787E+03  0.78215951886E+03  0.50400001928E-02 0. -1.
       -1    1    3    3    0  502  0.43977131864E+03 -0.59460928900E+03  0.90204796998E+01  0.73962178736E+03  0.50400001928E-02 0.  1.
</event>
<event>
 5   0  0.2641347E-04  0.1518677E+04  0.7818609E-02  0.8872127E-01
       -2   -1    0    0    0  501  0.00000000000E+00  0.00000000000E+00  0.47377991138E+03  0.47377991139E+03  0.25500000920E-02 0. -1.
        2   -1    0    0  501    0  0.00000000000E+00  0.00000000000E+00 -0.12170105487E+04  0.12170105487E+04  0.25500000920E-02 0.  1.
    10030    2    1    2    0    0  0.00000000000E+00  0.00000000000E+00 -0.74323063731E+03  0.16907904601E+04  0.15186772533E+04 0.  0.
        4    1    3    3  502    0  0.30614207014E+03 -0.53593984384E+03 -0.86405390664E+03  0.10618593362E+04  0.12699999809E+01 0.  1.
       -4    1    3    3    0  502 -0.30614207014E+03  0.53593984384E+03  0.12082326933E+03  0.62893112392E+03  0.12699999809E+01 0. -1.
</event>
<event>
 5   0  0.2646718E-04  0.1498519E+04  0.7818609E-02  0.8885438E-01
       -2   -1    0    0    0  501  0.00000000000E+00  0.00000000000E+00  0.58683135785E+03  0.58683135785E+03  0.25500000920E-02 0.  1.
        2   -1    0    0  501    0  0.00000000000E+00  0.00000000000E+00 -0.95664637649E+03  0.95664637649E+03  0.25500000920E-02 0. -1.
    10030    2    1    2    0    0  0.00000000000E+00  0.00000000000E+00 -0.36981501864E+03  0.15434777343E+04  0.14985193921E+04 0.  0.
        3    1    3    3  502    0  0.82069794992E+02 -0.56826866173E+03  0.31091333782E+03  0.65294091386E+03  0.10100000352E+00 0.  1.
       -3    1    3    3    0  502 -0.82069794992E+02  0.56826866173E+03 -0.68072835645E+03  0.89053682048E+03  0.10100000352E+00 0. -1.
</event>
<event>
 5   0  0.1443750E-04  0.1494482E+04  0.7818609E-02  0.8888130E-01
        1   -1    0    0  501    0  0.00000000000E+00  0.00000000000E+00  0.13511488322E+04  0.13511488322E+04  0.50400001928E-02 0.  1.
       -1   -1    0    0    0  501  0.00000000000E+00  0.00000000000E+00 -0.41325520885E+03  0.41325520888E+03  0.50400001928E-02 0. -1.
    10030    2    1    2    0    0  0.00000000000E+00  0.00000000000E+00  0.93789362336E+03  0.17644040411E+04  0.14944822419E+04 0.  0.
        2    1    3    3  502    0  0.59163368361E+03 -0.23551917654E+03  0.93054898194E+03  0.11275731045E+04  0.25500000920E-02 0. -1.
       -2    1    3    3    0  502 -0.59163368361E+03  0.23551917654E+03  0.73446414194E+01  0.63683093664E+03  0.25500000920E-02 0.  1.
</event>
<event>
 5   0  0.1004313E-04  0.1495695E+04  0.7818609E-02  0.8887321E-01
       -3   -1    0    0    0  501  0.00000000000E+00  0.00000000000E+00  0.90782419354E+03  0.90782419915E+03  0.10100000352E+00 0. -1.
        3   -1    0    0  501    0  0.00000000000E+00  0.00000000000E+00 -0.61606216664E+03  0.61606217492E+03  0.10100000352E+00 0.  1.
    10030    2    1    2    0    0  0.00000000000E+00  0.00000000000E+00  0.29176202690E+03  0.15238863741E+04  0.14956953569E+04 0.  0.
        5    1    3    3  502    0  0.13724800803E+03  0.73324145278E+03  0.92219372019E+02  0.75166917348E+03  0.46999998093E+01 0.  1.
       -5    1    3    3    0  502 -0.13724800803E+03 -0.73324145278E+03  0.19954265488E+03  0.77221720060E+03  0.46999998093E+01 0. -1.
</event>
<event>
 5   0  0.1474203E-04  0.1517711E+04  0.7818609E-02  0.8872760E-01
       -1   -1    0    0    0  501  0.00000000000E+00  0.00000000000E+00  0.55471003435E+03  0.55471003437E+03  0.50400001928E-02 0. -1.
        1   -1    0    0  501    0  0.00000000000E+00  0.00000000000E+00 -0.10381310597E+04  0.10381310597E+04  0.50400001928E-02 0.  1.
    10030    2    1    2    0    0  0.00000000000E+00  0.00000000000E+00 -0.48342102532E+03  0.15928410940E+04  0.15177110605E+04 0.  0.
        3    1    3    3  502    0  0.13485718046E+03  0.61541667769E+03 -0.68566056052E+03  0.93115764549E+03  0.10100000352E+00 0.  1.
       -3    1    3    3    0  502 -0.13485718046E+03 -0.61541667769E+03  0.20223953520E+03  0.66168344856E+03  0.10100000352E+00 0. -1.
</event>
<event>
 5   0  0.2696040E-04  0.1499930E+04  0.7818609E-02  0.8884499E-01
       -2   -1    0    0    0  501  0.00000000000E+00  0.00000000000E+00  0.97964767164E+03  0.97964767165E+03  0.25500000920E-02 0. -1.
        2   -1    0    0  501    0  0.00000000000E+00  0.00000000000E+00 -0.57413265371E+03  0.57413265371E+03  0.25500000920E-02 0.  1.
    10030    2    1    2    0    0  0.00000000000E+00  0.00000000000E+00  0.40551501794E+03  0.15537803254E+04  0.14999302883E+04 0.  0.
        2    1    3    3  502    0  0.47392831771E+03  0.16336382930E+03  0.78059376772E+03  0.92769737591E+03  0.25500000920E-02 0. -1.
       -2    1    3    3    0  502 -0.47392831771E+03 -0.16336382930E+03 -0.37507874979E+03  0.62608294945E+03  0.25500000920E-02 0.  1.
</event>
<event>
 5   0  0.2641347E-04  0.1484584E+04  0.7818609E-02  0.8894770E-01
       -2   -1    0    0    0  501  0.00000000000E+00  0.00000000000E+00  0.84715360962E+03  0.84715360963E+03  0.25500000920E-02 0. -1.
        2   -1    0    0  501    0  0.00000000000E+00  0.00000000000E+00 -0.65041008651E+03  0.65041008652E+03  0.25500000920E-02 0.  1.
    10030    2    1    2    0    0  0.00000000000E+00  0.00000000000E+00  0.19674352311E+03  0.14975636961E+04  0.14845837835E+04 0.  0.
        4    1    3    3  502    0 -0.68561805117E+03  0.23313834895E+03  0.26280010337E+03  0.77038374144E+03  0.12699999809E+01 0.  1.
       -4    1    3    3    0  502  0.68561805117E+03 -0.23313834895E+03 -0.66056580264E+02  0.72717995471E+03  0.12699999809E+01 0. -1.
</event>
<event>
 5   0  0.1426929E-04  0.1526505E+04  0.7818609E-02  0.8867016E-01
        1   -1    0    0  501    0  0.00000000000E+00  0.00000000000E+00  0.10213156762E+04  0.10213156762E+04  0.50400001928E-02 0. -1.
       -1   -1    0    0    0  501  0.00000000000E+00  0.00000000000E+00 -0.57039589648E+03  0.57039589650E+03  0.50400001928E-02 0.  1.
    10030    2    1    2    0    0  0.00000000000E+00  0.00000000000E+00  0.45091977972E+03  0.15917115727E+04  0.15265048585E+04 0.  0.
        1    1    3    3  502    0 -0.29234789477E+03  0.46757855345E+03 -0.32477163324E+03  0.63997938171E+03  0.50400001928E-02 0.  1.
       -1    1    3    3    0  502  0.29234789477E+03 -0.46757855345E+03  0.77569141296E+03  0.95173219100E+03  0.50400001928E-02 0. -1.
</event>
<event>
 5   0  0.1426929E-04  0.1495993E+04  0.7818609E-02  0.8887122E-01
       -1   -1    0    0    0  501  0.00000000000E+00  0.00000000000E+00  0.44217061349E+03  0.44217061352E+03  0.50400001928E-02 0. -1.
        1   -1    0    0  501    0  0.00000000000E+00  0.00000000000E+00 -0.12653453705E+04  0.12653453705E+04  0.50400001928E-02 0.  1.
    10030    2    1    2    0    0  0.00000000000E+00  0.00000000000E+00 -0.82317475700E+03  0.17075159840E+04  0.14959926989E+04 0.  0.
        1    1    3    3  502    0  0.18650045441E+03  0.61109989445E+03  0.32344230188E+02  0.63974342493E+03  0.50400001928E-02 0. -1.
       -1    1    3    3    0  502 -0.18650045441E+03 -0.61109989445E+03 -0.85551898719E+03  0.10677725591E+04  0.50400001928E-02 0.  1.
</event>
<event>
 5   0  0.2646718E-04  0.1493608E+04  0.7818609E-02  0.8888715E-01
        2   -1    0    0  501    0  0.00000000000E+00  0.00000000000E+00  0.92760851397E+03  0.92760851397E+03  0.25500000920E-02 0.  1.
       -2   -1    0    0    0  501  0.00000000000E+00  0.00000000000E+00 -0.60124113660E+03  0.60124113661E+03  0.25500000920E-02 0. -1.
    10030    2    1    2    0    0  0.00000000000E+00  0.00000000000E+00  0.32636737737E+03  0.15288496506E+04  0.14936082448E+04 0.  0.
        3    1    3    3  502    0 -0.32056215303E+03  0.57543871245E+03  0.52337648049E+03  0.84131608583E+03  0.10100000352E+00 0.  1.
       -3    1    3    3    0  502  0.32056215303E+03 -0.57543871245E+03 -0.19700910312E+03  0.68753356475E+03  0.10100000352E+00 0. -1.
</event>
<event>
 5   0  0.1427609E-04  0.1504299E+04  0.7818609E-02  0.8881599E-01
        1   -1    0    0  501    0  0.00000000000E+00  0.00000000000E+00  0.11443650488E+04  0.11443650488E+04  0.50400001928E-02 0. -1.
       -1   -1    0    0    0  501  0.00000000000E+00  0.00000000000E+00 -0.49436079373E+03  0.49436079375E+03  0.50400001928E-02 0.  1.
    10030    2    1    2    0    0  0.00000000000E+00  0.00000000000E+00  0.65000425510E+03  0.16387258426E+04  0.15042994567E+04 0.  0.
        4    1    3    3  502    0  0.32019916301E+02 -0.15615170399E+03  0.11257524314E+04  0.11369823127E+04  0.12699999809E+01 0. -1.
       -4    1    3    3    0  502 -0.32019916301E+02  0.15615170399E+03 -0.47574817626E+03  0.50174352992E+03  0.12699999809E+01 0.  1.
</event>
<event>
 5   0  0.1426929E-04  0.1502753E+04  0.7818609E-02  0.8882624E-01
       -1   -1    0    0    0  501  0.00000000000E+00  0.00000000000E+00  0.15791785421E+04  0.15791785421E+04  0.50400001928E-02 0. -1.
        1   -1    0    0  501    0  0.00000000000E+00  0.00000000000E+00 -0.35750639547E+03  0.35750639550E+03  0.50400001928E-02 0.  1.
    10030    2    1    2    0    0  0.00000000000E+00  0.00000000000E+00  0.12216721466E+04  0.19366849376E+04  0.15027527121E+04 0.  0.
        1    1    3    3  502    0  0.22798193615E+03 -0.40404345081E+03  0.13725560331E+04  0.14488398591E+04  0.50400001928E-02 0. -1.
       -1    1    3    3    0  502 -0.22798193615E+03  0.40404345081E+03 -0.15088388649E+03  0.48784507846E+03  0.50400001928E-02 0.  1.
</event>
<event>
 5   0  0.1426929E-04  0.1502096E+04  0.7818609E-02  0.8883060E-01
        1   -1    0    0  501    0  0.00000000000E+00  0.00000000000E+00  0.10699377423E+04  0.10699377423E+04  0.50400001928E-02 0.  1.
       -1   -1    0    0    0  501  0.00000000000E+00  0.00000000000E+00 -0.52720205099E+03  0.52720205101E+03  0.50400001928E-02 0. -1.
    10030    2    1    2    0    0  0.00000000000E+00  0.00000000000E+00  0.54273569134E+03  0.15971397934E+04  0.15020963647E+04 0.  0.
        1    1    3    3  502    0  0.73679480579E+02  0.24481858745E+03  0.10222444089E+04  0.10537307238E+04  0.50400001928E-02 0.  1.
       -1    1    3    3    0  502 -0.73679480579E+02 -0.24481858745E+03 -0.47950871759E+03  0.54340906957E+03  0.50400001928E-02 0. -1.
</event>
<event>
 5   0  0.1474203E-04  0.1500261E+04  0.7818609E-02  0.8884279E-01
       -1   -1    0    0    0  501  0.00000000000E+00  0.00000000000E+00  0.62378586471E+03  0.62378586473E+03  0.50400001928E-02 0.  1.
        1   -1    0    0  501    0  0.00000000000E+00  0.00000000000E+00 -0.90206590268E+03  0.90206590269E+03  0.50400001928E-02 0. -1.
    10030    2    1    2    0    0  0.00000000000E+00  0.00000000000E+00 -0.27828003798E+03  0.15258517674E+04  0.15002612561E+04 0.  0.
        3    1    3    3  502    0  0.42242132415E+03  0.57964470342E+03 -0.36258775846E+03  0.80367757844E+03  0.10100000352E+00 0. -1.
       -3    1    3    3    0  502 -0.42242132415E+03 -0.57964470342E+03  0.84307720486E+02  0.72217418898E+03  0.10100000352E+00 0.  1.
</event>
<event>
 5   0  0.2734072E-04  0.1476662E+04  0.7818609E-02  0.8900122E-01
       -2   -1    0    0    0  501  0.00000000000E+00  0.00000000000E+00  0.37063203445E+03  0.37063203445E+03  0.25500000920E-02 0. -1.
        2   -1    0    0  501    0  0.00000000000E+00  0.00000000000E+00 -0.14708191693E+04  0.14708191693E+04  0.25500000920E-02 0.  1.
    10030    2    1    2    0    0  0.00000000000E+00  0.00000000000E+00 -0.11001871349E+04  0.18414512038E+04  0.14766620480E+04 0.  0.
        5    1    3    3  502    0 -0.81562043758E+02  0.47053512766E+03  0.15208304865E+03  0.50120556364E+03  0.46999998093E+01 0. -1.
       -5    1    3    3    0  502  0.81562043758E+02 -0.47053512766E+03 -0.12522701835E+04  0.13402456401E+04  0.46999998093E+01 0.  1.
</event>
<event>
 5   0  0.1427609E-04  0.1498540E+04  0.7818609E-02  0.8885425E-01
       -1   -1    0    0    0  501  0.00000000000E+00  0.00000000000E+00  0.26023209875E+03  0.26023209880E+03  0.50400001928E-02 0. -1.
        1   -1    0    0  501    0  0.00000000000E+00  0.00000000000E+00 -0.21573248969E+04  0.21573248969E+04  0.50400001928E-02 0.  1.
    10030    2    1    2    0    0  0.00000000000E+00  0.00000000000E+00 -0.18970927982E+04  0.24175569957E+04  0.14985395366E+04 0.  0.
        4    1    3    3  502    0  0.38389691240E+03  0.28819706278E+03 -0.18766624796E+04  0.19370849392E+04  0.12699999809E+01 0.  1.
       -4    1    3    3    0  502 -0.38389691240E+03 -0.28819706278E+03 -0.20430318613E+02  0.48047205659E+03  0.12699999809E+01 0. -1.
</event>
<event>
 5   0  0.1426929E-04  0.1505346E+04  0.7818609E-02  0.8880906E-01
        1   -1    0    0  501    0  0.00000000000E+00  0.00000000000E+00  0.10885599114E+04  0.10885599114E+04  0.50400001928E-02 0.  1.
       -1   -1    0    0    0  501  0.00000000000E+00  0.00000000000E+00 -0.52042767015E+03  0.52042767018E+03  0.50400001928E-02 0. -1.
    10030    2    1    2    0    0  0.00000000000E+00  0.00000000000E+00  0.56813224123E+03  0.16089875816E+04  0.15053460712E+04 0.  0.
        1    1    3    3  502    0 -0.25006151535E+03  0.35735849555E+03  0.93971661452E+03  0.10360034611E+04  0.50400001928E-02 0.  1.
       -1    1    3    3    0  502  0.25006151535E+03 -0.35735849555E+03 -0.37158437329E+03  0.57298412046E+03  0.50400001928E-02 0. -1.
</event>
<event>
 5   0  0.1426929E-04  0.1492291E+04  0.7818609E-02  0.8889596E-01
        1   -1    0    0  501    0  0.00000000000E+00  0.00000000000E+00  0.10587048381E+04  0.10587048381E+04  0.50400001928E-02 0.  1.
       -1   -1    0    0    0  501  0.00000000000E+00  0.00000000000E+00 -0.52586224848E+03  0.52586224851E+03  0.50400001928E-02 0. -1.
    10030    2    1    2    0    0  0.00000000000E+00  0.00000000000E+00  0.53284258960E+03  0.15845670866E+04  0.14922907313E+04 0.  0.
        1    1    3    3  502    0  0.11441677114E+03 -0.31763764284E+01  0.10493271550E+04  0.10555514033E+04  0.50400001928E-02 0.  1.
       -1    1    3    3    0  502 -0.11441677114E+03  0.31763764284E+01 -0.51648456536E+03  0.52901568329E+03  0.50400001928E-02 0. -1.
</event>
<event>
 5   0  0.2734072E-04  0.1427934E+04  0.7818609E-02  0.8933843E-01
       -2   -1    0    0    0  501  0.00000000000E+00  0.00000000000E+00  0.45764154799E+03  0.45764154800E+03  0.25500000920E-02 0. -1.
        2   -1    0    0  501    0  0.00000000000E+00  0.00000000000E+00 -0.11138606050E+04  0.11138606050E+04  0.25500000920E-02 0.  1.
    10030    2    1    2    0    0  0.00000000000E+00  0.00000000000E+00 -0.65621905703E+03  0.15715021530E+04  0.14279340202E+04 0.  0.
        5    1    3    3  502    0  0.71368754734E+03 -0.10468773313E+01 -0.34944389021E+03  0.79465975964E+03  0.46999998093E+01 0.  1.
       -5    1    3    3    0  502 -0.71368754734E+03  0.10468773313E+01 -0.30677516682E+03  0.77684239338E+03  0.46999998093E+01 0. -1.
</event>
<event>
 5   0  0.2641347E-04  0.1511843E+04  0.7818609E-02  0.8876615E-01
       -2   -1    0    0    0  501  0.00000000000E+00  0.00000000000E+00  0.48125066057E+03  0.48125066058E+03  0.25500000920E-02 0. -1.
        2   -1    0    0  501    0  0.00000000000E+00  0.00000000000E+00 -0.11873594213E+04  0.11873594213E+04  0.25500000920E-02 0.  1.
    10030    2    1    2    0    0  0.00000000000E+00  0.00000000000E+00 -0.70610876071E+03  0.16686100819E+04  0.15118432536E+04 0.  0.
        4    1    3    3  502    0  0.46020812522E+02  0.74058079176E+03 -0.51237677634E+03  0.90172578878E+03  0.12699999809E+01 0.  1.
       -4    1    3    3    0  502 -0.46020812522E+02 -0.74058079176E+03 -0.19373198437E+03  0.76688429309E+03  0.12699999809E+01 0. -1.
</event>
<event>
 5   0  0.1484251E-04  0.1494614E+04  0.7818609E-02  0.8888042E-01
        1   -1    0    0  501    0  0.00000000000E+00  0.00000000000E+00  0.11252755850E+04  0.11252755850E+04  0.50400001928E-02 0.  1.
       -1   -1    0    0    0  501  0.00000000000E+00  0.00000000000E+00 -0.49629417497E+03  0.49629417499E+03  0.50400001928E-02 0. -1.
    10030    2    1    2    0    0  0.00000000000E+00  0.00000000000E+00  0.62898141003E+03  0.16215697600E+04  0.14946139543E+04 0.  0.
        5    1    3    3  502    0 -0.43479190538E+03 -0.58737256431E+03  0.14503434007E+03  0.74505542081E+03  0.46999998093E+01 0.  1.
       -5    1    3    3    0  502  0.43479190538E+03  0.58737256431E+03  0.48394706996E+03  0.87651433919E+03  0.46999998093E+01 0. -1.
</event>
<event>
 5   0  0.2641347E-04  0.1503931E+04  0.7818609E-02  0.8881843E-01
        2   -1    0    0  501    0  0.00000000000E+00  0.00000000000E+00  0.42512776944E+03  0.42512776945E+03  0.25500000920E-02 0. -1.
       -2   -1    0    0    0  501  0.00000000000E+00  0.00000000000E+00 -0.13300760071E+04  0.13300760071E+04  0.25500000920E-02 0.  1.
    10030    2    1    2    0    0  0.00000000000E+00  0.00000000000E+00 -0.90494823766E+03  0.17552037766E+04  0.15039311767E+04 0.  0.
        4    1    3    3  502    0 -0.33277553815E+02  0.11180884581E+03 -0.13194498995E+04  0.13245973969E+04  0.12699999809E+01 0.  1.
       -4    1    3    3    0  502  0.33277553815E+02 -0.11180884581E+03  0.41450166188E+03  0.43060637965E+03  0.12699999809E+01 0. -1.
</event>
<event>
 5   0  0.1474203E-04  0.1500785E+04  0.7818609E-02  0.8883931E-01
       -1   -1    0    0    0  501  0.00000000000E+00  0.00000000000E+00  0.72338133304E+03  0.72338133306E+03  0.50400001928E-02 0.  1.
        1   -1    0    0  501    0  0.00000000000E+00  0.00000000000E+00 -0.77841201970E+03  0.77841201971E+03  0.50400001928E-02 0. -1.
    10030    2    1    2    0    0  0.00000000000E+00  0.00000000000E+00 -0.55030686657E+02  0.15017933528E+04  0.15007847607E+04 0.  0.
        3    1    3    3  502    0 -0.28617646825E+03 -0.68593265452E+03 -0.13096826679E+03  0.75468753443E+03  0.10100000352E+00 0. -1.
       -3    1    3    3    0  502  0.28617646825E+03  0.68593265452E+03  0.75937580130E+02  0.74710581834E+03  0.10100000352E+00 0.  1.
</event>
<event>
 5   0  0.2696040E-04  0.1501084E+04  0.7818609E-02  0.8883732E-01
        2   -1    0    0  501    0  0.00000000000E+00  0.00000000000E+00  0.15134888794E+04  0.15134888794E+04  0.25500000920E-02 0.  1.
       -2   -1    0    0    0  501  0.00000000000E+00  0.00000000000E+00 -0.37219543872E+03  0.37219543873E+03  0.25500000920E-02 0. -1.
    10030    2    1    2    0    0  0.00000000000E+00  0.00000000000E+00  0.11412934407E+04  0.18856843181E+04  0.15010844846E+04 0.  0.
        2    1    3    3  502    0 -0.84680715547E+02  0.11508863002E+03 -0.35495201093E+03  0.38263186801E+03  0.25500000920E-02 0. -1.
       -2    1    3    3    0  502  0.84680715547E+02 -0.11508863002E+03  0.14962454516E+04  0.15030524501E+04  0.25500000920E-02 0.  1.
</event>
<event>
 5   0  0.2618901E-04  0.1498373E+04  0.7818609E-02  0.8885536E-01
       -2   -1    0    0    0  501  0.00000000000E+00  0.00000000000E+00  0.93653494296E+03  0.93653494296E+03  0.25500000920E-02 0.  1.
        2   -1    0    0  501    0  0.00000000000E+00  0.00000000000E+00 -0.59931566853E+03  0.59931566853E+03  0.25500000920E-02 0. -1.
    10030    2    1    2    0    0  0.00000000000E+00  0.00000000000E+00  0.33721927443E+03  0.15358506115E+04  0.14983725377E+04 0.  0.
        1    1    3    3  502    0 -0.81646825683E+02  0.22794057806E+03  0.89532613229E+03  0.92748692414E+03  0.50400001928E-02 0.  1.
       -1    1    3    3    0  502  0.81646825683E+02 -0.22794057806E+03 -0.55810685786E+03  0.60836368735E+03  0.50400001928E-02 0. -1.
</event>
<event>
 5   0  0.1427609E-04  0.1500864E+04  0.7818609E-02  0.8883879E-01
       -1   -1    0    0    0  501  0.00000000000E+00  0.00000000000E+00  0.83373597545E+03  0.83373597546E+03  0.50400001928E-02 0.  1.
        1   -1    0    0  501    0  0.00000000000E+00  0.00000000000E+00 -0.67545106776E+03  0.67545106778E+03  0.50400001928E-02 0. -1.
    10030    2    1    2    0    0  0.00000000000E+00  0.00000000000E+00  0.15828490769E+03  0.15091870432E+04  0.15008635579E+04 0.  0.
        4    1    3    3  502    0 -0.56407544919E+02  0.66648261681E+03 -0.26298754367E+03  0.71871061677E+03  0.12699999809E+01 0. -1.
       -4    1    3    3    0  502  0.56407544919E+02 -0.66648261681E+03  0.42127245136E+03  0.79047642647E+03  0.12699999809E+01 0.  1.
</event>
<event>
 5   0  0.2618901E-04  0.1500948E+04  0.7818609E-02  0.8883822E-01
        2   -1    0    0  501    0  0.00000000000E+00  0.00000000000E+00  0.10091732283E+04  0.10091732283E+04  0.25500000920E-02 0.  1.
       -2   -1    0    0    0  501  0.00000000000E+00  0.00000000000E+00 -0.55809202241E+03  0.55809202242E+03  0.25500000920E-02 0. -1.
    10030    2    1    2    0    0  0.00000000000E+00  0.00000000000E+00  0.45108120586E+03  0.15672652507E+04  0.15009484041E+04 0.  0.
        1    1    3    3  502    0 -0.24006913586E+03  0.49234200435E+03  0.76121547602E+03  0.93780746435E+03  0.50400001928E-02 0.  1.
       -1    1    3    3    0  502  0.24006913586E+03 -0.49234200435E+03 -0.31013427015E+03  0.62945778634E+03  0.50400001928E-02 0. -1.
</event>
<event>
 5   0  0.1004313E-04  0.1521927E+04  0.7818609E-02  0.8870001E-01
        4   -1    0    0  501    0  0.00000000000E+00  0.00000000000E+00  0.39341575163E+03  0.39341780149E+03  0.12699999809E+01 0.  1.
       -4   -1    0    0    0  501  0.00000000000E+00  0.00000000000E+00 -0.14718865273E+04  0.14718870752E+04  0.12699999809E+01 0. -1.
    10030    2    1    2    0    0  0.00000000000E+00  0.00000000000E+00 -0.10784707757E+04  0.18653048767E+04  0.15219274191E+04 0.  0.
        5    1    3    3  502    0  0.99490208701E+02  0.71057791933E+03 -0.84983856896E+03  0.11122351210E+04  0.46999998093E+01 0. -1.
       -5    1    3    3    0  502 -0.99490208701E+02 -0.71057791933E+03 -0.22863220675E+03  0.75306975575E+03  0.46999998093E+01 0.  1.
</event>
<event>
 5   0  0.2641347E-04  0.1468967E+04  0.7818609E-02  0.8905356E-01
        2   -1    0    0  501    0  0.00000000000E+00  0.00000000000E+00  0.63981491007E+03  0.63981491008E+03  0.25500000920E-02 0.  1.
       -2   -1    0    0    0  501  0.00000000000E+00  0.00000000000E+00 -0.84315928678E+03  0.84315928678E+03  0.25500000920E-02 0. -1.
    10030    2    1    2    0    0  0.00000000000E+00  0.00000000000E+00 -0.20334437670E+03  0.14829741969E+04  0.14689668250E+04 0.  0.
        4    1    3    3  502    0 -0.81471928189E+02 -0.25314918416E+03  0.58950370228E+03  0.64671354743E+03  0.12699999809E+01 0.  1.
       -4    1    3    3    0  502  0.81471928189E+02  0.25314918416E+03 -0.79284807899E+03  0.83626064943E+03  0.12699999809E+01 0. -1.
</event>
<event>
 5   0  0.2646718E-04  0.1491867E+04  0.7818609E-02  0.8889879E-01
        2   -1    0    0  501    0  0.00000000000E+00  0.00000000000E+00  0.71652345654E+03  0.71652345654E+03  0.25500000920E-02 0.  1.
       -2   -1    0    0    0  501  0.00000000000E+00  0.00000000000E+00 -0.77655051594E+03  0.77655051595E+03  0.25500000920E-02 0. -1.
    10030    2    1    2    0    0  0.00000000000E+00  0.00000000000E+00 -0.60027059404E+02  0.14930739725E+04  0.14918668303E+04 0.  0.
        3    1    3    3  502    0 -0.60483201409E+03  0.10430646109E+03  0.39425760605E+03  0.72947972777E+03  0.10100000352E+00 0.  1.
       -3    1    3    3    0  502  0.60483201409E+03 -0.10430646109E+03 -0.45428466546E+03  0.76359424472E+03  0.10100000352E+00 0. -1.
</event>
<event>
 5   0  0.1443750E-04  0.1494294E+04  0.7818609E-02  0.8888256E-01
        1   -1    0    0  501    0  0.00000000000E+00  0.00000000000E+00  0.14216948887E+04  0.14216948887E+04  0.50400001928E-02 0.  1.
       -1   -1    0    0    0  501  0.00000000000E+00  0.00000000000E+00 -0.39265031273E+03  0.39265031277E+03  0.50400001928E-02 0. -1.
    10030    2    1    2    0    0  0.00000000000E+00  0.00000000000E+00  0.10290445760E+04  0.18143452015E+04  0.14942944057E+04 0.  0.
        2    1    3    3  502    0  0.71847912025E+03  0.11618289152E+03  0.71956533645E+03  0.10234671387E+04  0.25500000920E-02 0.  1.
       -2    1    3    3    0  502 -0.71847912025E+03 -0.11618289152E+03  0.30947923952E+03  0.79087806280E+03  0.25500000920E-02 0. -1.
</event>
<event>
 5   0  0.1427609E-04  0.1512837E+04  0.7818609E-02  0.8875961E-01
        1   -1    0    0  501    0  0.00000000000E+00  0.00000000000E+00  0.51667219610E+03  0.51667219612E+03  0.50400001928E-02 0.  1.
       -1   -1    0    0    0  501  0.00000000000E+00  0.00000000000E+00 -0.11074121882E+04  0.11074121882E+04  0.50400001928E-02 0. -1.
    10030    2    1    2    0    0  0.00000000000E+00  0.00000000000E+00 -0.59073999210E+03  0.16240843843E+04  0.15128371853E+04 0.  0.
        4    1    3    3  502    0 -0.69635005204E+03  0.22612170872E+03 -0.91304901702E+02  0.73781611538E+03  0.12699999809E+01 0.  1.
       -4    1    3    3    0  502  0.69635005204E+03 -0.22612170872E+03 -0.49943509040E+03  0.88626826896E+03  0.12699999809E+01 0. -1.
</event>
<event>
 5   0  0.1474203E-04  0.1500225E+04  0.7818609E-02  0.8884303E-01
        1   -1    0    0  501    0  0.00000000000E+00  0.00000000000E+00  0.16040316293E+04  0.16040316294E+04  0.50400001928E-02 0. -1.
       -1   -1    0    0    0  501  0.00000000000E+00  0.00000000000E+00 -0.35078409673E+03  0.35078409676E+03  0.50400001928E-02 0.  1.
    10030    2    1    2    0    0  0.00000000000E+00  0.00000000000E+00  0.12532475326E+04  0.19548157261E+04  0.15002250315E+04 0.  0.
        3    1    3    3  502    0 -0.45567046214E+03  0.59533443376E+03  0.59443855770E+03  0.95677367604E+03  0.10100000352E+00 0. -1.
       -3    1    3    3    0  502  0.45567046214E+03 -0.59533443376E+03  0.65880897492E+03  0.99804205007E+03  0.10100000352E+00 0.  1.
</event>
<event>
 5   0  0.1474203E-04  0.1487557E+04  0.7818609E-02  0.8892770E-01
       -1   -1    0    0    0  501  0.00000000000E+00  0.00000000000E+00  0.38662602749E+03  0.38662602753E+03  0.50400001928E-02 0.  1.
        1   -1    0    0  501    0  0.00000000000E+00  0.00000000000E+00 -0.14308561934E+04  0.14308561934E+04  0.50400001928E-02 0. -1.
    10030    2    1    2    0    0  0.00000000000E+00  0.00000000000E+00 -0.10442301659E+04  0.18174822209E+04  0.14875567162E+04 0.  0.
        3    1    3    3  502    0  0.47569796028E+03 -0.46850451901E+03 -0.12167122020E+03  0.67866702423E+03  0.10100000352E+00 0.  1.
       -3    1    3    3    0  502 -0.47569796028E+03  0.46850451901E+03 -0.92255894571E+03  0.11388151967E+04  0.10100000352E+00 0. -1.
</event>
<event>
 5   0  0.2618901E-04  0.1495828E+04  0.7818609E-02  0.8887232E-01
       -2   -1    0    0    0  501  0.00000000000E+00  0.00000000000E+00  0.37168321872E+03  0.37168321873E+03  0.25500000920E-02 0.  1.
        2   -1    0    0  501    0  0.00000000000E+00  0.00000000000E+00 -0.15049785211E+04  0.15049785211E+04  0.25500000920E-02 0. -1.
    10030    2    1    2    0    0  0.00000000000E+00  0.00000000000E+00 -0.11332953024E+04  0.18766617398E+04  0.14958278789E+04 0.  0.
        1    1    3    3  502    0 -0.11204596274E+03 -0.95683425063E+02  0.35329450445E+03  0.38278796023E+03  0.50400001928E-02 0.  1.
       -1    1    3    3    0  502  0.11204596274E+03  0.95683425063E+02 -0.14865898068E+04  0.14938737796E+04  0.50400001928E-02 0. -1.
</event>
<event>
 5   0  0.2734072E-04  0.1520789E+04  0.7818609E-02  0.8870745E-01
       -2   -1    0    0    0  501  0.00000000000E+00  0.00000000000E+00  0.40437978526E+03  0.40437978527E+03  0.25500000920E-02 0. -1.
        2   -1    0    0  501    0  0.00000000000E+00  0.00000000000E+00 -0.14298441410E+04  0.14298441410E+04  0.25500000920E-02 0.  1.
    10030    2    1    2    0    0  0.00000000000E+00  0.00000000000E+00 -0.10254643557E+04  0.18342239262E+04  0.15207893565E+04 0.  0.
        5    1    3    3  502    0 -0.35228119959E+03 -0.67246619993E+03 -0.46064397615E+03  0.88799087630E+03  0.46999998093E+01 0. -1.
       -5    1    3    3    0  502  0.35228119959E+03  0.67246619993E+03 -0.56482037956E+03  0.94623304994E+03  0.46999998093E+01 0.  1.
</event>
<event>
 5   0  0.2696040E-04  0.1502000E+04  0.7818609E-02  0.8883124E-01
       -2   -1    0    0    0  501  0.00000000000E+00  0.00000000000E+00  0.58275243266E+03  0.58275243266E+03  0.25500000920E-02 0.  1.
        2   -1    0    0  501    0  0.00000000000E+00  0.00000000000E+00 -0.96782283377E+03  0.96782283377E+03  0.25500000920E-02 0. -1.
    10030    2    1    2    0    0  0.00000000000E+00  0.00000000000E+00 -0.38507040111E+03  0.15505752664E+04  0.15020001475E+04 0.  0.
        2    1    3    3  502    0  0.55908424824E+03 -0.28603257860E+03 -0.61769308782E+03  0.88087149086E+03  0.25500000920E-02 0. -1.
       -2    1    3    3    0  502 -0.55908424824E+03  0.28603257860E+03  0.23262268671E+03  0.66970377558E+03  0.25500000920E-02 0.  1.
</event>
<event>
 5   0  0.1426929E-04  0.1506432E+04  0.7818609E-02  0.8880187E-01
       -1   -1    0    0    0  501  0.00000000000E+00  0.00000000000E+00  0.41934853559E+03  0.41934853562E+03  0.50400001928E-02 0.  1.
        1   -1    0    0  501    0  0.00000000000E+00  0.00000000000E+00 -0.13528938741E+04  0.13528938741E+04  0.50400001928E-02 0. -1.
    10030    2    1    2    0    0  0.00000000000E+00  0.00000000000E+00 -0.93354533853E+03  0.17722424097E+04  0.15064316313E+04 0.  0.
        1    1    3    3  502    0  0.69960846772E+02  0.11430125082E+03 -0.13387557407E+04  0.13454464795E+04  0.50400001928E-02 0. -1.
       -1    1    3    3    0  502 -0.69960846772E+02 -0.11430125082E+03  0.40521040215E+03  0.42679593022E+03  0.50400001928E-02 0.  1.
</event>
<event>
 5   0  0.2696040E-04  0.1488919E+04  0.7818609E-02  0.8891855E-01
       -2   -1    0    0    0  501  0.00000000000E+00  0.00000000000E+00  0.80043841940E+03  0.80043841940E+03  0.25500000920E-02 0. -1.
        2   -1    0    0  501    0  0.00000000000E+00  0.00000000000E+00 -0.69239520339E+03  0.69239520340E+03  0.25500000920E-02 0.  1.
    10030    2    1    2    0    0  0.00000000000E+00  0.00000000000E+00  0.10804321601E+03  0.14928336228E+04  0.14889186979E+04 0.  0.
        2    1    3    3  502    0 -0.69850267315E+03  0.25748071418E+03  0.49836950943E+02  0.74611394858E+03  0.25500000920E-02 0. -1.
       -2    1    3    3    0  502  0.69850267315E+03 -0.25748071418E+03  0.58206265063E+02  0.74671967422E+03  0.25500000920E-02 0.  1.
</event>
<event>
 5   0  0.1426929E-04  0.1499065E+04  0.7818609E-02  0.8885075E-01
        1   -1    0    0  501    0  0.00000000000E+00  0.00000000000E+00  0.11527958093E+04  0.11527958093E+04  0.50400001928E-02 0. -1.
       -1   -1    0    0    0  501  0.00000000000E+00  0.00000000000E+00 -0.48733614448E+03  0.48733614450E+03  0.50400001928E-02 0.  1.
    10030    2    1    2    0    0  0.00000000000E+00  0.00000000000E+00  0.66545966482E+03  0.16401319538E+04  0.14990651288E+04 0.  0.
        1    1    3    3  502    0 -0.59918766741E+03  0.34364844602E+03  0.65111000939E+03  0.94924409905E+03  0.50400001928E-02 0.  1.
       -1    1    3    3    0  502  0.59918766741E+03 -0.34364844602E+03  0.14349655433E+02  0.69088785476E+03  0.50400001928E-02 0. -1.
</event>
<event>
 5   0  0.1484251E-04  0.1499125E+04  0.7818609E-02  0.8885035E-01
        1   -1    0    0  501    0  0.00000000000E+00  0.00000000000E+00  0.67286713601E+03  0.67286713602E+03  0.50400001928E-02 0. -1.
       -1   -1    0    0    0  501  0.00000000000E+00  0.00000000000E+00 -0.83500016859E+03  0.83500016861E+03  0.50400001928E-02 0.  1.
    10030    2    1    2    0    0  0.00000000000E+00  0.00000000000E+00 -0.16213303259E+03  0.15078673046E+04  0.14991253077E+04 0.  0.
        5    1    3    3  502    0 -0.70975450733E+03  0.12052790723E+03 -0.29095450150E+03  0.77650180234E+03  0.46999998093E+01 0.  1.
       -5    1    3    3    0  502  0.70975450733E+03 -0.12052790723E+03  0.12882146892E+03  0.73136550229E+03  0.46999998093E+01 0. -1.
</event>
<event>
 5   0  0.2641347E-04  0.1504439E+04  0.7818609E-02  0.8881506E-01
        2   -1    0    0  501    0  0.00000000000E+00  0.00000000000E+00  0.15067023620E+04  0.15067023620E+04  0.25500000920E-02 0.  1.
       -2   -1    0    0    0  501  0.00000000000E+00  0.00000000000E+00 -0.37554486257E+03  0.37554486258E+03  0.25500000920E-02 0. -1.
    10030    2    1    2    0    0  0.00000000000E+00  0.00000000000E+00  0.11311574994E+04  0.18822472246E+04  0.15044392065E+04 0.  0.
        4    1    3    3  502    0 -0.92624697982E+02  0.72988055358E+03  0.36963519650E+03  0.82336914477E+03  0.12699999809E+01 0.  1.
       -4    1    3    3    0  502  0.92624697982E+02 -0.72988055358E+03  0.76152230295E+03  0.10588780798E+04  0.12699999809E+01 0. -1.
</event>
<event>
 5   0  0.1426929E-04  0.1499167E+04  0.7818609E-02  0.8885007E-01
       -1   -1    0    0    0  501  0.00000000000E+00  0.00000000000E+00  0.38581117030E+03  0.38581117033E+03  0.50400001928E-02 0.  1.
        1   -1    0    0  501    0  0.00000000000E+00  0.00000000000E+00 -0.14563488052E+04  0.14563488052E+04  0.50400001928E-02 0. -1.
    10030    2    1    2    0    0  0.00000000000E+00  0.00000000000E+00 -0.10705376349E+04  0.18421599755E+04  0.14991672848E+04 0.  0.
        1    1    3    3  502    0  0.45341671267E+03  0.40961680088E+03 -0.17664183810E+01  0.61104480944E+03  0.50400001928E-02 0.  1.
       -1    1    3    3    0  502 -0.45341671267E+03 -0.40961680088E+03 -0.10687712165E+04  0.12311151661E+04  0.50400001928E-02 0. -1.
</event>
<event>
 5   0  0.1004313E-04  0.1494879E+04  0.7818609E-02  0.8887866E-01
       -3   -1    0    0    0  501  0.00000000000E+00  0.00000000000E+00  0.79335074988E+03  0.79335075630E+03  0.10100000352E+00 0.  1.
        3   -1    0    0  501    0  0.00000000000E+00  0.00000000000E+00 -0.70418494956E+03  0.70418495680E+03  0.10100000352E+00 0. -1.
    10030    2    1    2    0    0  0.00000000000E+00  0.00000000000E+00  0.89165800314E+02  0.14975357131E+04  0.14948788152E+04 0.  0.
        2    1    3    3  502    0 -0.21969368443E+03 -0.11255788900E+03 -0.66217159399E+03  0.70668650280E+03  0.25500000920E-02 0. -1.
       -2    1    3    3    0  502  0.21969368443E+03  0.11255788900E+03  0.75133739430E+03  0.79084921030E+03  0.25500000920E-02 0.  1.
</event>
<event>
 5   0  0.1426929E-04  0.1501809E+04  0.7818609E-02  0.8883251E-01
       -1   -1    0    0    0  501  0.00000000000E+00  0.00000000000E+00  0.23701615147E+04  0.23701615147E+04  0.50400001928E-02 0. -1.
        1   -1    0    0  501    0  0.00000000000E+00  0.00000000000E+00 -0.23789840441E+03  0.23789840446E+03  0.50400001928E-02 0.  1.
    10030    2    1    2    0    0  0.00000000000E+00  0.00000000000E+00  0.21322631103E+04  0.26080599192E+04  0.15018090992E+04 0.  0.
        1    1    3    3  502    0 -0.52410163593E+03  0.50985759119E+03  0.76927573106E+03  0.10613305039E+04  0.50400001928E-02 0. -1.
       -1    1    3    3    0  502  0.52410163593E+03 -0.50985759119E+03  0.13629873792E+04  0.15467294153E+04  0.50400001928E-02 0.  1.
</event>
<event>
 5   0  0.1443750E-04  0.1509062E+04  0.7818609E-02  0.8878449E-01
        1   -1    0    0  501    0  0.00000000000E+00  0.00000000000E+00  0.56375968744E+03  0.56375968747E+03  0.50400001928E-02 0. -1.
       -1   -1    0    0    0  501  0.00000000000E+00  0.00000000000E+00 -0.10098578363E+04  0.10098578363E+04  0.50400001928E-02 0.  1.
    10030    2    1    2    0    0  0.00000000000E+00  0.00000000000E+00 -0.44609814884E+03  0.15736175238E+04  0.15090621434E+04 0.  0.
        2    1    3    3  502    0  0.45227335395E+03  0.23785412506E+03  0.35584925078E+03  0.62269933418E+03  0.25500000920E-02 0. -1.
       -2    1    3    3    0  502 -0.45227335395E+03 -0.23785412506E+03 -0.80194739962E+03  0.95091818958E+03  0.25500000920E-02 0.  1.
</event>
<event>
 5   0  0.1427609E-04  0.1498035E+04  0.7818609E-02  0.8885761E-01
        1   -1    0    0  501    0  0.00000000000E+00  0.00000000000E+00  0.92460673183E+03  0.92460673185E+03  0.50400001928E-02 0. -1.
       -1   -1    0    0    0  501  0.00000000000E+00  0.00000000000E+00 -0.60677376224E+03  0.60677376226E+03  0.50400001928E-02 0.  1.
    10030    2    1    2    0    0  0.00000000000E+00  0.00000000000E+00  0.31783296959E+03  0.15313804941E+04  0.14980348531E+04 0.  0.
        4    1    3    3  502    0  0.17353430595E+03  0.22587488387E+03  0.86707892907E+03  0.91266702617E+03  0.12699999809E+01 0. -1.
       -4    1    3    3    0  502 -0.17353430595E+03 -0.22587488387E+03 -0.54924595948E+03  0.61871346794E+03  0.12699999809E+01 0.  1.
</event>
<event>
 5   0  0.1484251E-04  0.1498135E+04  0.7818609E-02  0.8885694E-01
       -1   -1    0    0    0  501  0.00000000000E+00  0.00000000000E+00  0.38945446884E+03  0.38945446887E+03  0.50400001928E-02 0. -1.
        1   -1    0    0  501    0  0.00000000000E+00  0.00000000000E+00 -0.14407393293E+04  0.14407393293E+04  0.50400001928E-02 0.  1.
    10030    2    1    2    0    0  0.00000000000E+00  0.00000000000E+00 -0.10512848605E+04  0.18301937982E+04  0.14981353347E+04 0.  0.
        5    1    3    3  502    0 -0.69558765103E+03 -0.10369413400E+03 -0.84064196698E+03  0.10960363408E+04  0.46999998093E+01 0.  1.
       -5    1    3    3    0  502  0.69558765103E+03  0.10369413400E+03 -0.21064289352E+03  0.73415745742E+03  0.46999998093E+01 0. -1.
</event>
<event>
 5   0  0.2618901E-04  0.1506727E+04  0.7818609E-02  0.8879992E-01
       -2   -1    0    0    0  501  0.00000000000E+00  0.00000000000E+00  0.77687588477E+03  0.77687588478E+03  0.25500000920E-02 0.  1.
        2   -1    0    0  501    0  0.00000000000E+00  0.00000000000E+00 -0.73056248835E+03  0.73056248836E+03  0.25500000920E-02 0. -1.
    10030    2    1    2    0    0  0.00000000000E+00  0.00000000000E+00  0.46313396420E+02  0.15074383731E+04  0.15067267563E+04 0.  0.
        1    1    3    3  502    0 -0.21619037255E+03  0.68134166760E+03  0.26115901462E+03  0.76103138972E+03  0.50400001928E-02 0.  1.
       -1    1    3    3    0  502  0.21619037255E+03 -0.68134166760E+03 -0.21484561820E+03  0.74640698341E+03  0.50400001928E-02 0. -1.
</event>
<event>
 5   0  0.1443750E-04  0.1510464E+04  0.7818609E-02  0.8877524E-01
       -1   -1    0    0    0  501  0.00000000000E+00  0.00000000000E+00  0.59035535425E+03  0.59035535427E+03  0.50400001928E-02 0. -1.
        1   -1    0    0  501    0  0.00000000000E+00  0.00000000000E+00 -0.96615553540E+03  0.96615553541E+03  0.50400001928E-02 0.  1.
    10030    2    1    2    0    0  0.00000000000E+00  0.00000000000E+00 -0.37580018115E+03  0.15565108897E+04  0.15104636287E+04 0.  0.
        2    1    3    3  502    0 -0.82770194495E+02  0.22899634566E+03  0.54879605928E+03  0.60038932877E+03  0.25500000920E-02 0. -1.
       -2    1    3    3    0  502  0.82770194495E+02 -0.22899634566E+03 -0.92459624042E+03  0.95612156091E+03  0.25500000920E-02 0.  1.
</event>
<event>
 5   0  0.2646718E-04  0.1484221E+04  0.7818609E-02  0.8895014E-01
        2   -1    0    0  501    0  0.00000000000E+00  0.00000000000E+00  0.11339819782E+04  0.11339819782E+04  0.25500000920E-02 0. -1.
       -2   -1    0    0    0  501  0.00000000000E+00  0.00000000000E+00 -0.48565853305E+03  0.48565853306E+03  0.25500000920E-02 0.  1.
    10030    2    1    2    0    0  0.00000000000E+00  0.00000000000E+00  0.64832344512E+03  0.16196405112E+04  0.14842210402E+04 0.  0.
        3    1    3    3  502    0  0.46193565597E+03  0.10419461949E+03 -0.29936196538E+03  0.56023090374E+03  0.10100000352E+00 0.  1.
       -3    1    3    3    0  502 -0.46193565597E+03 -0.10419461949E+03  0.94768541050E+03  0.10594096075E+04  0.10100000352E+00 0. -1.
</event>
<event>
 5   0  0.1427609E-04  0.1498023E+04  0.7818609E-02  0.8885769E-01
        1   -1    0    0  501    0  0.00000000000E+00  0.00000000000E+00  0.24342007165E+04  0.24342007165E+04  0.50400001928E-02 0. -1.
       -1   -1    0    0    0  501  0.00000000000E+00  0.00000000000E+00 -0.23047314244E+03  0.23047314250E+03  0.50400001928E-02 0.  1.
    10030    2    1    2    0    0  0.00000000000E+00  0.00000000000E+00  0.22037275740E+04  0.26646738590E+04  0.14980225479E+04 0.  0.
        4    1    3    3  502    0 -0.65553814437E+03  0.84413640597E+02  0.47508082489E+03  0.81397747176E+03  0.12699999809E+01 0.  1.
       -4    1    3    3    0  502  0.65553814437E+03 -0.84413640597E+02  0.17286467491E+04  0.18506963872E+04  0.12699999809E+01 0. -1.
</event>
<event>
 5   0  0.2618901E-04  0.1501529E+04  0.7818609E-02  0.8883437E-01
       -2   -1    0    0    0  501  0.00000000000E+00  0.00000000000E+00  0.62873694868E+03  0.62873694869E+03  0.25500000920E-02 0. -1.
        2   -1    0    0  501    0  0.00000000000E+00  0.00000000000E+00 -0.89647596408E+03  0.89647596408E+03  0.25500000920E-02 0.  1.
    10030    2    1    2    0    0  0.00000000000E+00  0.00000000000E+00 -0.26773901540E+03  0.15252129128E+04  0.15015293034E+04 0.  0.
        1    1    3    3  502    0 -0.30138012463E+03 -0.21526169229E+03 -0.79722448052E+03  0.87905315428E+03  0.50400001928E-02 0.  1.
       -1    1    3    3    0  502  0.30138012463E+03  0.21526169229E+03  0.52948546512E+03  0.64615975849E+03  0.50400001928E-02 0. -1.
</event>
<event>
 5   0  0.1474203E-04  0.1495659E+04  0.7818609E-02  0.8887344E-01
        1   -1    0    0  501    0  0.00000000000E+00  0.00000000000E+00  0.66256738394E+03  0.66256738396E+03  0.50400001928E-02 0. -1.
       -1   -1    0    0    0  501  0.00000000000E+00  0.00000000000E+00 -0.84406406436E+03  0.84406406438E+03  0.50400001928E-02 0.  1.
    10030    2    1    2    0    0  0.00000000000E+00  0.00000000000E+00 -0.18149668042E+03  0.15066314483E+04  0.14956594787E+04 0.  0.
        3    1    3    3  502    0 -0.40412244541E+03  0.78310754789E+02  0.53817282692E+03  0.67755260094E+03  0.10100000352E+00 0. -1.
       -3    1    3    3    0  502  0.40412244541E+03 -0.78310754789E+02 -0.71966950735E+03  0.82907884740E+03  0.10100000352E+00 0.  1.
</event>
<event>
 5   0  0.2641347E-04  0.1501270E+04  0.7818609E-02  0.8883609E-01
       -2   -1    0    0    0  501  0.00000000000E+00  0.00000000000E+00  0.60623908461E+03  0.60623908461E+03  0.25500000920E-02 0. -1.
        2   -1    0    0  501    0  0.00000000000E+00  0.00000000000E+00 -0.92942319580E+03  0.92942319581E+03  0.25500000920E-02 0.  1.
    10030    2    1    2    0    0  0.00000000000E+00  0.00000000000E+00 -0.32318411120E+03  0.15356622804E+04  0.15012696859E+04 0.  0.
        4    1    3    3  502    0 -0.35929802081E+03 -0.40418890470E+02  0.51129417329E+03  0.62622048753E+03  0.12699999809E+01 0. -1.
       -4    1    3    3    0  502  0.35929802081E+03  0.40418890470E+02 -0.83447828449E+03  0.90944179289E+03  0.12699999809E+01 0.  1.
</event>
<event>
 5   0  0.1004313E-04  0.1501306E+04  0.7818609E-02  0.8883585E-01
       -3   -1    0    0    0  501  0.00000000000E+00  0.00000000000E+00  0.76325818941E+03  0.76325819609E+03  0.10100000352E+00 0.  1.
        3   -1    0    0  501    0  0.00000000000E+00  0.00000000000E+00 -0.73825633856E+03  0.73825634547E+03  0.10100000352E+00 0. -1.
    10030    2    1    2    0    0  0.00000000000E+00  0.00000000000E+00  0.25001850850E+02  0.15015145416E+04  0.15013063731E+04 0.  0.
        3    1    3    3  502    0  0.58842495869E+03  0.44463801108E+03 -0.12728004851E+03  0.74842976547E+03  0.10100000352E+00 0. -1.
       -3    1    3    3    0  502 -0.58842495869E+03 -0.44463801108E+03  0.15228189936E+03  0.75308477609E+03  0.10100000352E+00 0.  1.
</event>
<event>
 5   0  0.2641347E-04  0.1494098E+04  0.7818609E-02  0.8888387E-01
        2   -1    0    0  501    0  0.00000000000E+00  0.00000000000E+00  0.26683854775E+04  0.26683854775E+04  0.25500000920E-02 0.  1.
       -2   -1    0    0    0  501  0.00000000000E+00  0.00000000000E+00 -0.20914603047E+03  0.20914603049E+03  0.25500000920E-02 0. -1.
    10030    2    1    2    0    0  0.00000000000E+00  0.00000000000E+00  0.24592394470E+04  0.28775315080E+04  0.14940980295E+04 0.  0.
        4    1    3    3  502    0  0.10311266633E+03 -0.67606084817E+02  0.26486512395E+04  0.26515199049E+04  0.12699999809E+01 0.  1.
       -4    1    3    3    0  502 -0.10311266633E+03  0.67606084817E+02 -0.18941179252E+03  0.22601160304E+03  0.12699999809E+01 0. -1.
</event>
<event>
 5   0  0.2734072E-04  0.1499659E+04  0.7818609E-02  0.8884680E-01
       -2   -1    0    0    0  501  0.00000000000E+00  0.00000000000E+00  0.25954045140E+03  0.25954045142E+03  0.25500000920E-02 0.  1.
        2   -1    0    0  501    0  0.00000000000E+00  0.00000000000E+00 -0.21663075799E+04  0.21663075799E+04  0.25500000920E-02 0. -1.
    10030    2    1    2    0    0  0.00000000000E+00  0.00000000000E+00 -0.19067671285E+04  0.24258480313E+04  0.14996592242E+04 0.  0.
        5    1    3    3  502    0  0.31804298255E+03  0.61114064027E+03 -0.47467757959E+03  0.83665113130E+03  0.46999998093E+01 0.  1.
       -5    1    3    3    0  502 -0.31804298255E+03 -0.61114064027E+03 -0.14320895489E+04  0.15891969000E+04  0.46999998093E+01 0. -1.
</event>
<event>
 5   0  0.2696040E-04  0.1496738E+04  0.7818609E-02  0.8886625E-01
        2   -1    0    0  501    0  0.00000000000E+00  0.00000000000E+00  0.77322009987E+03  0.77322009988E+03  0.25500000920E-02 0. -1.
       -2   -1    0    0    0  501  0.00000000000E+00  0.00000000000E+00 -0.72431700379E+03  0.72431700380E+03  0.25500000920E-02 0.  1.
    10030    2    1    2    0    0  0.00000000000E+00  0.00000000000E+00  0.48903096080E+02  0.14975371037E+04  0.14967384087E+04 0.  0.
        2    1    3    3  502    0 -0.65964341457E+03 -0.54794281738E+02  0.37381493585E+03  0.76017725168E+03  0.25500000920E-02 0.  1.
       -2    1    3    3    0  502  0.65964341457E+03  0.54794281738E+02 -0.32491183977E+03  0.73735985199E+03  0.25500000920E-02 0. -1.
</event>
<event>
 5   0  0.2646718E-04  0.1502906E+04  0.7818609E-02  0.8882523E-01
       -2   -1    0    0    0  501  0.00000000000E+00  0.00000000000E+00  0.51259206987E+03  0.51259206988E+03  0.25500000920E-02 0.  1.
        2   -1    0    0  501    0  0.00000000000E+00  0.00000000000E+00 -0.11016195704E+04  0.11016195704E+04  0.25500000920E-02 0. -1.
    10030    2    1    2    0    0  0.00000000000E+00  0.00000000000E+00 -0.58902750056E+03  0.16142116403E+04  0.15029057932E+04 0.  0.
        3    1    3    3  502    0  0.98081301560E+02  0.47225336116E+03  0.32438953114E+03  0.58126737132E+03  0.10100000352E+00 0.  1.
       -3    1    3    3    0  502 -0.98081301560E+02 -0.47225336116E+03 -0.91341703171E+03  0.10329442690E+04  0.10100000352E+00 0. -1.
</event>
<event>
 5   0  0.2646718E-04  0.1499266E+04  0.7818609E-02  0.8884941E-01
        2   -1    0    0  501    0  0.00000000000E+00  0.00000000000E+00  0.87539970630E+03  0.87539970630E+03  0.25500000920E-02 0.  1.
       -2   -1    0    0    0  501  0.00000000000E+00  0.00000000000E+00 -0.64193497554E+03  0.64193497554E+03  0.25500000920E-02 0. -1.
    10030    2    1    2    0    0  0.00000000000E+00  0.00000000000E+00  0.23346473076E+03  0.15173346818E+04  0.14992660725E+04 0.  0.
        3    1    3    3  502    0 -0.70623628928E+03 -0.11248620810E+03  0.34422310418E+03  0.79367020794E+03  0.10100000352E+00 0.  1.
       -3    1    3    3    0  502  0.70623628928E+03  0.11248620810E+03 -0.11075837342E+03  0.72366447391E+03  0.10100000352E+00 0. -1.
</event>
<event>
 5   0  0.2696040E-04  0.1496255E+04  0.7818609E-02  0.8886947E-01
       -2   -1    0    0    0  501  0.00000000000E+00  0.00000000000E+00  0.59216920612E+03  0.59216920613E+03  0.25500000920E-02 0. -1.
        2   -1    0    0  501    0  0.00000000000E+00  0.00000000000E+00 -0.94516057454E+03  0.94516057454E+03  0.25500000920E-02 0.  1.
    10030    2    1    2    0    0  0.00000000000E+00  0.00000000000E+00 -0.35299136842E+03  0.15373297807E+04  0.14962553086E+04 0.  0.
        2    1    3    3  502    0  0.61902447044E+03 -0.50804230943E+01 -0.60812057030E+03  0.86777170600E+03  0.25500000920E-02 0.  1.
       -2    1    3    3    0  502 -0.61902447044E+03  0.50804230943E+01  0.25512920188E+03  0.66955807468E+03  0.25500000920E-02 0. -1.
</event>
<event>
 5   0  0.1004313E-04  0.1501220E+04  0.7818609E-02  0.8883642E-01
       -3   -1    0    0    0  501  0.00000000000E+00  0.00000000000E+00  0.86555203865E+03  0.86555204454E+03  0.10100000352E+00 0.  1.
        3   -1    0    0  501    0  0.00000000000E+00  0.00000000000E+00 -0.65093209652E+03  0.65093210435E+03  0.10100000352E+00 0. -1.
    10030    2    1    2    0    0  0.00000000000E+00  0.00000000000E+00  0.21461994213E+03  0.15164841489E+04  0.15012203217E+04 0.  0.
        1    1    3    3  502    0  0.55082452002E+03 -0.28974105310E+03 -0.31654904523E+03  0.69825556050E+03  0.50400001928E-02 0. -1.
       -1    1    3    3    0  502 -0.55082452002E+03  0.28974105310E+03  0.53116898736E+03  0.81822858839E+03  0.50400001928E-02 0.  1.
</event>
<event>
 5   0  0.2734072E-04  0.1506188E+04  0.7818609E-02  0.8880348E-01
        2   -1    0    0  501    0  0.00000000000E+00  0.00000000000E+00  0.16087260055E+04  0.16087260055E+04  0.25500000920E-02 0.  1.
       -2   -1    0    0    0  501  0.00000000000E+00  0.00000000000E+00 -0.35254638780E+03  0.35254638781E+03  0.25500000920E-02 0. -1.
    10030    2    1    2    0    0  0.00000000000E+00  0.00000000000E+00  0.12561796177E+04  0.19612723933E+04  0.15061879593E+04 0.  0.
        5    1    3    3  502    0  0.31441509850E+03  0.75580077793E+02  0.15136996396E+04  0.15478623619E+04  0.46999998093E+01 0.  1.
       -5    1    3    3    0  502 -0.31441509850E+03 -0.75580077793E+02 -0.25752002198E+03  0.41341003138E+03  0.46999998093E+01 0. -1.
</event>
<event>
 5   0  0.2646718E-04  0.1501250E+04  0.7818609E-02  0.8883622E-01
        2   -1    0    0  501    0  0.00000000000E+00  0.00000000000E+00  0.59679801097E+03  0.59679801098E+03  0.25500000920E-02 0. -1.
       -2   -1    0    0    0  501  0.00000000000E+00  0.00000000000E+00 -0.94410177592E+03  0.94410177592E+03  0.25500000920E-02 0.  1.
    10030    2    1    2    0    0  0.00000000000E+00  0.00000000000E+00 -0.34730376495E+03  0.15408997869E+04  0.15012502283E+04 0.  0.
        3    1    3    3  502    0  0.24858046418E+03 -0.22768493667E+03  0.51473665262E+03  0.61529383981E+03  0.10100000352E+00 0. -1.
       -3    1    3    3    0  502 -0.24858046418E+03  0.22768493667E+03 -0.86204041757E+03  0.92560594708E+03  0.10100000352E+00 0.  1.
</event>
<event>
 5   0  0.1427609E-04  0.1498033E+04  0.7818609E-02  0.8885762E-01
       -1   -1    0    0    0  501  0.00000000000E+00  0.00000000000E+00  0.16115036790E+04  0.16115036790E+04  0.50400001928E-02 0.  1.
        1   -1    0    0  501    0  0.00000000000E+00  0.00000000000E+00 -0.34813788931E+03  0.34813788934E+03  0.50400001928E-02 0. -1.
    10030    2    1    2    0    0  0.00000000000E+00  0.00000000000E+00  0.12633657897E+04  0.19596415683E+04  0.14980326958E+04 0.  0.
        4    1    3    3  502    0  0.42551651602E+02  0.19818127712E+02  0.16095762748E+04  0.16102610964E+04  0.12699999809E+01 0.  1.
       -4    1    3    3    0  502 -0.42551651602E+02 -0.19818127712E+02 -0.34621048514E+03  0.34938047193E+03  0.12699999809E+01 0. -1.
</event>
<event>
 5   0  0.2618901E-04  0.1500205E+04  0.7818609E-02  0.8884317E-01
        2   -1    0    0  501    0  0.00000000000E+00  0.00000000000E+00  0.88922667909E+03  0.88922667909E+03  0.25500000920E-02 0.  1.
       -2   -1    0    0    0  501  0.00000000000E+00  0.00000000000E+00 -0.63274497031E+03  0.63274497032E+03  0.25500000920E-02 0. -1.
    10030    2    1    2    0    0  0.00000000000E+00  0.00000000000E+00  0.25648170878E+03  0.15219716494E+04  0.15002049309E+04 0.  0.
        1    1    3    3  502    0 -0.54061273845E+03  0.75458165296E+02  0.65019338735E+03  0.84894493854E+03  0.50400001928E-02 0.  1.
       -1    1    3    3    0  502  0.54061273845E+03 -0.75458165296E+02 -0.39371167858E+03  0.67302671088E+03  0.50400001928E-02 0. -1.
</event>
<event>
 5   0  0.2696040E-04  0.1498420E+04  0.7818609E-02  0.8885504E-01
       -2   -1    0    0    0  501  0.00000000000E+00  0.00000000000E+00  0.71544395059E+03  0.71544395059E+03  0.25500000920E-02 0. -1.
        2   -1    0    0  501    0  0.00000000000E+00  0.00000000000E+00 -0.78456934122E+03  0.78456934122E+03  0.25500000920E-02 0.  1.
    10030    2    1    2    0    0  0.00000000000E+00  0.00000000000E+00 -0.69125390625E+02  0.15000132918E+04  0.14984196862E+04 0.  0.
        2    1    3    3  502    0  0.68898198395E+03 -0.23305272612E+03 -0.21449155303E+03  0.75829834082E+03  0.25500000920E-02 0.  1.
       -2    1    3    3    0  502 -0.68898198395E+03  0.23305272612E+03  0.14536616241E+03  0.74171495100E+03  0.25500000920E-02 0. -1.
</event>
<event>
 5   0  0.1443750E-04  0.1500695E+04  0.7818609E-02  0.8883991E-01
        1   -1    0    0  501    0  0.00000000000E+00  0.00000000000E+00  0.86687417962E+03  0.86687417963E+03  0.50400001928E-02 0.  1.
       -1   -1    0    0    0  501  0.00000000000E+00  0.00000000000E+00 -0.64948467187E+03  0.64948467189E+03  0.50400001928E-02 0. -1.
    10030    2    1    2    0    0  0.00000000000E+00  0.00000000000E+00  0.21738950775E+03  0.15163588515E+04  0.15006951618E+04 0.  0.
        2    1    3    3  502    0 -0.38204477055E+03 -0.36196080909E+03 -0.43172187825E+03  0.68070376390E+03  0.25500000920E-02 0. -1.
       -2    1    3    3    0  502  0.38204477055E+03  0.36196080909E+03  0.64911138600E+03  0.83565508762E+03  0.25500000920E-02 0.  1.
</event>
<event>
 5   0  0.2734072E-04  0.1502972E+04  0.7818609E-02  0.8882479E-01
       -2   -1    0    0    0  501  0.00000000000E+00  0.00000000000E+00  0.10321911544E+04  0.10321911544E+04  0.25500000920E-02 0.  1.
        2   -1    0    0  501    0  0.00000000000E+00  0.00000000000E+00 -0.54711864712E+03  0.54711864712E+03  0.25500000920E-02 0. -1.
    10030    2    1    2    0    0  0.00000000000E+00  0.00000000000E+00  0.48507250724E+03  0.15793098015E+04  0.15029717601E+04 0.  0.
        5    1    3    3  502    0  0.46787035957E+03  0.58213639352E+03  0.15510255425E+03  0.76280033191E+03  0.46999998093E+01 0.  1.
       -5    1    3    3    0  502 -0.46787035957E+03 -0.58213639352E+03  0.32996995300E+03  0.81650946958E+03  0.46999998093E+01 0. -1.
</event>
<event>
 5   0  0.1474203E-04  0.1497819E+04  0.7818609E-02  0.8885904E-01
       -1   -1    0    0    0  501  0.00000000000E+00  0.00000000000E+00  0.49234110784E+03  0.49234110786E+03  0.50400001928E-02 0.  1.
        1   -1    0    0  501    0  0.00000000000E+00  0.00000000000E+00 -0.11391810660E+04  0.11391810660E+04  0.50400001928E-02 0. -1.
    10030    2    1    2    0    0  0.00000000000E+00  0.00000000000E+00 -0.64683995815E+03  0.16315221739E+04  0.14978193056E+04 0.  0.
        3    1    3    3  502    0  0.50971910153E+03  0.98454955550E+02  0.26453972787E+03  0.58265617525E+03  0.10100000352E+00 0.  1.
       -3    1    3    3    0  502 -0.50971910153E+03 -0.98454955550E+02 -0.91137968602E+03  0.10488659986E+04  0.10100000352E+00 0. -1.
</event>
<event>
 5   0  0.1474203E-04  0.1500449E+04  0.7818609E-02  0.8884154E-01
       -1   -1    0    0    0  501  0.00000000000E+00  0.00000000000E+00  0.51668634054E+03  0.51668634056E+03  0.50400001928E-02 0. -1.
        1   -1    0    0  501    0  0.00000000000E+00  0.00000000000E+00 -0.10893203682E+04  0.10893203682E+04  0.50400001928E-02 0.  1.
    10030    2    1    2    0    0  0.00000000000E+00  0.00000000000E+00 -0.57263402766E+03  0.16060067088E+04  0.15004492057E+04 0.  0.
        3    1    3    3  502    0  0.48085846950E+03  0.40984389801E+03 -0.71930003561E+03  0.95738677652E+03  0.10100000352E+00 0.  1.
       -3    1    3    3    0  502 -0.48085846950E+03 -0.40984389801E+03  0.14666600795E+03  0.64861993226E+03  0.10100000352E+00 0. -1.
</event>
<event>
 5   0  0.1427609E-04  0.1496890E+04  0.7818609E-02  0.8886524E-01
       -1   -1    0    0    0  501  0.00000000000E+00  0.00000000000E+00  0.58018464906E+03  0.58018464909E+03  0.50400001928E-02 0.  1.
        1   -1    0    0  501    0  0.00000000000E+00  0.00000000000E+00 -0.96550309719E+03  0.96550309720E+03  0.50400001928E-02 0. -1.
    10030    2    1    2    0    0  0.00000000000E+00  0.00000000000E+00 -0.38531844813E+03  0.15456877463E+04  0.14968902106E+04 0.  0.
        4    1    3    3  502    0  0.72333471620E+03  0.17438051203E+03 -0.10910931950E+03  0.75201604447E+03  0.12699999809E+01 0.  1.
       -4    1    3    3    0  502 -0.72333471620E+03 -0.17438051203E+03 -0.27620912862E+03  0.79367170182E+03  0.12699999809E+01 0. -1.
</event>
<event>
 5   0  0.2641347E-04  0.1504989E+04  0.7818609E-02  0.8881142E-01
        2   -1    0    0  501    0  0.00000000000E+00  0.00000000000E+00  0.10887047987E+04  0.10887047987E+04  0.25500000920E-02 0.  1.
       -2   -1    0    0    0  501  0.00000000000E+00  0.00000000000E+00 -0.52011159557E+03  0.52011159558E+03  0.25500000920E-02 0. -1.
    10030    2    1    2    0    0  0.00000000000E+00  0.00000000000E+00  0.56859320316E+03  0.16088163943E+04  0.15049890232E+04 0.  0.
        4    1    3    3  502    0 -0.39823132313E+01  0.66480525550E+03 -0.92534441634E+02  0.67122732539E+03  0.12699999809E+01 0. -1.
       -4    1    3    3    0  502  0.39823132313E+01 -0.66480525550E+03  0.66112764479E+03  0.93758906893E+03  0.12699999809E+01 0.  1.
</event>
<event>
 5   0  0.2696040E-04  0.1494416E+04  0.7818609E-02  0.8888175E-01
        2   -1    0    0  501    0  0.00000000000E+00  0.00000000000E+00  0.22759368773E+04  0.22759368773E+04  0.25500000920E-02 0. -1.
       -2   -1    0    0    0  501  0.00000000000E+00  0.00000000000E+00 -0.24531426733E+03  0.24531426735E+03  0.25500000920E-02 0.  1.
    10030    2    1    2    0    0  0.00000000000E+00  0.00000000000E+00  0.20306226100E+04  0.25212511447E+04  0.14944159897E+04 0.  0.
        2    1    3    3  502    0 -0.47679551008E+03 -0.51154178804E+03  0.57114547296E+03  0.90289318894E+03  0.25500000920E-02 0. -1.
       -2    1    3    3    0  502  0.47679551008E+03  0.51154178804E+03  0.14594771370E+04  0.16183579557E+04  0.25500000920E-02 0.  1.
</event>
<event>
 5   0  0.2641347E-04  0.1544768E+04  0.7818609E-02  0.8855216E-01
        2   -1    0    0  501    0  0.00000000000E+00  0.00000000000E+00  0.21226105314E+04  0.21226105314E+04  0.25500000920E-02 0.  1.
       -2   -1    0    0    0  501  0.00000000000E+00  0.00000000000E+00 -0.28105827338E+03  0.28105827339E+03  0.25500000920E-02 0. -1.
    10030    2    1    2    0    0  0.00000000000E+00  0.00000000000E+00  0.18415522581E+04  0.24036688048E+04  0.15447682688E+04 0.  0.
        4    1    3    3  502    0  0.37334396677E+03 -0.60802236242E+02  0.19686200188E+04  0.20046318916E+04  0.12699999809E+01 0.  1.
       -4    1    3    3    0  502 -0.37334396677E+03  0.60802236242E+02 -0.12706776070E+03  0.39903691328E+03  0.12699999809E+01 0. -1.
</event>
<event>
 5   0  0.2618901E-04  0.1498947E+04  0.7818609E-02  0.8885153E-01
        2   -1    0    0  501    0  0.00000000000E+00  0.00000000000E+00  0.17818817574E+04  0.17818817574E+04  0.25500000920E-02 0.  1.
       -2   -1    0    0    0  501  0.00000000000E+00  0.00000000000E+00 -0.31523451878E+03  0.31523451879E+03  0.25500000920E-02 0. -1.
    10030    2    1    2    0    0  0.00000000000E+00  0.00000000000E+00  0.14666472386E+04  0.20971162762E+04  0.14989471483E+04 0.  0.
        1    1    3    3  502    0 -0.35722212539E+03 -0.59808336009E+03  0.34661768201E+03  0.77810999864E+03  0.50400001928E-02 0. -1.
       -1    1    3    3    0  502  0.35722212539E+03  0.59808336009E+03  0.11200295566E+04  0.13190062775E+04  0.50400001928E-02 0.  1.
</event>
<event>
 5   0  0.2646718E-04  0.1496251E+04  0.7818609E-02  0.8886950E-01
       -2   -1    0    0    0  501  0.00000000000E+00  0.00000000000E+00  0.41151829447E+03  0.41151829447E+03  0.25500000920E-02 0. -1.
        2   -1    0    0  501    0  0.00000000000E+00  0.00000000000E+00 -0.13600657438E+04  0.13600657438E+04  0.25500000920E-02 0.  1.
    10030    2    1    2    0    0  0.00000000000E+00  0.00000000000E+00 -0.94854744929E+03  0.17715840382E+04  0.14962512292E+04 0.  0.
        3    1    3    3  502    0  0.30595941812E+03 -0.11320001559E+03  0.32286527509E+03  0.45898519053E+03  0.10100000352E+00 0. -1.
       -3    1    3    3    0  502 -0.30595941812E+03  0.11320001559E+03 -0.12714127244E+04  0.13125988477E+04  0.10100000352E+00 0.  1.
</event>
<event>
 5   0  0.1426929E-04  0.1505648E+04  0.7818609E-02  0.8880705E-01
       -1   -1    0    0    0  501  0.00000000000E+00  0.00000000000E+00  0.61158821252E+03  0.61158821254E+03  0.50400001928E-02 0.  1.
        1   -1    0    0  501    0  0.00000000000E+00  0.00000000000E+00 -0.92667636644E+03  0.92667636645E+03  0.50400001928E-02 0. -1.
    10030    2    1    2    0    0  0.00000000000E+00  0.00000000000E+00 -0.31508815392E+03  0.15382645790E+04  0.15056484883E+04 0.  0.
        1    1    3    3  502    0 -0.38627215284E+03 -0.98442324909E+02 -0.81000758970E+03  0.90277868982E+03  0.50400001928E-02 0. -1.
       -1    1    3    3    0  502  0.38627215284E+03  0.98442324909E+02  0.49491943579E+03  0.63548588917E+03  0.50400001928E-02 0.  1.
</event>
<event>
 5   0  0.2696040E-04  0.1500337E+04  0.7818609E-02  0.8884229E-01
       -2   -1    0    0    0  501  0.00000000000E+00  0.00000000000E+00  0.17180584596E+03  0.17180584598E+03  0.25500000920E-02 0.  1.
        2   -1    0    0  501    0  0.00000000000E+00  0.00000000000E+00 -0.32755172951E+04  0.32755172951E+04  0.25500000920E-02 0. -1.
    10030    2    1    2    0    0  0.00000000000E+00  0.00000000000E+00 -0.31037114492E+04  0.34473231411E+04  0.15003373219E+04 0.  0.
        2    1    3    3  502    0  0.20391688952E+03 -0.32661924002E+02  0.10520425758E+03  0.23176892572E+03  0.25500000920E-02 0.  1.
       -2    1    3    3    0  502 -0.20391688952E+03  0.32661924002E+02 -0.32089157067E+04  0.32155542154E+04  0.25500000920E-02 0. -1.
</event>
<event>
 5   0  0.1443750E-04  0.1503177E+04  0.7818609E-02  0.8882343E-01
        1   -1    0    0  501    0  0.00000000000E+00  0.00000000000E+00  0.72047589285E+03  0.72047589287E+03  0.50400001928E-02 0.  1.
       -1   -1    0    0    0  501  0.00000000000E+00  0.00000000000E+00 -0.78404485074E+03  0.78404485075E+03  0.50400001928E-02 0. -1.
    10030    2    1    2    0    0  0.00000000000E+00  0.00000000000E+00 -0.63568957887E+02  0.15045207436E+04  0.15031771870E+04 0.  0.
        2    1    3    3  502    0 -0.69502861502E+03  0.19880343852E+03 -0.23763266905E+03  0.76095786235E+03  0.25500000920E-02 0. -1.
       -2    1    3    3    0  502  0.69502861502E+03 -0.19880343852E+03  0.17406371116E+03  0.74356288127E+03  0.25500000920E-02 0.  1.
</event>
<event>
 5   0  0.2641347E-04  0.1500721E+04  0.7818609E-02  0.8883974E-01
       -2   -1    0    0    0  501  0.00000000000E+00  0.00000000000E+00  0.29207858700E+03  0.29207858701E+03  0.25500000920E-02 0. -1.
        2   -1    0    0  501    0  0.00000000000E+00  0.00000000000E+00 -0.19277030947E+04  0.19277030947E+04  0.25500000920E-02 0.  1.
    10030    2    1    2    0    0  0.00000000000E+00  0.00000000000E+00 -0.16356245077E+04  0.22197816817E+04  0.15007208882E+04 0.  0.
        4    1    3    3  502    0 -0.67531098513E+03  0.32609973496E+03 -0.85561643806E+03  0.11377464857E+04  0.12699999809E+01 0.  1.
       -4    1    3    3    0  502  0.67531098513E+03 -0.32609973496E+03 -0.78000806963E+03  0.10820351960E+04  0.12699999809E+01 0. -1.
</event>
<event>
 5   0  0.2641347E-04  0.1501096E+04  0.7818609E-02  0.8883724E-01
       -2   -1    0    0    0  501  0.00000000000E+00  0.00000000000E+00  0.35012187893E+03  0.35012187894E+03  0.25500000920E-02 0.  1.
        2   -1    0    0  501    0  0.00000000000E+00  0.00000000000E+00 -0.16089319195E+04  0.16089319195E+04  0.25500000920E-02 0. -1.
    10030    2    1    2    0    0  0.00000000000E+00  0.00000000000E+00 -0.12588100406E+04  0.19590537984E+04  0.15010959553E+04 0.  0.
        4    1    3    3  502    0  0.61788560920E+03  0.16723163397E+03 -0.11408434690E+04  0.13081569016E+04  0.12699999809E+01 0. -1.
       -4    1    3    3    0  502 -0.61788560920E+03 -0.16723163397E+03 -0.11796657156E+03  0.65089689687E+03  0.12699999809E+01 0.  1.
</event>
<event>
 5   0  0.1426929E-04  0.1499443E+04  0.7818609E-02  0.8884823E-01
       -1   -1    0    0    0  501  0.00000000000E+00  0.00000000000E+00  0.70524877038E+03  0.70524877040E+03  0.50400001928E-02 0.  1.
        1   -1    0    0  501    0  0.00000000000E+00  0.00000000000E+00 -0.79699900939E+03  0.79699900941E+03  0.50400001928E-02 0. -1.
    10030    2    1    2    0    0  0.00000000000E+00  0.00000000000E+00 -0.91750239013E+02  0.15022477798E+04  0.14994433252E+04 0.  0.
        1    1    3    3  502    0 -0.16632698208E+03  0.23636293899E+03  0.64719214748E+03  0.70879459626E+03  0.50400001928E-02 0.  1.
       -1    1    3    3    0  502  0.16632698208E+03 -0.23636293899E+03 -0.73894238649E+03  0.79345318354E+03  0.50400001928E-02 0. -1.
</event>
<event>
 5   0  0.1474203E-04  0.1501956E+04  0.7818609E-02  0.8883153E-01
       -1   -1    0    0    0  501  0.00000000000E+00  0.00000000000E+00  0.45246255449E+03  0.45246255452E+03  0.50400001928E-02 0.  1.
        1   -1    0    0  501    0  0.00000000000E+00  0.00000000000E+00 -0.12464417212E+04  0.12464417212E+04  0.50400001928E-02 0. -1.
    10030    2    1    2    0    0  0.00000000000E+00  0.00000000000E+00 -0.79397916667E+03  0.16989042757E+04  0.15019563312E+04 0.  0.
        3    1    3    3  502    0  0.28669433337E+03 -0.28032242734E+02 -0.11814644999E+04  0.12160747601E+04  0.10100000352E+00 0. -1.
       -3    1    3    3    0  502 -0.28669433337E+03  0.28032242734E+02  0.38748533325E+03  0.48282951557E+03  0.10100000352E+00 0.  1.
</event>
<event>
 5   0  0.2646718E-04  0.1495510E+04  0.7818609E-02  0.8887444E-01
        2   -1    0    0  501    0  0.00000000000E+00  0.00000000000E+00  0.17892989024E+04  0.17892989024E+04  0.25500000920E-02 0.  1.
       -2   -1    0    0    0  501  0.00000000000E+00  0.00000000000E+00 -0.31248972917E+03  0.31248972918E+03  0.25500000920E-02 0. -1.
    10030    2    1    2    0    0  0.00000000000E+00  0.00000000000E+00  0.14768091732E+04  0.21017886316E+04  0.14955099858E+04 0.  0.
        3    1    3    3  502    0  0.23831109619E+03  0.47711940797E+03  0.14750033020E+04  0.15684609843E+04  0.10100000352E+00 0.  1.
       -3    1    3    3    0  502 -0.23831109619E+03 -0.47711940797E+03  0.18058712187E+01  0.53332764732E+03  0.10100000352E+00 0. -1.
</event>
<event>
 5   0  0.1484251E-04  0.1506861E+04  0.7818609E-02  0.8879903E-01
       -1   -1    0    0    0  501  0.00000000000E+00  0.00000000000E+00  0.38445792331E+03  0.38445792334E+03  0.50400001928E-02 0. -1.
        1   -1    0    0  501    0  0.00000000000E+00  0.00000000000E+00 -0.14765138549E+04  0.14765138549E+04  0.50400001928E-02 0.  1.
    10030    2    1    2    0    0  0.00000000000E+00  0.00000000000E+00 -0.10920559316E+04  0.18609717782E+04  0.15068609099E+04 0.  0.
        5    1    3    3  502    0 -0.51802867425E+03  0.17112350143E+03 -0.11877503906E+04  0.13070616054E+04  0.46999998093E+01 0.  1.
       -5    1    3    3    0  502  0.51802867425E+03 -0.17112350143E+03  0.95694458966E+02  0.55391017283E+03  0.46999998093E+01 0. -1.
</event>
<event>
 5   0  0.1427609E-04  0.1493797E+04  0.7818609E-02  0.8888589E-01
        1   -1    0    0  501    0  0.00000000000E+00  0.00000000000E+00  0.11441966266E+04  0.11441966266E+04  0.50400001928E-02 0.  1.
       -1   -1    0    0    0  501  0.00000000000E+00  0.00000000000E+00 -0.48755345150E+03  0.48755345152E+03  0.50400001928E-02 0. -1.
    10030    2    1    2    0    0  0.00000000000E+00  0.00000000000E+00  0.65664317506E+03  0.16317500781E+04  0.14937965250E+04 0.  0.
        4    1    3    3  502    0  0.36271306415E+03  0.28147195717E+03 -0.31520958894E+03  0.55690746758E+03  0.12699999809E+01 0. -1.
       -4    1    3    3    0  502 -0.36271306415E+03 -0.28147195717E+03  0.97185276401E+03  0.10748426105E+04  0.12699999809E+01 0.  1.
</event>
<event>
 5   0  0.2641347E-04  0.1498567E+04  0.7818609E-02  0.8885406E-01
       -2   -1    0    0    0  501  0.00000000000E+00  0.00000000000E+00  0.55564411211E+03  0.55564411212E+03  0.25500000920E-02 0. -1.
        2   -1    0    0  501    0  0.00000000000E+00  0.00000000000E+00 -0.10104055107E+04  0.10104055107E+04  0.25500000920E-02 0.  1.
    10030    2    1    2    0    0  0.00000000000E+00  0.00000000000E+00 -0.45476139855E+03  0.15660496228E+04  0.14985671461E+04 0.  0.
        4    1    3    3  502    0  0.29554170308E+02 -0.33443867803E+03  0.47263553558E+03  0.57974877381E+03  0.12699999809E+01 0. -1.
       -4    1    3    3    0  502 -0.29554170308E+02  0.33443867803E+03 -0.92739693414E+03  0.98630084897E+03  0.12699999809E+01 0.  1.
</event>
<event>
 5   0  0.2618901E-04  0.1407400E+04  0.7818609E-02  0.8948479E-01
       -2   -1    0    0    0  501  0.00000000000E+00  0.00000000000E+00  0.55438211740E+03  0.55438211740E+03  0.25500000920E-02 0. -1.
        2   -1    0    0  501    0  0.00000000000E+00  0.00000000000E+00 -0.89323518666E+03  0.89323518667E+03  0.25500000920E-02 0.  1.
    10030    2    1    2    0    0  0.00000000000E+00  0.00000000000E+00 -0.33885306927E+03  0.14476173041E+04  0.14073998922E+04 0.  0.
        1    1    3    3  502    0 -0.77871263151E+02 -0.42227804917E+03 -0.74286179432E+03  0.85803632203E+03  0.50400001928E-02 0.  1.
       -1    1    3    3    0  502  0.77871263151E+02  0.42227804917E+03  0.40400872505E+03  0.58958098204E+03  0.50400001928E-02 0. -1.
</event>
<event>
 5   0  0.1443750E-04  0.1501931E+04  0.7818609E-02  0.8883170E-01
       -1   -1    0    0    0  501  0.00000000000E+00  0.00000000000E+00  0.31281702331E+03  0.31281702335E+03  0.50400001928E-02 0.  1.
        1   -1    0    0  501    0  0.00000000000E+00  0.00000000000E+00 -0.18028088218E+04  0.18028088219E+04  0.50400001928E-02 0. -1.
    10030    2    1    2    0    0  0.00000000000E+00  0.00000000000E+00 -0.14899917985E+04  0.21156258452E+04  0.15019311426E+04 0.  0.
        2    1    3    3  502    0 -0.37269101836E+03 -0.17375736623E+03  0.14013989060E+03  0.43442997874E+03  0.25500000920E-02 0.  1.
       -2    1    3    3    0  502  0.37269101836E+03  0.17375736623E+03 -0.16301316891E+04  0.16811958665E+04  0.25500000920E-02 0. -1.
</event>
<event>
 5   0  0.2696040E-04  0.1486469E+04  0.7818609E-02  0.8893501E-01
        2   -1    0    0  501    0  0.00000000000E+00  0.00000000000E+00  0.12711442534E+04  0.12711442534E+04  0.25500000920E-02 0.  1.
       -2   -1    0    0    0  501  0.00000000000E+00  0.00000000000E+00 -0.43456707088E+03  0.43456707089E+03  0.25500000920E-02 0. -1.
    10030    2    1    2    0    0  0.00000000000E+00  0.00000000000E+00  0.83657718251E+03  0.17057113243E+04  0.14864688828E+04 0.  0.
        2    1    3    3  502    0  0.53519913654E+03 -0.13395473167E+03 -0.15317567294E+03  0.57257730716E+03  0.25500000920E-02 0. -1.
       -2    1    3    3    0  502 -0.53519913654E+03  0.13395473167E+03  0.98975285545E+03  0.11331340171E+04  0.25500000920E-02 0.  1.
</event>
<event>
 5   0  0.2618901E-04  0.1478041E+04  0.7818609E-02  0.8899188E-01
       -2   -1    0    0    0  501  0.00000000000E+00  0.00000000000E+00  0.40744801483E+03  0.40744801484E+03  0.25500000920E-02 0.  1.
        2   -1    0    0  501    0  0.00000000000E+00  0.00000000000E+00 -0.13404197861E+04  0.13404197861E+04  0.25500000920E-02 0. -1.
    10030    2    1    2    0    0  0.00000000000E+00  0.00000000000E+00 -0.93297177127E+03  0.17478678009E+04  0.14780411103E+04 0.  0.
        1    1    3    3  502    0 -0.16774099075E+03  0.22757782919E+03  0.34096992283E+03  0.44293249668E+03  0.50400001928E-02 0.  1.
       -1    1    3    3    0  502  0.16774099075E+03 -0.22757782919E+03 -0.12739416941E+04  0.13049353043E+04  0.50400001928E-02 0. -1.
</event>
<event>
 5   0  0.2646718E-04  0.1494481E+04  0.7818609E-02  0.8888131E-01
       -2   -1    0    0    0  501  0.00000000000E+00  0.00000000000E+00  0.48065084887E+03  0.48065084888E+03  0.25500000920E-02 0. -1.
        2   -1    0    0  501    0  0.00000000000E+00  0.00000000000E+00 -0.11616924293E+04  0.11616924293E+04  0.25500000920E-02 0.  1.
    10030    2    1    2    0    0  0.00000000000E+00  0.00000000000E+00 -0.68104158047E+03  0.16423432782E+04  0.14944811170E+04 0.  0.
        3    1    3    3  502    0  0.31187314428E+03 -0.65861595538E+03 -0.15885119220E+03  0.74583747980E+03  0.10100000352E+00 0. -1.
       -3    1    3    3    0  502 -0.31187314428E+03  0.65861595538E+03 -0.52219038828E+03  0.89650579843E+03  0.10100000352E+00 0.  1.
</event>
<event>
 5   0  0.2696040E-04  0.1494339E+04  0.7818609E-02  0.8888226E-01
       -2   -1    0    0    0  501  0.00000000000E+00  0.00000000000E+00  0.37165116425E+03  0.37165116426E+03  0.25500000920E-02 0. -1.
        2   -1    0    0  501    0  0.00000000000E+00  0.00000000000E+00 -0.15021127155E+04  0.15021127155E+04  0.25500000920E-02 0.  1.
    10030    2    1    2    0    0  0.00000000000E+00  0.00000000000E+00 -0.11304615512E+04  0.18737638797E+04  0.14943385688E+04 0.  0.
        2    1    3    3  502    0  0.71928314398E+03 -0.18969076229E+03 -0.65310385014E+03  0.98989669441E+03  0.25500000920E-02 0.  1.
       -2    1    3    3    0  502 -0.71928314398E+03  0.18969076229E+03 -0.47735770108E+03  0.88386718533E+03  0.25500000920E-02 0. -1.
</event>
<event>
 5   0  0.1484251E-04  0.1493580E+04  0.7818609E-02  0.8888733E-01
       -1   -1    0    0    0  501  0.00000000000E+00  0.00000000000E+00  0.21024428938E+03  0.21024428944E+03  0.50400001928E-02 0. -1.
        1   -1    0    0  501    0  0.00000000000E+00  0.00000000000E+00 -0.26526070681E+04  0.26526070681E+04  0.50400001928E-02 0.  1.
    10030    2    1    2    0    0  0.00000000000E+00  0.00000000000E+00 -0.24423627787E+04  0.28628513575E+04  0.14935802464E+04 0.  0.
        5    1    3    3  502    0 -0.25321208622E+03  0.49538109920E+03 -0.21760231546E+04  0.22460226297E+04  0.46999998093E+01 0.  1.
       -5    1    3    3    0  502  0.25321208622E+03 -0.49538109920E+03 -0.26633962414E+03  0.61682872780E+03  0.46999998093E+01 0. -1.
</event>
<event>
 5   0  0.2641347E-04  0.1500582E+04  0.7818609E-02  0.8884066E-01
       -2   -1    0    0    0  501  0.00000000000E+00  0.00000000000E+00  0.27346419577E+03  0.27346419578E+03  0.25500000920E-02 0. -1.
        2   -1    0    0  501    0  0.00000000000E+00  0.00000000000E+00 -0.20585384502E+04  0.20585384502E+04  0.25500000920E-02 0.  1.
    10030    2    1    2    0    0  0.00000000000E+00  0.00000000000E+00 -0.17850742544E+04  0.23320026460E+04  0.15005819694E+04 0.  0.
        4    1    3    3  502    0 -0.22059528329E+03  0.19233532623E+03 -0.19661700942E+04  0.19878333957E+04  0.12699999809E+01 0.  1.
       -4    1    3    3    0  502  0.22059528329E+03 -0.19233532623E+03  0.18109583982E+03  0.34416925026E+03  0.12699999809E+01 0. -1.
</event>
<event>
 5   0  0.1474203E-04  0.1501074E+04  0.7818609E-02  0.8883739E-01
       -1   -1    0    0    0  501  0.00000000000E+00  0.00000000000E+00  0.64354517621E+03  0.64354517623E+03  0.50400001928E-02 0.  1.
        1   -1    0    0  501    0  0.00000000000E+00  0.00000000000E+00 -0.87531685088E+03  0.87531685089E+03  0.50400001928E-02 0. -1.
    10030    2    1    2    0    0  0.00000000000E+00  0.00000000000E+00 -0.23177167467E+03  0.15188620271E+04  0.15010741981E+04 0.  0.
        3    1    3    3  502    0  0.54678686517E+02  0.21037093785E+03 -0.84277193576E+03  0.87035063978E+03  0.10100000352E+00 0. -1.
       -3    1    3    3    0  502 -0.54678686517E+02 -0.21037093785E+03  0.61100026110E+03  0.64851138734E+03  0.10100000352E+00 0.  1.
</event>
<event>
 5   0  0.1426929E-04  0.1501779E+04  0.7818609E-02  0.8883271E-01
        1   -1    0    0  501    0  0.00000000000E+00  0.00000000000E+00  0.13003063320E+04  0.13003063320E+04  0.50400001928E-02 0. -1.
       -1   -1    0    0    0  501  0.00000000000E+00  0.00000000000E+00 -0.43361700350E+03  0.43361700353E+03  0.50400001928E-02 0.  1.
    10030    2    1    2    0    0  0.00000000000E+00  0.00000000000E+00  0.86668932846E+03  0.17339233355E+04  0.15017788590E+04 0.  0.
        1    1    3    3  502    0 -0.68100294401E+03  0.12643986455E+03  0.76813869837E+03  0.10343061003E+04  0.50400001928E-02 0. -1.
       -1    1    3    3    0  502  0.68100294401E+03 -0.12643986455E+03  0.98550630092E+02  0.69961723522E+03  0.50400001928E-02 0.  1.
</event>
<event>
 5   0  0.2646718E-04  0.1500214E+04  0.7818609E-02  0.8884311E-01
       -2   -1    0    0    0  501  0.00000000000E+00  0.00000000000E+00  0.38606508411E+03  0.38606508412E+03  0.25500000920E-02 0. -1.
        2   -1    0    0  501    0  0.00000000000E+00  0.00000000000E+00 -0.14574236963E+04  0.14574236963E+04  0.25500000920E-02 0.  1.
    10030    2    1    2    0    0  0.00000000000E+00  0.00000000000E+00 -0.10713586122E+04  0.18434887804E+04  0.15002138539E+04 0.  0.
        3    1    3    3  502    0 -0.41979666639E+03 -0.51400980695E+03 -0.96528247136E+03  0.11714117903E+04  0.10100000352E+00 0.  1.
       -3    1    3    3    0  502  0.41979666639E+03  0.51400980695E+03 -0.10607614081E+03  0.67207699009E+03  0.10100000352E+00 0. -1.
</event>
<event>
 5   0  0.1004313E-04  0.1499875E+04  0.7818609E-02  0.8884536E-01
       -3   -1    0    0    0  501  0.00000000000E+00  0.00000000000E+00  0.53611290091E+03  0.53611291042E+03  0.10100000352E+00 0.  1.
        3   -1    0    0  501    0  0.00000000000E+00  0.00000000000E+00 -0.10490438257E+04  0.10490438306E+04  0.10100000352E+00 0. -1.
    10030    2    1    2    0    0  0.00000000000E+00  0.00000000000E+00 -0.51293092484E+03  0.15851567410E+04  0.14998745814E+04 0.  0.
        2    1    3    3  502    0  0.11020179382E+03  0.26869901611E+03  0.47426890750E+03  0.55612462025E+03  0.25500000920E-02 0.  1.
       -2    1    3    3    0  502 -0.11020179382E+03 -0.26869901611E+03 -0.98719983234E+03  0.10290321208E+04  0.25500000920E-02 0. -1.
</event>
<event>
 5   0  0.1474203E-04  0.1500199E+04  0.7818609E-02  0.8884321E-01
        1   -1    0    0  501    0  0.00000000000E+00  0.00000000000E+00  0.20402178474E+04  0.20402178474E+04  0.50400001928E-02 0.  1.
       -1   -1    0    0    0  501  0.00000000000E+00  0.00000000000E+00 -0.27577901217E+03  0.27577901222E+03  0.50400001928E-02 0. -1.
    10030    2    1    2    0    0  0.00000000000E+00  0.00000000000E+00  0.17644388352E+04  0.23159968596E+04  0.15001990036E+04 0.  0.
        3    1    3    3  502    0 -0.16856043568E+03  0.84447177154E+01  0.20105255206E+04  0.20175967915E+04  0.10100000352E+00 0.  1.
       -3    1    3    3    0  502  0.16856043568E+03 -0.84447177154E+01 -0.24608668540E+03  0.29840006814E+03  0.10100000352E+00 0. -1.
</event>
<event>
 5   0  0.1427609E-04  0.1496408E+04  0.7818609E-02  0.8886845E-01
        1   -1    0    0  501    0  0.00000000000E+00  0.00000000000E+00  0.62197626273E+03  0.62197626275E+03  0.50400001928E-02 0.  1.
       -1   -1    0    0    0  501  0.00000000000E+00  0.00000000000E+00 -0.90004949024E+03  0.90004949026E+03  0.50400001928E-02 0. -1.
    10030    2    1    2    0    0  0.00000000000E+00  0.00000000000E+00 -0.27807322751E+03  0.15220257530E+04  0.14964082575E+04 0.  0.
        4    1    3    3  502    0 -0.46533495485E+03 -0.25340874117E+03 -0.67633676250E+03  0.85917730389E+03  0.12699999809E+01 0. -1.
       -4    1    3    3    0  502  0.46533495485E+03  0.25340874117E+03  0.39826353499E+03  0.66284844913E+03  0.12699999809E+01 0.  1.
</event>
<event>
 5   0  0.1484251E-04  0.1585168E+04  0.7818609E-02  0.8829712E-01
        1   -1    0    0  501    0  0.00000000000E+00  0.00000000000E+00  0.12922539378E+04  0.12922539378E+04  0.50400001928E-02 0.  1.
       -1   -1    0    0    0  501  0.00000000000E+00  0.00000000000E+00 -0.48611935658E+03  0.48611935661E+03  0.50400001928E-02 0. -1.
    10030    2    1    2    0    0  0.00000000000E+00  0.00000000000E+00  0.80613458122E+03  0.17783732944E+04  0.15851683227E+04 0.  0.
        5    1    3    3  502    0  0.35826925373E+03 -0.31630859579E+01  0.11962002044E+04  0.12487128903E+04  0.46999998093E+01 0.  1.
       -5    1    3    3    0  502 -0.35826925373E+03  0.31630859579E+01 -0.39006562322E+03  0.52966040413E+03  0.46999998093E+01 0. -1.
</event>
<event>
 5   0  0.1427609E-04  0.1491318E+04  0.7818609E-02  0.8890247E-01
       -1   -1    0    0    0  501  0.00000000000E+00  0.00000000000E+00  0.39157785774E+03  0.39157785777E+03  0.50400001928E-02 0. -1.
        1   -1    0    0  501    0  0.00000000000E+00  0.00000000000E+00 -0.14199142848E+04  0.14199142848E+04  0.50400001928E-02 0.  1.
    10030    2    1    2    0    0  0.00000000000E+00  0.00000000000E+00 -0.10283364271E+04  0.18114921426E+04  0.14913175300E+04 0.  0.
        4    1    3    3  502    0 -0.54562157245E+03 -0.29545832028E+03 -0.10164796892E+04  0.11908950797E+04  0.12699999809E+01 0.  1.
       -4    1    3    3    0  502  0.54562157245E+03  0.29545832028E+03 -0.11856737864E+02  0.62059706290E+03  0.12699999809E+01 0. -1.
</event>
<event>
 5   0  0.2618901E-04  0.1502989E+04  0.7818609E-02  0.8882468E-01
       -2   -1    0    0    0  501  0.00000000000E+00  0.00000000000E+00  0.42803270002E+03  0.42803270003E+03  0.25500000920E-02 0. -1.
        2   -1    0    0  501    0  0.00000000000E+00  0.00000000000E+00 -0.13193948979E+04  0.13193948979E+04  0.25500000920E-02 0.  1.
    10030    2    1    2    0    0  0.00000000000E+00  0.00000000000E+00 -0.89136219789E+03  0.17474275979E+04  0.15029892356E+04 0.  0.
        1    1    3    3  502    0  0.33872163360E+03  0.50863241432E+03  0.62836921248E+02  0.61431893725E+03  0.50400001928E-02 0. -1.
       -1    1    3    3    0  502 -0.33872163360E+03 -0.50863241432E+03 -0.95419911914E+03  0.11331086607E+04  0.50400001928E-02 0.  1.
</event>
<event>
 5   0  0.1427609E-04  0.1504803E+04  0.7818609E-02  0.8881265E-01
        1   -1    0    0  501    0  0.00000000000E+00  0.00000000000E+00  0.14858160225E+04  0.14858160225E+04  0.50400001928E-02 0. -1.
       -1   -1    0    0    0  501  0.00000000000E+00  0.00000000000E+00 -0.38100837242E+03  0.38100837245E+03  0.50400001928E-02 0.  1.
    10030    2    1    2    0    0  0.00000000000E+00  0.00000000000E+00  0.11048076501E+04  0.18668243950E+04  0.15048034350E+04 0.  0.
        4    1    3    3  502    0  0.54040054315E+03  0.23353476649E+03  0.11336713634E+04  0.12774128570E+04  0.12699999809E+01 0. -1.
       -4    1    3    3    0  502 -0.54040054315E+03 -0.23353476649E+03 -0.28863713323E+02  0.58941153793E+03  0.12699999809E+01 0.  1.
</event>
<event>
 5   0  0.2646718E-04  0.1499218E+04  0.7818609E-02  0.8884973E-01
        2   -1    0    0  501    0  0.00000000000E+00  0.00000000000E+00  0.89816924709E+03  0.89816924710E+03  0.25500000920E-02 0.  1.
       -2   -1    0    0    0  501  0.00000000000E+00  0.00000000000E+00 -0.62562133189E+03  0.62562133190E+03  0.25500000920E-02 0. -1.
    10030    2    1    2    0    0  0.00000000000E+00  0.00000000000E+00  0.27254791520E+03  0.15237905790E+04  0.14992182505E+04 0.  0.
        3    1    3    3  502    0 -0.46059026464E+03 -0.51450644787E+03  0.43269337930E+03  0.81491339876E+03  0.10100000352E+00 0.  1.
       -3    1    3    3    0  502  0.46059026464E+03  0.51450644787E+03 -0.16014546410E+03  0.70887718023E+03  0.10100000352E+00 0. -1.
</event>
<event>
 5   0  0.2641347E-04  0.1484755E+04  0.7818609E-02  0.8894654E-01
        2   -1    0    0  501    0  0.00000000000E+00  0.00000000000E+00  0.19684421940E+04  0.19684421940E+04  0.25500000920E-02 0. -1.
       -2   -1    0    0    0  501  0.00000000000E+00  0.00000000000E+00 -0.27998002059E+03  0.27998002060E+03  0.25500000920E-02 0.  1.
    10030    2    1    2    0    0  0.00000000000E+00  0.00000000000E+00  0.16884621735E+04  0.22484222147E+04  0.14847551799E+04 0.  0.
        4    1    3    3  502    0  0.40384422714E+03  0.60160448195E+03  0.59955987311E+03  0.94047422444E+03  0.12699999809E+01 0.  1.
       -4    1    3    3    0  502 -0.40384422714E+03 -0.60160448195E+03  0.10889023003E+04  0.13079479902E+04  0.12699999809E+01 0. -1.
</event>
<event>
 5   0  0.1427609E-04  0.1502473E+04  0.7818609E-02  0.8882810E-01
        1   -1    0    0  501    0  0.00000000000E+00  0.00000000000E+00  0.73643592941E+03  0.73643592943E+03  0.50400001928E-02 0. -1.
       -1   -1    0    0    0  501  0.00000000000E+00  0.00000000000E+00 -0.76633500797E+03  0.76633500798E+03  0.50400001928E-02 0.  1.
    10030    2    1    2    0    0  0.00000000000E+00  0.00000000000E+00 -0.29899078553E+02  0.15027709374E+04  0.15024734725E+04 0.  0.
        4    1    3    3  502    0  0.30647448727E+03 -0.64343363253E+02 -0.69793782197E+03  0.76497417994E+03  0.12699999809E+01 0.  1.
       -4    1    3    3    0  502 -0.30647448727E+03  0.64343363253E+02  0.66803874341E+03  0.73779675748E+03  0.12699999809E+01 0. -1.
</event>
<event>
 5   0  0.1426929E-04  0.1488348E+04  0.7818609E-02  0.8892238E-01
        1   -1    0    0  501    0  0.00000000000E+00  0.00000000000E+00  0.15953146145E+04  0.15953146145E+04  0.50400001928E-02 0.  1.
       -1   -1    0    0    0  501  0.00000000000E+00  0.00000000000E+00 -0.34713861822E+03  0.34713861826E+03  0.50400001928E-02 0. -1.
    10030    2    1    2    0    0  0.00000000000E+00  0.00000000000E+00  0.12481759963E+04  0.19424532328E+04  0.14883484954E+04 0.  0.
        1    1    3    3  502    0 -0.62785778544E+03 -0.29723638947E+03  0.27574327337E+03  0.74738826777E+03  0.50400001928E-02 0. -1.
       -1    1    3    3    0  502  0.62785778544E+03  0.29723638947E+03  0.97243272294E+03  0.11950649650E+04  0.50400001928E-02 0.  1.
</event>
<event>
 5   0  0.2696040E-04  0.1566280E+04  0.7818609E-02  0.8841535E-01
       -2   -1    0    0    0  501  0.00000000000E+00  0.00000000000E+00  0.34294563105E+03  0.34294563106E+03  0.25500000920E-02 0.  1.
        2   -1    0    0  501    0  0.00000000000E+00  0.00000000000E+00 -0.17883544384E+04  0.17883544384E+04  0.25500000920E-02 0. -1.
    10030    2    1    2    0    0  0.00000000000E+00  0.00000000000E+00 -0.14454088074E+04  0.21313000695E+04  0.15662801045E+04 0.  0.
        2    1    3    3  502    0 -0.25042785193E+02 -0.70497171115E+03 -0.25986054802E+03  0.75175777949E+03  0.25500000920E-02 0.  1.
       -2    1    3    3    0  502  0.25042785193E+02  0.70497171115E+03 -0.11855482594E+04  0.13795422900E+04  0.25500000920E-02 0. -1.
</event>
<event>
 5   0  0.2646718E-04  0.1499497E+04  0.7818609E-02  0.8884788E-01
       -2   -1    0    0    0  501  0.00000000000E+00  0.00000000000E+00  0.50162970003E+03  0.50162970003E+03  0.25500000920E-02 0.  1.
        2   -1    0    0  501    0  0.00000000000E+00  0.00000000000E+00 -0.11205925494E+04  0.11205925494E+04  0.25500000920E-02 0. -1.
    10030    2    1    2    0    0  0.00000000000E+00  0.00000000000E+00 -0.61896284941E+03  0.16222222495E+04  0.14994965881E+04 0.  0.
        3    1    3    3  502    0 -0.32041053237E+03 -0.64520541435E+03 -0.53425935817E+03  0.89687569259E+03  0.10100000352E+00 0. -1.
       -3    1    3    3    0  502  0.32041053237E+03  0.64520541435E+03 -0.84703491238E+02  0.72534655689E+03  0.10100000352E+00 0.  1.
</event>
<event>
 5   0  0.1427609E-04  0.1513599E+04  0.7818609E-02  0.8875460E-01
        1   -1    0    0  501    0  0.00000000000E+00  0.00000000000E+00  0.11844938114E+04  0.11844938114E+04  0.50400001928E-02 0. -1.
       -1   -1    0    0    0  501  0.00000000000E+00  0.00000000000E+00 -0.48353625979E+03  0.48353625981E+03  0.50400001928E-02 0.  1.
    10030    2    1    2    0    0  0.00000000000E+00  0.00000000000E+00  0.70095755164E+03  0.16680300712E+04  0.15135992962E+04 0.  0.
        4    1    3    3  502    0  0.23264959926E+03  0.18692986326E+03 -0.41594681347E+03  0.51193942449E+03  0.12699999809E+01 0.  1.
       -4    1    3    3    0  502 -0.23264959926E+03 -0.18692986326E+03  0.11169043651E+04  0.11560906468E+04  0.12699999809E+01 0. -1.
</event>
<event>
 5   0  0.1443750E-04  0.1498998E+04  0.7818609E-02  0.8885119E-01
        1   -1    0    0  501    0  0.00000000000E+00  0.00000000000E+00  0.12833395836E+04  0.12833395836E+04  0.50400001928E-02 0.  1.
       -1   -1    0    0    0  501  0.00000000000E+00  0.00000000000E+00 -0.43772421554E+03  0.43772421557E+03  0.50400001928E-02 0. -1.
    10030    2    1    2    0    0  0.00000000000E+00  0.00000000000E+00  0.84561536803E+03  0.17210637992E+04  0.14989980821E+04 0.  0.
        2    1    3    3  502    0 -0.36767325440E+02 -0.52757291647E+03 -0.18696724494E+03  0.56092937978E+03  0.25500000920E-02 0. -1.
       -2    1    3    3    0  502  0.36767325440E+02  0.52757291647E+03  0.10325826130E+04  0.11601344194E+04  0.25500000920E-02 0.  1.
</event>
<event>
 5   0  0.1426929E-04  0.1496118E+04  0.7818609E-02  0.8887038E-01
       -1   -1    0    0    0  501  0.00000000000E+00  0.00000000000E+00  0.91562266061E+03  0.91562266062E+03  0.50400001928E-02 0. -1.
        1   -1    0    0  501    0  0.00000000000E+00  0.00000000000E+00 -0.61116067820E+03  0.61116067822E+03  0.50400001928E-02 0.  1.
    10030    2    1    2    0    0  0.00000000000E+00  0.00000000000E+00  0.30446198241E+03  0.15267833388E+04  0.14961183994E+04 0.  0.
        1    1    3    3  502    0 -0.10783300852E+02  0.32717751986E+02 -0.61035078424E+03  0.61132218242E+03  0.50400001928E-02 0.  1.
       -1    1    3    3    0  502  0.10783300852E+02 -0.32717751986E+02  0.91481276665E+03  0.91546115642E+03  0.50400001928E-02 0. -1.
</event>
<event>
 5   0  0.2696040E-04  0.1500915E+04  0.7818609E-02  0.8883845E-01
       -2   -1    0    0    0  501  0.00000000000E+00  0.00000000000E+00  0.18899905356E+03  0.18899905358E+03  0.25500000920E-02 0. -1.
        2   -1    0    0  501    0  0.00000000000E+00  0.00000000000E+00 -0.29798356982E+04  0.29798356982E+04  0.25500000920E-02 0.  1.
    10030    2    1    2    0    0  0.00000000000E+00  0.00000000000E+00 -0.27908366446E+04  0.31688347517E+04  0.15009145569E+04 0.  0.
        2    1    3    3  502    0 -0.21849146263E+03  0.50204679483E+03 -0.24789677424E+04  0.25387143540E+04  0.25500000920E-02 0.  1.
       -2    1    3    3    0  502  0.21849146263E+03 -0.50204679483E+03 -0.31186890217E+03  0.63012039769E+03  0.25500000920E-02 0. -1.
</event>
<event>
 5   0  0.1484251E-04  0.1478561E+04  0.7818609E-02  0.8898836E-01
       -1   -1    0    0    0  501  0.00000000000E+00  0.00000000000E+00  0.85443897371E+03  0.85443897372E+03  0.50400001928E-02 0.  1.
        1   -1    0    0  501    0  0.00000000000E+00  0.00000000000E+00 -0.63964279043E+03  0.63964279045E+03  0.50400001928E-02 0. -1.
    10030    2    1    2    0    0  0.00000000000E+00  0.00000000000E+00  0.21479618328E+03  0.14940817642E+04  0.14785610970E+04 0.  0.
        5    1    3    3  502    0 -0.49981635150E+03  0.54379155564E+03  0.13916048144E+03  0.75160719182E+03  0.46999998093E+01 0.  1.
       -5    1    3    3    0  502  0.49981635150E+03 -0.54379155564E+03  0.75635701833E+02  0.74247457236E+03  0.46999998093E+01 0. -1.
</event>
<event>
 5   0  0.1474203E-04  0.1498171E+04  0.7818609E-02  0.8885670E-01
        1   -1    0    0  501    0  0.00000000000E+00  0.00000000000E+00  0.15827956374E+04  0.15827956374E+04  0.50400001928E-02 0. -1.
       -1   -1    0    0    0  501  0.00000000000E+00  0.00000000000E+00 -0.35451788623E+03  0.35451788627E+03  0.50400001928E-02 0.  1.
    10030    2    1    2    0    0  0.00000000000E+00  0.00000000000E+00  0.12282777511E+04  0.19373135236E+04  0.14981713704E+04 0.  0.
        3    1    3    3  502    0 -0.57896871454E+03 -0.28084196286E+03  0.11100164123E+04  0.12830484894E+04  0.10100000352E+00 0. -1.
       -3    1    3    3    0  502  0.57896871454E+03  0.28084196286E+03  0.11826133885E+03  0.65426503420E+03  0.10100000352E+00 0.  1.
</event>
<event>
 5   0  0.2646718E-04  0.1490806E+04  0.7818609E-02  0.8890590E-01
        2   -1    0    0  501    0  0.00000000000E+00  0.00000000000E+00  0.84265205412E+03  0.84265205413E+03  0.25500000920E-02 0. -1.
       -2   -1    0    0    0  501  0.00000000000E+00  0.00000000000E+00 -0.65937740722E+03  0.65937740723E+03  0.25500000920E-02 0.  1.
    10030    2    1    2    0    0  0.00000000000E+00  0.00000000000E+00  0.18327464690E+03  0.15020294614E+04  0.14908061264E+04 0.  0.
        3    1    3    3  502    0  0.36196924775E+03  0.16410754957E+03  0.72699775855E+03  0.82854014705E+03  0.10100000352E+00 0. -1.
       -3    1    3    3    0  502 -0.36196924775E+03 -0.16410754957E+03 -0.54372311164E+03  0.67348931430E+03  0.10100000352E+00 0.  1.
</event>
<event>
 5   0  0.2646718E-04  0.1497655E+04  0.7818609E-02  0.8886014E-01
       -2   -1    0    0    0  501  0.00000000000E+00  0.00000000000E+00  0.28519393801E+03  0.28519393802E+03  0.25500000920E-02 0. -1.
        2   -1    0    0  501    0  0.00000000000E+00  0.00000000000E+00 -0.19661802641E+04  0.19661802641E+04  0.25500000920E-02 0.  1.
    10030    2    1    2    0    0  0.00000000000E+00  0.00000000000E+00 -0.16809863261E+04  0.22513742021E+04  0.14976550903E+04 0.  0.
        3    1    3    3  502    0  0.30901140572E+03  0.27223429292E+03 -0.17806574020E+04  0.18276598022E+04  0.10100000352E+00 0.  1.
       -3    1    3    3    0  502 -0.30901140572E+03 -0.27223429292E+03  0.99671075921E+02  0.42371439991E+03  0.10100000352E+00 0. -1.
</event>
<event>
 5   0  0.1426929E-04  0.1489373E+04  0.7818609E-02  0.8891551E-01
       -1   -1    0    0    0  501  0.00000000000E+00  0.00000000000E+00  0.58061821761E+03  0.58061821764E+03  0.50400001928E-02 0. -1.
        1   -1    0    0  501    0  0.00000000000E+00  0.00000000000E+00 -0.95511653857E+03  0.95511653858E+03  0.50400001928E-02 0.  1.
    10030    2    1    2    0    0  0.00000000000E+00  0.00000000000E+00 -0.37449832096E+03  0.15357347562E+04  0.14893731061E+04 0.  0.
        1    1    3    3  502    0 -0.10360013282E+02  0.55492018880E+03  0.32470818534E+03  0.64302344550E+03  0.50400001928E-02 0. -1.
       -1    1    3    3    0  502  0.10360013282E+02 -0.55492018880E+03 -0.69920650630E+03  0.89271131072E+03  0.50400001928E-02 0.  1.
</event>
<event>
 5   0  0.2618901E-04  0.1497544E+04  0.7818609E-02  0.8886088E-01
       -2   -1    0    0    0  501  0.00000000000E+00  0.00000000000E+00  0.32820326470E+03  0.32820326471E+03  0.25500000920E-02 0.  1.
        2   -1    0    0  501    0  0.00000000000E+00  0.00000000000E+00 -0.17082683274E+04  0.17082683274E+04  0.25500000920E-02 0. -1.
    10030    2    1    2    0    0  0.00000000000E+00  0.00000000000E+00 -0.13800650627E+04  0.20364715921E+04  0.14975436448E+04 0.  0.
        1    1    3    3  502    0  0.87173082370E+02 -0.71211910568E+03 -0.98152340846E+03  0.12157717583E+04  0.50400001928E-02 0.  1.
       -1    1    3    3    0  502 -0.87173082370E+02  0.71211910568E+03 -0.39854165422E+03  0.82069983376E+03  0.50400001928E-02 0. -1.
</event>
<event>
 5   0  0.1443750E-04  0.1498496E+04  0.7818609E-02  0.8885454E-01
        1   -1    0    0  501    0  0.00000000000E+00  0.00000000000E+00  0.12233500158E+04  0.12233500158E+04  0.50400001928E-02 0. -1.
       -1   -1    0    0    0  501  0.00000000000E+00  0.00000000000E+00 -0.45888129174E+03  0.45888129177E+03  0.50400001928E-02 0.  1.
    10030    2    1    2    0    0  0.00000000000E+00  0.00000000000E+00  0.76446872406E+03  0.16822313076E+04  0.14984958265E+04 0.  0.
        2    1    3    3  502    0 -0.61075106990E+03 -0.22979826555E+03 -0.31076908757E+02  0.65329157847E+03  0.25500000920E-02 0.  1.
       -2    1    3    3    0  502  0.61075106990E+03  0.22979826555E+03  0.79554563282E+03  0.10289397291E+04  0.25500000920E-02 0. -1.
</event>
<event>
 5   0  0.1426929E-04  0.1495403E+04  0.7818609E-02  0.8887515E-01
       -1   -1    0    0    0  501  0.00000000000E+00  0.00000000000E+00  0.31294083892E+03  0.31294083896E+03  0.50400001928E-02 0.  1.
        1   -1    0    0  501    0  0.00000000000E+00  0.00000000000E+00 -0.17864645414E+04  0.17864645414E+04  0.50400001928E-02 0. -1.
    10030    2    1    2    0    0  0.00000000000E+00  0.00000000000E+00 -0.14735237024E+04  0.20994053803E+04  0.14954032397E+04 0.  0.
        1    1    3    3  502    0  0.69647885414E+03  0.26460369114E+03 -0.82510540608E+03  0.11117089722E+04  0.50400001928E-02 0.  1.
       -1    1    3    3    0  502 -0.69647885414E+03 -0.26460369114E+03 -0.64841829635E+03  0.98769640816E+03  0.50400001928E-02 0. -1.
</event>
<event>
 5   0  0.1004313E-04  0.1482398E+04  0.7818609E-02  0.8896243E-01
        4   -1    0    0  501    0  0.00000000000E+00  0.00000000000E+00  0.73279684304E+03  0.73279794355E+03  0.12699999809E+01 0.  1.
       -4   -1    0    0    0  501  0.00000000000E+00  0.00000000000E+00 -0.74969522721E+03  0.74969630292E+03  0.12699999809E+01 0. -1.
    10030    2    1    2    0    0  0.00000000000E+00  0.00000000000E+00 -0.16898384172E+02  0.14824942465E+04  0.14823979342E+04 0.  0.
        2    1    3    3  502    0  0.73083396603E+03  0.32594964454E+02 -0.12760050694E+03  0.74260528344E+03  0.25500000920E-02 0. -1.
       -2    1    3    3    0  502 -0.73083396603E+03 -0.32594964454E+02  0.11070212277E+03  0.73988896303E+03  0.25500000920E-02 0.  1.
</event>
<event>
 5   0  0.2618901E-04  0.1495789E+04  0.7818609E-02  0.8887258E-01
       -2   -1    0    0    0  501  0.00000000000E+00  0.00000000000E+00  0.82996056596E+03  0.82996056597E+03  0.25500000920E-02 0.  1.
        2   -1    0    0  501    0  0.00000000000E+00  0.00000000000E+00 -0.67394318640E+03  0.67394318640E+03  0.25500000920E-02 0. -1.
    10030    2    1    2    0    0  0.00000000000E+00  0.00000000000E+00  0.15601737956E+03  0.15039037524E+04  0.14957891140E+04 0.  0.
        1    1    3    3  502    0 -0.37003801135E+03  0.64657489644E+03  0.14438990417E+03  0.75883836949E+03  0.50400001928E-02 0. -1.
       -1    1    3    3    0  502  0.37003801135E+03 -0.64657489644E+03  0.11627475392E+02  0.74506538288E+03  0.50400001928E-02 0.  1.
</event>
<event>
 5   0  0.1443750E-04  0.1511921E+04  0.7818609E-02  0.8876564E-01
       -1   -1    0    0    0  501  0.00000000000E+00  0.00000000000E+00  0.92733566484E+03  0.92733566485E+03  0.50400001928E-02 0. -1.
        1   -1    0    0  501    0  0.00000000000E+00  0.00000000000E+00 -0.61625608083E+03  0.61625608085E+03  0.50400001928E-02 0.  1.
    10030    2    1    2    0    0  0.00000000000E+00  0.00000000000E+00  0.31107958401E+03  0.15435917457E+04  0.15119209536E+04 0.  0.
        2    1    3    3  502    0 -0.29831355684E+03 -0.65953601675E+02 -0.55041811209E+03  0.62952438705E+03  0.25500000920E-02 0.  1.
       -2    1    3    3    0  502  0.29831355684E+03  0.65953601675E+02  0.86149769610E+03  0.91406735866E+03  0.25500000920E-02 0. -1.
</event>
<event>
 5   0  0.1443750E-04  0.1498970E+04  0.7818609E-02  0.8885138E-01
        1   -1    0    0  501    0  0.00000000000E+00  0.00000000000E+00  0.87987940717E+03  0.87987940719E+03  0.50400001928E-02 0. -1.
       -1   -1    0    0    0  501  0.00000000000E+00  0.00000000000E+00 -0.63841473621E+03  0.63841473623E+03  0.50400001928E-02 0.  1.
    10030    2    1    2    0    0  0.00000000000E+00  0.00000000000E+00  0.24146467097E+03  0.15182941434E+04  0.14989702861E+04 0.  0.
        2    1    3    3  502    0  0.17896743434E+03 -0.53084300603E+03 -0.38358623197E+03  0.67894185094E+03  0.25500000920E-02 0.  1.
       -2    1    3    3    0  502 -0.17896743434E+03  0.53084300603E+03  0.62505090294E+03  0.83935229247E+03  0.25500000920E-02 0. -1.
</event>
<event>
 5   0  0.2696040E-04  0.1491637E+04  0.7818609E-02  0.8890033E-01
       -2   -1    0    0    0  501  0.00000000000E+00  0.00000000000E+00  0.81464177013E+03  0.81464177013E+03  0.25500000920E-02 0. -1.
        2   -1    0    0  501    0  0.00000000000E+00  0.00000000000E+00 -0.68280981900E+03  0.68280981901E+03  0.25500000920E-02 0.  1.
    10030    2    1    2    0    0  0.00000000000E+00  0.00000000000E+00  0.13183195113E+03  0.14974515891E+04  0.14916372208E+04 0.  0.
        2    1    3    3  502    0 -0.26069926874E+03  0.12607220858E+03  0.75589929070E+03  0.80947022687E+03  0.25500000920E-02 0. -1.
       -2    1    3    3    0  502  0.26069926874E+03 -0.12607220858E+03 -0.62406733958E+03  0.68798136227E+03  0.25500000920E-02 0.  1.
</event>
<event>
 5   0  0.1004313E-04  0.1498751E+04  0.7818609E-02  0.8885284E-01
       -3   -1    0    0    0  501  0.00000000000E+00  0.00000000000E+00  0.96720896895E+03  0.96720897422E+03  0.10100000352E+00 0.  1.
        3   -1    0    0  501    0  0.00000000000E+00  0.00000000000E+00 -0.58060218341E+03  0.58060219220E+03  0.10100000352E+00 0. -1.
    10030    2    1    2    0    0  0.00000000000E+00  0.00000000000E+00  0.38660678554E+03  0.15478111664E+04  0.14987510134E+04 0.  0.
        5    1    3    3  502    0 -0.29154006139E+03 -0.52779559555E+02 -0.51752997284E+03  0.59635614534E+03  0.46999998093E+01 0. -1.
       -5    1    3    3    0  502  0.29154006139E+03  0.52779559555E+02  0.90413675837E+03  0.95145502108E+03  0.46999998093E+01 0.  1.
</event>
<event>
 5   0  0.1474203E-04  0.1494771E+04  0.7818609E-02  0.8887937E-01
       -1   -1    0    0    0  501  0.00000000000E+00  0.00000000000E+00  0.78017877201E+03  0.78017877203E+03  0.50400001928E-02 0. -1.
        1   -1    0    0  501    0  0.00000000000E+00  0.00000000000E+00 -0.71597081549E+03  0.71597081551E+03  0.50400001928E-02 0.  1.
    10030    2    1    2    0    0  0.00000000000E+00  0.00000000000E+00  0.64207956526E+02  0.14961495875E+04  0.14947711954E+04 0.  0.
        3    1    3    3  502    0 -0.11973393456E+03  0.61800615725E+03 -0.37115387169E+03  0.73076879528E+03  0.10100000352E+00 0.  1.
       -3    1    3    3    0  502  0.11973393456E+03 -0.61800615725E+03  0.43536182821E+03  0.76538079225E+03  0.10100000352E+00 0. -1.
</event>
<event>
 5   0  0.2734072E-04  0.1506195E+04  0.7818609E-02  0.8880344E-01
        2   -1    0    0  501    0  0.00000000000E+00  0.00000000000E+00  0.14515570242E+04  0.14515570242E+04  0.25500000920E-02 0. -1.
       -2   -1    0    0    0  501  0.00000000000E+00  0.00000000000E+00 -0.39072253181E+03  0.39072253182E+03  0.25500000920E-02 0.  1.
    10030    2    1    2    0    0  0.00000000000E+00  0.00000000000E+00  0.10608344924E+04  0.18422795560E+04  0.15061952537E+04 0.  0.
        5    1    3    3  502    0  0.67756444915E+03 -0.19426764599E+03  0.20611250822E+03  0.73439632153E+03  0.46999998093E+01 0.  1.
       -5    1    3    3    0  502 -0.67756444915E+03  0.19426764599E+03  0.85472198414E+03  0.11078832345E+04  0.46999998093E+01 0. -1.
</event>
<event>
 5   0  0.1474203E-04  0.1493954E+04  0.7818609E-02  0.8888484E-01
       -1   -1    0    0    0  501  0.00000000000E+00  0.00000000000E+00  0.13692193601E+04  0.13692193601E+04  0.50400001928E-02 0.  1.
        1   -1    0    0  501    0  0.00000000000E+00  0.00000000000E+00 -0.40751286906E+03  0.40751286909E+03  0.50400001928E-02 0. -1.
    10030    2    1    2    0    0  0.00000000000E+00  0.00000000000E+00  0.96170649104E+03  0.17767322292E+04  0.14939538277E+04 0.  0.
        3    1    3    3  502    0  0.16668063726E+03  0.60500071581E+03 -0.10131894769E+01  0.62754229954E+03  0.10100000352E+00 0. -1.
       -3    1    3    3    0  502 -0.16668063726E+03 -0.60500071581E+03  0.96271968052E+03  0.11491899297E+04  0.10100000352E+00 0.  1.
</event>
<event>
 5   0  0.2696040E-04  0.1496175E+04  0.7818609E-02  0.8887001E-01
       -2   -1    0    0    0  501  0.00000000000E+00  0.00000000000E+00  0.81412049857E+03  0.81412049857E+03  0.25500000920E-02 0.  1.
        2   -1    0    0  501    0  0.00000000000E+00  0.00000000000E+00 -0.68741000207E+03  0.68741000207E+03  0.25500000920E-02 0. -1.
    10030    2    1    2    0    0  0.00000000000E+00  0.00000000000E+00  0.12671049650E+03  0.15015305006E+04  0.14961745535E+04 0.  0.
        2    1    3    3  502    0  0.24866060952E+03 -0.70463710644E+03  0.99386740171E+02  0.75380586004E+03  0.25500000920E-02 0.  1.
       -2    1    3    3    0  502 -0.24866060952E+03  0.70463710644E+03  0.27323756331E+02  0.74772464061E+03  0.25500000920E-02 0. -1.
</event>
<event>
 5   0  0.2696040E-04  0.1502642E+04  0.7818609E-02  0.8882698E-01
       -2   -1    0    0    0  501  0.00000000000E+00  0.00000000000E+00  0.40458550342E+03  0.40458550343E+03  0.25500000920E-02 0.  1.
        2   -1    0    0  501    0  0.00000000000E+00  0.00000000000E+00 -0.13952145287E+04  0.13952145287E+04  0.25500000920E-02 0. -1.
    10030    2    1    2    0    0  0.00000000000E+00  0.00000000000E+00 -0.99062902524E+03  0.17998000321E+04  0.15026424358E+04 0.  0.
        2    1    3    3  502    0 -0.31154217850E+03  0.15145481307E+03  0.30322771138E+03  0.46037390711E+03  0.25500000920E-02 0.  1.
       -2    1    3    3    0  502  0.31154217850E+03 -0.15145481307E+03 -0.12938567366E+04  0.13394261250E+04  0.25500000920E-02 0. -1.
</event>
<event>
 5   0  0.1426929E-04  0.1471428E+04  0.7818609E-02  0.8903678E-01
        1   -1    0    0  501    0  0.00000000000E+00  0.00000000000E+00  0.19203877154E+04  0.19203877154E+04  0.50400001928E-02 0. -1.
       -1   -1    0    0    0  501  0.00000000000E+00  0.00000000000E+00 -0.28185735054E+03  0.28185735058E+03  0.50400001928E-02 0.  1.
    10030    2    1    2    0    0  0.00000000000E+00  0.00000000000E+00  0.16385303649E+04  0.22022450660E+04  0.14714284128E+04 0.  0.
        1    1    3    3  502    0 -0.73101824735E+03  0.82238528849E+02  0.83596765586E+03  0.11135496286E+04  0.50400001928E-02 0. -1.
       -1    1    3    3    0  502  0.73101824735E+03 -0.82238528849E+02  0.80256270902E+03  0.10886954374E+04  0.50400001928E-02 0.  1.
</event>
<event>
 5   0  0.2646718E-04  0.1501199E+04  0.7818609E-02  0.8883656E-01
        2   -1    0    0  501    0  0.00000000000E+00  0.00000000000E+00  0.18663074930E+04  0.18663074930E+04  0.25500000920E-02 0. -1.
       -2   -1    0    0    0  501  0.00000000000E+00  0.00000000000E+00 -0.30187940632E+03  0.30187940633E+03  0.25500000920E-02 0.  1.
    10030    2    1    2    0    0  0.00000000000E+00  0.00000000000E+00  0.15644280867E+04  0.21681868994E+04  0.15011992513E+04 0.  0.
        3    1    3    3  502    0  0.60502049229E+03  0.36894658517E+03  0.11395978449E+04  0.13419592532E+04  0.10100000352E+00 0. -1.
       -3    1    3    3    0  502 -0.60502049229E+03 -0.36894658517E+03  0.42483024179E+03  0.82622764619E+03  0.10100000352E+00 0.  1.
</event>
<event>
 5   0  0.2696040E-04  0.1489245E+04  0.7818609E-02  0.8891636E-01
        2   -1    0    0  501    0  0.00000000000E+00  0.00000000000E+00  0.44216264246E+03  0.44216264246E+03  0.25500000920E-02 0.  1.
       -2   -1    0    0    0  501  0.00000000000E+00  0.00000000000E+00 -0.12539797297E+04  0.12539797297E+04  0.25500000920E-02 0. -1.
    10030    2    1    2    0    0  0.00000000000E+00  0.00000000000E+00 -0.81181708726E+03  0.16961423722E+04  0.14892454343E+04 0.  0.
        2    1    3    3  502    0  0.31687688048E+03 -0.66600589365E+03 -0.52254817998E+03  0.90389789698E+03  0.25500000920E-02 0.  1.
       -2    1    3    3    0  502 -0.31687688048E+03  0.66600589365E+03 -0.28926890728E+03  0.79224447520E+03  0.25500000920E-02 0. -1.
</event>
<event>
 5   0  0.1474203E-04  0.1497036E+04  0.7818609E-02  0.8886426E-01
       -1   -1    0    0    0  501  0.00000000000E+00  0.00000000000E+00  0.61985227233E+03  0.61985227235E+03  0.50400001928E-02 0.  1.
        1   -1    0    0  501    0  0.00000000000E+00  0.00000000000E+00 -0.90389190200E+03  0.90389190201E+03  0.50400001928E-02 0. -1.
    10030    2    1    2    0    0  0.00000000000E+00  0.00000000000E+00 -0.28403962967E+03  0.15237441744E+04  0.14970363381E+04 0.  0.
        3    1    3    3  502    0 -0.32744948724E+03  0.64619789184E+03  0.49714307804E+02  0.72613112088E+03  0.10100000352E+00 0.  1.
       -3    1    3    3    0  502  0.32744948724E+03 -0.64619789184E+03 -0.33375393747E+03  0.79761305348E+03  0.10100000352E+00 0. -1.
</event>
<event>
 5   0  0.1474203E-04  0.1498766E+04  0.7818609E-02  0.8885274E-01
        1   -1    0    0  501    0  0.00000000000E+00  0.00000000000E+00  0.61138529458E+03  0.61138529461E+03  0.50400001928E-02 0.  1.
       -1   -1    0    0    0  501  0.00000000000E+00  0.00000000000E+00 -0.91852851887E+03  0.91852851888E+03  0.50400001928E-02 0. -1.
    10030    2    1    2    0    0  0.00000000000E+00  0.00000000000E+00 -0.30714322428E+03  0.15299138135E+04  0.14987659312E+04 0.  0.
        3    1    3    3  502    0 -0.68446218103E+03  0.28021613560E+03 -0.27676637880E+03  0.78968930507E+03  0.10100000352E+00 0. -1.
       -3    1    3    3    0  502  0.68446218103E+03 -0.28021613560E+03 -0.30376845486E+02  0.74022450841E+03  0.10100000352E+00 0.  1.
</event>
<event>
 5   0  0.1427609E-04  0.1495610E+04  0.7818609E-02  0.8887378E-01
        1   -1    0    0  501    0  0.00000000000E+00  0.00000000000E+00  0.11521372015E+04  0.11521372015E+04  0.50400001928E-02 0.  1.
       -1   -1    0    0    0  501  0.00000000000E+00  0.00000000000E+00 -0.48536926025E+03  0.48536926028E+03  0.50400001928E-02 0. -1.
    10030    2    1    2    0    0  0.00000000000E+00  0.00000000000E+00  0.66676794120E+03  0.16375064617E+04  0.14956095496E+04 0.  0.
        4    1    3    3  502    0  0.67166831817E+03  0.22124880297E+03  0.67167022683E+02  0.71035370365E+03  0.12699999809E+01 0. -1.
       -4    1    3    3    0  502 -0.67166831817E+03 -0.22124880297E+03  0.59960091852E+03  0.92715275809E+03  0.12699999809E+01 0.  1.
</event>
<event>
 5   0  0.2646718E-04  0.1496711E+04  0.7818609E-02  0.8886643E-01
        2   -1    0    0  501    0  0.00000000000E+00  0.00000000000E+00  0.80663020513E+03  0.80663020513E+03  0.25500000920E-02 0.  1.
       -2   -1    0    0    0  501  0.00000000000E+00  0.00000000000E+00 -0.69429076271E+03  0.69429076272E+03  0.25500000920E-02 0. -1.
    10030    2    1    2    0    0  0.00000000000E+00  0.00000000000E+00  0.11233944242E+03  0.15009209678E+04  0.14967109278E+04 0.  0.
        3    1    3    3  502    0 -0.42155692032E+03 -0.39078201173E+03 -0.42435981981E+03  0.71449428593E+03  0.10100000352E+00 0.  1.
       -3    1    3    3    0  502  0.42155692032E+03  0.39078201173E+03  0.53669926222E+03  0.78642668192E+03  0.10100000352E+00 0. -1.
</event>
<event>
 5   0  0.2696040E-04  0.1502578E+04  0.7818609E-02  0.8882740E-01
        2   -1    0    0  501    0  0.00000000000E+00  0.00000000000E+00  0.49521068416E+03  0.49521068417E+03  0.25500000920E-02 0.  1.
       -2   -1    0    0    0  501  0.00000000000E+00  0.00000000000E+00 -0.11397885824E+04  0.11397885824E+04  0.25500000920E-02 0. -1.
    10030    2    1    2    0    0  0.00000000000E+00  0.00000000000E+00 -0.64457789829E+03  0.16349992666E+04  0.15025784289E+04 0.  0.
        2    1    3    3  502    0 -0.56858588443E+03  0.42084966613E+02  0.21008806015E+03  0.60761669284E+03  0.25500000920E-02 0. -1.
       -2    1    3    3    0  502  0.56858588443E+03 -0.42084966613E+02 -0.85466595843E+03  0.10273825738E+04  0.25500000920E-02 0.  1.
</event>
<event>
 5   0  0.2641347E-04  0.1507892E+04  0.7818609E-02  0.8879222E-01
        2   -1    0    0  501    0  0.00000000000E+00  0.00000000000E+00  0.74304641947E+03  0.74304641947E+03  0.25500000920E-02 0. -1.
       -2   -1    0    0    0  501  0.00000000000E+00  0.00000000000E+00 -0.76500517350E+03  0.76500517350E+03  0.25500000920E-02 0.  1.
    10030    2    1    2    0    0  0.00000000000E+00  0.00000000000E+00 -0.21958754031E+02  0.15080515930E+04  0.15078917137E+04 0.  0.
        4    1    3    3  502    0  0.18234371430E+03  0.72989048378E+03 -0.60415313867E+02  0.75474563365E+03  0.12699999809E+01 0.  1.
       -4    1    3    3    0  502 -0.18234371430E+03 -0.72989048378E+03  0.38456559836E+02  0.75330595933E+03  0.12699999809E+01 0. -1.
</event>
<event>
 5   0  0.1443750E-04  0.1500439E+04  0.7818609E-02  0.8884161E-01
       -1   -1    0    0    0  501  0.00000000000E+00  0.00000000000E+00  0.80740897016E+03  0.80740897017E+03  0.50400001928E-02 0.  1.
        1   -1    0    0  501    0  0.00000000000E+00  0.00000000000E+00 -0.69708105222E+03  0.69708105224E+03  0.50400001928E-02 0. -1.
    10030    2    1    2    0    0  0.00000000000E+00  0.00000000000E+00  0.11032791794E+03  0.15044900224E+04  0.15004392617E+04 0.  0.
        2    1    3    3  502    0  0.59577953652E+03 -0.62661365201E+02 -0.39766326131E+03  0.71903808816E+03  0.25500000920E-02 0. -1.
       -2    1    3    3    0  502 -0.59577953652E+03  0.62661365201E+02  0.50799117925E+03  0.78545193425E+03  0.25500000920E-02 0.  1.
</event>
<event>
 5   0  0.1004313E-04  0.1505468E+04  0.7818609E-02  0.8880825E-01
       -3   -1    0    0    0  501  0.00000000000E+00  0.00000000000E+00  0.73435719840E+03  0.73435720535E+03  0.10100000352E+00 0. -1.
        3   -1    0    0  501    0  0.00000000000E+00  0.00000000000E+00 -0.77157106033E+03  0.77157106694E+03  0.10100000352E+00 0.  1.
    10030    2    1    2    0    0  0.00000000000E+00  0.00000000000E+00 -0.37213861930E+02  0.15059282723E+04  0.15054683955E+04 0.  0.
        4    1    3    3  502    0 -0.16070416583E+02 -0.72629833421E+03  0.17853099879E+03  0.74809254708E+03  0.12699999809E+01 0. -1.
       -4    1    3    3    0  502  0.16070416583E+02  0.72629833421E+03 -0.21574486072E+03  0.75783572521E+03  0.12699999809E+01 0.  1.
</event>
<event>
 5   0  0.2618901E-04  0.1499176E+04  0.7818609E-02  0.8885001E-01
       -2   -1    0    0    0  501  0.00000000000E+00  0.00000000000E+00  0.47453156693E+03  0.47453156694E+03  0.25500000920E-02 0.  1.
        2   -1    0    0  501    0  0.00000000000E+00  0.00000000000E+00 -0.11840778378E+04  0.11840778378E+04  0.25500000920E-02 0. -1.
    10030    2    1    2    0    0  0.00000000000E+00  0.00000000000E+00 -0.70954627086E+03  0.16586094047E+04  0.14991761894E+04 0.  0.
        1    1    3    3  502    0  0.61497732245E+03  0.34142189244E+03 -0.68153830883E+02  0.70669014459E+03  0.50400001928E-02 0.  1.
       -1    1    3    3    0  502 -0.61497732245E+03 -0.34142189244E+03 -0.64139243997E+03  0.95191926015E+03  0.50400001928E-02 0. -1.
</event>
<event>
 5   0  0.2696040E-04  0.1500177E+04  0.7818609E-02  0.8884335E-01
       -2   -1    0    0    0  501  0.00000000000E+00  0.00000000000E+00  0.55866378095E+03  0.55866378095E+03  0.25500000920E-02 0. -1.
        2   -1    0    0  501    0  0.00000000000E+00  0.00000000000E+00 -0.10071043320E+04  0.10071043320E+04  0.25500000920E-02 0.  1.
    10030    2    1    2    0    0  0.00000000000E+00  0.00000000000E+00 -0.44844055108E+03  0.15657681130E+04  0.15001769415E+04 0.  0.
        2    1    3    3  502    0  0.41718977140E+03  0.34056869561E+03 -0.76915764072E+03  0.93895570613E+03  0.25500000920E-02 0.  1.
       -2    1    3    3    0  502 -0.41718977140E+03 -0.34056869561E+03  0.32071708964E+03  0.62681240685E+03  0.25500000920E-02 0. -1.
</event>
<event>
 5   0  0.1426929E-04  0.1502622E+04  0.7818609E-02  0.8882712E-01
       -1   -1    0    0    0  501  0.00000000000E+00  0.00000000000E+00  0.42338499071E+03  0.42338499074E+03  0.50400001928E-02 0. -1.
        1   -1    0    0  501    0  0.00000000000E+00  0.00000000000E+00 -0.13332259289E+04  0.13332259289E+04  0.50400001928E-02 0.  1.
    10030    2    1    2    0    0  0.00000000000E+00  0.00000000000E+00 -0.90984093819E+03  0.17566109196E+04  0.15026215060E+04 0.  0.
        1    1    3    3  502    0  0.57203284008E+03 -0.47621954204E+03 -0.33535183919E+03  0.81637459443E+03  0.50400001928E-02 0. -1.
       -1    1    3    3    0  502 -0.57203284008E+03  0.47621954204E+03 -0.57448909900E+03  0.94023632522E+03  0.50400001928E-02 0.  1.
</event>
<event>
 5   0  0.1474203E-04  0.1502974E+04  0.7818609E-02  0.8882477E-01
       -1   -1    0    0    0  501  0.00000000000E+00  0.00000000000E+00  0.64967339003E+03  0.64967339005E+03  0.50400001928E-02 0.  1.
        1   -1    0    0  501    0  0.00000000000E+00  0.00000000000E+00 -0.86925669647E+03  0.86925669649E+03  0.50400001928E-02 0. -1.
    10030    2    1    2    0    0  0.00000000000E+00  0.00000000000E+00 -0.21958330644E+03  0.15189300865E+04  0.15029743109E+04 0.  0.
        3    1    3    3  502    0 -0.33186996232E+03 -0.60407972144E+03  0.19285869407E+03  0.71571255950E+03  0.10100000352E+00 0.  1.
       -3    1    3    3    0  502  0.33186996232E+03  0.60407972144E+03 -0.41244200051E+03  0.80321752703E+03  0.10100000352E+00 0. -1.
</event>
<event>
 5   0  0.1427609E-04  0.1493749E+04  0.7818609E-02  0.8888620E-01
        1   -1    0    0  501    0  0.00000000000E+00  0.00000000000E+00  0.47515064039E+03  0.47515064042E+03  0.50400001928E-02 0. -1.
       -1   -1    0    0    0  501  0.00000000000E+00  0.00000000000E+00 -0.11739890939E+04  0.11739890939E+04  0.50400001928E-02 0.  1.
    10030    2    1    2    0    0  0.00000000000E+00  0.00000000000E+00 -0.69883845353E+03  0.16491397343E+04  0.14937492023E+04 0.  0.
        4    1    3    3  502    0 -0.41800498228E+03 -0.21350449032E+03 -0.99080840443E+03  0.10963645561E+04  0.12699999809E+01 0.  1.
       -4    1    3    3    0  502  0.41800498228E+03  0.21350449032E+03  0.29196995090E+03  0.55277517829E+03  0.12699999809E+01 0. -1.
</event>
<event>
 5   0  0.1004313E-04  0.1490603E+04  0.7818609E-02  0.8890726E-01
        3   -1    0    0  501    0  0.00000000000E+00  0.00000000000E+00  0.54421006572E+03  0.54421007509E+03  0.10100000352E+00 0.  1.
       -3   -1    0    0    0  501  0.00000000000E+00  0.00000000000E+00 -0.10206978602E+04  0.10206978652E+04  0.10100000352E+00 0. -1.
    10030    2    1    2    0    0  0.00000000000E+00  0.00000000000E+00 -0.47648779446E+03  0.15649079403E+04  0.14906026443E+04 0.  0.
        5    1    3    3  502    0  0.23561332874E+03 -0.21760685883E+02  0.50371415296E+03  0.55654039029E+03  0.46999998093E+01 0.  1.
       -5    1    3    3    0  502 -0.23561332874E+03  0.21760685883E+02 -0.98020194743E+03  0.10083675500E+04  0.46999998093E+01 0. -1.
</event>
<event>
 5   0  0.1426929E-04  0.1500112E+04  0.7818609E-02  0.8884378E-01
       -1   -1    0    0    0  501  0.00000000000E+00  0.00000000000E+00  0.81643960581E+03  0.81643960582E+03  0.50400001928E-02 0.  1.
        1   -1    0    0  501    0  0.00000000000E+00  0.00000000000E+00 -0.68907023252E+03  0.68907023254E+03  0.50400001928E-02 0. -1.
    10030    2    1    2    0    0  0.00000000000E+00  0.00000000000E+00  0.12736937329E+03  0.15055098384E+04  0.15001123012E+04 0.  0.
        1    1    3    3  502    0 -0.33974310510E+03 -0.54816382834E+03  0.44804476393E+03  0.78527260915E+03  0.50400001928E-02 0. -1.
       -1    1    3    3    0  502  0.33974310510E+03  0.54816382834E+03 -0.32067539065E+03  0.72023722922E+03  0.50400001928E-02 0.  1.
</event>
<event>
 5   0  0.2646718E-04  0.1497827E+04  0.7818609E-02  0.8885899E-01
       -2   -1    0    0    0  501  0.00000000000E+00  0.00000000000E+00  0.10015692557E+04  0.10015692557E+04  0.25500000920E-02 0. -1.
        2   -1    0    0  501    0  0.00000000000E+00  0.00000000000E+00 -0.55999258840E+03  0.55999258841E+03  0.25500000920E-02 0.  1.
    10030    2    1    2    0    0  0.00000000000E+00  0.00000000000E+00  0.44157666730E+03  0.15615618441E+04  0.14978269058E+04 0.  0.
        3    1    3    3  502    0  0.22579202572E+03 -0.67729612318E+03  0.45659698842E+03  0.84746262300E+03  0.10100000352E+00 0. -1.
       -3    1    3    3    0  502 -0.22579202572E+03  0.67729612318E+03 -0.15020321120E+02  0.71409922111E+03  0.10100000352E+00 0.  1.
</event>
<event>
 5   0  0.1443750E-04  0.1497833E+04  0.7818609E-02  0.8885895E-01
        1   -1    0    0  501    0  0.00000000000E+00  0.00000000000E+00  0.62370113129E+03  0.62370113131E+03  0.50400001928E-02 0.  1.
       -1   -1    0    0    0  501  0.00000000000E+00  0.00000000000E+00 -0.89927000800E+03  0.89927000801E+03  0.50400001928E-02 0. -1.
    10030    2    1    2    0    0  0.00000000000E+00  0.00000000000E+00 -0.27556887671E+03  0.15229711393E+04  0.14978327294E+04 0.  0.
        2    1    3    3  502    0 -0.67213319958E+03  0.26065558403E+03 -0.34409711352E+03  0.79881612089E+03  0.25500000920E-02 0.  1.
       -2    1    3    3    0  502  0.67213319958E+03 -0.26065558403E+03  0.68528236810E+02  0.72415501842E+03  0.25500000920E-02 0. -1.
</event>
<event>
 5   0  0.2618901E-04  0.1536966E+04  0.7818609E-02  0.8860236E-01
       -2   -1    0    0    0  501  0.00000000000E+00  0.00000000000E+00  0.38355896696E+03  0.38355896697E+03  0.25500000920E-02 0. -1.
        2   -1    0    0  501    0  0.00000000000E+00  0.00000000000E+00 -0.15397005904E+04  0.15397005904E+04  0.25500000920E-02 0.  1.
    10030    2    1    2    0    0  0.00000000000E+00  0.00000000000E+00 -0.11561416234E+04  0.19232595573E+04  0.15369658004E+04 0.  0.
        1    1    3    3  502    0  0.50704616045E+03 -0.34785232989E+03 -0.11548656909E+04  0.13083622649E+04  0.50400001928E-02 0.  1.
       -1    1    3    3    0  502 -0.50704616045E+03  0.34785232989E+03 -0.12759325514E+01  0.61489729245E+03  0.50400001928E-02 0. -1.
</event>
<event>
 5   0  0.1443750E-04  0.1500649E+04  0.7818609E-02  0.8884022E-01
        1   -1    0    0  501    0  0.00000000000E+00  0.00000000000E+00  0.13120947975E+04  0.13120947975E+04  0.50400001928E-02 0. -1.
       -1   -1    0    0    0  501  0.00000000000E+00  0.00000000000E+00 -0.42907462270E+03  0.42907462273E+03  0.50400001928E-02 0.  1.
    10030    2    1    2    0    0  0.00000000000E+00  0.00000000000E+00  0.88302017479E+03  0.17411694202E+04  0.15006486334E+04 0.  0.
        2    1    3    3  502    0  0.73241226969E+01 -0.73430118152E+03  0.62026335916E+03  0.96123800522E+03  0.25500000920E-02 0.  1.
       -2    1    3    3    0  502 -0.73241226969E+01  0.73430118152E+03  0.26275681562E+03  0.77993141500E+03  0.25500000920E-02 0. -1.
</event>
<event>
 5   0  0.1474203E-04  0.1492453E+04  0.7818609E-02  0.8889487E-01
        1   -1    0    0  501    0  0.00000000000E+00  0.00000000000E+00  0.47079428175E+03  0.47079428178E+03  0.50400001928E-02 0.  1.
       -1   -1    0    0    0  501  0.00000000000E+00  0.00000000000E+00 -0.11827965248E+04  0.11827965248E+04  0.50400001928E-02 0. -1.
    10030    2    1    2    0    0  0.00000000000E+00  0.00000000000E+00 -0.71200224307E+03  0.16535908066E+04  0.14924528005E+04 0.  0.
        3    1    3    3  502    0  0.48162255227E+03 -0.56540234863E+03 -0.43600329293E+03  0.86124269538E+03  0.10100000352E+00 0.  1.
       -3    1    3    3    0  502 -0.48162255227E+03  0.56540234863E+03 -0.27599895015E+03  0.79234811124E+03  0.10100000352E+00 0. -1.
</event>
<event>
 5   0  0.2641347E-04  0.1500001E+04  0.7818609E-02  0.8884452E-01
       -2   -1    0    0    0  501  0.00000000000E+00  0.00000000000E+00  0.33769973507E+03  0.33769973508E+03  0.25500000920E-02 0.  1.
        2   -1    0    0  501    0  0.00000000000E+00  0.00000000000E+00 -0.16656827611E+04  0.16656827611E+04  0.25500000920E-02 0. -1.
    10030    2    1    2    0    0  0.00000000000E+00  0.00000000000E+00 -0.13279830260E+04  0.20033824962E+04  0.15000008362E+04 0.  0.
        4    1    3    3  502    0 -0.72135098568E+03  0.66438960631E+02 -0.40453790818E+03  0.82970712429E+03  0.12699999809E+01 0.  1.
       -4    1    3    3    0  502  0.72135098568E+03 -0.66438960631E+02 -0.92344511785E+03  0.11736753719E+04  0.12699999809E+01 0. -1.
</event>
<event>
 5   0  0.1427609E-04  0.1497545E+04  0.7818609E-02  0.8886087E-01
       -1   -1    0    0    0  501  0.00000000000E+00  0.00000000000E+00  0.14093469713E+04  0.14093469713E+04  0.50400001928E-02 0.  1.
        1   -1    0    0  501    0  0.00000000000E+00  0.00000000000E+00 -0.39781576910E+03  0.39781576913E+03  0.50400001928E-02 0. -1.
    10030    2    1    2    0    0  0.00000000000E+00  0.00000000000E+00  0.10115312022E+04  0.18071627405E+04  0.14975452572E+04 0.  0.
        4    1    3    3  502    0  0.40140567495E+03 -0.43329869734E+03 -0.49581430353E+02  0.59273451742E+03  0.12699999809E+01 0. -1.
       -4    1    3    3    0  502 -0.40140567495E+03  0.43329869734E+03  0.10611126326E+04  0.12144282230E+04  0.12699999809E+01 0.  1.
</event>
<event>
 5   0  0.2696040E-04  0.1505548E+04  0.7818609E-02  0.8880772E-01
        2   -1    0    0  501    0  0.00000000000E+00  0.00000000000E+00  0.11915816195E+04  0.11915816195E+04  0.25500000920E-02 0. -1.
       -2   -1    0    0    0  501  0.00000000000E+00  0.00000000000E+00 -0.47555995152E+03  0.47555995152E+03  0.25500000920E-02 0.  1.
    10030    2    1    2    0    0  0.00000000000E+00  0.00000000000E+00  0.71602166797E+03  0.16671415710E+04  0.15055477371E+04 0.  0.
        2    1    3    3  502    0  0.11819257734E+03  0.41557132611E+03 -0.32459414922E+03  0.54039834764E+03  0.25500000920E-02 0.  1.
       -2    1    3    3    0  502 -0.11819257734E+03 -0.41557132611E+03  0.10406158172E+04  0.11267432234E+04  0.25500000920E-02 0. -1.
</event>
<event>
 5   0  0.1474203E-04  0.1500924E+04  0.7818609E-02  0.8883839E-01
       -1   -1    0    0    0  501  0.00000000000E+00  0.00000000000E+00  0.71185203136E+03  0.71185203138E+03  0.50400001928E-02 0. -1.
        1   -1    0    0  501    0  0.00000000000E+00  0.00000000000E+00 -0.79116601973E+03  0.79116601975E+03  0.50400001928E-02 0.  1.
    10030    2    1    2    0    0  0.00000000000E+00  0.00000000000E+00 -0.79313988370E+02  0.15030180511E+04  0.15009238999E+04 0.  0.
        3    1    3    3  502    0  0.23680693530E+02  0.61114739863E+03 -0.47515595585E+03  0.77449022633E+03  0.10100000352E+00 0.  1.
       -3    1    3    3    0  502 -0.23680693530E+02 -0.61114739863E+03  0.39584196748E+03  0.72852782480E+03  0.10100000352E+00 0. -1.
</event>
<event>
 5   0  0.2646718E-04  0.1498031E+04  0.7818609E-02  0.8885763E-01
        2   -1    0    0  501    0  0.00000000000E+00  0.00000000000E+00  0.19753485019E+04  0.19753485019E+04  0.25500000920E-02 0. -1.
       -2   -1    0    0    0  501  0.00000000000E+00  0.00000000000E+00 -0.28401291245E+03  0.28401291246E+03  0.25500000920E-02 0.  1.
    10030    2    1    2    0    0  0.00000000000E+00  0.00000000000E+00  0.16913355894E+04  0.22593614143E+04  0.14980313497E+04 0.  0.
        3    1    3    3  502    0 -0.51775566210E+03  0.52130277930E+03  0.62608335031E+03  0.96530196575E+03  0.10100000352E+00 0. -1.
       -3    1    3    3    0  502  0.51775566210E+03 -0.52130277930E+03  0.10652522391E+04  0.12940594486E+04  0.10100000352E+00 0.  1.
</event>
<event>
 5   0  0.1443750E-04  0.1492515E+04  0.7818609E-02  0.8889446E-01
       -1   -1    0    0    0  501  0.00000000000E+00  0.00000000000E+00  0.34305645651E+03  0.34305645655E+03  0.50400001928E-02 0. -1.
        1   -1    0    0  501    0  0.00000000000E+00  0.00000000000E+00 -0.16233491638E+04  0.16233491638E+04  0.50400001928E-02 0.  1.
    10030    2    1    2    0    0  0.00000000000E+00  0.00000000000E+00 -0.12802927073E+04  0.19664056203E+04  0.14925152084E+04 0.  0.
        2    1    3    3  502    0  0.28503416841E+03 -0.64415419553E+03 -0.96480344796E+03  0.11945814321E+04  0.25500000920E-02 0. -1.
       -2    1    3    3    0  502 -0.28503416841E+03  0.64415419553E+03 -0.31548925932E+03  0.77182418822E+03  0.25500000920E-02 0.  1.
</event>
<event>
 5   0  0.2696040E-04  0.1502177E+04  0.7818609E-02  0.8883006E-01
       -2   -1    0    0    0  501  0.00000000000E+00  0.00000000000E+00  0.35206107237E+03  0.35206107237E+03  0.25500000920E-02 0.  1.
        2   -1    0    0  501    0  0.00000000000E+00  0.00000000000E+00 -0.16023761792E+04  0.16023761792E+04  0.25500000920E-02 0. -1.
    10030    2    1    2    0    0  0.00000000000E+00  0.00000000000E+00 -0.12503151069E+04  0.19544372516E+04  0.15021774542E+04 0.  0.
        2    1    3    3  502    0 -0.20544225390E+03 -0.31362352363E+02  0.31390836455E+03  0.37646856200E+03  0.25500000920E-02 0.  1.
       -2    1    3    3    0  502  0.20544225390E+03  0.31362352363E+02 -0.15642234714E+04  0.15779686896E+04  0.25500000920E-02 0. -1.
</event>
<event>
 5   0  0.2618901E-04  0.1503423E+04  0.7818609E-02  0.8882180E-01
        2   -1    0    0  501    0  0.00000000000E+00  0.00000000000E+00  0.13401048994E+04  0.13401048994E+04  0.25500000920E-02 0.  1.
       -2   -1    0    0    0  501  0.00000000000E+00  0.00000000000E+00 -0.42166136717E+03  0.42166136717E+03  0.25500000920E-02 0. -1.
    10030    2    1    2    0    0  0.00000000000E+00  0.00000000000E+00  0.91844353219E+03  0.17617662665E+04  0.15034233788E+04 0.  0.
        1    1    3    3  502    0 -0.19499220338E+02 -0.73673400768E+03  0.28575337477E+03  0.79045063659E+03  0.50400001928E-02 0.  1.
       -1    1    3    3    0  502  0.19499220338E+02  0.73673400768E+03  0.63269015742E+03  0.97131562995E+03  0.50400001928E-02 0. -1.
</event>
<event>
 5   0  0.1474203E-04  0.1494616E+04  0.7818609E-02  0.8888041E-01
        1   -1    0    0  501    0  0.00000000000E+00  0.00000000000E+00  0.10955219061E+04  0.10955219062E+04  0.50400001928E-02 0.  1.
       -1   -1    0    0    0  501  0.00000000000E+00  0.00000000000E+00 -0.50977454387E+03  0.50977454390E+03  0.50400001928E-02 0. -1.
    10030    2    1    2    0    0  0.00000000000E+00  0.00000000000E+00  0.58574736228E+03  0.16052964501E+04  0.14946159106E+04 0.  0.
        3    1    3    3  502    0  0.11805201663E+03  0.52138693628E+03  0.85373966168E+03  0.10072993776E+04  0.10100000352E+00 0.  1.
       -3    1    3    3    0  502 -0.11805201663E+03 -0.52138693628E+03 -0.26799229940E+03  0.59799707248E+03  0.10100000352E+00 0. -1.
</event>
<event>
 5   0  0.1443750E-04  0.1566665E+04  0.7818609E-02  0.8841293E-01
       -1   -1    0    0    0  501  0.00000000000E+00  0.00000000000E+00  0.95406537688E+03  0.95406537690E+03  0.50400001928E-02 0.  1.
        1   -1    0    0  501    0  0.00000000000E+00  0.00000000000E+00 -0.64315243098E+03  0.64315243100E+03  0.50400001928E-02 0. -1.
    10030    2    1    2    0    0  0.00000000000E+00  0.00000000000E+00  0.31091294590E+03  0.15972178079E+04  0.15666645671E+04 0.  0.
        2    1    3    3  502    0 -0.71283972555E+03  0.24652144395E+03 -0.60081243167E+02  0.75665253085E+03  0.25500000920E-02 0. -1.
       -2    1    3    3    0  502  0.71283972555E+03 -0.24652144395E+03  0.37099418907E+03  0.84056527705E+03  0.25500000920E-02 0.  1.
</event>
<event>
 5   0  0.2696040E-04  0.1475976E+04  0.7818609E-02  0.8900588E-01
        2   -1    0    0  501    0  0.00000000000E+00  0.00000000000E+00  0.21945975852E+04  0.21945975852E+04  0.25500000920E-02 0.  1.
       -2   -1    0    0    0  501  0.00000000000E+00  0.00000000000E+00 -0.24816665449E+03  0.24816665450E+03  0.25500000920E-02 0. -1.
    10030    2    1    2    0    0  0.00000000000E+00  0.00000000000E+00  0.19464309307E+04  0.24427642397E+04  0.14759755292E+04 0.  0.
        2    1    3    3  502    0  0.39226151034E+01 -0.73360774713E+03  0.11059291029E+04  0.13271303230E+04  0.25500000920E-02 0.  1.
       -2    1    3    3    0  502 -0.39226151034E+01  0.73360774713E+03  0.84050182781E+03  0.11156339167E+04  0.25500000920E-02 0. -1.
</event>
<event>
 5   0  0.2641347E-04  0.1500367E+04  0.7818609E-02  0.8884209E-01
       -2   -1    0    0    0  501  0.00000000000E+00  0.00000000000E+00  0.29190138182E+03  0.29190138183E+03  0.25500000920E-02 0.  1.
        2   -1    0    0  501    0  0.00000000000E+00  0.00000000000E+00 -0.19279649056E+04  0.19279649056E+04  0.25500000920E-02 0. -1.
    10030    2    1    2    0    0  0.00000000000E+00  0.00000000000E+00 -0.16360635238E+04  0.22198662874E+04  0.15003674484E+04 0.  0.
        4    1    3    3  502    0  0.39213650267E+02 -0.44971830387E+03 -0.17045143364E+04  0.17632796145E+04  0.12699999809E+01 0. -1.
       -4    1    3    3    0  502 -0.39213650267E+02  0.44971830387E+03  0.68450812625E+02  0.45658667288E+03  0.12699999809E+01 0.  1.
</event>
<event>
 5   0  0.2646718E-04  0.1502333E+04  0.7818609E-02  0.8882903E-01
        2   -1    0    0  501    0  0.00000000000E+00  0.00000000000E+00  0.12685379306E+04  0.12685379306E+04  0.25500000920E-02 0. -1.
       -2   -1    0    0    0  501  0.00000000000E+00  0.00000000000E+00 -0.44480422101E+03  0.44480422102E+03  0.25500000920E-02 0.  1.
    10030    2    1    2    0    0  0.00000000000E+00  0.00000000000E+00  0.82373370956E+03  0.17133421516E+04  0.15023328873E+04 0.  0.
        3    1    3    3  502    0 -0.89606025698E+02 -0.36554851380E+03 -0.32951277131E+03  0.50023357788E+03  0.10100000352E+00 0.  1.
       -3    1    3    3    0  502  0.89606025698E+02  0.36554851380E+03  0.11532464809E+04  0.12131085737E+04  0.10100000352E+00 0. -1.
</event>
<event>
 5   0  0.2734072E-04  0.1504128E+04  0.7818609E-02  0.8881713E-01
        2   -1    0    0  501    0  0.00000000000E+00  0.00000000000E+00  0.23628731993E+04  0.23628731993E+04  0.25500000920E-02 0. -1.
       -2   -1    0    0    0  501  0.00000000000E+00  0.00000000000E+00 -0.23936965673E+03  0.23936965675E+03  0.25500000920E-02 0.  1.
    10030    2    1    2    0    0  0.00000000000E+00  0.00000000000E+00  0.21235035426E+04  0.26022428561E+04  0.15041278491E+04 0.  0.
        5    1    3    3  502    0  0.70176270331E+03 -0.11043988258E+03  0.14887323047E+04  0.16495495823E+04  0.46999998093E+01 0. -1.
       -5    1    3    3    0  502 -0.70176270331E+03  0.11043988258E+03  0.63477123788E+03  0.95269327376E+03  0.46999998093E+01 0.  1.
</event>
<event>
 5   0  0.1427609E-04  0.1499817E+04  0.7818609E-02  0.8884574E-01
        1   -1    0    0  501    0  0.00000000000E+00  0.00000000000E+00  0.11020124187E+04  0.11020124187E+04  0.50400001928E-02 0. -1.
       -1   -1    0    0    0  501  0.00000000000E+00  0.00000000000E+00 -0.51030552539E+03  0.51030552542E+03  0.50400001928E-02 0.  1.
    10030    2    1    2    0    0  0.00000000000E+00  0.00000000000E+00  0.59170689328E+03  0.16123179441E+04  0.14998173573E+04 0.  0.
        4    1    3    3  502    0  0.43622340508E+03 -0.43019681206E+03  0.76072671668E+03  0.97676348550E+03  0.12699999809E+01 0.  1.
       -4    1    3    3    0  502 -0.43622340508E+03  0.43019681206E+03 -0.16901982339E+03  0.63555445860E+03  0.12699999809E+01 0. -1.
</event>
<event>
 5   0  0.1474203E-04  0.1511952E+04  0.7818609E-02  0.8876544E-01
       -1   -1    0    0    0  501  0.00000000000E+00  0.00000000000E+00  0.52715699724E+03  0.52715699726E+03  0.50400001928E-02 0.  1.
        1   -1    0    0  501    0  0.00000000000E+00  0.00000000000E+00 -0.10841161092E+04  0.10841161092E+04  0.50400001928E-02 0. -1.
    10030    2    1    2    0    0  0.00000000000E+00  0.00000000000E+00 -0.55695911200E+03  0.16112731065E+04  0.15119515770E+04 0.  0.
        3    1    3    3  502    0 -0.53672604717E+02  0.10612378937E+03 -0.10740850304E+04  0.10806487264E+04  0.10100000352E+00 0. -1.
       -3    1    3    3    0  502  0.53672604717E+02 -0.10612378937E+03  0.51712591835E+03  0.53062438014E+03  0.10100000352E+00 0.  1.
</event>
<event>
 5   0  0.1426929E-04  0.1501371E+04  0.7818609E-02  0.8883542E-01
        1   -1    0    0  501    0  0.00000000000E+00  0.00000000000E+00  0.95453072059E+03  0.95453072060E+03  0.50400001928E-02 0. -1.
       -1   -1    0    0    0  501  0.00000000000E+00  0.00000000000E+00 -0.59037280924E+03  0.59037280926E+03  0.50400001928E-02 0.  1.
    10030    2    1    2    0    0  0.00000000000E+00  0.00000000000E+00  0.36415791135E+03  0.15449035299E+04  0.15013713505E+04 0.  0.
        1    1    3    3  502    0 -0.95116616624E+02 -0.47106753870E+03 -0.41133734038E+03  0.63257426789E+03  0.50400001928E-02 0.  1.
       -1    1    3    3    0  502  0.95116616624E+02  0.47106753870E+03  0.77549525173E+03  0.91232926198E+03  0.50400001928E-02 0. -1.
</event>
<event>
 5   0  0.2641347E-04  0.1523381E+04  0.7818609E-02  0.8869052E-01
        2   -1    0    0  501    0  0.00000000000E+00  0.00000000000E+00  0.10537580633E+04  0.10537580633E+04  0.25500000920E-02 0.  1.
       -2   -1    0    0    0  501  0.00000000000E+00  0.00000000000E+00 -0.55057433786E+03  0.55057433787E+03  0.25500000920E-02 0. -1.
    10030    2    1    2    0    0  0.00000000000E+00  0.00000000000E+00  0.50318372539E+03  0.16043324011E+04  0.15233806457E+04 0.  0.
        4    1    3    3  502    0  0.68381132753E+03 -0.23134822266E+03  0.50750824647E+03  0.88243196051E+03  0.12699999809E+01 0.  1.
       -4    1    3    3    0  502 -0.68381132753E+03  0.23134822266E+03 -0.43245210848E+01  0.72190044062E+03  0.12699999809E+01 0. -1.
</event>
<event>
 5   0  0.2641347E-04  0.1495823E+04  0.7818609E-02  0.8887235E-01
       -2   -1    0    0    0  501  0.00000000000E+00  0.00000000000E+00  0.84366643382E+03  0.84366643382E+03  0.25500000920E-02 0.  1.
        2   -1    0    0  501    0  0.00000000000E+00  0.00000000000E+00 -0.66302454795E+03  0.66302454795E+03  0.25500000920E-02 0. -1.
    10030    2    1    2    0    0  0.00000000000E+00  0.00000000000E+00  0.18064188587E+03  0.15066909818E+04  0.14958229252E+04 0.  0.
        4    1    3    3  502    0  0.26652030740E+03 -0.51994016047E+03  0.56061701600E+03  0.80973075541E+03  0.12699999809E+01 0.  1.
       -4    1    3    3    0  502 -0.26652030740E+03  0.51994016047E+03 -0.37997513013E+03  0.69696022637E+03  0.12699999809E+01 0. -1.
</event>
<event>
 5   0  0.1484251E-04  0.1497842E+04  0.7818609E-02  0.8885889E-01
       -1   -1    0    0    0  501  0.00000000000E+00  0.00000000000E+00  0.17142704534E+04  0.17142704534E+04  0.50400001928E-02 0. -1.
        1   -1    0    0  501    0  0.00000000000E+00  0.00000000000E+00 -0.32718430564E+03  0.32718430567E+03  0.50400001928E-02 0.  1.
    10030    2    1    2    0    0  0.00000000000E+00  0.00000000000E+00  0.13870861478E+04  0.20414547591E+04  0.14978416312E+04 0.  0.
        5    1    3    3  502    0 -0.19270255238E+03  0.11097840502E+03 -0.28112870910E+03  0.35847722544E+03  0.46999998093E+01 0.  1.
       -5    1    3    3    0  502  0.19270255238E+03 -0.11097840502E+03  0.16682148569E+04  0.16829775336E+04  0.46999998093E+01 0. -1.
</event>
<event>
 5   0  0.2696040E-04  0.1502113E+04  0.7818609E-02  0.8883049E-01
        2   -1    0    0  501    0  0.00000000000E+00  0.00000000000E+00  0.97557791064E+03  0.97557791064E+03  0.25500000920E-02 0. -1.
       -2   -1    0    0    0  501  0.00000000000E+00  0.00000000000E+00 -0.57820719918E+03  0.57820719918E+03  0.25500000920E-02 0.  1.
    10030    2    1    2    0    0  0.00000000000E+00  0.00000000000E+00  0.39737071146E+03  0.15537851098E+04  0.15021134062E+04 0.  0.
        2    1    3    3  502    0  0.77510870003E+02 -0.60981026730E+03 -0.24767884203E+03  0.66273773536E+03  0.25500000920E-02 0.  1.
       -2    1    3    3    0  502 -0.77510870003E+02  0.60981026730E+03  0.64504955349E+03  0.89104737446E+03  0.25500000920E-02 0. -1.
</event>
<event>
 5   0  0.1443750E-04  0.1500836E+04  0.7818609E-02  0.8883897E-01
        1   -1    0    0  501    0  0.00000000000E+00  0.00000000000E+00  0.76512487417E+03  0.76512487418E+03  0.50400001928E-02 0. -1.
       -1   -1    0    0    0  501  0.00000000000E+00  0.00000000000E+00 -0.73599404698E+03  0.73599404699E+03  0.50400001928E-02 0.  1.
    10030    2    1    2    0    0  0.00000000000E+00  0.00000000000E+00  0.29130827190E+02  0.15011189212E+04  0.15008362370E+04 0.  0.
        2    1    3    3  502    0  0.79795687318E+02 -0.14273276937E+03  0.74708806495E+03  0.76477485050E+03  0.25500000920E-02 0. -1.
       -2    1    3    3    0  502 -0.79795687318E+02  0.14273276937E+03 -0.71795723776E+03  0.73634407068E+03  0.25500000920E-02 0.  1.
</event>
<event>
 5   0  0.1474203E-04  0.1498858E+04  0.7818609E-02  0.8885213E-01
       -1   -1    0    0    0  501  0.00000000000E+00  0.00000000000E+00  0.51671557481E+03  0.51671557483E+03  0.50400001928E-02 0. -1.
        1   -1    0    0  501    0  0.00000000000E+00  0.00000000000E+00 -0.10869495694E+04  0.10869495694E+04  0.50400001928E-02 0.  1.
    10030    2    1    2    0    0  0.00000000000E+00  0.00000000000E+00 -0.57023399457E+03  0.16036651442E+04  0.14988579273E+04 0.  0.
        3    1    3    3  502    0  0.22036997995E+03  0.28491420249E+02 -0.10508939457E+04  0.10741288491E+04  0.10100000352E+00 0.  1.
       -3    1    3    3    0  502 -0.22036997995E+03 -0.28491420249E+02  0.48065995112E+03  0.52953629517E+03  0.10100000352E+00 0. -1.
</event>
<event>
 5   0  0.2734072E-04  0.1488623E+04  0.7818609E-02  0.8892054E-01
        2   -1    0    0  501    0  0.00000000000E+00  0.00000000000E+00  0.15419531241E+04  0.15419531241E+04  0.25500000920E-02 0. -1.
       -2   -1    0    0    0  501  0.00000000000E+00  0.00000000000E+00 -0.35928431364E+03  0.35928431365E+03  0.25500000920E-02 0.  1.
    10030    2    1    2    0    0  0.00000000000E+00  0.00000000000E+00  0.11826688104E+04  0.19012374377E+04  0.14886229474E+04 0.  0.
        5    1    3    3  502    0  0.68182276258E+03 -0.40131532836E+02  0.21357298443E+03  0.71563141991E+03  0.46999998093E+01 0.  1.
       -5    1    3    3    0  502 -0.68182276258E+03  0.40131532836E+02  0.96909582601E+03  0.11856060178E+04  0.46999998093E+01 0. -1.
</event>
<event>
 5   0  0.2618901E-04  0.1505100E+04  0.7818609E-02  0.8881068E-01
       -2   -1    0    0    0  501  0.00000000000E+00  0.00000000000E+00  0.55531038776E+03  0.55531038777E+03  0.25500000920E-02 0. -1.
        2   -1    0    0  501    0  0.00000000000E+00  0.00000000000E+00 -0.10198472296E+04  0.10198472296E+04  0.25500000920E-02 0.  1.
    10030    2    1    2    0    0  0.00000000000E+00  0.00000000000E+00 -0.46453684181E+03  0.15751576173E+04  0.15051003429E+04 0.  0.
        1    1    3    3  502    0  0.44682093132E+01 -0.28891413908E+03 -0.95947930569E+03  0.10020438527E+04  0.50400001928E-02 0.  1.
       -1    1    3    3    0  502 -0.44682093132E+01  0.28891413908E+03  0.49494246388E+03  0.57311376465E+03  0.50400001928E-02 0. -1.
</event>
<event>
 5   0  0.1427609E-04  0.1442326E+04  0.7818609E-02  0.8923738E-01
        1   -1    0    0  501    0  0.00000000000E+00  0.00000000000E+00  0.11955228606E+04  0.11955228606E+04  0.50400001928E-02 0. -1.
       -1   -1    0    0    0  501  0.00000000000E+00  0.00000000000E+00 -0.43501988515E+03  0.43501988518E+03  0.50400001928E-02 0.  1.
    10030    2    1    2    0    0  0.00000000000E+00  0.00000000000E+00  0.76050297540E+03  0.16305427457E+04  0.14423262010E+04 0.  0.
        4    1    3    3  502    0 -0.31609908728E+02  0.70052857590E+03  0.57054821558E+03  0.90402784868E+03  0.12699999809E+01 0. -1.
       -4    1    3    3    0  502  0.31609908728E+02 -0.70052857590E+03  0.18995475982E+03  0.72651489707E+03  0.12699999809E+01 0.  1.
</event>
<event>
 5   0  0.1427609E-04  0.1519043E+04  0.7818609E-02  0.8871887E-01
        1   -1    0    0  501    0  0.00000000000E+00  0.00000000000E+00  0.65023731909E+03  0.65023731911E+03  0.50400001928E-02 0. -1.
       -1   -1    0    0    0  501  0.00000000000E+00  0.00000000000E+00 -0.88717318685E+03  0.88717318687E+03  0.50400001928E-02 0.  1.
    10030    2    1    2    0    0  0.00000000000E+00  0.00000000000E+00 -0.23693586777E+03  0.15374105060E+04  0.15190432708E+04 0.  0.
        4    1    3    3  502    0  0.18533067087E+03  0.65767035341E+03 -0.45413111371E+03  0.82043551402E+03  0.12699999809E+01 0.  1.
       -4    1    3    3    0  502 -0.18533067087E+03 -0.65767035341E+03  0.21719524595E+03  0.71697499195E+03  0.12699999809E+01 0. -1.
</event>
<event>
 5   0  0.1474203E-04  0.1501577E+04  0.7818609E-02  0.8883405E-01
       -1   -1    0    0    0  501  0.00000000000E+00  0.00000000000E+00  0.10907596088E+04  0.10907596088E+04  0.50400001928E-02 0.  1.
        1   -1    0    0  501    0  0.00000000000E+00  0.00000000000E+00 -0.51678066663E+03  0.51678066665E+03  0.50400001928E-02 0. -1.
    10030    2    1    2    0    0  0.00000000000E+00  0.00000000000E+00  0.57397894216E+03  0.16075402755E+04  0.15015771413E+04 0.  0.
        3    1    3    3  502    0 -0.39091687888E+03  0.29627415384E+03 -0.32153123273E+03  0.58649528920E+03  0.10100000352E+00 0. -1.
       -3    1    3    3    0  502  0.39091687888E+03 -0.29627415384E+03  0.89551017489E+03  0.10210449863E+04  0.10100000352E+00 0.  1.
</event>
<event>
 5   0  0.2641347E-04  0.1498497E+04  0.7818609E-02  0.8885453E-01
       -2   -1    0    0    0  501  0.00000000000E+00  0.00000000000E+00  0.70700166548E+03  0.70700166548E+03  0.25500000920E-02 0.  1.
        2   -1    0    0  501    0  0.00000000000E+00  0.00000000000E+00 -0.79401945857E+03  0.79401945858E+03  0.25500000920E-02 0. -1.
    10030    2    1    2    0    0  0.00000000000E+00  0.00000000000E+00 -0.87017793098E+02  0.15010211241E+04  0.14984966862E+04 0.  0.
        4    1    3    3  502    0  0.52881747704E+03  0.51430181416E+03  0.87926430886E+02  0.74289094100E+03  0.12699999809E+01 0.  1.
       -4    1    3    3    0  502 -0.52881747704E+03 -0.51430181416E+03 -0.17494422398E+03  0.75813018306E+03  0.12699999809E+01 0. -1.
</event>
<event>
 5   0  0.1484251E-04  0.1497558E+04  0.7818609E-02  0.8886079E-01
       -1   -1    0    0    0  501  0.00000000000E+00  0.00000000000E+00  0.48552662465E+03  0.48552662468E+03  0.50400001928E-02 0.  1.
        1   -1    0    0  501    0  0.00000000000E+00  0.00000000000E+00 -0.11547664978E+04  0.11547664978E+04  0.50400001928E-02 0. -1.
    10030    2    1    2    0    0  0.00000000000E+00  0.00000000000E+00 -0.66923987314E+03  0.16402931225E+04  0.14975578519E+04 0.  0.
        5    1    3    3  502    0 -0.17208013840E+03  0.64326500685E+03  0.40428634773E+02  0.66712668030E+03  0.46999998093E+01 0.  1.
       -5    1    3    3    0  502  0.17208013840E+03 -0.64326500685E+03 -0.70966850791E+03  0.97316644218E+03  0.46999998093E+01 0. -1.
</event>
<event>
 5   0  0.2646718E-04  0.1497629E+04  0.7818609E-02  0.8886031E-01
        2   -1    0    0  501    0  0.00000000000E+00  0.00000000000E+00  0.17902422649E+04  0.17902422649E+04  0.25500000920E-02 0. -1.
       -2   -1    0    0    0  501  0.00000000000E+00  0.00000000000E+00 -0.31321072860E+03  0.31321072861E+03  0.25500000920E-02 0.  1.
    10030    2    1    2    0    0  0.00000000000E+00  0.00000000000E+00  0.14770315363E+04  0.21034529935E+04  0.14976289049E+04 0.  0.
        3    1    3    3  502    0 -0.34186414838E+03  0.36840200631E+03 -0.41129336969E+02  0.50426458012E+03  0.10100000352E+00 0.  1.
       -3    1    3    3    0  502  0.34186414838E+03 -0.36840200631E+03  0.15181608732E+04  0.15991884134E+04  0.10100000352E+00 0. -1.
</event>
<event>
 5   0  0.2646718E-04  0.1499745E+04  0.7818609E-02  0.8884623E-01
        2   -1    0    0  501    0  0.00000000000E+00  0.00000000000E+00  0.61957695759E+03  0.61957695760E+03  0.25500000920E-02 0. -1.
       -2   -1    0    0    0  501  0.00000000000E+00  0.00000000000E+00 -0.90756827803E+03  0.90756827804E+03  0.25500000920E-02 0.  1.
    10030    2    1    2    0    0  0.00000000000E+00  0.00000000000E+00 -0.28799132044E+03  0.15271452356E+04  0.14997445016E+04 0.  0.
        3    1    3    3  502    0 -0.10441010022E+03 -0.34326903683E+03 -0.81448876959E+03  0.89001520586E+03  0.10100000352E+00 0.  1.
       -3    1    3    3    0  502  0.10441010022E+03  0.34326903683E+03  0.52649744915E+03  0.63713002977E+03  0.10100000352E+00 0. -1.
</event>
<event>
 5   0  0.1004313E-04  0.1508725E+04  0.7818609E-02  0.8878672E-01
       -3   -1    0    0    0  501  0.00000000000E+00  0.00000000000E+00  0.12281770636E+04  0.12281770678E+04  0.10100000352E+00 0.  1.
        3   -1    0    0  501    0  0.00000000000E+00  0.00000000000E+00 -0.46333923558E+03  0.46333924659E+03  0.10100000352E+00 0. -1.
    10030    2    1    2    0    0  0.00000000000E+00  0.00000000000E+00  0.76483782804E+03  0.16915163144E+04  0.15087248054E+04 0.  0.
        4    1    3    3  502    0  0.16704701872E+02 -0.44582290156E+03 -0.29957587615E+03  0.53738666255E+03  0.12699999809E+01 0. -1.
       -4    1    3    3    0  502 -0.16704701872E+02  0.44582290156E+03  0.10644137042E+04  0.11541296518E+04  0.12699999809E+01 0.  1.
</event>
<event>
 5   0  0.1484251E-04  0.1501142E+04  0.7818609E-02  0.8883694E-01
       -1   -1    0    0    0  501  0.00000000000E+00  0.00000000000E+00  0.14798352416E+04  0.14798352416E+04  0.50400001928E-02 0. -1.
        1   -1    0    0  501    0  0.00000000000E+00  0.00000000000E+00 -0.38068897423E+03  0.38068897427E+03  0.50400001928E-02 0.  1.
    10030    2    1    2    0    0  0.00000000000E+00  0.00000000000E+00  0.10991462674E+04  0.18605242159E+04  0.15011421787E+04 0.  0.
        5    1    3    3  502    0 -0.11066656455E+03 -0.37765535573E+03  0.13416922712E+04  0.13982241941E+04  0.46999998093E+01 0. -1.
       -5    1    3    3    0  502  0.11066656455E+03  0.37765535573E+03 -0.24254600382E+03  0.46230002184E+03  0.46999998093E+01 0.  1.
</event>
<event>
 5   0  0.2646718E-04  0.1495483E+04  0.7818609E-02  0.8887462E-01
        2   -1    0    0  501    0  0.00000000000E+00  0.00000000000E+00  0.10275246875E+04  0.10275246875E+04  0.25500000920E-02 0.  1.
       -2   -1    0    0    0  501  0.00000000000E+00  0.00000000000E+00 -0.54414006959E+03  0.54414006959E+03  0.25500000920E-02 0. -1.
    10030    2    1    2    0    0  0.00000000000E+00  0.00000000000E+00  0.48338461788E+03  0.15716647571E+04  0.14954830055E+04 0.  0.
        3    1    3    3  502    0 -0.59984000972E+03  0.44368849741E+03  0.29370938566E+03  0.80183086335E+03  0.10100000352E+00 0. -1.
       -3    1    3    3    0  502  0.59984000972E+03 -0.44368849741E+03  0.18967523222E+03  0.76983389372E+03  0.10100000352E+00 0.  1.
</event>
<event>
 5   0  0.1004313E-04  0.1492125E+04  0.7818609E-02  0.8889707E-01
        3   -1    0    0  501    0  0.00000000000E+00  0.00000000000E+00  0.69454796920E+03  0.69454797655E+03  0.10100000352E+00 0.  1.
       -3   -1    0    0    0  501  0.00000000000E+00  0.00000000000E+00 -0.80139774983E+03  0.80139775620E+03  0.10100000352E+00 0. -1.
    10030    2    1    2    0    0  0.00000000000E+00  0.00000000000E+00 -0.10684978063E+03  0.14959457327E+04  0.14921249142E+04 0.  0.
        1    1    3    3  502    0 -0.51393940917E+03 -0.49380276169E+03  0.16767168697E+03  0.73218076893E+03  0.50400001928E-02 0. -1.
       -1    1    3    3    0  502  0.51393940917E+03  0.49380276169E+03 -0.27452146759E+03  0.76376496381E+03  0.50400001928E-02 0.  1.
</event>
<event>
 5   0  0.2696040E-04  0.1486166E+04  0.7818609E-02  0.8893705E-01
       -2   -1    0    0    0  501  0.00000000000E+00  0.00000000000E+00  0.62174453713E+03  0.62174453713E+03  0.25500000920E-02 0.  1.
        2   -1    0    0  501    0  0.00000000000E+00  0.00000000000E+00 -0.88810155408E+03  0.88810155409E+03  0.25500000920E-02 0. -1.
    10030    2    1    2    0    0  0.00000000000E+00  0.00000000000E+00 -0.26635701695E+03  0.15098460912E+04  0.14861659257E+04 0.  0.
        2    1    3    3  502    0  0.15705636806E+03 -0.72615764307E+03 -0.11878719384E+03  0.75238422549E+03  0.25500000920E-02 0. -1.
       -2    1    3    3    0  502 -0.15705636806E+03  0.72615764307E+03 -0.14756982311E+03  0.75746186573E+03  0.25500000920E-02 0.  1.
</event>
<event>
 5   0  0.2618901E-04  0.1500608E+04  0.7818609E-02  0.8884049E-01
       -2   -1    0    0    0  501  0.00000000000E+00  0.00000000000E+00  0.23179547876E+03  0.23179547877E+03  0.25500000920E-02 0.  1.
        2   -1    0    0  501    0  0.00000000000E+00  0.00000000000E+00 -0.24286758326E+04  0.24286758326E+04  0.25500000920E-02 0. -1.
    10030    2    1    2    0    0  0.00000000000E+00  0.00000000000E+00 -0.21968803539E+04  0.26604713114E+04  0.15006079800E+04 0.  0.
        1    1    3    3  502    0 -0.23196430338E+03  0.77349657804E+02 -0.23560526314E+04  0.23687073288E+04  0.50400001928E-02 0. -1.
       -1    1    3    3    0  502  0.23196430338E+03 -0.77349657804E+02  0.15917227750E+03  0.29176398262E+03  0.50400001928E-02 0.  1.
</event>
<event>
 5   0  0.1426929E-04  0.1536055E+04  0.7818609E-02  0.8860824E-01
       -1   -1    0    0    0  501  0.00000000000E+00  0.00000000000E+00  0.23869163008E+03  0.23869163014E+03  0.50400001928E-02 0. -1.
        1   -1    0    0  501    0  0.00000000000E+00  0.00000000000E+00 -0.24712496476E+04  0.24712496476E+04  0.50400001928E-02 0.  1.
    10030    2    1    2    0    0  0.00000000000E+00  0.00000000000E+00 -0.22325580175E+04  0.27099412777E+04  0.15360554766E+04 0.  0.
        1    1    3    3  502    0 -0.50425852017E+03 -0.10034138181E+03 -0.10971161659E+03  0.52572016027E+03  0.50400001928E-02 0. -1.
       -1    1    3    3    0  502  0.50425852017E+03  0.10034138181E+03 -0.21228464009E+04  0.21842211175E+04  0.50400001928E-02 0.  1.
</event>
<event>
 5   0  0.2641347E-04  0.1494215E+04  0.7818609E-02  0.8888309E-01
        2   -1    0    0  501    0  0.00000000000E+00  0.00000000000E+00  0.10652653438E+04  0.10652653438E+04  0.25500000920E-02 0. -1.
       -2   -1    0    0    0  501  0.00000000000E+00  0.00000000000E+00 -0.52397238643E+03  0.52397238644E+03  0.25500000920E-02 0.  1.
    10030    2    1    2    0    0  0.00000000000E+00  0.00000000000E+00  0.54129295735E+03  0.15892377302E+04  0.14942150105E+04 0.  0.
        4    1    3    3  502    0  0.57846715183E+03 -0.22149805575E+03  0.71492115260E+03  0.94593842388E+03  0.12699999809E+01 0. -1.
       -4    1    3    3    0  502 -0.57846715183E+03  0.22149805575E+03 -0.17362819524E+03  0.64329930634E+03  0.12699999809E+01 0.  1.
</event>
<event>
 5   0  0.2641347E-04  0.1498175E+04  0.7818609E-02  0.8885667E-01
        2   -1    0    0  501    0  0.00000000000E+00  0.00000000000E+00  0.94428839393E+03  0.94428839394E+03  0.25500000920E-02 0. -1.
       -2   -1    0    0    0  501  0.00000000000E+00  0.00000000000E+00 -0.59423806527E+03  0.59423806527E+03  0.25500000920E-02 0.  1.
    10030    2    1    2    0    0  0.00000000000E+00  0.00000000000E+00  0.35005032867E+03  0.15385264592E+04  0.14981750342E+04 0.  0.
        4    1    3    3  502    0 -0.23086313547E+03 -0.68230981463E+03  0.38619935798E+03  0.81731023942E+03  0.12699999809E+01 0.  1.
       -4    1    3    3    0  502  0.23086313547E+03  0.68230981463E+03 -0.36149029317E+02  0.72121621978E+03  0.12699999809E+01 0. -1.
</event>
<event>
 5   0  0.2646718E-04  0.1499190E+04  0.7818609E-02  0.8884992E-01
       -2   -1    0    0    0  501  0.00000000000E+00  0.00000000000E+00  0.12941006264E+04  0.12941006264E+04  0.25500000920E-02 0. -1.
        2   -1    0    0  501    0  0.00000000000E+00  0.00000000000E+00 -0.43419533609E+03  0.43419533610E+03  0.25500000920E-02 0.  1.
    10030    2    1    2    0    0  0.00000000000E+00  0.00000000000E+00  0.85990529034E+03  0.17282959625E+04  0.14991897231E+04 0.  0.
        3    1    3    3  502    0  0.52338301643E+03  0.38502948964E+03  0.86085906932E+03  0.10785433868E+04  0.10100000352E+00 0. -1.
       -3    1    3    3    0  502 -0.52338301643E+03 -0.38502948964E+03 -0.95377897951E+00  0.64975257573E+03  0.10100000352E+00 0.  1.
</event>
<event>
 5   0  0.1427609E-04  0.1501898E+04  0.7818609E-02  0.8883192E-01
        1   -1    0    0  501    0  0.00000000000E+00  0.00000000000E+00  0.78438081890E+03  0.78438081892E+03  0.50400001928E-02 0.  1.
       -1   -1    0    0    0  501  0.00000000000E+00  0.00000000000E+00 -0.71894228272E+03  0.71894228274E+03  0.50400001928E-02 0. -1.
    10030    2    1    2    0    0  0.00000000000E+00  0.00000000000E+00  0.65438536183E+02  0.15033231017E+04  0.15018981810E+04 0.  0.
        4    1    3    3  502    0 -0.27194129520E+03 -0.46917372953E+03  0.55267998057E+03  0.77429505380E+03  0.12699999809E+01 0.  1.
       -4    1    3    3    0  502  0.27194129520E+03  0.46917372953E+03 -0.48724144439E+03  0.72902804785E+03  0.12699999809E+01 0. -1.
</event>
<event>
 5   0  0.1443750E-04  0.1502152E+04  0.7818609E-02  0.8883023E-01
       -1   -1    0    0    0  501  0.00000000000E+00  0.00000000000E+00  0.49740591455E+03  0.49740591458E+03  0.50400001928E-02 0. -1.
        1   -1    0    0  501    0  0.00000000000E+00  0.00000000000E+00 -0.11341141118E+04  0.11341141118E+04  0.50400001928E-02 0.  1.
    10030    2    1    2    0    0  0.00000000000E+00  0.00000000000E+00 -0.63670819720E+03  0.16315200263E+04  0.15021518791E+04 0.  0.
        2    1    3    3  502    0 -0.42504205754E+03  0.61776750987E+03 -0.27204886105E+03  0.79768918115E+03  0.25500000920E-02 0. -1.
       -2    1    3    3    0  502  0.42504205754E+03 -0.61776750987E+03 -0.36465933615E+03  0.83383084518E+03  0.25500000920E-02 0.  1.
</event>
<event>
 5   0  0.2646718E-04  0.1498783E+04  0.7818609E-02  0.8885263E-01
       -2   -1    0    0    0  501  0.00000000000E+00  0.00000000000E+00  0.10924785493E+04  0.10924785493E+04  0.25500000920E-02 0.  1.
        2   -1    0    0  501    0  0.00000000000E+00  0.00000000000E+00 -0.51404901013E+03  0.51404901014E+03  0.25500000920E-02 0. -1.
    10030    2    1    2    0    0  0.00000000000E+00  0.00000000000E+00  0.57842953918E+03  0.16065275594E+04  0.14987828620E+04 0.  0.
        3    1    3    3  502    0  0.25965201016E+03  0.30667490201E+03 -0.38880750985E+03  0.55914215707E+03  0.10100000352E+00 0. -1.
       -3    1    3    3    0  502 -0.25965201016E+03 -0.30667490201E+03  0.96723704903E+03  0.10473854024E+04  0.10100000352E+00 0.  1.
</event>
<event>
 5   0  0.2641347E-04  0.1459980E+04  0.7818609E-02  0.8911510E-01
       -2   -1    0    0    0  501  0.00000000000E+00  0.00000000000E+00  0.26616859930E+03  0.26616859931E+03  0.25500000920E-02 0. -1.
        2   -1    0    0  501    0  0.00000000000E+00  0.00000000000E+00 -0.20020609683E+04  0.20020609683E+04  0.25500000920E-02 0.  1.
    10030    2    1    2    0    0  0.00000000000E+00  0.00000000000E+00 -0.17358923690E+04  0.22682295676E+04  0.14599804980E+04 0.  0.
        4    1    3    3  502    0 -0.69287331077E+03 -0.21723629070E+03 -0.98440546577E+03  0.12232419077E+04  0.12699999809E+01 0.  1.
       -4    1    3    3    0  502  0.69287331077E+03  0.21723629070E+03 -0.75148690320E+03  0.10449876599E+04  0.12699999809E+01 0. -1.
</event>
<event>
 5   0  0.2641347E-04  0.1498315E+04  0.7818609E-02  0.8885574E-01
        2   -1    0    0  501    0  0.00000000000E+00  0.00000000000E+00  0.10320472175E+04  0.10320472175E+04  0.25500000920E-02 0. -1.
       -2   -1    0    0    0  501  0.00000000000E+00  0.00000000000E+00 -0.54380923425E+03  0.54380923426E+03  0.25500000920E-02 0.  1.
    10030    2    1    2    0    0  0.00000000000E+00  0.00000000000E+00  0.48823798324E+03  0.15758564518E+04  0.14983147961E+04 0.  0.
        4    1    3    3  502    0 -0.15984825255E+03  0.65927236286E+03  0.57844346354E+03  0.89150993583E+03  0.12699999809E+01 0. -1.
       -4    1    3    3    0  502  0.15984825255E+03 -0.65927236286E+03 -0.90205480304E+02  0.68434651592E+03  0.12699999809E+01 0.  1.
</event>
<event>
 5   0  0.1474203E-04  0.1501188E+04  0.7818609E-02  0.8883663E-01
       -1   -1    0    0    0  501  0.00000000000E+00  0.00000000000E+00  0.41632900676E+03  0.41632900679E+03  0.50400001928E-02 0. -1.
        1   -1    0    0  501    0  0.00000000000E+00  0.00000000000E+00 -0.13532361352E+04  0.13532361352E+04  0.50400001928E-02 0.  1.
    10030    2    1    2    0    0  0.00000000000E+00  0.00000000000E+00 -0.93690712845E+03  0.17695651420E+04  0.15011881376E+04 0.  0.
        3    1    3    3  502    0  0.11868919394E+03 -0.70422503595E+03 -0.19612963215E+03  0.74059899326E+03  0.10100000352E+00 0.  1.
       -3    1    3    3    0  502 -0.11868919394E+03  0.70422503595E+03 -0.74077749630E+03  0.10289661487E+04  0.10100000352E+00 0. -1.
</event>
<event>
 5   0  0.1426929E-04  0.1482361E+04  0.7818609E-02  0.8896268E-01
       -1   -1    0    0    0  501  0.00000000000E+00  0.00000000000E+00  0.54840496360E+03  0.54840496363E+03  0.50400001928E-02 0. -1.
        1   -1    0    0  501    0  0.00000000000E+00  0.00000000000E+00 -0.10017201833E+04  0.10017201833E+04  0.50400001928E-02 0.  1.
    10030    2    1    2    0    0  0.00000000000E+00  0.00000000000E+00 -0.45331521968E+03  0.15501251469E+04  0.14823607128E+04 0.  0.
        1    1    3    3  502    0  0.67983332240E+03  0.18059764441E+03  0.17599895854E+02  0.70363244082E+03  0.50400001928E-02 0. -1.
       -1    1    3    3    0  502 -0.67983332240E+03 -0.18059764441E+03 -0.47091511553E+03  0.84649270610E+03  0.50400001928E-02 0.  1.
</event>
<event>
 5   0  0.1443750E-04  0.1504486E+04  0.7818609E-02  0.8881475E-01
        1   -1    0    0  501    0  0.00000000000E+00  0.00000000000E+00  0.12574765120E+04  0.12574765120E+04  0.50400001928E-02 0.  1.
       -1   -1    0    0    0  501  0.00000000000E+00  0.00000000000E+00 -0.45000429272E+03  0.45000429275E+03  0.50400001928E-02 0. -1.
    10030    2    1    2    0    0  0.00000000000E+00  0.00000000000E+00  0.80747221926E+03  0.17074808048E+04  0.15044863953E+04 0.  0.
        2    1    3    3  502    0 -0.31218339537E+03  0.14174908755E+03  0.11636439420E+04  0.12131028398E+04  0.25500000920E-02 0.  1.
       -2    1    3    3    0  502  0.31218339537E+03 -0.14174908755E+03 -0.35617172273E+03  0.49437796496E+03  0.25500000920E-02 0. -1.
</event>
<event>
 5   0  0.2618901E-04  0.1491664E+04  0.7818609E-02  0.8890015E-01
        2   -1    0    0  501    0  0.00000000000E+00  0.00000000000E+00  0.16440279771E+04  0.16440279771E+04  0.25500000920E-02 0.  1.
       -2   -1    0    0    0  501  0.00000000000E+00  0.00000000000E+00 -0.33835501193E+03  0.33835501194E+03  0.25500000920E-02 0. -1.
    10030    2    1    2    0    0  0.00000000000E+00  0.00000000000E+00  0.13056729651E+04  0.19823829890E+04  0.14916636428E+04 0.  0.
        1    1    3    3  502    0 -0.41630402823E+03 -0.25531928581E+03 -0.96318759797E+02  0.49776930916E+03  0.50400001928E-02 0. -1.
       -1    1    3    3    0  502  0.41630402823E+03  0.25531928581E+03  0.14019917249E+04  0.14846136798E+04  0.50400001928E-02 0.  1.
</event>
<event>
 5   0  0.2641347E-04  0.1530554E+04  0.7818609E-02  0.8864385E-01
       -2   -1    0    0    0  501  0.00000000000E+00  0.00000000000E+00  0.37707582473E+03  0.37707582474E+03  0.25500000920E-02 0.  1.
        2   -1    0    0  501    0  0.00000000000E+00  0.00000000000E+00 -0.15531324428E+04  0.15531324428E+04  0.25500000920E-02 0. -1.
    10030    2    1    2    0    0  0.00000000000E+00  0.00000000000E+00 -0.11760566181E+04  0.19302082675E+04  0.15305537518E+04 0.  0.
        4    1    3    3  502    0  0.18844605568E+03  0.72717588465E+03 -0.40375662660E+03  0.85282923820E+03  0.12699999809E+01 0.  1.
       -4    1    3    3    0  502 -0.18844605568E+03 -0.72717588465E+03 -0.77229999147E+03  0.10773790293E+04  0.12699999809E+01 0. -1.
</event>
<event>
 5   0  0.1484251E-04  0.1525117E+04  0.7818609E-02  0.8867920E-01
       -1   -1    0    0    0  501  0.00000000000E+00  0.00000000000E+00  0.31701228507E+03  0.31701228511E+03  0.50400001928E-02 0. -1.
        1   -1    0    0  501    0  0.00000000000E+00  0.00000000000E+00 -0.18342998456E+04  0.18342998456E+04  0.50400001928E-02 0.  1.
    10030    2    1    2    0    0  0.00000000000E+00  0.00000000000E+00 -0.15172875605E+04  0.21513121307E+04  0.15251171570E+04 0.  0.
        5    1    3    3  502    0  0.55060943832E+02 -0.14878616512E+03  0.29345493981E+03  0.33362692062E+03  0.46999998093E+01 0. -1.
       -5    1    3    3    0  502 -0.55060943832E+02  0.14878616512E+03 -0.18107425003E+04  0.18176852101E+04  0.46999998093E+01 0.  1.
</event>
<event>
 5   0  0.2618901E-04  0.1509527E+04  0.7818609E-02  0.8878142E-01
        2   -1    0    0  501    0  0.00000000000E+00  0.00000000000E+00  0.24379154402E+04  0.24379154402E+04  0.25500000920E-02 0.  1.
       -2   -1    0    0    0  501  0.00000000000E+00  0.00000000000E+00 -0.23367004184E+03  0.23367004185E+03  0.25500000920E-02 0. -1.
    10030    2    1    2    0    0  0.00000000000E+00  0.00000000000E+00  0.22042453984E+04  0.26715854821E+04  0.15095268172E+04 0.  0.
        1    1    3    3  502    0 -0.34749803840E+03  0.62760669632E+03  0.15172672979E+04  0.16783161518E+04  0.50400001928E-02 0.  1.
       -1    1    3    3    0  502  0.34749803840E+03 -0.62760669632E+03  0.68697810042E+03  0.99326933026E+03  0.50400001928E-02 0. -1.
</event>
<event>
 5   0  0.1474203E-04  0.1501837E+04  0.7818609E-02  0.8883233E-01
        1   -1    0    0  501    0  0.00000000000E+00  0.00000000000E+00  0.78303832381E+03  0.78303832382E+03  0.50400001928E-02 0.  1.
       -1   -1    0    0    0  501  0.00000000000E+00  0.00000000000E+00 -0.72011582097E+03  0.72011582099E+03  0.50400001928E-02 0. -1.
    10030    2    1    2    0    0  0.00000000000E+00  0.00000000000E+00  0.62922502836E+02  0.15031541448E+04  0.15018365895E+04 0.  0.
        3    1    3    3  502    0 -0.43814624829E+03  0.56535683835E+03  0.26030519844E+03  0.76115655163E+03  0.10100000352E+00 0.  1.
       -3    1    3    3    0  502  0.43814624829E+03 -0.56535683835E+03 -0.19738269561E+03  0.74199759318E+03  0.10100000352E+00 0. -1.
</event>
<event>
 5   0  0.1484251E-04  0.1525963E+04  0.7818609E-02  0.8867369E-01
        1   -1    0    0  501    0  0.00000000000E+00  0.00000000000E+00  0.12838674727E+04  0.12838674728E+04  0.50400001928E-02 0. -1.
       -1   -1    0    0    0  501  0.00000000000E+00  0.00000000000E+00 -0.45342738051E+03  0.45342738053E+03  0.50400001928E-02 0.  1.
    10030    2    1    2    0    0  0.00000000000E+00  0.00000000000E+00  0.83044009224E+03  0.17372948533E+04  0.15259628634E+04 0.  0.
        5    1    3    3  502    0 -0.58344239755E+03 -0.26293789548E+01  0.97494394461E+03  0.11361996876E+04  0.46999998093E+01 0. -1.
       -5    1    3    3    0  502  0.58344239755E+03  0.26293789548E+01 -0.14450385238E+03  0.60109516572E+03  0.46999998093E+01 0.  1.
</event>
<event>
 5   0  0.1484251E-04  0.1500641E+04  0.7818609E-02  0.8884027E-01
        1   -1    0    0  501    0  0.00000000000E+00  0.00000000000E+00  0.75893368458E+03  0.75893368460E+03  0.50400001928E-02 0. -1.
       -1   -1    0    0    0  501  0.00000000000E+00  0.00000000000E+00 -0.74180467079E+03  0.74180467081E+03  0.50400001928E-02 0.  1.
    10030    2    1    2    0    0  0.00000000000E+00  0.00000000000E+00  0.17129013788E+02  0.15007383554E+04  0.15006405993E+04 0.  0.
        5    1    3    3  502    0 -0.71622983269E+03 -0.21433981616E+03 -0.54935550894E+02  0.74964440555E+03  0.46999998093E+01 0.  1.
       -5    1    3    3    0  502  0.71622983269E+03  0.21433981616E+03  0.72064564682E+02  0.75109394985E+03  0.46999998093E+01 0. -1.
</event>
<event>
 5   0  0.2734072E-04  0.1511515E+04  0.7818609E-02  0.8876831E-01
        2   -1    0    0  501    0  0.00000000000E+00  0.00000000000E+00  0.15487427097E+04  0.15487427097E+04  0.25500000920E-02 0. -1.
       -2   -1    0    0    0  501  0.00000000000E+00  0.00000000000E+00 -0.36879562043E+03  0.36879562044E+03  0.25500000920E-02 0.  1.
    10030    2    1    2    0    0  0.00000000000E+00  0.00000000000E+00  0.11799470893E+04  0.19175383302E+04  0.15115151716E+04 0.  0.
        5    1    3    3  502    0 -0.17672054684E+03 -0.39501485449E+03  0.13759863081E+04  0.14424379699E+04  0.46999998093E+01 0. -1.
       -5    1    3    3    0  502  0.17672054684E+03  0.39501485449E+03 -0.19603921886E+03  0.47510036021E+03  0.46999998093E+01 0.  1.
</event>
<event>
 5   0  0.2734072E-04  0.1495586E+04  0.7818609E-02  0.8887393E-01
        2   -1    0    0  501    0  0.00000000000E+00  0.00000000000E+00  0.63092665987E+03  0.63092665988E+03  0.25500000920E-02 0. -1.
       -2   -1    0    0    0  501  0.00000000000E+00  0.00000000000E+00 -0.88630659334E+03  0.88630659335E+03  0.25500000920E-02 0.  1.
    10030    2    1    2    0    0  0.00000000000E+00  0.00000000000E+00 -0.25537993347E+03  0.15172332532E+04  0.14955861173E+04 0.  0.
        5    1    3    3  502    0 -0.22177708864E+03 -0.31741373469E+03 -0.77666463255E+03  0.86785171398E+03  0.46999998093E+01 0.  1.
       -5    1    3    3    0  502  0.22177708864E+03  0.31741373469E+03  0.52128469908E+03  0.64938153924E+03  0.46999998093E+01 0. -1.
</event>
<event>
 5   0  0.2641347E-04  0.1508877E+04  0.7818609E-02  0.8878571E-01
       -2   -1    0    0    0  501  0.00000000000E+00  0.00000000000E+00  0.33954352159E+03  0.33954352160E+03  0.25500000920E-02 0.  1.
        2   -1    0    0  501    0  0.00000000000E+00  0.00000000000E+00 -0.16763010803E+04  0.16763010803E+04  0.25500000920E-02 0. -1.
    10030    2    1    2    0    0  0.00000000000E+00  0.00000000000E+00 -0.13367575587E+04  0.20158446019E+04  0.15088766312E+04 0.  0.
        4    1    3    3  502    0  0.37602933478E+03 -0.10128723130E+02 -0.15420744882E+04  0.15872920310E+04  0.12699999809E+01 0. -1.
       -4    1    3    3    0  502 -0.37602933478E+03  0.10128723130E+02  0.20531692944E+03  0.42855257094E+03  0.12699999809E+01 0.  1.
</event>
<event>
 5   0  0.1426929E-04  0.1481821E+04  0.7818609E-02  0.8896632E-01
       -1   -1    0    0    0  501  0.00000000000E+00  0.00000000000E+00  0.56888296792E+03  0.56888296794E+03  0.50400001928E-02 0. -1.
        1   -1    0    0  501    0  0.00000000000E+00  0.00000000000E+00 -0.96495848358E+03  0.96495848359E+03  0.50400001928E-02 0.  1.
    10030    2    1    2    0    0  0.00000000000E+00  0.00000000000E+00 -0.39607551566E+03  0.15338414515E+04  0.14818211040E+04 0.  0.
        1    1    3    3  502    0 -0.66796687203E+03  0.12221562021E+03 -0.50480656284E+03  0.84613596181E+03  0.50400001928E-02 0.  1.
       -1    1    3    3    0  502  0.66796687203E+03 -0.12221562021E+03  0.10873104718E+03  0.68770548972E+03  0.50400001928E-02 0. -1.
</event>
<event>
 5   0  0.2734072E-04  0.1493929E+04  0.7818609E-02  0.8888500E-01
        2   -1    0    0  501    0  0.00000000000E+00  0.00000000000E+00  0.62587075871E+03  0.62587075871E+03  0.25500000920E-02 0.  1.
       -2   -1    0    0    0  501  0.00000000000E+00  0.00000000000E+00 -0.89148779488E+03  0.89148779488E+03  0.25500000920E-02 0. -1.
    10030    2    1    2    0    0  0.00000000000E+00  0.00000000000E+00 -0.26561703617E+03  0.15173585536E+04  0.14939292387E+04 0.  0.
        5    1    3    3  502    0  0.89418188022E+02 -0.38380605254E+03  0.51167525324E+03  0.64586093944E+03  0.46999998093E+01 0.  1.
       -5    1    3    3    0  502 -0.89418188022E+02  0.38380605254E+03 -0.77729228941E+03  0.87149761416E+03  0.46999998093E+01 0. -1.
</event>
<event>
 5   0  0.1484251E-04  0.1509490E+04  0.7818609E-02  0.8878166E-01
        1   -1    0    0  501    0  0.00000000000E+00  0.00000000000E+00  0.76555474290E+03  0.76555474292E+03  0.50400001928E-02 0.  1.
       -1   -1    0    0    0  501  0.00000000000E+00  0.00000000000E+00 -0.74408835286E+03  0.74408835288E+03  0.50400001928E-02 0. -1.
    10030    2    1    2    0    0  0.00000000000E+00  0.00000000000E+00  0.21466390039E+02  0.15096430958E+04  0.15094904673E+04 0.  0.
        5    1    3    3  502    0  0.39905276912E+03  0.35306862164E+03  0.54531293259E+03  0.76242301157E+03  0.46999998093E+01 0.  1.
       -5    1    3    3    0  502 -0.39905276912E+03 -0.35306862164E+03 -0.52384654255E+03  0.74722008423E+03  0.46999998093E+01 0. -1.
</event>
<event>
 5   0  0.2646718E-04  0.1495363E+04  0.7818609E-02  0.8887542E-01
       -2   -1    0    0    0  501  0.00000000000E+00  0.00000000000E+00  0.31680727312E+03  0.31680727313E+03  0.25500000920E-02 0. -1.
        2   -1    0    0  501    0  0.00000000000E+00  0.00000000000E+00 -0.17645665535E+04  0.17645665535E+04  0.25500000920E-02 0.  1.
    10030    2    1    2    0    0  0.00000000000E+00  0.00000000000E+00 -0.14477592804E+04  0.20813738267E+04  0.14953628564E+04 0.  0.
        3    1    3    3  502    0 -0.43055686190E+02 -0.48350300434E+02  0.31289842911E+03  0.31952618172E+03  0.10100000352E+00 0. -1.
       -3    1    3    3    0  502  0.43055686190E+02  0.48350300434E+02 -0.17606577095E+04  0.17618476449E+04  0.10100000352E+00 0.  1.
</event>
<event>
 5   0  0.2734072E-04  0.1502210E+04  0.7818609E-02  0.8882984E-01
        2   -1    0    0  501    0  0.00000000000E+00  0.00000000000E+00  0.26480703048E+04  0.26480703048E+04  0.25500000920E-02 0. -1.
       -2   -1    0    0    0  501  0.00000000000E+00  0.00000000000E+00 -0.21304528829E+03  0.21304528831E+03  0.25500000920E-02 0.  1.
    10030    2    1    2    0    0  0.00000000000E+00  0.00000000000E+00  0.24350250165E+04  0.28611155931E+04  0.15022102403E+04 0.  0.
        5    1    3    3  502    0 -0.59126679163E+03 -0.39084230932E+03  0.16909232025E+04  0.18334659791E+04  0.46999998093E+01 0. -1.
       -5    1    3    3    0  502  0.59126679163E+03  0.39084230932E+03  0.74410181400E+03  0.10276496140E+04  0.46999998093E+01 0.  1.
</event>
<event>
 5   0  0.1427609E-04  0.1496882E+04  0.7818609E-02  0.8886529E-01
       -1   -1    0    0    0  501  0.00000000000E+00  0.00000000000E+00  0.11088854932E+04  0.11088854932E+04  0.50400001928E-02 0. -1.
        1   -1    0    0  501    0  0.00000000000E+00  0.00000000000E+00 -0.50515920441E+03  0.50515920444E+03  0.50400001928E-02 0.  1.
    10030    2    1    2    0    0  0.00000000000E+00  0.00000000000E+00  0.60372628879E+03  0.16140446977E+04  0.14968817102E+04 0.  0.
        4    1    3    3  502    0  0.15190914458E+03 -0.77184082000E+01 -0.48831640913E+03  0.51145917761E+03  0.12699999809E+01 0.  1.
       -4    1    3    3    0  502 -0.15190914458E+03  0.77184082000E+01  0.10920426979E+04  0.11025855200E+04  0.12699999809E+01 0. -1.
</event>
<event>
 5   0  0.2646718E-04  0.1498916E+04  0.7818609E-02  0.8885174E-01
       -2   -1    0    0    0  501  0.00000000000E+00  0.00000000000E+00  0.34786315114E+03  0.34786315115E+03  0.25500000920E-02 0. -1.
        2   -1    0    0  501    0  0.00000000000E+00  0.00000000000E+00 -0.16146792985E+04  0.16146792985E+04  0.25500000920E-02 0.  1.
    10030    2    1    2    0    0  0.00000000000E+00  0.00000000000E+00 -0.12668161474E+04  0.19625424496E+04  0.14989161803E+04 0.  0.
        3    1    3    3  502    0  0.44199853540E+03  0.60522981969E+03 -0.62732596040E+03  0.97734523621E+03  0.10100000352E+00 0.  1.
       -3    1    3    3    0  502 -0.44199853540E+03 -0.60522981969E+03 -0.63949018696E+03  0.98519721344E+03  0.10100000352E+00 0. -1.
</event>
<event>
 5   0  0.2696040E-04  0.1501321E+04  0.7818609E-02  0.8883575E-01
        2   -1    0    0  501    0  0.00000000000E+00  0.00000000000E+00  0.12924055328E+04  0.12924055328E+04  0.25500000920E-02 0.  1.
       -2   -1    0    0    0  501  0.00000000000E+00  0.00000000000E+00 -0.43600205217E+03  0.43600205217E+03  0.25500000920E-02 0. -1.
    10030    2    1    2    0    0  0.00000000000E+00  0.00000000000E+00  0.85640348065E+03  0.17284075850E+04  0.15013213707E+04 0.  0.
        2    1    3    3  502    0 -0.18626157343E+03  0.46721686781E+03 -0.21331476892E+03  0.54634070500E+03  0.25500000920E-02 0. -1.
       -2    1    3    3    0  502  0.18626157343E+03 -0.46721686781E+03  0.10697182496E+04  0.11820668800E+04  0.25500000920E-02 0.  1.
</event>
<event>
 5   0  0.2641347E-04  0.1500850E+04  0.7818609E-02  0.8883888E-01
        2   -1    0    0  501    0  0.00000000000E+00  0.00000000000E+00  0.16212752447E+04  0.16212752447E+04  0.25500000920E-02 0. -1.
       -2   -1    0    0    0  501  0.00000000000E+00  0.00000000000E+00 -0.34734234028E+03  0.34734234029E+03  0.25500000920E-02 0.  1.
    10030    2    1    2    0    0  0.00000000000E+00  0.00000000000E+00  0.12739329044E+04  0.19686175850E+04  0.15008498096E+04 0.  0.
        4    1    3    3  502    0 -0.34888823184E+03 -0.18685089312E+02  0.15080801246E+04  0.15480243558E+04  0.12699999809E+01 0. -1.
       -4    1    3    3    0  502  0.34888823184E+03  0.18685089312E+02 -0.23414722017E+03  0.42059322925E+03  0.12699999809E+01 0.  1.
</event>
<event>
 5   0  0.2646718E-04  0.1500865E+04  0.7818609E-02  0.8883878E-01
        2   -1    0    0  501    0  0.00000000000E+00  0.00000000000E+00  0.11220002478E+04  0.11220002478E+04  0.25500000920E-02 0.  1.
       -2   -1    0    0    0  501  0.00000000000E+00  0.00000000000E+00 -0.50191537571E+03  0.50191537571E+03  0.25500000920E-02 0. -1.
    10030    2    1    2    0    0  0.00000000000E+00  0.00000000000E+00  0.62008487209E+03  0.16239156235E+04  0.15008653183E+04 0.  0.
        3    1    3    3  502    0  0.27938072767E+03  0.55936303983E+03 -0.13896042790E+03  0.64050808898E+03  0.10100000352E+00 0. -1.
       -3    1    3    3    0  502 -0.27938072767E+03 -0.55936303983E+03  0.75904529999E+03  0.98340753453E+03  0.10100000352E+00 0.  1.
</event>
<event>
 5   0  0.2618901E-04  0.1503721E+04  0.7818609E-02  0.8881982E-01
       -2   -1    0    0    0  501  0.00000000000E+00  0.00000000000E+00  0.10610580819E+04  0.10610580819E+04  0.25500000920E-02 0. -1.
        2   -1    0    0  501    0  0.00000000000E+00  0.00000000000E+00 -0.53276489286E+03  0.53276489287E+03  0.25500000920E-02 0.  1.
    10030    2    1    2    0    0  0.00000000000E+00  0.00000000000E+00  0.52829318901E+03  0.15938229747E+04  0.15037213775E+04 0.  0.
        1    1    3    3  502    0 -0.17570243410E+03 -0.35273051567E+03  0.94282953419E+03  0.10218697043E+04  0.50400001928E-02 0. -1.
       -1    1    3    3    0  502  0.17570243410E+03  0.35273051567E+03 -0.41453634518E+03  0.57195327042E+03  0.50400001928E-02 0.  1.
</event>
<event>
 5   0  0.2618901E-04  0.1547932E+04  0.7818609E-02  0.8853190E-01
       -2   -1    0    0    0  501  0.00000000000E+00  0.00000000000E+00  0.12221074860E+04  0.12221074860E+04  0.25500000920E-02 0. -1.
        2   -1    0    0  501    0  0.00000000000E+00  0.00000000000E+00 -0.49015592560E+03  0.49015592560E+03  0.25500000920E-02 0.  1.
    10030    2    1    2    0    0  0.00000000000E+00  0.00000000000E+00  0.73195156045E+03  0.17122634117E+04  0.15479318150E+04 0.  0.
        1    1    3    3  502    0 -0.37226361315E+02  0.68454951193E+03 -0.31364937278E+02  0.68627807453E+03  0.50400001928E-02 0. -1.
       -1    1    3    3    0  502  0.37226361315E+02 -0.68454951193E+03  0.76331649773E+03  0.10259853371E+04  0.50400001928E-02 0.  1.
</event>
<event>
 5   0  0.1426929E-04  0.1507144E+04  0.7818609E-02  0.8879716E-01
       -1   -1    0    0    0  501  0.00000000000E+00  0.00000000000E+00  0.10819314219E+04  0.10819314220E+04  0.50400001928E-02 0. -1.
        1   -1    0    0  501    0  0.00000000000E+00  0.00000000000E+00 -0.52486769691E+03  0.52486769693E+03  0.50400001928E-02 0.  1.
    10030    2    1    2    0    0  0.00000000000E+00  0.00000000000E+00  0.55706372503E+03  0.16067991189E+04  0.15071441254E+04 0.  0.
        1    1    3    3  502    0  0.60042547316E+03 -0.37778701982E+03  0.54958075621E+03  0.89736992862E+03  0.50400001928E-02 0. -1.
       -1    1    3    3    0  502 -0.60042547316E+03  0.37778701982E+03  0.74829688216E+01  0.70942919027E+03  0.50400001928E-02 0.  1.
</event>
<event>
 5   0  0.1443750E-04  0.1500225E+04  0.7818609E-02  0.8884304E-01
       -1   -1    0    0    0  501  0.00000000000E+00  0.00000000000E+00  0.98205948588E+03  0.98205948589E+03  0.50400001928E-02 0. -1.
        1   -1    0    0  501    0  0.00000000000E+00  0.00000000000E+00 -0.57294736141E+03  0.57294736143E+03  0.50400001928E-02 0.  1.
    10030    2    1    2    0    0  0.00000000000E+00  0.00000000000E+00  0.40911212447E+03  0.15550068473E+04  0.15002245048E+04 0.  0.
        2    1    3    3  502    0 -0.50196517133E+03  0.39829724978E+03 -0.19963027463E+03  0.67116464371E+03  0.25500000920E-02 0.  1.
       -2    1    3    3    0  502  0.50196517133E+03 -0.39829724978E+03  0.60874239910E+03  0.88384220361E+03  0.25500000920E-02 0. -1.
</event>
<event>
 5   0  0.2618901E-04  0.1441523E+04  0.7818609E-02  0.8924299E-01
        2   -1    0    0  501    0  0.00000000000E+00  0.00000000000E+00  0.15328489129E+04  0.15328489129E+04  0.25500000920E-02 0.  1.
       -2   -1    0    0    0  501  0.00000000000E+00  0.00000000000E+00 -0.33890933681E+03  0.33890933682E+03  0.25500000920E-02 0. -1.
    10030    2    1    2    0    0  0.00000000000E+00  0.00000000000E+00  0.11939395761E+04  0.18717582498E+04  0.14415225403E+04 0.  0.
        1    1    3    3  502    0  0.65225386148E+03  0.14774522824E+03  0.24799318285E+03  0.71327720491E+03  0.50400001928E-02 0. -1.
       -1    1    3    3    0  502 -0.65225386148E+03 -0.14774522824E+03  0.94594639329E+03  0.11584810449E+04  0.50400001928E-02 0.  1.
</event>
<event>
 5   0  0.1474203E-04  0.1508523E+04  0.7818609E-02  0.8878805E-01
        1   -1    0    0  501    0  0.00000000000E+00  0.00000000000E+00  0.87153115486E+03  0.87153115488E+03  0.50400001928E-02 0.  1.
       -1   -1    0    0    0  501  0.00000000000E+00  0.00000000000E+00 -0.65277135260E+03  0.65277135262E+03  0.50400001928E-02 0. -1.
    10030    2    1    2    0    0  0.00000000000E+00  0.00000000000E+00  0.21875980226E+03  0.15243025075E+04  0.15085232127E+04 0.  0.
        3    1    3    3  502    0  0.10374397425E+03 -0.68034358961E+03  0.42128382271E+03  0.80691404845E+03  0.10100000352E+00 0.  1.
       -3    1    3    3    0  502 -0.10374397425E+03  0.68034358961E+03 -0.20252402045E+03  0.71738845904E+03  0.10100000352E+00 0. -1.
</event>
<event>
 5   0  0.2734072E-04  0.1500871E+04  0.7818609E-02  0.8883874E-01
       -2   -1    0    0    0  501  0.00000000000E+00  0.00000000000E+00  0.51398767419E+03  0.51398767419E+03  0.25500000920E-02 0. -1.
        2   -1    0    0  501    0  0.00000000000E+00  0.00000000000E+00 -0.10956549363E+04  0.10956549363E+04  0.25500000920E-02 0.  1.
    10030    2    1    2    0    0  0.00000000000E+00  0.00000000000E+00 -0.58166726207E+03  0.16096426104E+04  0.15008705906E+04 0.  0.
        5    1    3    3  502    0 -0.33550941431E+02  0.71557928278E+03 -0.53052986172E+03  0.89143894899E+03  0.46999998093E+01 0.  1.
       -5    1    3    3    0  502  0.33550941431E+02 -0.71557928278E+03 -0.51137400349E+02  0.71820366145E+03  0.46999998093E+01 0. -1.
</event>
<event>
 5   0  0.1474203E-04  0.1510581E+04  0.7818609E-02  0.8877447E-01
       -1   -1    0    0    0  501  0.00000000000E+00  0.00000000000E+00  0.87524103897E+03  0.87524103898E+03  0.50400001928E-02 0. -1.
        1   -1    0    0  501    0  0.00000000000E+00  0.00000000000E+00 -0.65177889655E+03  0.65177889657E+03  0.50400001928E-02 0.  1.
    10030    2    1    2    0    0  0.00000000000E+00  0.00000000000E+00  0.22346214241E+03  0.15270199356E+04  0.15105808666E+04 0.  0.
        3    1    3    3  502    0  0.21557700547E+03  0.39285135437E+03 -0.50288056746E+03  0.67356848742E+03  0.10100000352E+00 0.  1.
       -3    1    3    3    0  502 -0.21557700547E+03 -0.39285135437E+03  0.72634270988E+03  0.85345144813E+03  0.10100000352E+00 0. -1.
</event>
<event>
 5   0  0.2696040E-04  0.1510278E+04  0.7818609E-02  0.8877647E-01
       -2   -1    0    0    0  501  0.00000000000E+00  0.00000000000E+00  0.86755295676E+03  0.86755295676E+03  0.25500000920E-02 0.  1.
        2   -1    0    0  501    0  0.00000000000E+00  0.00000000000E+00 -0.65729151651E+03  0.65729151651E+03  0.25500000920E-02 0. -1.
    10030    2    1    2    0    0  0.00000000000E+00  0.00000000000E+00  0.21026144025E+03  0.15248444733E+04  0.15102783831E+04 0.  0.
        2    1    3    3  502    0  0.11767796917E+03 -0.20378346308E+03  0.82958813940E+03  0.86231797226E+03  0.25500000920E-02 0.  1.
       -2    1    3    3    0  502 -0.11767796917E+03  0.20378346308E+03 -0.61932669915E+03  0.66252650101E+03  0.25500000920E-02 0. -1.
</event>
<event>
 5   0  0.1427609E-04  0.1530128E+04  0.7818609E-02  0.8864662E-01
        1   -1    0    0  501    0  0.00000000000E+00  0.00000000000E+00  0.76737314995E+03  0.76737314997E+03  0.50400001928E-02 0. -1.
       -1   -1    0    0    0  501  0.00000000000E+00  0.00000000000E+00 -0.76276142575E+03  0.76276142577E+03  0.50400001928E-02 0.  1.
    10030    2    1    2    0    0  0.00000000000E+00  0.00000000000E+00  0.46117242036E+01  0.15301345757E+04  0.15301276260E+04 0.  0.
        4    1    3    3  502    0  0.16059596053E+03 -0.49854139062E+03 -0.55535825664E+03  0.76338652517E+03  0.12699999809E+01 0.  1.
       -4    1    3    3    0  502 -0.16059596053E+03  0.49854139062E+03  0.55996998085E+03  0.76674805056E+03  0.12699999809E+01 0. -1.
</event>
<event>
 5   0  0.1484251E-04  0.1503480E+04  0.7818609E-02  0.8882142E-01
       -1   -1    0    0    0  501  0.00000000000E+00  0.00000000000E+00  0.30339458791E+03  0.30339458796E+03  0.50400001928E-02 0. -1.
        1   -1    0    0  501    0  0.00000000000E+00  0.00000000000E+00 -0.18626347059E+04  0.18626347059E+04  0.50400001928E-02 0.  1.
    10030    2    1    2    0    0  0.00000000000E+00  0.00000000000E+00 -0.15592401180E+04  0.21660292939E+04  0.15034803478E+04 0.  0.
        5    1    3    3  502    0  0.69143063454E+03 -0.14252966977E+03 -0.40754544466E+03  0.81517262503E+03  0.46999998093E+01 0. -1.
       -5    1    3    3    0  502 -0.69143063454E+03  0.14252966977E+03 -0.11516946733E+04  0.13508566688E+04  0.46999998093E+01 0.  1.
</event>
<event>
 5   0  0.1426929E-04  0.1493249E+04  0.7818609E-02  0.8888954E-01
       -1   -1    0    0    0  501  0.00000000000E+00  0.00000000000E+00  0.79790980478E+03  0.79790980479E+03  0.50400001928E-02 0.  1.
        1   -1    0    0  501    0  0.00000000000E+00  0.00000000000E+00 -0.69863582886E+03  0.69863582888E+03  0.50400001928E-02 0. -1.
    10030    2    1    2    0    0  0.00000000000E+00  0.00000000000E+00  0.99273975913E+02  0.14965456337E+04  0.14932493132E+04 0.  0.
        1    1    3    3  502    0 -0.39837969413E+02  0.14115705799E+03  0.78332953145E+03  0.79694261631E+03  0.50400001928E-02 0.  1.
       -1    1    3    3    0  502  0.39837969413E+02 -0.14115705799E+03 -0.68405555553E+03  0.69960301737E+03  0.50400001928E-02 0. -1.
</event>
<event>
 5   0  0.1443750E-04  0.1497885E+04  0.7818609E-02  0.8885861E-01
       -1   -1    0    0    0  501  0.00000000000E+00  0.00000000000E+00  0.71059506183E+03  0.71059506184E+03  0.50400001928E-02 0. -1.
        1   -1    0    0  501    0  0.00000000000E+00  0.00000000000E+00 -0.78935936692E+03  0.78935936694E+03  0.50400001928E-02 0.  1.
    10030    2    1    2    0    0  0.00000000000E+00  0.00000000000E+00 -0.78764305095E+02  0.14999544288E+04  0.14978849998E+04 0.  0.
        2    1    3    3  502    0 -0.52123386225E+01 -0.56436182671E+03  0.45362254208E+03  0.72408897976E+03  0.25500000920E-02 0.  1.
       -2    1    3    3    0  502  0.52123386225E+01  0.56436182671E+03 -0.53238684718E+03  0.77586544902E+03  0.25500000920E-02 0. -1.
</event>
<event>
 5   0  0.2646718E-04  0.1498645E+04  0.7818609E-02  0.8885354E-01
       -2   -1    0    0    0  501  0.00000000000E+00  0.00000000000E+00  0.44660009301E+03  0.44660009301E+03  0.25500000920E-02 0. -1.
        2   -1    0    0  501    0  0.00000000000E+00  0.00000000000E+00 -0.12572421347E+04  0.12572421347E+04  0.25500000920E-02 0.  1.
    10030    2    1    2    0    0  0.00000000000E+00  0.00000000000E+00 -0.81064204168E+03  0.17038422277E+04  0.14986453273E+04 0.  0.
        3    1    3    3  502    0 -0.10690398030E+03 -0.44008746404E+03 -0.10840346501E+04  0.11748346989E+04  0.10100000352E+00 0.  1.
       -3    1    3    3    0  502  0.10690398030E+03  0.44008746404E+03  0.27339260838E+03  0.52900752880E+03  0.10100000352E+00 0. -1.
</event>
<event>
 5   0  0.2618901E-04  0.1499734E+04  0.7818609E-02  0.8884630E-01
        2   -1    0    0  501    0  0.00000000000E+00  0.00000000000E+00  0.13430839799E+04  0.13430839799E+04  0.25500000920E-02 0.  1.
       -2   -1    0    0    0  501  0.00000000000E+00  0.00000000000E+00 -0.41866382056E+03  0.41866382057E+03  0.25500000920E-02 0. -1.
    10030    2    1    2    0    0  0.00000000000E+00  0.00000000000E+00  0.92442015936E+03  0.17617478005E+04  0.14997342036E+04 0.  0.
        1    1    3    3  502    0  0.93349913607E+02  0.27909970639E+03  0.12724084577E+04  0.13059992862E+04  0.50400001928E-02 0.  1.
       -1    1    3    3    0  502 -0.93349913607E+02 -0.27909970639E+03 -0.34798829830E+03  0.45574851427E+03  0.50400001928E-02 0. -1.
</event>
<event>
 5   0  0.1443750E-04  0.1504672E+04  0.7818609E-02  0.8881352E-01
        1   -1    0    0  501    0  0.00000000000E+00  0.00000000000E+00  0.70933395928E+03  0.70933395930E+03  0.50400001928E-02 0.  1.
       -1   -1    0    0    0  501  0.00000000000E+00  0.00000000000E+00 -0.79794469839E+03  0.79794469841E+03  0.50400001928E-02 0. -1.
    10030    2    1    2    0    0  0.00000000000E+00  0.00000000000E+00 -0.88610739115E+02  0.15072786577E+04  0.15046717545E+04 0.  0.
        2    1    3    3  502    0 -0.65211575836E+03 -0.24088698387E+02 -0.41935227249E+03  0.77568779554E+03  0.25500000920E-02 0.  1.
       -2    1    3    3    0  502  0.65211575836E+03  0.24088698387E+02  0.33074153338E+03  0.73159086217E+03  0.25500000920E-02 0. -1.
</event>
<event>
 5   0  0.1427609E-04  0.1516384E+04  0.7818609E-02  0.8873630E-01
       -1   -1    0    0    0  501  0.00000000000E+00  0.00000000000E+00  0.36293439143E+03  0.36293439147E+03  0.50400001928E-02 0. -1.
        1   -1    0    0  501    0  0.00000000000E+00  0.00000000000E+00 -0.15839095165E+04  0.15839095165E+04  0.50400001928E-02 0.  1.
    10030    2    1    2    0    0  0.00000000000E+00  0.00000000000E+00 -0.12209751251E+04  0.19468439080E+04  0.15163841684E+04 0.  0.
        4    1    3    3  502    0 -0.43094854390E+03 -0.43189258077E+03 -0.11883810508E+04  0.13358514077E+04  0.12699999809E+01 0.  1.
       -4    1    3    3    0  502  0.43094854390E+03  0.43189258077E+03 -0.32594074325E+02  0.61099250027E+03  0.12699999809E+01 0. -1.
</event>
<event>
 5   0  0.1474203E-04  0.1500522E+04  0.7818609E-02  0.8884106E-01
       -1   -1    0    0    0  501  0.00000000000E+00  0.00000000000E+00  0.26719038862E+03  0.26719038867E+03  0.50400001928E-02 0. -1.
        1   -1    0    0  501    0  0.00000000000E+00  0.00000000000E+00 -0.21067055408E+04  0.21067055408E+04  0.50400001928E-02 0.  1.
    10030    2    1    2    0    0  0.00000000000E+00  0.00000000000E+00 -0.18395151522E+04  0.23738959295E+04  0.15005218722E+04 0.  0.
        3    1    3    3  502    0  0.61000657723E+03  0.25302442872E+03 -0.14830241992E+04  0.16234192839E+04  0.10100000352E+00 0.  1.
       -3    1    3    3    0  502 -0.61000657723E+03 -0.25302442872E+03 -0.35649095303E+03  0.75047664560E+03  0.10100000352E+00 0. -1.
</event>
<event>
 5   0  0.1427609E-04  0.1496218E+04  0.7818609E-02  0.8886972E-01
        1   -1    0    0  501    0  0.00000000000E+00  0.00000000000E+00  0.59377765188E+03  0.59377765190E+03  0.50400001928E-02 0. -1.
       -1   -1    0    0    0  501  0.00000000000E+00  0.00000000000E+00 -0.94255346666E+03  0.94255346667E+03  0.50400001928E-02 0.  1.
    10030    2    1    2    0    0  0.00000000000E+00  0.00000000000E+00 -0.34877581478E+03  0.15363311186E+04  0.14962181448E+04 0.  0.
        4    1    3    3  502    0 -0.53561619955E+03 -0.10447775501E+03 -0.69983482787E+03  0.88745180923E+03  0.12699999809E+01 0.  1.
       -4    1    3    3    0  502  0.53561619955E+03  0.10447775501E+03  0.35105901310E+03  0.64887930934E+03  0.12699999809E+01 0. -1.
</event>
<event>
 5   0  0.2696040E-04  0.1433026E+04  0.7818609E-02  0.8930254E-01
        2   -1    0    0  501    0  0.00000000000E+00  0.00000000000E+00  0.71852685376E+03  0.71852685376E+03  0.25500000920E-02 0. -1.
       -2   -1    0    0    0  501  0.00000000000E+00  0.00000000000E+00 -0.71450449894E+03  0.71450449894E+03  0.25500000920E-02 0.  1.
    10030    2    1    2    0    0  0.00000000000E+00  0.00000000000E+00  0.40223548213E+01  0.14330313527E+04  0.14330257075E+04 0.  0.
        2    1    3    3  502    0 -0.49523370953E+03 -0.17238797593E+03 -0.48626999848E+03  0.71514512704E+03  0.25500000920E-02 0.  1.
       -2    1    3    3    0  502  0.49523370953E+03  0.17238797593E+03  0.49029235330E+03  0.71788622567E+03  0.25500000920E-02 0. -1.
</event>
<event>
 5   0  0.2618901E-04  0.1509383E+04  0.7818609E-02  0.8878237E-01
        2   -1    0    0  501    0  0.00000000000E+00  0.00000000000E+00  0.56853095102E+03  0.56853095103E+03  0.25500000920E-02 0. -1.
       -2   -1    0    0    0  501  0.00000000000E+00  0.00000000000E+00 -0.10018082916E+04  0.10018082917E+04  0.25500000920E-02 0.  1.
    10030    2    1    2    0    0  0.00000000000E+00  0.00000000000E+00 -0.43327734062E+03  0.15703392427E+04  0.15093826828E+04 0.  0.
        1    1    3    3  502    0 -0.85464755935E+02 -0.74877434443E+03 -0.25814700289E+03  0.79662231861E+03  0.50400001928E-02 0. -1.
       -1    1    3    3    0  502  0.85464755935E+02  0.74877434443E+03 -0.17513033773E+03  0.77371692407E+03  0.50400001928E-02 0.  1.
</event>
<event>
 5   0  0.1426929E-04  0.1496318E+04  0.7818609E-02  0.8886905E-01
        1   -1    0    0  501    0  0.00000000000E+00  0.00000000000E+00  0.67519244015E+03  0.67519244017E+03  0.50400001928E-02 0. -1.
       -1   -1    0    0    0  501  0.00000000000E+00  0.00000000000E+00 -0.82901078067E+03  0.82901078068E+03  0.50400001928E-02 0.  1.
    10030    2    1    2    0    0  0.00000000000E+00  0.00000000000E+00 -0.15381834052E+03  0.15042032208E+04  0.14963178966E+04 0.  0.
        1    1    3    3  502    0  0.52375171583E+03 -0.68898508519E+01 -0.61393262699E+03  0.80701710043E+03  0.50400001928E-02 0.  1.
       -1    1    3    3    0  502 -0.52375171583E+03  0.68898508519E+01  0.46011428647E+03  0.69718612042E+03  0.50400001928E-02 0. -1.
</event>
<event>
 5   0  0.2696040E-04  0.1504419E+04  0.7818609E-02  0.8881519E-01
        2   -1    0    0  501    0  0.00000000000E+00  0.00000000000E+00  0.17735769854E+04  0.17735769854E+04  0.25500000920E-02 0.  1.
       -2   -1    0    0    0  501  0.00000000000E+00  0.00000000000E+00 -0.31902726728E+03  0.31902726729E+03  0.25500000920E-02 0. -1.
    10030    2    1    2    0    0  0.00000000000E+00  0.00000000000E+00  0.14545497182E+04  0.20926042527E+04  0.15044193817E+04 0.  0.
        2    1    3    3  502    0 -0.54044205467E+03 -0.42057148038E+03  0.29436883246E+03  0.74539318088E+03  0.25500000920E-02 0. -1.
       -2    1    3    3    0  502  0.54044205467E+03  0.42057148038E+03  0.11601808857E+04  0.13472110719E+04  0.25500000920E-02 0.  1.
</event>
<event>
 5   0  0.1474203E-04  0.1511987E+04  0.7818609E-02  0.8876521E-01
        1   -1    0    0  501    0  0.00000000000E+00  0.00000000000E+00  0.62404293304E+03  0.62404293306E+03  0.50400001928E-02 0.  1.
       -1   -1    0    0    0  501  0.00000000000E+00  0.00000000000E+00 -0.91584396936E+03  0.91584396938E+03  0.50400001928E-02 0. -1.
    10030    2    1    2    0    0  0.00000000000E+00  0.00000000000E+00 -0.29180103633E+03  0.15398869024E+04  0.15119867154E+04 0.  0.
        3    1    3    3  502    0 -0.23665905393E+03 -0.51370145290E+03 -0.65678347714E+03  0.86675327318E+03  0.10100000352E+00 0. -1.
       -3    1    3    3    0  502  0.23665905393E+03  0.51370145290E+03  0.36498244082E+03  0.67313362925E+03  0.10100000352E+00 0.  1.
</event>
<event>
 5   0  0.2618901E-04  0.1500444E+04  0.7818609E-02  0.8884157E-01
        2   -1    0    0  501    0  0.00000000000E+00  0.00000000000E+00  0.14896709211E+04  0.14896709211E+04  0.25500000920E-02 0.  1.
       -2   -1    0    0    0  501  0.00000000000E+00  0.00000000000E+00 -0.37782391883E+03  0.37782391884E+03  0.25500000920E-02 0. -1.
    10030    2    1    2    0    0  0.00000000000E+00  0.00000000000E+00  0.11118470023E+04  0.18674948400E+04  0.15004443411E+04 0.  0.
        1    1    3    3  502    0  0.20140086669E+03  0.58916849261E+03  0.35033008809E+02  0.62362579606E+03  0.50400001928E-02 0.  1.
       -1    1    3    3    0  502 -0.20140086669E+03 -0.58916849261E+03  0.10768139935E+04  0.12438690439E+04  0.50400001928E-02 0. -1.
</event>
<event>
 5   0  0.1474203E-04  0.1478139E+04  0.7818609E-02  0.8899122E-01
        1   -1    0    0  501    0  0.00000000000E+00  0.00000000000E+00  0.12251913015E+04  0.12251913015E+04  0.50400001928E-02 0. -1.
       -1   -1    0    0    0  501  0.00000000000E+00  0.00000000000E+00 -0.44582743287E+03  0.44582743290E+03  0.50400001928E-02 0.  1.
    10030    2    1    2    0    0  0.00000000000E+00  0.00000000000E+00  0.77936386866E+03  0.16710187344E+04  0.14781392259E+04 0.  0.
        3    1    3    3  502    0  0.35708329700E+03 -0.27083526106E+03  0.10540431907E+04  0.11453677478E+04  0.10100000352E+00 0.  1.
       -3    1    3    3    0  502 -0.35708329700E+03  0.27083526106E+03 -0.27467932203E+03  0.52565098666E+03  0.10100000352E+00 0. -1.
</event>
<event>
 5   0  0.2734072E-04  0.1507667E+04  0.7818609E-02  0.8879370E-01
        2   -1    0    0  501    0  0.00000000000E+00  0.00000000000E+00  0.14318121058E+04  0.14318121058E+04  0.25500000920E-02 0.  1.
       -2   -1    0    0    0  501  0.00000000000E+00  0.00000000000E+00 -0.39688510463E+03  0.39688510463E+03  0.25500000920E-02 0. -1.
    10030    2    1    2    0    0  0.00000000000E+00  0.00000000000E+00  0.10349270012E+04  0.18286972104E+04  0.15076669359E+04 0.  0.
        5    1    3    3  502    0 -0.35579873498E+03  0.29314070371E+03  0.12408821096E+04  0.13237577995E+04  0.46999998093E+01 0.  1.
       -5    1    3    3    0  502  0.35579873498E+03 -0.29314070371E+03 -0.20595510841E+03  0.50493941089E+03  0.46999998093E+01 0. -1.
</event>
<event>
 5   0  0.2618901E-04  0.1499476E+04  0.7818609E-02  0.8884801E-01
       -2   -1    0    0    0  501  0.00000000000E+00  0.00000000000E+00  0.31049755556E+03  0.31049755557E+03  0.25500000920E-02 0. -1.
        2   -1    0    0  501    0  0.00000000000E+00  0.00000000000E+00 -0.18103432269E+04  0.18103432269E+04  0.25500000920E-02 0.  1.
    10030    2    1    2    0    0  0.00000000000E+00  0.00000000000E+00 -0.14998456714E+04  0.21208407825E+04  0.14994761041E+04 0.  0.
        1    1    3    3  502    0 -0.27630769145E+03 -0.49639339934E+03 -0.57949138095E+02  0.57106081103E+03  0.50400001928E-02 0. -1.
       -1    1    3    3    0  502  0.27630769145E+03  0.49639339934E+03 -0.14418965333E+04  0.15497799715E+04  0.50400001928E-02 0.  1.
</event>
<event>
 5   0  0.1443750E-04  0.1501000E+04  0.7818609E-02  0.8883788E-01
       -1   -1    0    0    0  501  0.00000000000E+00  0.00000000000E+00  0.64693363113E+03  0.64693363115E+03  0.50400001928E-02 0.  1.
        1   -1    0    0  501    0  0.00000000000E+00  0.00000000000E+00 -0.87064600186E+03  0.87064600187E+03  0.50400001928E-02 0. -1.
    10030    2    1    2    0    0  0.00000000000E+00  0.00000000000E+00 -0.22371237072E+03  0.15175796330E+04  0.15009999060E+04 0.  0.
        2    1    3    3  502    0  0.48194460006E+03 -0.57528780892E+03 -0.11675937255E+03  0.75951261458E+03  0.25500000920E-02 0.  1.
       -2    1    3    3    0  502 -0.48194460006E+03  0.57528780892E+03 -0.10695299817E+03  0.75806701844E+03  0.25500000920E-02 0. -1.
</event>
<event>
 5   0  0.2696040E-04  0.1497388E+04  0.7818609E-02  0.8886192E-01
        2   -1    0    0  501    0  0.00000000000E+00  0.00000000000E+00  0.20696678644E+04  0.20696678644E+04  0.25500000920E-02 0. -1.
       -2   -1    0    0    0  501  0.00000000000E+00  0.00000000000E+00 -0.27083703490E+03  0.27083703491E+03  0.25500000920E-02 0.  1.
    10030    2    1    2    0    0  0.00000000000E+00  0.00000000000E+00  0.17988308295E+04  0.23405048993E+04  0.14973880027E+04 0.  0.
        2    1    3    3  502    0  0.23812149010E+03 -0.41256001794E+03 -0.34251616656E+01  0.47636051913E+03  0.25500000920E-02 0.  1.
       -2    1    3    3    0  502 -0.23812149010E+03  0.41256001794E+03  0.18022559911E+04  0.18641443802E+04  0.25500000920E-02 0. -1.
</event>
<event>
 5   0  0.2618901E-04  0.1496864E+04  0.7818609E-02  0.8886541E-01
       -2   -1    0    0    0  501  0.00000000000E+00  0.00000000000E+00  0.36443209393E+03  0.36443209394E+03  0.25500000920E-02 0.  1.
        2   -1    0    0  501    0  0.00000000000E+00  0.00000000000E+00 -0.15370512155E+04  0.15370512155E+04  0.25500000920E-02 0. -1.
    10030    2    1    2    0    0  0.00000000000E+00  0.00000000000E+00 -0.11726191215E+04  0.19014833094E+04  0.14968644467E+04 0.  0.
        1    1    3    3  502    0 -0.63485712047E+03 -0.36215887299E+03 -0.79093682467E+03  0.10769325296E+04  0.50400001928E-02 0. -1.
       -1    1    3    3    0  502  0.63485712047E+03  0.36215887299E+03 -0.38168229687E+03  0.82455077980E+03  0.50400001928E-02 0.  1.
</event>
<event>
 5   0  0.1443750E-04  0.1501314E+04  0.7818609E-02  0.8883580E-01
       -1   -1    0    0    0  501  0.00000000000E+00  0.00000000000E+00  0.63050840443E+03  0.63050840445E+03  0.50400001928E-02 0. -1.
        1   -1    0    0  501    0  0.00000000000E+00  0.00000000000E+00 -0.89370043496E+03  0.89370043497E+03  0.50400001928E-02 0.  1.
    10030    2    1    2    0    0  0.00000000000E+00  0.00000000000E+00 -0.26319203053E+03  0.15242088394E+04  0.15013136052E+04 0.  0.
        2    1    3    3  502    0 -0.39221235815E+03 -0.34622733998E+03  0.41492712667E+03  0.66773379822E+03  0.25500000920E-02 0. -1.
       -2    1    3    3    0  502  0.39221235815E+03  0.34622733998E+03 -0.67811915720E+03  0.85647504120E+03  0.25500000920E-02 0.  1.
</event>
<event>
 5   0  0.1427609E-04  0.1498906E+04  0.7818609E-02  0.8885181E-01
       -1   -1    0    0    0  501  0.00000000000E+00  0.00000000000E+00  0.78580752051E+03  0.78580752053E+03  0.50400001928E-02 0.  1.
        1   -1    0    0  501    0  0.00000000000E+00  0.00000000000E+00 -0.71478025983E+03  0.71478025985E+03  0.50400001928E-02 0. -1.
    10030    2    1    2    0    0  0.00000000000E+00  0.00000000000E+00  0.71027260678E+02  0.15005877804E+04  0.14989058726E+04 0.  0.
        4    1    3    3  502    0  0.13676024673E+03 -0.33584645710E+03  0.69213211202E+03  0.78137358621E+03  0.12699999809E+01 0.  1.
       -4    1    3    3    0  502 -0.13676024673E+03  0.33584645710E+03 -0.62110485135E+03  0.71921419417E+03  0.12699999809E+01 0. -1.
</event>
<event>
 5   0  0.2734072E-04  0.1500570E+04  0.7818609E-02  0.8884074E-01
       -2   -1    0    0    0  501  0.00000000000E+00  0.00000000000E+00  0.48730897539E+03  0.48730897540E+03  0.25500000920E-02 0. -1.
        2   -1    0    0  501    0  0.00000000000E+00  0.00000000000E+00 -0.11551754769E+04  0.11551754769E+04  0.25500000920E-02 0.  1.
    10030    2    1    2    0    0  0.00000000000E+00  0.00000000000E+00 -0.66786650151E+03  0.16424844523E+04  0.15005697292E+04 0.  0.
        5    1    3    3  502    0 -0.36929936076E+03  0.65048605831E+03 -0.39767428521E+03  0.84716058515E+03  0.46999998093E+01 0. -1.
       -5    1    3    3    0  502  0.36929936076E+03 -0.65048605831E+03 -0.27019221630E+03  0.79532386715E+03  0.46999998093E+01 0.  1.
</event>
<event>
 5   0  0.1474203E-04  0.1501212E+04  0.7818609E-02  0.8883648E-01
       -1   -1    0    0    0  501  0.00000000000E+00  0.00000000000E+00  0.18889011049E+04  0.18889011049E+04  0.50400001928E-02 0. -1.
        1   -1    0    0  501    0  0.00000000000E+00  0.00000000000E+00 -0.29827352756E+03  0.29827352760E+03  0.50400001928E-02 0.  1.
    10030    2    1    2    0    0  0.00000000000E+00  0.00000000000E+00  0.15906275773E+04  0.21871746325E+04  0.15012117716E+04 0.  0.
        3    1    3    3  502    0  0.20078309855E+03 -0.41586252272E+03  0.16574400132E+04  0.17205705152E+04  0.10100000352E+00 0. -1.
       -3    1    3    3    0  502 -0.20078309855E+03  0.41586252272E+03 -0.66812435830E+02  0.46660411726E+03  0.10100000352E+00 0.  1.
</event>
<event>
 5   0  0.1474203E-04  0.1511215E+04  0.7818609E-02  0.8877029E-01
       -1   -1    0    0    0  501  0.00000000000E+00  0.00000000000E+00  0.49029973435E+03  0.49029973438E+03  0.50400001928E-02 0. -1.
        1   -1    0    0  501    0  0.00000000000E+00  0.00000000000E+00 -0.11644765825E+04  0.11644765825E+04  0.50400001928E-02 0.  1.
    10030    2    1    2    0    0  0.00000000000E+00  0.00000000000E+00 -0.67417684813E+03  0.16547763169E+04  0.15112148214E+04 0.  0.
        3    1    3    3  502    0 -0.47969244008E+03 -0.49104916441E+03  0.86749847503E+01  0.68651976264E+03  0.10100000352E+00 0. -1.
       -3    1    3    3    0  502  0.47969244008E+03  0.49104916441E+03 -0.68285183288E+03  0.96825655423E+03  0.10100000352E+00 0.  1.
</event>
<event>
 5   0  0.2646718E-04  0.1497790E+04  0.7818609E-02  0.8885924E-01
        2   -1    0    0  501    0  0.00000000000E+00  0.00000000000E+00  0.11753024743E+04  0.11753024743E+04  0.25500000920E-02 0. -1.
       -2   -1    0    0    0  501  0.00000000000E+00  0.00000000000E+00 -0.47719120305E+03  0.47719120306E+03  0.25500000920E-02 0.  1.
    10030    2    1    2    0    0  0.00000000000E+00  0.00000000000E+00  0.69811127124E+03  0.16524936774E+04  0.14977903747E+04 0.  0.
        3    1    3    3  502    0  0.20918437254E+03  0.59017363700E+03 -0.10420761365E+03  0.63476157765E+03  0.10100000352E+00 0.  1.
       -3    1    3    3    0  502 -0.20918437254E+03 -0.59017363700E+03  0.80231888488E+03  0.10177320997E+04  0.10100000352E+00 0. -1.
</event>
<event>
 5   0  0.2734072E-04  0.1503026E+04  0.7818609E-02  0.8882443E-01
        2   -1    0    0  501    0  0.00000000000E+00  0.00000000000E+00  0.87969284556E+03  0.87969284556E+03  0.25500000920E-02 0. -1.
       -2   -1    0    0    0  501  0.00000000000E+00  0.00000000000E+00 -0.64201016112E+03  0.64201016112E+03  0.25500000920E-02 0.  1.
    10030    2    1    2    0    0  0.00000000000E+00  0.00000000000E+00  0.23768268444E+03  0.15217030067E+04  0.15030259419E+04 0.  0.
        5    1    3    3  502    0  0.39075225158E+03 -0.53197183189E+03  0.48256640124E+03  0.81766360665E+03  0.46999998093E+01 0. -1.
       -5    1    3    3    0  502 -0.39075225158E+03  0.53197183189E+03 -0.24488371680E+03  0.70403940003E+03  0.46999998093E+01 0.  1.
</event>
<event>
 5   0  0.1484251E-04  0.1500089E+04  0.7818609E-02  0.8884393E-01
       -1   -1    0    0    0  501  0.00000000000E+00  0.00000000000E+00  0.43311300133E+03  0.43311300136E+03  0.50400001928E-02 0.  1.
        1   -1    0    0  501    0  0.00000000000E+00  0.00000000000E+00 -0.12988921849E+04  0.12988921849E+04  0.50400001928E-02 0. -1.
    10030    2    1    2    0    0  0.00000000000E+00  0.00000000000E+00 -0.86577918360E+03  0.17320051863E+04  0.15000894542E+04 0.  0.
        5    1    3    3  502    0  0.17144328532E+03  0.40261467828E+02  0.40888617308E+03  0.44522329050E+03  0.46999998093E+01 0.  1.
       -5    1    3    3    0  502 -0.17144328532E+03 -0.40261467828E+02 -0.12746653567E+04  0.12867818958E+04  0.46999998093E+01 0. -1.
</event>
<event>
 5   0  0.1443750E-04  0.1497872E+04  0.7818609E-02  0.8885869E-01
       -1   -1    0    0    0  501  0.00000000000E+00  0.00000000000E+00  0.43652584974E+03  0.43652584976E+03  0.50400001928E-02 0.  1.
        1   -1    0    0  501    0  0.00000000000E+00  0.00000000000E+00 -0.12849301937E+04  0.12849301937E+04  0.50400001928E-02 0. -1.
    10030    2    1    2    0    0  0.00000000000E+00  0.00000000000E+00 -0.84840434397E+03  0.17214560435E+04  0.14978721503E+04 0.  0.
        2    1    3    3  502    0 -0.56345252725E+03  0.37777124993E+03 -0.78893015324E+03  0.10404809726E+04  0.25500000920E-02 0. -1.
       -2    1    3    3    0  502  0.56345252725E+03 -0.37777124993E+03 -0.59474190732E+02  0.68097507084E+03  0.25500000920E-02 0.  1.
</event>
<event>
 5   0  0.2641347E-04  0.1500530E+04  0.7818609E-02  0.8884100E-01
        2   -1    0    0  501    0  0.00000000000E+00  0.00000000000E+00  0.75411860315E+03  0.75411860315E+03  0.25500000920E-02 0.  1.
       -2   -1    0    0    0  501  0.00000000000E+00  0.00000000000E+00 -0.74643139051E+03  0.74643139051E+03  0.25500000920E-02 0. -1.
    10030    2    1    2    0    0  0.00000000000E+00  0.00000000000E+00  0.76872126386E+01  0.15005499937E+04  0.15005303030E+04 0.  0.
        4    1    3    3  502    0 -0.55744400174E+01 -0.74685731312E+03 -0.67356092931E+02  0.74991024576E+03  0.12699999809E+01 0. -1.
       -4    1    3    3    0  502  0.55744400174E+01  0.74685731312E+03  0.75043305570E+02  0.75063974791E+03  0.12699999809E+01 0.  1.
</event>
<event>
 5   0  0.2734072E-04  0.1487543E+04  0.7818609E-02  0.8892779E-01
        2   -1    0    0  501    0  0.00000000000E+00  0.00000000000E+00  0.21788020045E+04  0.21788020045E+04  0.25500000920E-02 0. -1.
       -2   -1    0    0    0  501  0.00000000000E+00  0.00000000000E+00 -0.25389918450E+03  0.25389918451E+03  0.25500000920E-02 0.  1.
    10030    2    1    2    0    0  0.00000000000E+00  0.00000000000E+00  0.19249028200E+04  0.24327011890E+04  0.14875430107E+04 0.  0.
        5    1    3    3  502    0 -0.22385493517E+03  0.38565159584E+03 -0.11027927769E+02  0.44607386223E+03  0.46999998093E+01 0.  1.
       -5    1    3    3    0  502  0.22385493517E+03 -0.38565159584E+03  0.19359307477E+04  0.19866273268E+04  0.46999998093E+01 0. -1.
</event>
<event>
 5   0  0.1426929E-04  0.1495203E+04  0.7818609E-02  0.8887649E-01
       -1   -1    0    0    0  501  0.00000000000E+00  0.00000000000E+00  0.70693115673E+03  0.70693115675E+03  0.50400001928E-02 0.  1.
        1   -1    0    0  501    0  0.00000000000E+00  0.00000000000E+00 -0.79061138232E+03  0.79061138234E+03  0.50400001928E-02 0. -1.
    10030    2    1    2    0    0  0.00000000000E+00  0.00000000000E+00 -0.83680225590E+02  0.14975425391E+04  0.14952027542E+04 0.  0.
        1    1    3    3  502    0 -0.56612678470E+03 -0.32836072870E+03 -0.40377455021E+03  0.76899557342E+03  0.50400001928E-02 0. -1.
       -1    1    3    3    0  502  0.56612678470E+03  0.32836072870E+03  0.32009432462E+03  0.72854696567E+03  0.50400001928E-02 0.  1.
</event>
<event>
 5   0  0.2696040E-04  0.1506846E+04  0.7818609E-02  0.8879913E-01
        2   -1    0    0  501    0  0.00000000000E+00  0.00000000000E+00  0.77349280549E+03  0.77349280550E+03  0.25500000920E-02 0. -1.
       -2   -1    0    0    0  501  0.00000000000E+00  0.00000000000E+00 -0.73387436834E+03  0.73387436834E+03  0.25500000920E-02 0.  1.
    10030    2    1    2    0    0  0.00000000000E+00  0.00000000000E+00  0.39618437154E+02  0.15073671738E+04  0.15068464342E+04 0.  0.
        2    1    3    3  502    0  0.56564357613E+03 -0.92880416207E+02  0.50892309126E+03  0.76653906604E+03  0.25500000920E-02 0. -1.
       -2    1    3    3    0  502 -0.56564357613E+03  0.92880416207E+02 -0.46930465411E+03  0.74082810780E+03  0.25500000920E-02 0.  1.
</event>
<event>
 5   0  0.1443750E-04  0.1508821E+04  0.7818609E-02  0.8878608E-01
       -1   -1    0    0    0  501  0.00000000000E+00  0.00000000000E+00  0.35750448782E+03  0.35750448786E+03  0.50400001928E-02 0.  1.
        1   -1    0    0  501    0  0.00000000000E+00  0.00000000000E+00 -0.15919662540E+04  0.15919662540E+04  0.50400001928E-02 0. -1.
    10030    2    1    2    0    0  0.00000000000E+00  0.00000000000E+00 -0.12344617662E+04  0.19494707419E+04  0.15088208380E+04 0.  0.
        2    1    3    3  502    0 -0.73723941318E+03  0.80195699826E+02 -0.79617749292E+03  0.10880495866E+04  0.25500000920E-02 0.  1.
       -2    1    3    3    0  502  0.73723941318E+03 -0.80195699826E+02 -0.43828427328E+03  0.86142115531E+03  0.25500000920E-02 0. -1.
</event>
<event>
 5   0  0.2618901E-04  0.1499387E+04  0.7818609E-02  0.8884861E-01
       -2   -1    0    0    0  501  0.00000000000E+00  0.00000000000E+00  0.23915657372E+03  0.23915657373E+03  0.25500000920E-02 0.  1.
        2   -1    0    0  501    0  0.00000000000E+00  0.00000000000E+00 -0.23500943421E+04  0.23500943421E+04  0.25500000920E-02 0. -1.
    10030    2    1    2    0    0  0.00000000000E+00  0.00000000000E+00 -0.21109377683E+04  0.25892509158E+04  0.14993872225E+04 0.  0.
        1    1    3    3  502    0  0.49544671290E+03 -0.43460397328E+03 -0.43838678821E+03  0.79153713433E+03  0.50400001928E-02 0.  1.
       -1    1    3    3    0  502 -0.49544671290E+03  0.43460397328E+03 -0.16725509801E+04  0.17977137815E+04  0.50400001928E-02 0. -1.
</event>
<event>
 5   0  0.1426929E-04  0.1500844E+04  0.7818609E-02  0.8883892E-01
       -1   -1    0    0    0  501  0.00000000000E+00  0.00000000000E+00  0.40956895813E+03  0.40956895816E+03  0.50400001928E-02 0. -1.
        1   -1    0    0  501    0  0.00000000000E+00  0.00000000000E+00 -0.13749407550E+04  0.13749407550E+04  0.50400001928E-02 0.  1.
    10030    2    1    2    0    0  0.00000000000E+00  0.00000000000E+00 -0.96537179687E+03  0.17845097132E+04  0.15008438327E+04 0.  0.
        1    1    3    3  502    0 -0.25742578254E+03  0.37902960848E+03 -0.11893202191E+04  0.12745250336E+04  0.50400001928E-02 0.  1.
       -1    1    3    3    0  502  0.25742578254E+03 -0.37902960848E+03  0.22394842220E+03  0.50998467963E+03  0.50400001928E-02 0. -1.
</event>
<event>
 5   0  0.1474203E-04  0.1503363E+04  0.7818609E-02  0.8882219E-01
        1   -1    0    0  501    0  0.00000000000E+00  0.00000000000E+00  0.22792919728E+04  0.22792919728E+04  0.50400001928E-02 0.  1.
       -1   -1    0    0    0  501  0.00000000000E+00  0.00000000000E+00 -0.24789508506E+03  0.24789508511E+03  0.50400001928E-02 0. -1.
    10030    2    1    2    0    0  0.00000000000E+00  0.00000000000E+00  0.20313968877E+04  0.25271870579E+04  0.15033632662E+04 0.  0.
        3    1    3    3  502    0  0.65904697572E+03 -0.34729130260E+03  0.84699965768E+03  0.11279905121E+04  0.10100000352E+00 0. -1.
       -3    1    3    3    0  502 -0.65904697572E+03  0.34729130260E+03  0.11843972300E+04  0.13991965458E+04  0.10100000352E+00 0.  1.
</event>
<event>
 5   0  0.2641347E-04  0.1503350E+04  0.7818609E-02  0.8882228E-01
        2   -1    0    0  501    0  0.00000000000E+00  0.00000000000E+00  0.28544793900E+03  0.28544793901E+03  0.25500000920E-02 0.  1.
       -2   -1    0    0    0  501  0.00000000000E+00  0.00000000000E+00 -0.19793981451E+04  0.19793981451E+04  0.25500000920E-02 0. -1.
    10030    2    1    2    0    0  0.00000000000E+00  0.00000000000E+00 -0.16939502061E+04  0.22648460842E+04  0.15033497544E+04 0.  0.
        4    1    3    3  502    0 -0.36432103704E+03 -0.35743356328E+03 -0.16783369579E+04  0.17542249363E+04  0.12699999809E+01 0. -1.
       -4    1    3    3    0  502  0.36432103704E+03  0.35743356328E+03 -0.15613248274E+02  0.51062114783E+03  0.12699999809E+01 0.  1.
</event>
<event>
 5   0  0.2618901E-04  0.1499834E+04  0.7818609E-02  0.8884563E-01
       -2   -1    0    0    0  501  0.00000000000E+00  0.00000000000E+00  0.25770327974E+03  0.25770327976E+03  0.25500000920E-02 0.  1.
        2   -1    0    0  501    0  0.00000000000E+00  0.00000000000E+00 -0.21822594392E+04  0.21822594392E+04  0.25500000920E-02 0. -1.
    10030    2    1    2    0    0  0.00000000000E+00  0.00000000000E+00 -0.19245561595E+04  0.24399627190E+04  0.14998338771E+04 0.  0.
        1    1    3    3  502    0  0.59911818667E+01  0.17350419955E+03 -0.21491178171E+04  0.21561185017E+04  0.50400001928E-02 0. -1.
       -1    1    3    3    0  502 -0.59911818667E+01 -0.17350419955E+03  0.22456165769E+03  0.28384421722E+03  0.50400001928E-02 0.  1.
</event>
<event>
 5   0  0.1004313E-04  0.1498833E+04  0.7818609E-02  0.8885230E-01
       -4   -1    0    0    0  501  0.00000000000E+00  0.00000000000E+00  0.65895089741E+03  0.65895212125E+03  0.12699999809E+01 0.  1.
        4   -1    0    0  501    0  0.00000000000E+00  0.00000000000E+00 -0.85229894717E+03  0.85229989337E+03  0.12699999809E+01 0. -1.
    10030    2    1    2    0    0  0.00000000000E+00  0.00000000000E+00 -0.19334804976E+03  0.15112520146E+04  0.14988326068E+04 0.  0.
        2    1    3    3  502    0  0.13165262586E+03 -0.50924976066E+03  0.44156288128E+03  0.68676452352E+03  0.25500000920E-02 0.  1.
       -2    1    3    3    0  502 -0.13165262586E+03  0.50924976066E+03 -0.63491093104E+03  0.82448749110E+03  0.25500000920E-02 0. -1.
</event>
<event>
 5   0  0.1427609E-04  0.1501699E+04  0.7818609E-02  0.8883324E-01
       -1   -1    0    0    0  501  0.00000000000E+00  0.00000000000E+00  0.29522973879E+03  0.29522973883E+03  0.50400001928E-02 0.  1.
        1   -1    0    0  501    0  0.00000000000E+00  0.00000000000E+00 -0.19096135692E+04  0.19096135692E+04  0.50400001928E-02 0. -1.
    10030    2    1    2    0    0  0.00000000000E+00  0.00000000000E+00 -0.16143838304E+04  0.22048433081E+04  0.15016986586E+04 0.  0.
        4    1    3    3  502    0  0.21597895714E+03 -0.27488569303E+03  0.16845301273E+03  0.38805551737E+03  0.12699999809E+01 0.  1.
       -4    1    3    3    0  502 -0.21597895714E+03  0.27488569303E+03 -0.17828368432E+04  0.18167877907E+04  0.12699999809E+01 0. -1.
</event>
<event>
 5   0  0.1484251E-04  0.1502885E+04  0.7818609E-02  0.8882537E-01
        1   -1    0    0  501    0  0.00000000000E+00  0.00000000000E+00  0.72003664802E+03  0.72003664804E+03  0.50400001928E-02 0.  1.
       -1   -1    0    0    0  501  0.00000000000E+00  0.00000000000E+00 -0.78421771810E+03  0.78421771811E+03  0.50400001928E-02 0. -1.
    10030    2    1    2    0    0  0.00000000000E+00  0.00000000000E+00 -0.64181070079E+02  0.15042543662E+04  0.15028845559E+04 0.  0.
        5    1    3    3  502    0 -0.16228994114E+02 -0.15894693321E+03 -0.76700488780E+03  0.78348330917E+03  0.46999998093E+01 0. -1.
       -5    1    3    3    0  502  0.16228994114E+02  0.15894693321E+03  0.70282381773E+03  0.72077105698E+03  0.46999998093E+01 0.  1.
</event>
<event>
 5   0  0.2696040E-04  0.1488242E+04  0.7818609E-02  0.8892310E-01
       -2   -1    0    0    0  501  0.00000000000E+00  0.00000000000E+00  0.61363210432E+03  0.61363210433E+03  0.25500000920E-02 0.  1.
        2   -1    0    0  501    0  0.00000000000E+00  0.00000000000E+00 -0.90235820194E+03  0.90235820195E+03  0.25500000920E-02 0. -1.
    10030    2    1    2    0    0  0.00000000000E+00  0.00000000000E+00 -0.28872609762E+03  0.15159903063E+04  0.14882418652E+04 0.  0.
        2    1    3    3  502    0  0.13683348359E+01 -0.55905546760E+03  0.35588512945E+03  0.66272099225E+03  0.25500000920E-02 0.  1.
       -2    1    3    3    0  502 -0.13683348359E+01  0.55905546760E+03 -0.64461122707E+03  0.85326931403E+03  0.25500000920E-02 0. -1.
</event>
<event>
 5   0  0.1427609E-04  0.1501609E+04  0.7818609E-02  0.8883383E-01
       -1   -1    0    0    0  501  0.00000000000E+00  0.00000000000E+00  0.11270845981E+04  0.11270845981E+04  0.50400001928E-02 0.  1.
        1   -1    0    0  501    0  0.00000000000E+00  0.00000000000E+00 -0.50014677492E+03  0.50014677495E+03  0.50400001928E-02 0. -1.
    10030    2    1    2    0    0  0.00000000000E+00  0.00000000000E+00  0.62693782320E+03  0.16272313731E+04  0.15016094390E+04 0.  0.
        4    1    3    3  502    0 -0.44105027146E+02 -0.74638595882E+03  0.23942356141E+03  0.78508757957E+03  0.12699999809E+01 0.  1.
       -4    1    3    3    0  502  0.44105027146E+02  0.74638595882E+03  0.38751426179E+03  0.84214379350E+03  0.12699999809E+01 0. -1.
</event>
<event>
 5   0  0.2734072E-04  0.1481369E+04  0.7818609E-02  0.8896938E-01
       -2   -1    0    0    0  501  0.00000000000E+00  0.00000000000E+00  0.12210113663E+04  0.12210113663E+04  0.25500000920E-02 0.  1.
        2   -1    0    0  501    0  0.00000000000E+00  0.00000000000E+00 -0.44931074737E+03  0.44931074738E+03  0.25500000920E-02 0. -1.
    10030    2    1    2    0    0  0.00000000000E+00  0.00000000000E+00  0.77170061898E+03  0.16703221137E+04  0.14813690014E+04 0.  0.
        5    1    3    3  502    0 -0.11425354366E+03 -0.51553383852E+03 -0.19978561519E+03  0.56459312158E+03  0.46999998093E+01 0. -1.
       -5    1    3    3    0  502  0.11425354366E+03  0.51553383852E+03  0.97148623417E+03  0.11057289921E+04  0.46999998093E+01 0.  1.
</event>
<event>
 5   0  0.1484251E-04  0.1486046E+04  0.7818609E-02  0.8893786E-01
       -1   -1    0    0    0  501  0.00000000000E+00  0.00000000000E+00  0.48605538155E+03  0.48605538158E+03  0.50400001928E-02 0.  1.
        1   -1    0    0  501    0  0.00000000000E+00  0.00000000000E+00 -0.11358437462E+04  0.11358437463E+04  0.50400001928E-02 0. -1.
    10030    2    1    2    0    0  0.00000000000E+00  0.00000000000E+00 -0.64978836468E+03  0.16218991278E+04  0.14860457133E+04 0.  0.
        5    1    3    3  502    0 -0.70285849359E+03 -0.17321998983E+03 -0.50767239039E+03  0.88417677692E+03  0.46999998093E+01 0. -1.
       -5    1    3    3    0  502  0.70285849359E+03  0.17321998983E+03 -0.14211597430E+03  0.73772235091E+03  0.46999998093E+01 0.  1.
</event>
<event>
 5   0  0.1426929E-04  0.1498955E+04  0.7818609E-02  0.8885148E-01
        1   -1    0    0  501    0  0.00000000000E+00  0.00000000000E+00  0.58411926948E+03  0.58411926950E+03  0.50400001928E-02 0.  1.
       -1   -1    0    0    0  501  0.00000000000E+00  0.00000000000E+00 -0.96164635787E+03  0.96164635788E+03  0.50400001928E-02 0. -1.
    10030    2    1    2    0    0  0.00000000000E+00  0.00000000000E+00 -0.37752708839E+03  0.15457656274E+04  0.14989545264E+04 0.  0.
        1    1    3    3  502    0 -0.53414817846E+03  0.64566119582E+02 -0.72681728896E+03  0.90429333289E+03  0.50400001928E-02 0. -1.
       -1    1    3    3    0  502  0.53414817846E+03 -0.64566119582E+02  0.34929020058E+03  0.64147229449E+03  0.50400001928E-02 0.  1.
</event>
<event>
 5   0  0.2696040E-04  0.1500693E+04  0.7818609E-02  0.8883993E-01
        2   -1    0    0  501    0  0.00000000000E+00  0.00000000000E+00  0.43769785973E+03  0.43769785974E+03  0.25500000920E-02 0.  1.
       -2   -1    0    0    0  501  0.00000000000E+00  0.00000000000E+00 -0.12863199960E+04  0.12863199960E+04  0.25500000920E-02 0. -1.
    10030    2    1    2    0    0  0.00000000000E+00  0.00000000000E+00 -0.84862213624E+03  0.17240178557E+04  0.15006925190E+04 0.  0.
        2    1    3    3  502    0  0.60503647714E+03 -0.25697029215E+03 -0.83997990506E+03  0.10666157277E+04  0.25500000920E-02 0. -1.
       -2    1    3    3    0  502 -0.60503647714E+03  0.25697029215E+03 -0.86422311793E+01  0.65740212799E+03  0.25500000920E-02 0.  1.
</event>
<event>
 5   0  0.1484251E-04  0.1498665E+04  0.7818609E-02  0.8885341E-01
       -1   -1    0    0    0  501  0.00000000000E+00  0.00000000000E+00  0.12397856660E+04  0.12397856660E+04  0.50400001928E-02 0.  1.
        1   -1    0    0  501    0  0.00000000000E+00  0.00000000000E+00 -0.45290041294E+03  0.45290041297E+03  0.50400001928E-02 0. -1.
    10030    2    1    2    0    0  0.00000000000E+00  0.00000000000E+00  0.78688525301E+03  0.16926860789E+04  0.14986653264E+04 0.  0.
        5    1    3    3  502    0 -0.35229881060E+03  0.65392369258E+03  0.28193601551E+03  0.79450654781E+03  0.46999998093E+01 0. -1.
       -5    1    3    3    0  502  0.35229881060E+03 -0.65392369258E+03  0.50494923750E+03  0.89817953112E+03  0.46999998093E+01 0.  1.
</event>
<event>
 5   0  0.2618901E-04  0.1511109E+04  0.7818609E-02  0.8877099E-01
       -2   -1    0    0    0  501  0.00000000000E+00  0.00000000000E+00  0.41869509881E+03  0.41869509882E+03  0.25500000920E-02 0.  1.
        2   -1    0    0  501    0  0.00000000000E+00  0.00000000000E+00 -0.13634334008E+04  0.13634334008E+04  0.25500000920E-02 0. -1.
    10030    2    1    2    0    0  0.00000000000E+00  0.00000000000E+00 -0.94473830198E+03  0.17821284996E+04  0.15111093706E+04 0.  0.
        1    1    3    3  502    0  0.49117241255E+03  0.13139947927E+03  0.18674645089E+03  0.54165523993E+03  0.50400001928E-02 0.  1.
       -1    1    3    3    0  502 -0.49117241255E+03 -0.13139947927E+03 -0.11314847529E+04  0.12404732597E+04  0.50400001928E-02 0. -1.
</event>
<event>
 5   0  0.1426929E-04  0.1498798E+04  0.7818609E-02  0.8885253E-01
        1   -1    0    0  501    0  0.00000000000E+00  0.00000000000E+00  0.47537842713E+03  0.47537842715E+03  0.50400001928E-02 0.  1.
       -1   -1    0    0    0  501  0.00000000000E+00  0.00000000000E+00 -0.11813723409E+04  0.11813723409E+04  0.50400001928E-02 0. -1.
    10030    2    1    2    0    0  0.00000000000E+00  0.00000000000E+00 -0.70599391379E+03  0.16567507681E+04  0.14987980855E+04 0.  0.
        1    1    3    3  502    0 -0.38591156429E+03 -0.63700672753E+03 -0.26121914771E+03  0.78926595615E+03  0.50400001928E-02 0.  1.
       -1    1    3    3    0  502  0.38591156429E+03  0.63700672753E+03 -0.44477476608E+03  0.86748481194E+03  0.50400001928E-02 0. -1.
</event>
<event>
 5   0  0.1443750E-04  0.1492798E+04  0.7818609E-02  0.8889256E-01
       -1   -1    0    0    0  501  0.00000000000E+00  0.00000000000E+00  0.23849901194E+03  0.23849901200E+03  0.50400001928E-02 0.  1.
        1   -1    0    0  501    0  0.00000000000E+00  0.00000000000E+00 -0.23359077546E+04  0.23359077546E+04  0.50400001928E-02 0. -1.
    10030    2    1    2    0    0  0.00000000000E+00  0.00000000000E+00 -0.20974087426E+04  0.25744067666E+04  0.14927983006E+04 0.  0.
        2    1    3    3  502    0  0.33092856167E+03  0.38721999150E+03 -0.19895866637E+04  0.20537546414E+04  0.25500000920E-02 0.  1.
       -2    1    3    3    0  502 -0.33092856167E+03 -0.38721999150E+03 -0.10782207896E+03  0.52065212519E+03  0.25500000920E-02 0. -1.
</event>
<event>
 5   0  0.2641347E-04  0.1454796E+04  0.7818609E-02  0.8915083E-01
        2   -1    0    0  501    0  0.00000000000E+00  0.00000000000E+00  0.12326476853E+04  0.12326476853E+04  0.25500000920E-02 0.  1.
       -2   -1    0    0    0  501  0.00000000000E+00  0.00000000000E+00 -0.42924471155E+03  0.42924471155E+03  0.25500000920E-02 0. -1.
    10030    2    1    2    0    0  0.00000000000E+00  0.00000000000E+00  0.80340297371E+03  0.16618923968E+04  0.14547955184E+04 0.  0.
        4    1    3    3  502    0 -0.67356650935E+03  0.25065920929E+01  0.88005493794E+02  0.67929721430E+03  0.12699999809E+01 0. -1.
       -4    1    3    3    0  502  0.67356650935E+03 -0.25065920929E+01  0.71539747992E+03  0.98259518251E+03  0.12699999809E+01 0.  1.
</event>
<event>
 5   0  0.2696040E-04  0.1497496E+04  0.7818609E-02  0.8886120E-01
        2   -1    0    0  501    0  0.00000000000E+00  0.00000000000E+00  0.76004844934E+03  0.76004844934E+03  0.25500000920E-02 0. -1.
       -2   -1    0    0    0  501  0.00000000000E+00  0.00000000000E+00 -0.73761585402E+03  0.73761585402E+03  0.25500000920E-02 0.  1.
    10030    2    1    2    0    0  0.00000000000E+00  0.00000000000E+00  0.22432595320E+02  0.14976643034E+04  0.14974962919E+04 0.  0.
        2    1    3    3  502    0 -0.26901726929E+03 -0.69638348494E+03 -0.46266552867E+02  0.74797115131E+03  0.25500000920E-02 0.  1.
       -2    1    3    3    0  502  0.26901726929E+03  0.69638348494E+03  0.68699148187E+02  0.74969315206E+03  0.25500000920E-02 0. -1.
</event>
<event>
 5   0  0.2641347E-04  0.1492352E+04  0.7818609E-02  0.8889555E-01
        2   -1    0    0  501    0  0.00000000000E+00  0.00000000000E+00  0.22214445137E+04  0.22214445137E+04  0.25500000920E-02 0. -1.
       -2   -1    0    0    0  501  0.00000000000E+00  0.00000000000E+00 -0.25063799415E+03  0.25063799416E+03  0.25500000920E-02 0.  1.
    10030    2    1    2    0    0  0.00000000000E+00  0.00000000000E+00  0.19708065195E+04  0.24720825078E+04  0.14923516972E+04 0.  0.
        4    1    3    3  502    0 -0.10687064342E+03 -0.49411210958E+03  0.76274254159E+02  0.51126068302E+03  0.12699999809E+01 0.  1.
       -4    1    3    3    0  502  0.10687064342E+03  0.49411210958E+03  0.18945322654E+04  0.19608218248E+04  0.12699999809E+01 0. -1.
</event>
<event>
 5   0  0.1443750E-04  0.1500898E+04  0.7818609E-02  0.8883856E-01
        1   -1    0    0  501    0  0.00000000000E+00  0.00000000000E+00  0.17500458977E+04  0.17500458977E+04  0.50400001928E-02 0.  1.
       -1   -1    0    0    0  501  0.00000000000E+00  0.00000000000E+00 -0.32180529453E+03  0.32180529457E+03  0.50400001928E-02 0. -1.
    10030    2    1    2    0    0  0.00000000000E+00  0.00000000000E+00  0.14282406031E+04  0.20718511922E+04  0.15008984450E+04 0.  0.
        2    1    3    3  502    0 -0.34136035328E+03  0.59571748148E+03  0.29595068358E+03  0.74765835490E+03  0.25500000920E-02 0. -1.
       -2    1    3    3    0  502  0.34136035328E+03 -0.59571748148E+03  0.11322899195E+04  0.13241928373E+04  0.25500000920E-02 0.  1.
</event>
<event>
 5   0  0.2618901E-04  0.1501948E+04  0.7818609E-02  0.8883158E-01
       -2   -1    0    0    0  501  0.00000000000E+00  0.00000000000E+00  0.40520088053E+03  0.40520088054E+03  0.25500000920E-02 0.  1.
        2   -1    0    0  501    0  0.00000000000E+00  0.00000000000E+00 -0.13918087215E+04  0.13918087215E+04  0.25500000920E-02 0. -1.
    10030    2    1    2    0    0  0.00000000000E+00  0.00000000000E+00 -0.98660784094E+03  0.17970096020E+04  0.15019482274E+04 0.  0.
        1    1    3    3  502    0  0.15372032304E+03 -0.33484172586E+03 -0.12762384743E+04  0.13283574678E+04  0.50400001928E-02 0. -1.
       -1    1    3    3    0  502 -0.15372032304E+03  0.33484172586E+03  0.28963063333E+03  0.46865213419E+03  0.50400001928E-02 0.  1.
</event>
<event>
 5   0  0.1427609E-04  0.1496745E+04  0.7818609E-02  0.8886620E-01
       -1   -1    0    0    0  501  0.00000000000E+00  0.00000000000E+00  0.20898105934E+03  0.20898105940E+03  0.50400001928E-02 0.  1.
        1   -1    0    0  501    0  0.00000000000E+00  0.00000000000E+00 -0.26799634061E+04  0.26799634061E+04  0.50400001928E-02 0. -1.
    10030    2    1    2    0    0  0.00000000000E+00  0.00000000000E+00 -0.24709823467E+04  0.28889444655E+04  0.14967452578E+04 0.  0.
        4    1    3    3  502    0  0.14628597114E+02  0.26211761530E+03 -0.25881681723E+04  0.26014487773E+04  0.12699999809E+01 0. -1.
       -4    1    3    3    0  502 -0.14628597114E+02 -0.26211761530E+03  0.11718582555E+03  0.28749568816E+03  0.12699999809E+01 0.  1.
</event>
<event>
 5   0  0.1443750E-04  0.1499537E+04  0.7818609E-02  0.8884761E-01
        1   -1    0    0  501    0  0.00000000000E+00  0.00000000000E+00  0.21697710946E+04  0.21697710946E+04  0.50400001928E-02 0. -1.
       -1   -1    0    0    0  501  0.00000000000E+00  0.00000000000E+00 -0.25908378339E+03  0.25908378343E+03  0.50400001928E-02 0.  1.
    10030    2    1    2    0    0  0.00000000000E+00  0.00000000000E+00  0.19106873112E+04  0.24288548780E+04  0.14995366009E+04 0.  0.
        2    1    3    3  502    0 -0.44913261986E+03  0.24550937588E+03  0.18427430446E+04  0.19125106254E+04  0.25500000920E-02 0. -1.
       -2    1    3    3    0  502  0.44913261986E+03 -0.24550937588E+03  0.67944266628E+02  0.51634425265E+03  0.25500000920E-02 0.  1.
</event>
<event>
 5   0  0.1426929E-04  0.1501755E+04  0.7818609E-02  0.8883287E-01
        1   -1    0    0  501    0  0.00000000000E+00  0.00000000000E+00  0.65605011357E+03  0.65605011359E+03  0.50400001928E-02 0.  1.
       -1   -1    0    0    0  501  0.00000000000E+00  0.00000000000E+00 -0.85941133685E+03  0.85941133686E+03  0.50400001928E-02 0. -1.
    10030    2    1    2    0    0  0.00000000000E+00  0.00000000000E+00 -0.20336122328E+03  0.15154614505E+04  0.15017548471E+04 0.  0.
        1    1    3    3  502    0  0.18938311805E+03 -0.63285151400E+03 -0.46194024467E+03  0.80607431038E+03  0.50400001928E-02 0. -1.
       -1    1    3    3    0  502 -0.18938311805E+03  0.63285151400E+03  0.25857902139E+03  0.70938714008E+03  0.50400001928E-02 0.  1.
</event>
<event>
 5   0  0.2618901E-04  0.1481460E+04  0.7818609E-02  0.8896877E-01
       -2   -1    0    0    0  501  0.00000000000E+00  0.00000000000E+00  0.57049479619E+03  0.57049479620E+03  0.25500000920E-02 0. -1.
        2   -1    0    0  501    0  0.00000000000E+00  0.00000000000E+00 -0.96176260863E+03  0.96176260863E+03  0.25500000920E-02 0.  1.
    10030    2    1    2    0    0  0.00000000000E+00  0.00000000000E+00 -0.39126781244E+03  0.15322574048E+04  0.14814595012E+04 0.  0.
        1    1    3    3  502    0 -0.78757057966E+02 -0.56699164031E+03 -0.68185800439E+03  0.89028789306E+03  0.50400001928E-02 0.  1.
       -1    1    3    3    0  502  0.78757057966E+02  0.56699164031E+03  0.29059019195E+03  0.64196951177E+03  0.50400001928E-02 0. -1.
</event>
<event>
 5   0  0.1474203E-04  0.1490216E+04  0.7818609E-02  0.8890986E-01
        1   -1    0    0  501    0  0.00000000000E+00  0.00000000000E+00  0.11448807047E+04  0.11448807048E+04  0.50400001928E-02 0. -1.
       -1   -1    0    0    0  501  0.00000000000E+00  0.00000000000E+00 -0.48492883187E+03  0.48492883190E+03  0.50400001928E-02 0.  1.
    10030    2    1    2    0    0  0.00000000000E+00  0.00000000000E+00  0.65995187287E+03  0.16298095367E+04  0.14902156392E+04 0.  0.
        3    1    3    3  502    0 -0.33731480313E+03  0.31357849941E+03 -0.31061522956E+03  0.55551290060E+03  0.10100000352E+00 0.  1.
       -3    1    3    3    0  502  0.33731480313E+03 -0.31357849941E+03  0.97056710243E+03  0.10742966361E+04  0.10100000352E+00 0. -1.
</event>
<event>
 5   0  0.1484251E-04  0.1502581E+04  0.7818609E-02  0.8882738E-01
        1   -1    0    0  501    0  0.00000000000E+00  0.00000000000E+00  0.13498761633E+04  0.13498761633E+04  0.50400001928E-02 0. -1.
       -1   -1    0    0    0  501  0.00000000000E+00  0.00000000000E+00 -0.41814035374E+03  0.41814035377E+03  0.50400001928E-02 0.  1.
    10030    2    1    2    0    0  0.00000000000E+00  0.00000000000E+00  0.93173580957E+03  0.17680165171E+04  0.15025813741E+04 0.  0.
        5    1    3    3  502    0  0.12897870556E+03  0.43354345939E+03  0.11716832048E+04  0.12559693707E+04  0.46999998093E+01 0. -1.
       -5    1    3    3    0  502 -0.12897870556E+03 -0.43354345939E+03 -0.23994739523E+03  0.51204714641E+03  0.46999998093E+01 0.  1.
</event>
<event>
 5   0  0.1474203E-04  0.1500852E+04  0.7818609E-02  0.8883887E-01
       -1   -1    0    0    0  501  0.00000000000E+00  0.00000000000E+00  0.44281999957E+03  0.44281999959E+03  0.50400001928E-02 0. -1.
        1   -1    0    0  501    0  0.00000000000E+00  0.00000000000E+00 -0.12717111408E+04  0.12717111408E+04  0.50400001928E-02 0.  1.
    10030    2    1    2    0    0  0.00000000000E+00  0.00000000000E+00 -0.82889114126E+03  0.17145311404E+04  0.15008519272E+04 0.  0.
        3    1    3    3  502    0  0.15325608792E+02  0.37908225170E+03 -0.11540825693E+04  0.12148435351E+04  0.10100000352E+00 0.  1.
       -3    1    3    3    0  502 -0.15325608792E+02 -0.37908225170E+03  0.32519142804E+03  0.49968760532E+03  0.10100000352E+00 0. -1.
</event>
<event>
 5   0  0.2696040E-04  0.1514244E+04  0.7818609E-02  0.8875036E-01
        2   -1    0    0  501    0  0.00000000000E+00  0.00000000000E+00  0.21869703614E+04  0.21869703614E+04  0.25500000920E-02 0.  1.
       -2   -1    0    0    0  501  0.00000000000E+00  0.00000000000E+00 -0.26211314698E+03  0.26211314699E+03  0.25500000920E-02 0. -1.
    10030    2    1    2    0    0  0.00000000000E+00  0.00000000000E+00  0.19248572145E+04  0.24490835084E+04  0.15142439484E+04 0.  0.
        2    1    3    3  502    0  0.20136115182E+03  0.43466227878E+03  0.19107006295E+04  0.19698361621E+04  0.25500000920E-02 0.  1.
       -2    1    3    3    0  502 -0.20136115182E+03 -0.43466227878E+03  0.14156584992E+02  0.47924734633E+03  0.25500000920E-02 0. -1.
</event>
<event>
 5   0  0.2696040E-04  0.1500792E+04  0.7818609E-02  0.8883926E-01
        2   -1    0    0  501    0  0.00000000000E+00  0.00000000000E+00  0.68488598527E+03  0.68488598528E+03  0.25500000920E-02 0.  1.
       -2   -1    0    0    0  501  0.00000000000E+00  0.00000000000E+00 -0.82217202376E+03  0.82217202377E+03  0.25500000920E-02 0. -1.
    10030    2    1    2    0    0  0.00000000000E+00  0.00000000000E+00 -0.13728603849E+03  0.15070580090E+04  0.15007919197E+04 0.  0.
        2    1    3    3  502    0 -0.22040431298E+03  0.58577816845E+03  0.34706607099E+03  0.71565982243E+03  0.25500000920E-02 0.  1.
       -2    1    3    3    0  502  0.22040431298E+03 -0.58577816845E+03 -0.48435210947E+03  0.79139818661E+03  0.25500000920E-02 0. -1.
</event>
<event>
 5   0  0.2641347E-04  0.1475270E+04  0.7818609E-02  0.8901066E-01
        2   -1    0    0  501    0  0.00000000000E+00  0.00000000000E+00  0.17635996158E+04  0.17635996158E+04  0.25500000920E-02 0. -1.
       -2   -1    0    0    0  501  0.00000000000E+00  0.00000000000E+00 -0.30851989683E+03  0.30851989684E+03  0.25500000920E-02 0.  1.
    10030    2    1    2    0    0  0.00000000000E+00  0.00000000000E+00  0.14550797190E+04  0.20721195126E+04  0.14752702417E+04 0.  0.
        4    1    3    3  502    0 -0.54029154760E+03  0.32300610039E+03  0.12676256916E+04  0.14153177750E+04  0.12699999809E+01 0. -1.
       -4    1    3    3    0  502  0.54029154760E+03 -0.32300610039E+03  0.18745402737E+03  0.65680173765E+03  0.12699999809E+01 0.  1.
</event>
<event>
 5   0  0.1004313E-04  0.1499031E+04  0.7818609E-02  0.8885098E-01
       -3   -1    0    0    0  501  0.00000000000E+00  0.00000000000E+00  0.23590561734E+04  0.23590561756E+04  0.10100000352E+00 0. -1.
        3   -1    0    0  501    0  0.00000000000E+00  0.00000000000E+00 -0.23813478527E+03  0.23813480669E+03  0.10100000352E+00 0.  1.
    10030    2    1    2    0    0  0.00000000000E+00  0.00000000000E+00  0.21209213881E+04  0.25971909823E+04  0.14990308415E+04 0.  0.
        2    1    3    3  502    0  0.30111575609E+03 -0.30886367821E+03 -0.15217151673E+01  0.43135807157E+03  0.25500000920E-02 0.  1.
       -2    1    3    3    0  502 -0.30111575609E+03  0.30886367821E+03  0.21224431033E+04  0.21658329107E+04  0.25500000920E-02 0. -1.
</event>
<event>
 5   0  0.1474203E-04  0.1519878E+04  0.7818609E-02  0.8871341E-01
       -1   -1    0    0    0  501  0.00000000000E+00  0.00000000000E+00  0.87576051120E+03  0.87576051122E+03  0.50400001928E-02 0.  1.
        1   -1    0    0  501    0  0.00000000000E+00  0.00000000000E+00 -0.65943482882E+03  0.65943482884E+03  0.50400001928E-02 0. -1.
    10030    2    1    2    0    0  0.00000000000E+00  0.00000000000E+00  0.21632568238E+03  0.15351953401E+04  0.15198776040E+04 0.  0.
        3    1    3    3  502    0  0.24836512241E+03  0.26228962509E+03  0.78350112014E+03  0.86276016187E+03  0.10100000352E+00 0.  1.
       -3    1    3    3    0  502 -0.24836512241E+03 -0.26228962509E+03 -0.56717543775E+03  0.67243517818E+03  0.10100000352E+00 0. -1.
</event>
<event>
 5   0  0.1427609E-04  0.1492357E+04  0.7818609E-02  0.8889551E-01
        1   -1    0    0  501    0  0.00000000000E+00  0.00000000000E+00  0.75774889125E+03  0.75774889127E+03  0.50400001928E-02 0.  1.
       -1   -1    0    0    0  501  0.00000000000E+00  0.00000000000E+00 -0.73478519893E+03  0.73478519894E+03  0.50400001928E-02 0. -1.
    10030    2    1    2    0    0  0.00000000000E+00  0.00000000000E+00  0.22963692328E+02  0.14925340902E+04  0.14923574234E+04 0.  0.
        4    1    3    3  502    0 -0.50309914685E+03 -0.45763532902E+03  0.31850713062E+03  0.75099084620E+03  0.12699999809E+01 0.  1.
       -4    1    3    3    0  502  0.50309914685E+03  0.45763532902E+03 -0.29554343829E+03  0.74154324401E+03  0.12699999809E+01 0. -1.
</event>
<event>
 5   0  0.2734072E-04  0.1498581E+04  0.7818609E-02  0.8885397E-01
       -2   -1    0    0    0  501  0.00000000000E+00  0.00000000000E+00  0.61667839915E+03  0.61667839915E+03  0.25500000920E-02 0. -1.
        2   -1    0    0  501    0  0.00000000000E+00  0.00000000000E+00 -0.91042000557E+03  0.91042000557E+03  0.25500000920E-02 0.  1.
    10030    2    1    2    0    0  0.00000000000E+00  0.00000000000E+00 -0.29374160642E+03  0.15270984047E+04  0.14985811311E+04 0.  0.
        5    1    3    3  502    0  0.26310989723E+03  0.69919099578E+03 -0.20558136421E+03  0.77484234133E+03  0.46999998093E+01 0.  1.
       -5    1    3    3    0  502 -0.26310989723E+03 -0.69919099578E+03 -0.88160242213E+02  0.75225606339E+03  0.46999998093E+01 0. -1.
</event>
<event>
 5   0  0.1474203E-04  0.1501176E+04  0.7818609E-02  0.8883671E-01
        1   -1    0    0  501    0  0.00000000000E+00  0.00000000000E+00  0.52765399262E+03  0.52765399265E+03  0.50400001928E-02 0.  1.
       -1   -1    0    0    0  501  0.00000000000E+00  0.00000000000E+00 -0.10677112845E+04  0.10677112845E+04  0.50400001928E-02 0. -1.
    10030    2    1    2    0    0  0.00000000000E+00  0.00000000000E+00 -0.54005729186E+03  0.15953652771E+04  0.15011757022E+04 0.  0.
        3    1    3    3  502    0  0.59562198077E+03  0.79455956337E+02 -0.74803108550E+03  0.95949429808E+03  0.10100000352E+00 0. -1.
       -3    1    3    3    0  502 -0.59562198077E+03 -0.79455956337E+02  0.20797379364E+03  0.63587097906E+03  0.10100000352E+00 0.  1.
</event>
<event>
 5   0  0.1443750E-04  0.1492626E+04  0.7818609E-02  0.8889371E-01
        1   -1    0    0  501    0  0.00000000000E+00  0.00000000000E+00  0.21426210477E+04  0.21426210477E+04  0.50400001928E-02 0.  1.
       -1   -1    0    0    0  501  0.00000000000E+00  0.00000000000E+00 -0.25995407660E+03  0.25995407665E+03  0.50400001928E-02 0. -1.
    10030    2    1    2    0    0  0.00000000000E+00  0.00000000000E+00  0.18826669711E+04  0.24025751243E+04  0.14926259760E+04 0.  0.
        2    1    3    3  502    0  0.64870805946E+03  0.28067205288E+03  0.13269200346E+04  0.15034346431E+04  0.25500000920E-02 0.  1.
       -2    1    3    3    0  502 -0.64870805946E+03 -0.28067205288E+03  0.55574693644E+03  0.89914048126E+03  0.25500000920E-02 0. -1.
</event>
<event>
 5   0  0.2646718E-04  0.1501624E+04  0.7818609E-02  0.8883373E-01
        2   -1    0    0  501    0  0.00000000000E+00  0.00000000000E+00  0.87298527434E+03  0.87298527435E+03  0.25500000920E-02 0.  1.
       -2   -1    0    0    0  501  0.00000000000E+00  0.00000000000E+00 -0.64573700198E+03  0.64573700198E+03  0.25500000920E-02 0. -1.
    10030    2    1    2    0    0  0.00000000000E+00  0.00000000000E+00  0.22724827236E+03  0.15187222763E+04  0.15016243123E+04 0.  0.
        3    1    3    3  502    0 -0.65657848376E+03 -0.11910061312E+03  0.46169185369E+03  0.81144293660E+03  0.10100000352E+00 0.  1.
       -3    1    3    3    0  502  0.65657848376E+03  0.11910061312E+03 -0.23444358133E+03  0.70727933973E+03  0.10100000352E+00 0. -1.
</event>
<event>
 5   0  0.1474203E-04  0.1489098E+04  0.7818609E-02  0.8891735E-01
       -1   -1    0    0    0  501  0.00000000000E+00  0.00000000000E+00  0.95891057819E+03  0.95891057820E+03  0.50400001928E-02 0.  1.
        1   -1    0    0  501    0  0.00000000000E+00  0.00000000000E+00 -0.57810713048E+03  0.57810713051E+03  0.50400001928E-02 0. -1.
    10030    2    1    2    0    0  0.00000000000E+00  0.00000000000E+00  0.38080344771E+03  0.15370177087E+04  0.14890977708E+04 0.  0.
        3    1    3    3  502    0 -0.50607788083E+03  0.21446728315E+03  0.70880096192E+03  0.89694473120E+03  0.10100000352E+00 0.  1.
       -3    1    3    3    0  502  0.50607788083E+03 -0.21446728315E+03 -0.32799751421E+03  0.64007297751E+03  0.10100000352E+00 0. -1.
</event>
<event>
 5   0  0.1474203E-04  0.1502163E+04  0.7818609E-02  0.8883016E-01
       -1   -1    0    0    0  501  0.00000000000E+00  0.00000000000E+00  0.10264504733E+04  0.10264504733E+04  0.50400001928E-02 0. -1.
        1   -1    0    0  501    0  0.00000000000E+00  0.00000000000E+00 -0.54958661783E+03  0.54958661785E+03  0.50400001928E-02 0.  1.
    10030    2    1    2    0    0  0.00000000000E+00  0.00000000000E+00  0.47686385543E+03  0.15760370911E+04  0.15021630324E+04 0.  0.
        3    1    3    3  502    0 -0.35041630780E+03 -0.16576891879E+03 -0.43651894191E+03  0.58379767047E+03  0.10100000352E+00 0.  1.
       -3    1    3    3    0  502  0.35041630780E+03  0.16576891879E+03  0.91338279734E+03  0.99223942064E+03  0.10100000352E+00 0. -1.
</event>
<event>
 5   0  0.1474203E-04  0.1500324E+04  0.7818609E-02  0.8884238E-01
        1   -1    0    0  501    0  0.00000000000E+00  0.00000000000E+00  0.17278821104E+04  0.17278821104E+04  0.50400001928E-02 0.  1.
       -1   -1    0    0    0  501  0.00000000000E+00  0.00000000000E+00 -0.32568353345E+03  0.32568353349E+03  0.50400001928E-02 0. -1.
    10030    2    1    2    0    0  0.00000000000E+00  0.00000000000E+00  0.14021985769E+04  0.20535656439E+04  0.15003236333E+04 0.  0.
        3    1    3    3  502    0  0.16831313552E+03  0.41083205042E+03 -0.12654709461E+03  0.46165621690E+03  0.10100000352E+00 0. -1.
       -3    1    3    3    0  502 -0.16831313552E+03 -0.41083205042E+03  0.15287456716E+04  0.15919094270E+04  0.10100000352E+00 0.  1.
</event>
<event>
 5   0  0.1004313E-04  0.1498543E+04  0.7818609E-02  0.8885423E-01
       -4   -1    0    0    0  501  0.00000000000E+00  0.00000000000E+00  0.42254551908E+03  0.42254742762E+03  0.12699999809E+01 0. -1.
        4   -1    0    0  501    0  0.00000000000E+00  0.00000000000E+00 -0.13286266461E+04  0.13286272531E+04  0.12699999809E+01 0.  1.
    10030    2    1    2    0    0  0.00000000000E+00  0.00000000000E+00 -0.90608112703E+03  0.17511746807E+04  0.14985425431E+04 0.  0.
        4    1    3    3  502    0  0.44151102871E+03  0.60468950142E+03 -0.41948682257E+03  0.85822618744E+03  0.12699999809E+01 0.  1.
       -4    1    3    3    0  502 -0.44151102871E+03 -0.60468950142E+03 -0.48659430446E+03  0.89294849327E+03  0.12699999809E+01 0. -1.
</event>
<event>
 5   0  0.1427609E-04  0.1490601E+04  0.7818609E-02  0.8890728E-01
       -1   -1    0    0    0  501  0.00000000000E+00  0.00000000000E+00  0.46844918317E+03  0.46844918319E+03  0.50400001928E-02 0.  1.
        1   -1    0    0  501    0  0.00000000000E+00  0.00000000000E+00 -0.11857689388E+04  0.11857689389E+04  0.50400001928E-02 0. -1.
    10030    2    1    2    0    0  0.00000000000E+00  0.00000000000E+00 -0.71731975568E+03  0.16542181221E+04  0.14906005378E+04 0.  0.
        4    1    3    3  502    0  0.70287204301E+03 -0.21687307496E+03 -0.49186806440E+03  0.88487221968E+03  0.12699999809E+01 0.  1.
       -4    1    3    3    0  502 -0.70287204301E+03  0.21687307496E+03 -0.22545169128E+03  0.76934590237E+03  0.12699999809E+01 0. -1.
</event>
<event>
 5   0  0.1427609E-04  0.1501217E+04  0.7818609E-02  0.8883644E-01
       -1   -1    0    0    0  501  0.00000000000E+00  0.00000000000E+00  0.76574124868E+03  0.76574124870E+03  0.50400001928E-02 0. -1.
        1   -1    0    0  501    0  0.00000000000E+00  0.00000000000E+00 -0.73577484298E+03  0.73577484300E+03  0.50400001928E-02 0.  1.
    10030    2    1    2    0    0  0.00000000000E+00  0.00000000000E+00  0.29966405705E+02  0.15015160917E+04  0.15012170357E+04 0.  0.
        4    1    3    3  502    0 -0.74675795252E+03 -0.37338390426E+02  0.81101886449E+02  0.75207760500E+03  0.12699999809E+01 0.  1.
       -4    1    3    3    0  502  0.74675795252E+03  0.37338390426E+02 -0.51135480745E+02  0.74943848670E+03  0.12699999809E+01 0. -1.
</event>
<event>
 5   0  0.2646718E-04  0.1480669E+04  0.7818609E-02  0.8897410E-01
       -2   -1    0    0    0  501  0.00000000000E+00  0.00000000000E+00  0.10071130590E+04  0.10071130590E+04  0.25500000920E-02 0.  1.
        2   -1    0    0  501    0  0.00000000000E+00  0.00000000000E+00 -0.54422413568E+03  0.54422413568E+03  0.25500000920E-02 0. -1.
    10030    2    1    2    0    0  0.00000000000E+00  0.00000000000E+00  0.46288892335E+03  0.15513371947E+04  0.14806690840E+04 0.  0.
        3    1    3    3  502    0 -0.16623469567E+03  0.53517304199E+03 -0.27543361479E+03  0.62442601265E+03  0.10100000352E+00 0. -1.
       -3    1    3    3    0  502  0.16623469567E+03 -0.53517304199E+03  0.73832253813E+03  0.92691118206E+03  0.10100000352E+00 0.  1.
</event>
<event>
 5   0  0.2641347E-04  0.1499414E+04  0.7818609E-02  0.8884843E-01
       -2   -1    0    0    0  501  0.00000000000E+00  0.00000000000E+00  0.51434920255E+03  0.51434920256E+03  0.25500000920E-02 0. -1.
        2   -1    0    0  501    0  0.00000000000E+00  0.00000000000E+00 -0.10927603120E+04  0.10927603120E+04  0.25500000920E-02 0.  1.
    10030    2    1    2    0    0  0.00000000000E+00  0.00000000000E+00 -0.57841110945E+03  0.16071095146E+04  0.14994137455E+04 0.  0.
        4    1    3    3  502    0  0.35639374544E+03  0.11977484977E+02  0.41762953168E+03  0.54915935808E+03  0.12699999809E+01 0. -1.
       -4    1    3    3    0  502 -0.35639374544E+03 -0.11977484977E+02 -0.99604064113E+03  0.10579501565E+04  0.12699999809E+01 0.  1.
</event>
<event>
 5   0  0.2641347E-04  0.1494165E+04  0.7818609E-02  0.8888343E-01
        2   -1    0    0  501    0  0.00000000000E+00  0.00000000000E+00  0.10545837099E+04  0.10545837099E+04  0.25500000920E-02 0. -1.
       -2   -1    0    0    0  501  0.00000000000E+00  0.00000000000E+00 -0.52924402429E+03  0.52924402430E+03  0.25500000920E-02 0.  1.
    10030    2    1    2    0    0  0.00000000000E+00  0.00000000000E+00  0.52533968558E+03  0.15838277342E+04  0.14941648190E+04 0.  0.
        4    1    3    3  502    0  0.44498549753E+03 -0.29257739646E+03  0.81805461817E+03  0.97612939569E+03  0.12699999809E+01 0. -1.
       -4    1    3    3    0  502 -0.44498549753E+03  0.29257739646E+03 -0.29271493259E+03  0.60769833848E+03  0.12699999809E+01 0.  1.
</event>
<event>
 5   0  0.1484251E-04  0.1502854E+04  0.7818609E-02  0.8882557E-01
        1   -1    0    0  501    0  0.00000000000E+00  0.00000000000E+00  0.58378378830E+03  0.58378378832E+03  0.50400001928E-02 0.  1.
       -1   -1    0    0    0  501  0.00000000000E+00  0.00000000000E+00 -0.96721173265E+03  0.96721173266E+03  0.50400001928E-02 0. -1.
    10030    2    1    2    0    0  0.00000000000E+00  0.00000000000E+00 -0.38342794436E+03  0.15509955210E+04  0.15028539908E+04 0.  0.
        5    1    3    3  502    0 -0.20122735833E+02 -0.31682895952E+03  0.51115678995E+03  0.60173820553E+03  0.46999998093E+01 0.  1.
       -5    1    3    3    0  502  0.20122735833E+02  0.31682895952E+03 -0.89458473430E+03  0.94925731545E+03  0.46999998093E+01 0. -1.
</event>
<event>
 5   0  0.1474203E-04  0.1502059E+04  0.7818609E-02  0.8883085E-01
       -1   -1    0    0    0  501  0.00000000000E+00  0.00000000000E+00  0.96278115131E+03  0.96278115132E+03  0.50400001928E-02 0. -1.
        1   -1    0    0  501    0  0.00000000000E+00  0.00000000000E+00 -0.58585024809E+03  0.58585024811E+03  0.50400001928E-02 0.  1.
    10030    2    1    2    0    0  0.00000000000E+00  0.00000000000E+00  0.37693090322E+03  0.15486313994E+04  0.15020593548E+04 0.  0.
        3    1    3    3  502    0 -0.24672763700E+03  0.70805630549E+03  0.14439304238E+03  0.76358864547E+03  0.10100000352E+00 0. -1.
       -3    1    3    3    0  502  0.24672763700E+03 -0.70805630549E+03  0.23253786084E+03  0.78504275395E+03  0.10100000352E+00 0.  1.
</event>
<event>
 5   0  0.2641347E-04  0.1503973E+04  0.7818609E-02  0.8881815E-01
        2   -1    0    0  501    0  0.00000000000E+00  0.00000000000E+00  0.67321149615E+03  0.67321149616E+03  0.25500000920E-02 0.  1.
       -2   -1    0    0    0  501  0.00000000000E+00  0.00000000000E+00 -0.83997978956E+03  0.83997978957E+03  0.25500000920E-02 0. -1.
    10030    2    1    2    0    0  0.00000000000E+00  0.00000000000E+00 -0.16676829341E+03  0.15131912857E+04  0.15039734717E+04 0.  0.
        4    1    3    3  502    0  0.49227819888E+03 -0.33971279448E+03  0.37519419744E+03  0.70605588059E+03  0.12699999809E+01 0.  1.
       -4    1    3    3    0  502 -0.49227819888E+03  0.33971279448E+03 -0.54196249086E+03  0.80713540513E+03  0.12699999809E+01 0. -1.
</event>
<event>
 5   0  0.2734072E-04  0.1499817E+04  0.7818609E-02  0.8884575E-01
        2   -1    0    0  501    0  0.00000000000E+00  0.00000000000E+00  0.10641807734E+04  0.10641807735E+04  0.25500000920E-02 0.  1.
       -2   -1    0    0    0  501  0.00000000000E+00  0.00000000000E+00 -0.52844643259E+03  0.52844643259E+03  0.25500000920E-02 0. -1.
    10030    2    1    2    0    0  0.00000000000E+00  0.00000000000E+00  0.53573434086E+03  0.15926272060E+04  0.14998167000E+04 0.  0.
        5    1    3    3  502    0 -0.25342909005E+03 -0.33084252241E+03  0.92986931488E+03  0.10190005452E+04  0.46999998093E+01 0.  1.
       -5    1    3    3    0  502  0.25342909005E+03  0.33084252241E+03 -0.39413497402E+03  0.57362666087E+03  0.46999998093E+01 0. -1.
</event>
<event>
 5   0  0.1484251E-04  0.1500749E+04  0.7818609E-02  0.8883955E-01
        1   -1    0    0  501    0  0.00000000000E+00  0.00000000000E+00  0.12015569366E+04  0.12015569366E+04  0.50400001928E-02 0. -1.
       -1   -1    0    0    0  501  0.00000000000E+00  0.00000000000E+00 -0.46861024749E+03  0.46861024752E+03  0.50400001928E-02 0.  1.
    10030    2    1    2    0    0  0.00000000000E+00  0.00000000000E+00  0.73294668907E+03  0.16701671841E+04  0.15007490043E+04 0.  0.
        5    1    3    3  502    0  0.14372111037E+03  0.33794317764E+03 -0.36174948128E+03  0.51550569938E+03  0.46999998093E+01 0.  1.
       -5    1    3    3    0  502 -0.14372111037E+03 -0.33794317764E+03  0.10946961704E+04  0.11546614847E+04  0.46999998093E+01 0. -1.
</event>
<event>
 5   0  0.1474203E-04  0.1443876E+04  0.7818609E-02  0.8922657E-01
        1   -1    0    0  501    0  0.00000000000E+00  0.00000000000E+00  0.64126774138E+03  0.64126774139E+03  0.50400001928E-02 0.  1.
       -1   -1    0    0    0  501  0.00000000000E+00  0.00000000000E+00 -0.81275655075E+03  0.81275655076E+03  0.50400001928E-02 0. -1.
    10030    2    1    2    0    0  0.00000000000E+00  0.00000000000E+00 -0.17148880937E+03  0.14540242922E+04  0.14438761133E+04 0.  0.
        3    1    3    3  502    0  0.63469574194E+03  0.20560348133E+03  0.19202585683E+03  0.69425169518E+03  0.10100000352E+00 0.  1.
       -3    1    3    3    0  502 -0.63469574194E+03 -0.20560348133E+03 -0.36351466620E+03  0.75977259698E+03  0.10100000352E+00 0. -1.
</event>
<event>
 5   0  0.2696040E-04  0.1497811E+04  0.7818609E-02  0.8885910E-01
       -2   -1    0    0    0  501  0.00000000000E+00  0.00000000000E+00  0.12498784321E+04  0.12498784321E+04  0.25500000920E-02 0.  1.
        2   -1    0    0  501    0  0.00000000000E+00  0.00000000000E+00 -0.44873142907E+03  0.44873142907E+03  0.25500000920E-02 0. -1.
    10030    2    1    2    0    0  0.00000000000E+00  0.00000000000E+00  0.80114700301E+03  0.16986098612E+04  0.14978113833E+04 0.  0.
        2    1    3    3  502    0  0.39862401871E+03 -0.63319034049E+02  0.11159759154E+04  0.11867234944E+04  0.25500000920E-02 0.  1.
       -2    1    3    3    0  502 -0.39862401871E+03  0.63319034049E+02 -0.31482891241E+03  0.51188636675E+03  0.25500000920E-02 0. -1.
</event>
<event>
 5   0  0.2734072E-04  0.1501255E+04  0.7818609E-02  0.8883619E-01
        2   -1    0    0  501    0  0.00000000000E+00  0.00000000000E+00  0.59087303228E+03  0.59087303228E+03  0.25500000920E-02 0.  1.
       -2   -1    0    0    0  501  0.00000000000E+00  0.00000000000E+00 -0.95357457017E+03  0.95357457017E+03  0.25500000920E-02 0. -1.
    10030    2    1    2    0    0  0.00000000000E+00  0.00000000000E+00 -0.36270153789E+03  0.15444476025E+04  0.15012548055E+04 0.  0.
        5    1    3    3  502    0  0.33214502859E+03  0.44911361131E+03  0.33446901441E+03  0.65108752674E+03  0.46999998093E+01 0.  1.
       -5    1    3    3    0  502 -0.33214502859E+03 -0.44911361131E+03 -0.69717055230E+03  0.89336007571E+03  0.46999998093E+01 0. -1.
</event>
<event>
 5   0  0.2618901E-04  0.1507256E+04  0.7818609E-02  0.8879642E-01
        2   -1    0    0  501    0  0.00000000000E+00  0.00000000000E+00  0.14915492388E+04  0.14915492388E+04  0.25500000920E-02 0. -1.
       -2   -1    0    0    0  501  0.00000000000E+00  0.00000000000E+00 -0.38078220105E+03  0.38078220106E+03  0.25500000920E-02 0.  1.
    10030    2    1    2    0    0  0.00000000000E+00  0.00000000000E+00  0.11107670378E+04  0.18723314399E+04  0.15072563181E+04 0.  0.
        1    1    3    3  502    0 -0.61612043233E+03 -0.16149403925E+03  0.54985411163E+02  0.63930282912E+03  0.50400001928E-02 0.  1.
       -1    1    3    3    0  502  0.61612043233E+03  0.16149403925E+03  0.10557816266E+04  0.12330286108E+04  0.50400001928E-02 0. -1.
</event>
<event>
 5   0  0.2641347E-04  0.1489022E+04  0.7818609E-02  0.8891786E-01
        2   -1    0    0  501    0  0.00000000000E+00  0.00000000000E+00  0.93606175760E+03  0.93606175760E+03  0.25500000920E-02 0. -1.
       -2   -1    0    0    0  501  0.00000000000E+00  0.00000000000E+00 -0.59215792807E+03  0.59215792807E+03  0.25500000920E-02 0.  1.
    10030    2    1    2    0    0  0.00000000000E+00  0.00000000000E+00  0.34390382953E+03  0.15282196857E+04  0.14890216801E+04 0.  0.
        4    1    3    3  502    0  0.91705222849E+02 -0.11643313236E+03 -0.57686307260E+03  0.59559981501E+03  0.12699999809E+01 0.  1.
       -4    1    3    3    0  502 -0.91705222849E+02  0.11643313236E+03  0.92076690213E+03  0.93261987067E+03  0.12699999809E+01 0. -1.
</event>
<event>
 5   0  0.2734072E-04  0.1500546E+04  0.7818609E-02  0.8884090E-01
       -2   -1    0    0    0  501  0.00000000000E+00  0.00000000000E+00  0.10668885303E+04  0.10668885303E+04  0.25500000920E-02 0. -1.
        2   -1    0    0  501    0  0.00000000000E+00  0.00000000000E+00 -0.52761779358E+03  0.52761779359E+03  0.25500000920E-02 0.  1.
    10030    2    1    2    0    0  0.00000000000E+00  0.00000000000E+00  0.53927073667E+03  0.15945063238E+04  0.15005457305E+04 0.  0.
        5    1    3    3  502    0 -0.53188147851E+03 -0.51149303333E+03  0.12563499022E+03  0.74855144853E+03  0.46999998093E+01 0.  1.
       -5    1    3    3    0  502  0.53188147851E+03  0.51149303333E+03  0.41363574646E+03  0.84595487532E+03  0.46999998093E+01 0. -1.
</event>
<event>
 5   0  0.2646718E-04  0.1505182E+04  0.7818609E-02  0.8881014E-01
       -2   -1    0    0    0  501  0.00000000000E+00  0.00000000000E+00  0.40274968420E+03  0.40274968421E+03  0.25500000920E-02 0. -1.
        2   -1    0    0  501    0  0.00000000000E+00  0.00000000000E+00 -0.14063157355E+04  0.14063157355E+04  0.25500000920E-02 0.  1.
    10030    2    1    2    0    0  0.00000000000E+00  0.00000000000E+00 -0.10035660513E+04  0.18090654197E+04  0.15051820068E+04 0.  0.
        3    1    3    3  502    0 -0.33240010832E+03 -0.58371136963E+03 -0.90969092064E+03  0.11308166856E+04  0.10100000352E+00 0.  1.
       -3    1    3    3    0  502  0.33240010832E+03  0.58371136963E+03 -0.93875130676E+02  0.67824873417E+03  0.10100000352E+00 0. -1.
</event>
<event>
 5   0  0.1443750E-04  0.1488708E+04  0.7818609E-02  0.8891997E-01
       -1   -1    0    0    0  501  0.00000000000E+00  0.00000000000E+00  0.28208096697E+03  0.28208096701E+03  0.50400001928E-02 0. -1.
        1   -1    0    0  501    0  0.00000000000E+00  0.00000000000E+00 -0.19641990382E+04  0.19641990382E+04  0.50400001928E-02 0.  1.
    10030    2    1    2    0    0  0.00000000000E+00  0.00000000000E+00 -0.16821180712E+04  0.22462800052E+04  0.14887083852E+04 0.  0.
        2    1    3    3  502    0  0.15287440673E+03  0.56862190003E+03 -0.15396125705E+03  0.60860949557E+03  0.25500000920E-02 0. -1.
       -2    1    3    3    0  502 -0.15287440673E+03 -0.56862190003E+03 -0.15281568142E+04  0.16376705096E+04  0.25500000920E-02 0.  1.
</event>
<event>
 5   0  0.2734072E-04  0.1500475E+04  0.7818609E-02  0.8884137E-01
        2   -1    0    0  501    0  0.00000000000E+00  0.00000000000E+00  0.23094576283E+04  0.23094576283E+04  0.25500000920E-02 0. -1.
       -2   -1    0    0    0  501  0.00000000000E+00  0.00000000000E+00 -0.24371797506E+03  0.24371797507E+03  0.25500000920E-02 0.  1.
    10030    2    1    2    0    0  0.00000000000E+00  0.00000000000E+00  0.20657396532E+04  0.25531756034E+04  0.15004750403E+04 0.  0.
        5    1    3    3  502    0 -0.74759472253E+02  0.42565486253E+03 -0.10605855551E+02  0.43232582025E+03  0.46999998093E+01 0.  1.
       -5    1    3    3    0  502  0.74759472253E+02 -0.42565486253E+03  0.20763455088E+04  0.21208497831E+04  0.46999998093E+01 0. -1.
</event>
<event>
 5   0  0.1484251E-04  0.1490543E+04  0.7818609E-02  0.8890766E-01
        1   -1    0    0  501    0  0.00000000000E+00  0.00000000000E+00  0.88527211124E+03  0.88527211126E+03  0.50400001928E-02 0. -1.
       -1   -1    0    0    0  501  0.00000000000E+00  0.00000000000E+00 -0.62741091335E+03  0.62741091337E+03  0.50400001928E-02 0.  1.
    10030    2    1    2    0    0  0.00000000000E+00  0.00000000000E+00  0.25786119789E+03  0.15126830246E+04  0.14905426983E+04 0.  0.
        5    1    3    3  502    0 -0.63052535728E+03 -0.23186534847E+03 -0.19848134166E+03  0.70052887091E+03  0.46999998093E+01 0. -1.
       -5    1    3    3    0  502  0.63052535728E+03  0.23186534847E+03  0.45634253956E+03  0.81215415371E+03  0.46999998093E+01 0.  1.
</event>
<event>
 5   0  0.1484251E-04  0.1503101E+04  0.7818609E-02  0.8882393E-01
        1   -1    0    0  501    0  0.00000000000E+00  0.00000000000E+00  0.79026964748E+03  0.79026964750E+03  0.50400001928E-02 0.  1.
       -1   -1    0    0    0  501  0.00000000000E+00  0.00000000000E+00 -0.71472836051E+03  0.71472836052E+03  0.50400001928E-02 0. -1.
    10030    2    1    2    0    0  0.00000000000E+00  0.00000000000E+00  0.75541286979E+02  0.15049980080E+04  0.15031009674E+04 0.  0.
        5    1    3    3  502    0 -0.29753331772E+03 -0.26640277918E+03  0.67521337745E+03  0.78449455765E+03  0.46999998093E+01 0.  1.
       -5    1    3    3    0  502  0.29753331772E+03  0.26640277918E+03 -0.59967209047E+03  0.72050345037E+03  0.46999998093E+01 0. -1.
</event>
<event>
 5   0  0.1484251E-04  0.1506400E+04  0.7818609E-02  0.8880208E-01
        1   -1    0    0  501    0  0.00000000000E+00  0.00000000000E+00  0.99761585541E+03  0.99761585542E+03  0.50400001928E-02 0. -1.
       -1   -1    0    0    0  501  0.00000000000E+00  0.00000000000E+00 -0.56866579912E+03  0.56866579915E+03  0.50400001928E-02 0.  1.
    10030    2    1    2    0    0  0.00000000000E+00  0.00000000000E+00  0.42895005628E+03  0.15662816546E+04  0.15063997048E+04 0.  0.
        5    1    3    3  502    0 -0.16179922701E+03  0.23096597502E+03  0.94063843169E+03  0.98201172123E+03  0.46999998093E+01 0. -1.
       -5    1    3    3    0  502  0.16179922701E+03 -0.23096597502E+03 -0.51168837540E+03  0.58426993333E+03  0.46999998093E+01 0.  1.
</event>
<event>
 5   0  0.1427609E-04  0.1501275E+04  0.7818609E-02  0.8883605E-01
       -1   -1    0    0    0  501  0.00000000000E+00  0.00000000000E+00  0.68752623775E+03  0.68752623776E+03  0.50400001928E-02 0. -1.
        1   -1    0    0  501    0  0.00000000000E+00  0.00000000000E+00 -0.81954207381E+03  0.81954207383E+03  0.50400001928E-02 0.  1.
    10030    2    1    2    0    0  0.00000000000E+00  0.00000000000E+00 -0.13201583607E+03  0.15070683116E+04  0.15012750297E+04 0.  0.
        4    1    3    3  502    0 -0.65781637460E+03  0.35986283944E+03 -0.10123492634E+03  0.75661996347E+03  0.12699999809E+01 0. -1.
       -4    1    3    3    0  502  0.65781637460E+03 -0.35986283944E+03 -0.30780909729E+02  0.75044834813E+03  0.12699999809E+01 0.  1.
</event>
<event>
 5   0  0.2646718E-04  0.1498508E+04  0.7818609E-02  0.8885446E-01
       -2   -1    0    0    0  501  0.00000000000E+00  0.00000000000E+00  0.37200208687E+03  0.37200208688E+03  0.25500000920E-02 0. -1.
        2   -1    0    0  501    0  0.00000000000E+00  0.00000000000E+00 -0.15090820685E+04  0.15090820685E+04  0.25500000920E-02 0.  1.
    10030    2    1    2    0    0  0.00000000000E+00  0.00000000000E+00 -0.11370799817E+04  0.18810841554E+04  0.14985081632E+04 0.  0.
        3    1    3    3  502    0 -0.61045448915E+03  0.42574468733E+03 -0.46005635103E+03  0.87496575844E+03  0.10100000352E+00 0. -1.
       -3    1    3    3    0  502  0.61045448915E+03 -0.42574468733E+03 -0.67702363062E+03  0.10061183970E+04  0.10100000352E+00 0.  1.
</event>
<event>
 5   0  0.2734072E-04  0.1501191E+04  0.7818609E-02  0.8883661E-01
       -2   -1    0    0    0  501  0.00000000000E+00  0.00000000000E+00  0.87470390898E+03  0.87470390898E+03  0.25500000920E-02 0.  1.
        2   -1    0    0  501    0  0.00000000000E+00  0.00000000000E+00 -0.64409617649E+03  0.64409617650E+03  0.25500000920E-02 0. -1.
    10030    2    1    2    0    0  0.00000000000E+00  0.00000000000E+00  0.23060773249E+03  0.15188000855E+04  0.15011907851E+04 0.  0.
        5    1    3    3  502    0 -0.57818679868E+03  0.89867932915E+02 -0.36031172017E+03  0.68718472424E+03  0.46999998093E+01 0. -1.
       -5    1    3    3    0  502  0.57818679868E+03 -0.89867932915E+02  0.59091945266E+03  0.83161536125E+03  0.46999998093E+01 0.  1.
</event>
<event>
 5   0  0.1427609E-04  0.1501336E+04  0.7818609E-02  0.8883565E-01
        1   -1    0    0  501    0  0.00000000000E+00  0.00000000000E+00  0.64145490257E+03  0.64145490259E+03  0.50400001928E-02 0.  1.
       -1   -1    0    0    0  501  0.00000000000E+00  0.00000000000E+00 -0.87847611620E+03  0.87847611622E+03  0.50400001928E-02 0. -1.
    10030    2    1    2    0    0  0.00000000000E+00  0.00000000000E+00 -0.23702121363E+03  0.15199310188E+04  0.15013364867E+04 0.  0.
        4    1    3    3  502    0 -0.59138858699E+03 -0.31840060064E+03 -0.45789652753E+03  0.81289005784E+03  0.12699999809E+01 0. -1.
       -4    1    3    3    0  502  0.59138858699E+03  0.31840060064E+03  0.22087531390E+03  0.70704096097E+03  0.12699999809E+01 0.  1.
</event>
<event>
 5   0  0.2696040E-04  0.1515721E+04  0.7818609E-02  0.8874065E-01
       -2   -1    0    0    0  501  0.00000000000E+00  0.00000000000E+00  0.81316903779E+03  0.81316903779E+03  0.25500000920E-02 0. -1.
        2   -1    0    0  501    0  0.00000000000E+00  0.00000000000E+00 -0.70631404012E+03  0.70631404012E+03  0.25500000920E-02 0.  1.
    10030    2    1    2    0    0  0.00000000000E+00  0.00000000000E+00  0.10685499767E+03  0.15194830779E+04  0.15157212255E+04 0.  0.
        2    1    3    3  502    0 -0.58928031456E+03 -0.13485245266E+03 -0.40478046279E+03  0.72751886311E+03  0.25500000920E-02 0.  1.
       -2    1    3    3    0  502  0.58928031456E+03  0.13485245266E+03  0.51163546046E+03  0.79196421480E+03  0.25500000920E-02 0. -1.
</event>
<event>
 5   0  0.2696040E-04  0.1495521E+04  0.7818609E-02  0.8887437E-01
        2   -1    0    0  501    0  0.00000000000E+00  0.00000000000E+00  0.98846834358E+03  0.98846834358E+03  0.25500000920E-02 0.  1.
       -2   -1    0    0    0  501  0.00000000000E+00  0.00000000000E+00 -0.56566866198E+03  0.56566866199E+03  0.25500000920E-02 0. -1.
    10030    2    1    2    0    0  0.00000000000E+00  0.00000000000E+00  0.42279968160E+03  0.15541370056E+04  0.14955207325E+04 0.  0.
        2    1    3    3  502    0  0.25687052206E+03  0.24027059138E+03 -0.47433719328E+03  0.59051519466E+03  0.25500000920E-02 0. -1.
       -2    1    3    3    0  502 -0.25687052206E+03 -0.24027059138E+03  0.89713687488E+03  0.96362181091E+03  0.25500000920E-02 0.  1.
</event>
<event>
 5   0  0.1427609E-04  0.1497455E+04  0.7818609E-02  0.8886147E-01
       -1   -1    0    0    0  501  0.00000000000E+00  0.00000000000E+00  0.21500327162E+04  0.21500327162E+04  0.50400001928E-02 0. -1.
        1   -1    0    0  501    0  0.00000000000E+00  0.00000000000E+00 -0.26073687008E+03  0.26073687013E+03  0.50400001928E-02 0.  1.
    10030    2    1    2    0    0  0.00000000000E+00  0.00000000000E+00  0.18892958462E+04  0.24107695864E+04  0.14974549089E+04 0.  0.
        4    1    3    3  502    0  0.53977678236E+03  0.51822962588E+03  0.90296806091E+03  0.11727207050E+04  0.12699999809E+01 0.  1.
       -4    1    3    3    0  502 -0.53977678236E+03 -0.51822962588E+03  0.98632778526E+03  0.12380488814E+04  0.12699999809E+01 0. -1.
</event>
<event>
 5   0  0.2734072E-04  0.1500542E+04  0.7818609E-02  0.8884093E-01
        2   -1    0    0  501    0  0.00000000000E+00  0.00000000000E+00  0.12752319886E+04  0.12752319886E+04  0.25500000920E-02 0. -1.
       -2   -1    0    0    0  501  0.00000000000E+00  0.00000000000E+00 -0.44141486111E+03  0.44141486112E+03  0.25500000920E-02 0.  1.
    10030    2    1    2    0    0  0.00000000000E+00  0.00000000000E+00  0.83381712746E+03  0.17166468497E+04  0.15005417037E+04 0.  0.
        5    1    3    3  502    0  0.33651815561E+03 -0.51054293993E+03 -0.80424532062E+02  0.61675664400E+03  0.46999998093E+01 0.  1.
       -5    1    3    3    0  502 -0.33651815561E+03  0.51054293993E+03  0.91424165952E+03  0.10998902057E+04  0.46999998093E+01 0. -1.
</event>
<event>
 5   0  0.1474203E-04  0.1500688E+04  0.7818609E-02  0.8883996E-01
        1   -1    0    0  501    0  0.00000000000E+00  0.00000000000E+00  0.11629453455E+04  0.11629453455E+04  0.50400001928E-02 0. -1.
       -1   -1    0    0    0  501  0.00000000000E+00  0.00000000000E+00 -0.48412941915E+03  0.48412941917E+03  0.50400001928E-02 0.  1.
    10030    2    1    2    0    0  0.00000000000E+00  0.00000000000E+00  0.67881592637E+03  0.16470747647E+04  0.15006879151E+04 0.  0.
        3    1    3    3  502    0  0.58556185504E+03 -0.42915945106E+03  0.13129183439E+03  0.73776559725E+03  0.10100000352E+00 0. -1.
       -3    1    3    3    0  502 -0.58556185504E+03  0.42915945106E+03  0.54752409198E+03  0.90930916745E+03  0.10100000352E+00 0.  1.
</event>
<event>
 5   0  0.2641347E-04  0.1494039E+04  0.7818609E-02  0.8888427E-01
        2   -1    0    0  501    0  0.00000000000E+00  0.00000000000E+00  0.63534730501E+03  0.63534730501E+03  0.25500000920E-02 0.  1.
       -2   -1    0    0    0  501  0.00000000000E+00  0.00000000000E+00 -0.87831926823E+03  0.87831926824E+03  0.25500000920E-02 0. -1.
    10030    2    1    2    0    0  0.00000000000E+00  0.00000000000E+00 -0.24297196323E+03  0.15136665733E+04  0.14940385270E+04 0.  0.
        4    1    3    3  502    0 -0.25232217650E+03  0.48428538765E+03 -0.63792519678E+03  0.83973149698E+03  0.12699999809E+01 0. -1.
       -4    1    3    3    0  502  0.25232217650E+03 -0.48428538765E+03  0.39495323355E+03  0.67393507627E+03  0.12699999809E+01 0.  1.
</event>
<event>
 5   0  0.1004313E-04  0.1496316E+04  0.7818609E-02  0.8886906E-01
       -3   -1    0    0    0  501  0.00000000000E+00  0.00000000000E+00  0.96908368662E+03  0.96908369188E+03  0.10100000352E+00 0. -1.
        3   -1    0    0  501    0  0.00000000000E+00  0.00000000000E+00 -0.57759767566E+03  0.57759768449E+03  0.10100000352E+00 0.  1.
    10030    2    1    2    0    0  0.00000000000E+00  0.00000000000E+00  0.39148601096E+03  0.15466813764E+04  0.14963161375E+04 0.  0.
        3    1    3    3  502    0  0.19226028653E+02  0.37781262583E+03 -0.47145073917E+03  0.60446491220E+03  0.10100000352E+00 0.  1.
       -3    1    3    3    0  502 -0.19226028653E+02 -0.37781262583E+03  0.86293675013E+03  0.94221646417E+03  0.10100000352E+00 0. -1.
</event>
<event>
 5   0  0.2734072E-04  0.1505210E+04  0.7818609E-02  0.8880996E-01
        2   -1    0    0  501    0  0.00000000000E+00  0.00000000000E+00  0.21092821562E+04  0.21092821562E+04  0.25500000920E-02 0.  1.
       -2   -1    0    0    0  501  0.00000000000E+00  0.00000000000E+00 -0.26853413036E+03  0.26853413038E+03  0.25500000920E-02 0. -1.
    10030    2    1    2    0    0  0.00000000000E+00  0.00000000000E+00  0.18407480259E+04  0.23778162866E+04  0.15052099515E+04 0.  0.
        5    1    3    3  502    0 -0.34001741463E+03  0.19770785383E+03 -0.93227824453E+02  0.40424467216E+03  0.46999998093E+01 0. -1.
       -5    1    3    3    0  502  0.34001741463E+03 -0.19770785383E+03  0.19339758503E+04  0.19735716145E+04  0.46999998093E+01 0.  1.
</event>
<event>
 5   0  0.1426929E-04  0.1496502E+04  0.7818609E-02  0.8886782E-01
        1   -1    0    0  501    0  0.00000000000E+00  0.00000000000E+00  0.11368570568E+04  0.11368570568E+04  0.50400001928E-02 0.  1.
       -1   -1    0    0    0  501  0.00000000000E+00  0.00000000000E+00 -0.49248019523E+03  0.49248019526E+03  0.50400001928E-02 0. -1.
    10030    2    1    2    0    0  0.00000000000E+00  0.00000000000E+00  0.64437686158E+03  0.16293372521E+04  0.14965020352E+04 0.  0.
        1    1    3    3  502    0 -0.50008861519E+02 -0.72112038138E+03  0.53264423457E+03  0.89790053531E+03  0.50400001928E-02 0. -1.
       -1    1    3    3    0  502  0.50008861519E+02  0.72112038138E+03  0.11173262701E+03  0.73143671677E+03  0.50400001928E-02 0.  1.
</event>
<event>
 5   0  0.1426929E-04  0.1490779E+04  0.7818609E-02  0.8890608E-01
        1   -1    0    0  501    0  0.00000000000E+00  0.00000000000E+00  0.96036939119E+03  0.96036939120E+03  0.50400001928E-02 0.  1.
       -1   -1    0    0    0  501  0.00000000000E+00  0.00000000000E+00 -0.57853332060E+03  0.57853332062E+03  0.50400001928E-02 0. -1.
    10030    2    1    2    0    0  0.00000000000E+00  0.00000000000E+00  0.38183607059E+03  0.15389027118E+04  0.14907792498E+04 0.  0.
        1    1    3    3  502    0  0.14608039824E+03 -0.64217719758E+03 -0.16945685989E+03  0.68003431033E+03  0.50400001928E-02 0. -1.
       -1    1    3    3    0  502 -0.14608039824E+03  0.64217719758E+03  0.55129293048E+03  0.85886840148E+03  0.50400001928E-02 0.  1.
</event>
<event>
 5   0  0.1474203E-04  0.1501638E+04  0.7818609E-02  0.8883364E-01
        1   -1    0    0  501    0  0.00000000000E+00  0.00000000000E+00  0.66963444334E+03  0.66963444335E+03  0.50400001928E-02 0.  1.
       -1   -1    0    0    0  501  0.00000000000E+00  0.00000000000E+00 -0.84184632036E+03  0.84184632037E+03  0.50400001928E-02 0. -1.
    10030    2    1    2    0    0  0.00000000000E+00  0.00000000000E+00 -0.17221187702E+03  0.15114807637E+04  0.15016381617E+04 0.  0.
        3    1    3    3  502    0 -0.24935752401E+03 -0.28615709799E+03 -0.73816705118E+03  0.83003353255E+03  0.10100000352E+00 0. -1.
       -3    1    3    3    0  502  0.24935752401E+03  0.28615709799E+03  0.56595517416E+03  0.68144723117E+03  0.10100000352E+00 0.  1.
</event>
<event>
 5   0  0.2641347E-04  0.1497636E+04  0.7818609E-02  0.8886026E-01
        2   -1    0    0  501    0  0.00000000000E+00  0.00000000000E+00  0.60876864007E+03  0.60876864007E+03  0.25500000920E-02 0. -1.
       -2   -1    0    0    0  501  0.00000000000E+00  0.00000000000E+00 -0.92108627378E+03  0.92108627378E+03  0.25500000920E-02 0.  1.
    10030    2    1    2    0    0  0.00000000000E+00  0.00000000000E+00 -0.31231763371E+03  0.15298549139E+04  0.14976360550E+04 0.  0.
        4    1    3    3  502    0  0.12321588601E+03 -0.71047466109E+03 -0.36241956443E+03  0.80703528560E+03  0.12699999809E+01 0.  1.
       -4    1    3    3    0  502 -0.12321588601E+03  0.71047466109E+03  0.50101930722E+02  0.72281962825E+03  0.12699999809E+01 0. -1.
</event>
<event>
 5   0  0.2618901E-04  0.1498932E+04  0.7818609E-02  0.8885164E-01
       -2   -1    0    0    0  501  0.00000000000E+00  0.00000000000E+00  0.72965978431E+03  0.72965978431E+03  0.25500000920E-02 0.  1.
        2   -1    0    0  501    0  0.00000000000E+00  0.00000000000E+00 -0.76980948996E+03  0.76980948997E+03  0.25500000920E-02 0. -1.
    10030    2    1    2    0    0  0.00000000000E+00  0.00000000000E+00 -0.40149705654E+02  0.14994692743E+04  0.14989316548E+04 0.  0.
        1    1    3    3  502    0 -0.61726962373E+03  0.29464310330E+03 -0.32655490590E+03  0.75794092995E+03  0.50400001928E-02 0.  1.
       -1    1    3    3    0  502  0.61726962373E+03 -0.29464310330E+03  0.28640520024E+03  0.74152834433E+03  0.50400001928E-02 0. -1.
</event>
<event>
 5   0  0.1004313E-04  0.1499162E+04  0.7818609E-02  0.8885010E-01
        4   -1    0    0  501    0  0.00000000000E+00  0.00000000000E+00  0.12239356509E+04  0.12239363098E+04  0.12699999809E+01 0. -1.
       -4   -1    0    0    0  501  0.00000000000E+00  0.00000000000E+00 -0.45906815036E+03  0.45906990707E+03  0.12699999809E+01 0.  1.
    10030    2    1    2    0    0  0.00000000000E+00  0.00000000000E+00  0.76486750054E+03  0.16830062169E+04  0.14991623103E+04 0.  0.
        2    1    3    3  502    0  0.51377098146E+02 -0.55433597415E+03 -0.18105988424E+03  0.58541494698E+03  0.25500000920E-02 0.  1.
       -2    1    3    3    0  502 -0.51377098146E+02  0.55433597415E+03  0.94592738478E+03  0.10975912699E+04  0.25500000920E-02 0. -1.
</event>
<event>
 5   0  0.1443750E-04  0.1498934E+04  0.7818609E-02  0.8885162E-01
       -1   -1    0    0    0  501  0.00000000000E+00  0.00000000000E+00  0.53020937140E+03  0.53020937142E+03  0.50400001928E-02 0. -1.
        1   -1    0    0  501    0  0.00000000000E+00  0.00000000000E+00 -0.10593945834E+04  0.10593945834E+04  0.50400001928E-02 0.  1.
    10030    2    1    2    0    0  0.00000000000E+00  0.00000000000E+00 -0.52918521202E+03  0.15896039549E+04  0.14989342029E+04 0.  0.
        2    1    3    3  502    0 -0.55242616268E+03  0.32732329706E+03  0.14529135282E+03  0.65835004611E+03  0.25500000920E-02 0. -1.
       -2    1    3    3    0  502  0.55242616268E+03 -0.32732329706E+03 -0.67447656484E+03  0.93125390874E+03  0.25500000920E-02 0.  1.
</event>
<event>
 5   0  0.1484251E-04  0.1504348E+04  0.7818609E-02  0.8881567E-01
       -1   -1    0    0    0  501  0.00000000000E+00  0.00000000000E+00  0.30062413335E+03  0.30062413339E+03  0.50400001928E-02 0. -1.
        1   -1    0    0  501    0  0.00000000000E+00  0.00000000000E+00 -0.18819703386E+04  0.18819703386E+04  0.50400001928E-02 0.  1.
    10030    2    1    2    0    0  0.00000000000E+00  0.00000000000E+00 -0.15813462052E+04  0.21825944720E+04  0.15043479678E+04 0.  0.
        5    1    3    3  502    0  0.37699190564E+03 -0.53182838668E+03 -0.24630318137E+03  0.69688713358E+03  0.46999998093E+01 0. -1.
       -5    1    3    3    0  502 -0.37699190564E+03  0.53182838668E+03 -0.13350430238E+04  0.14857073384E+04  0.46999998093E+01 0.  1.
</event>
<event>
 5   0  0.2641347E-04  0.1492825E+04  0.7818609E-02  0.8889238E-01
       -2   -1    0    0    0  501  0.00000000000E+00  0.00000000000E+00  0.12756392686E+04  0.12756392686E+04  0.25500000920E-02 0.  1.
        2   -1    0    0  501    0  0.00000000000E+00  0.00000000000E+00 -0.43674710434E+03  0.43674710435E+03  0.25500000920E-02 0. -1.
    10030    2    1    2    0    0  0.00000000000E+00  0.00000000000E+00  0.83889216427E+03  0.17123863730E+04  0.14928251830E+04 0.  0.
        4    1    3    3  502    0 -0.40598077387E+03 -0.41926172973E+03  0.95321244722E+03  0.11176834835E+04  0.12699999809E+01 0.  1.
       -4    1    3    3    0  502  0.40598077387E+03  0.41926172973E+03 -0.11432028295E+03  0.59470288949E+03  0.12699999809E+01 0. -1.
</event>
<event>
 5   0  0.1474203E-04  0.1490269E+04  0.7818609E-02  0.8890950E-01
        1   -1    0    0  501    0  0.00000000000E+00  0.00000000000E+00  0.55032610683E+03  0.55032610686E+03  0.50400001928E-02 0. -1.
       -1   -1    0    0    0  501  0.00000000000E+00  0.00000000000E+00 -0.10089020725E+04  0.10089020725E+04  0.50400001928E-02 0.  1.
    10030    2    1    2    0    0  0.00000000000E+00  0.00000000000E+00 -0.45857596568E+03  0.15592281794E+04  0.14902686332E+04 0.  0.
        3    1    3    3  502    0  0.33278864310E+03  0.11513824004E+03 -0.91634785512E+03  0.98168146416E+03  0.10100000352E+00 0.  1.
       -3    1    3    3    0  502 -0.33278864310E+03 -0.11513824004E+03  0.45777188944E+03  0.57754671522E+03  0.10100000352E+00 0. -1.
</event>
<event>
 5   0  0.2641347E-04  0.1467919E+04  0.7818609E-02  0.8906071E-01
        2   -1    0    0  501    0  0.00000000000E+00  0.00000000000E+00  0.46413855392E+03  0.46413855392E+03  0.25500000920E-02 0.  1.
       -2   -1    0    0    0  501  0.00000000000E+00  0.00000000000E+00 -0.11606374655E+04  0.11606374655E+04  0.25500000920E-02 0. -1.
    10030    2    1    2    0    0  0.00000000000E+00  0.00000000000E+00 -0.69649891159E+03  0.16247760194E+04  0.14679190644E+04 0.  0.
        4    1    3    3  502    0 -0.46386519170E+03  0.33832400682E+03  0.15784063171E+03  0.59544044839E+03  0.12699999809E+01 0.  1.
       -4    1    3    3    0  502  0.46386519170E+03 -0.33832400682E+03 -0.85433954331E+03  0.10293355710E+04  0.12699999809E+01 0. -1.
</event>
<event>
 5   0  0.1426929E-04  0.1503650E+04  0.7818609E-02  0.8882029E-01
        1   -1    0    0  501    0  0.00000000000E+00  0.00000000000E+00  0.53344650191E+03  0.53344650193E+03  0.50400001928E-02 0.  1.
       -1   -1    0    0    0  501  0.00000000000E+00  0.00000000000E+00 -0.10596023690E+04  0.10596023690E+04  0.50400001928E-02 0. -1.
    10030    2    1    2    0    0  0.00000000000E+00  0.00000000000E+00 -0.52615586707E+03  0.15930488709E+04  0.15036504609E+04 0.  0.
        1    1    3    3  502    0  0.33899471324E+03  0.93528892434E+02 -0.96709792392E+03  0.10290497868E+04  0.50400001928E-02 0. -1.
       -1    1    3    3    0  502 -0.33899471324E+03 -0.93528892434E+02  0.44094205685E+03  0.56399908408E+03  0.50400001928E-02 0.  1.
</event>
<event>
 5   0  0.1426929E-04  0.1498143E+04  0.7818609E-02  0.8885689E-01
        1   -1    0    0  501    0  0.00000000000E+00  0.00000000000E+00  0.95861496558E+03  0.95861496560E+03  0.50400001928E-02 0.  1.
       -1   -1    0    0    0  501  0.00000000000E+00  0.00000000000E+00 -0.58533221610E+03  0.58533221612E+03  0.50400001928E-02 0. -1.
    10030    2    1    2    0    0  0.00000000000E+00  0.00000000000E+00  0.37328274948E+03  0.15439471817E+04  0.14981431470E+04 0.  0.
        1    1    3    3  502    0  0.50705044367E+03 -0.30358631522E+03  0.66097795210E+03  0.88665475604E+03  0.50400001928E-02 0.  1.
       -1    1    3    3    0  502 -0.50705044367E+03  0.30358631522E+03 -0.28769520262E+03  0.65729242568E+03  0.50400001928E-02 0. -1.
</event>
<event>
 5   0  0.2641347E-04  0.1496992E+04  0.7818609E-02  0.8886456E-01
        2   -1    0    0  501    0  0.00000000000E+00  0.00000000000E+00  0.62795162476E+03  0.62795162477E+03  0.25500000920E-02 0. -1.
       -2   -1    0    0    0  501  0.00000000000E+00  0.00000000000E+00 -0.89218003780E+03  0.89218003781E+03  0.25500000920E-02 0.  1.
    10030    2    1    2    0    0  0.00000000000E+00  0.00000000000E+00 -0.26422841304E+03  0.15201316626E+04  0.14969915221E+04 0.  0.
        4    1    3    3  502    0  0.47611325704E+03 -0.26432781961E+03 -0.65356067824E+03  0.85070335769E+03  0.12699999809E+01 0.  1.
       -4    1    3    3    0  502 -0.47611325704E+03  0.26432781961E+03  0.38933226520E+03  0.66942830488E+03  0.12699999809E+01 0. -1.
</event>
<event>
 5   0  0.2618901E-04  0.1503168E+04  0.7818609E-02  0.8882349E-01
       -2   -1    0    0    0  501  0.00000000000E+00  0.00000000000E+00  0.39785564594E+03  0.39785564595E+03  0.25500000920E-02 0. -1.
        2   -1    0    0  501    0  0.00000000000E+00  0.00000000000E+00 -0.14198085490E+04  0.14198085490E+04  0.25500000920E-02 0.  1.
    10030    2    1    2    0    0  0.00000000000E+00  0.00000000000E+00 -0.10219529030E+04  0.18176641949E+04  0.15031684501E+04 0.  0.
        1    1    3    3  502    0  0.12827677475E+03 -0.64041201916E+03 -0.96066453448E+03  0.11616620994E+04  0.50400001928E-02 0.  1.
       -1    1    3    3    0  502 -0.12827677475E+03  0.64041201916E+03 -0.61288368528E+02  0.65600209555E+03  0.50400001928E-02 0. -1.
</event>
<event>
 5   0  0.2696040E-04  0.1511200E+04  0.7818609E-02  0.8877039E-01
       -2   -1    0    0    0  501  0.00000000000E+00  0.00000000000E+00  0.51673574401E+03  0.51673574402E+03  0.25500000920E-02 0.  1.
        2   -1    0    0  501    0  0.00000000000E+00  0.00000000000E+00 -0.11048806310E+04  0.11048806310E+04  0.25500000920E-02 0. -1.
    10030    2    1    2    0    0  0.00000000000E+00  0.00000000000E+00 -0.58814488696E+03  0.16216163750E+04  0.15111999403E+04 0.  0.
        2    1    3    3  502    0 -0.16461165534E+03  0.71880451118E+03 -0.11724639611E+03  0.74667505635E+03  0.25500000920E-02 0.  1.
       -2    1    3    3    0  502  0.16461165534E+03 -0.71880451118E+03 -0.47089849085E+03  0.87494131864E+03  0.25500000920E-02 0. -1.
</event>
<event>
 5   0  0.2641347E-04  0.1498135E+04  0.7818609E-02  0.8885694E-01
       -2   -1    0    0    0  501  0.00000000000E+00  0.00000000000E+00  0.38971346842E+03  0.38971346843E+03  0.25500000920E-02 0.  1.
        2   -1    0    0  501    0  0.00000000000E+00  0.00000000000E+00 -0.14397812074E+04  0.14397812074E+04  0.25500000920E-02 0. -1.
    10030    2    1    2    0    0  0.00000000000E+00  0.00000000000E+00 -0.10500677390E+04  0.18294946758E+04  0.14981350114E+04 0.  0.
        4    1    3    3  502    0  0.18250370964E+03  0.10097849505E+03  0.35353489514E+03  0.41047873937E+03  0.12699999809E+01 0.  1.
       -4    1    3    3    0  502 -0.18250370964E+03 -0.10097849505E+03 -0.14036026341E+04  0.14190159365E+04  0.12699999809E+01 0. -1.
</event>
<event>
 5   0  0.1426929E-04  0.1489891E+04  0.7818609E-02  0.8891203E-01
       -1   -1    0    0    0  501  0.00000000000E+00  0.00000000000E+00  0.47058879596E+03  0.47058879599E+03  0.50400001928E-02 0.  1.
        1   -1    0    0  501    0  0.00000000000E+00  0.00000000000E+00 -0.11792547196E+04  0.11792547196E+04  0.50400001928E-02 0. -1.
    10030    2    1    2    0    0  0.00000000000E+00  0.00000000000E+00 -0.70866592365E+03  0.16498435156E+04  0.14898913500E+04 0.  0.
        1    1    3    3  502    0 -0.68809258376E+03 -0.67524865979E+02 -0.66143886513E+03  0.95683456442E+03  0.50400001928E-02 0. -1.
       -1    1    3    3    0  502  0.68809258376E+03  0.67524865979E+02 -0.47227058518E+02  0.69300895119E+03  0.50400001928E-02 0.  1.
</event>
<event>
 5   0  0.1474203E-04  0.1487344E+04  0.7818609E-02  0.8892913E-01
        1   -1    0    0  501    0  0.00000000000E+00  0.00000000000E+00  0.71110257616E+03  0.71110257617E+03  0.50400001928E-02 0.  1.
       -1   -1    0    0    0  501  0.00000000000E+00  0.00000000000E+00 -0.77773329076E+03  0.77773329078E+03  0.50400001928E-02 0. -1.
    10030    2    1    2    0    0  0.00000000000E+00  0.00000000000E+00 -0.66630714605E+02  0.14888358670E+04  0.14873441386E+04 0.  0.
        3    1    3    3  502    0 -0.56097810681E+02 -0.18298433077E+03  0.68602761134E+03  0.71222477027E+03  0.10100000352E+00 0.  1.
       -3    1    3    3    0  502  0.56097810681E+02  0.18298433077E+03 -0.75265832594E+03  0.77661109668E+03  0.10100000352E+00 0. -1.
</event>
<event>
 5   0  0.2696040E-04  0.1505410E+04  0.7818609E-02  0.8880863E-01
        2   -1    0    0  501    0  0.00000000000E+00  0.00000000000E+00  0.13835548008E+04  0.13835548008E+04  0.25500000920E-02 0.  1.
       -2   -1    0    0    0  501  0.00000000000E+00  0.00000000000E+00 -0.40949941504E+03  0.40949941505E+03  0.25500000920E-02 0. -1.
    10030    2    1    2    0    0  0.00000000000E+00  0.00000000000E+00  0.97405538573E+03  0.17930542158E+04  0.15054100858E+04 0.  0.
        2    1    3    3  502    0  0.11830555489E+02 -0.21621115387E+03  0.13456568308E+04  0.13629671792E+04  0.25500000920E-02 0.  1.
       -2    1    3    3    0  502 -0.11830555489E+02  0.21621115387E+03 -0.37160144510E+03  0.43008703666E+03  0.25500000920E-02 0. -1.
</event>
<event>
 5   0  0.1443750E-04  0.1495748E+04  0.7818609E-02  0.8887285E-01
        1   -1    0    0  501    0  0.00000000000E+00  0.00000000000E+00  0.14884027166E+04  0.14884027166E+04  0.50400001928E-02 0.  1.
       -1   -1    0    0    0  501  0.00000000000E+00  0.00000000000E+00 -0.37578261019E+03  0.37578261023E+03  0.50400001928E-02 0. -1.
    10030    2    1    2    0    0  0.00000000000E+00  0.00000000000E+00  0.11126201064E+04  0.18641853268E+04  0.14957484520E+04 0.  0.
        2    1    3    3  502    0  0.50875622601E+03  0.87298160119E+02 -0.11815900210E+03  0.52954264799E+03  0.25500000920E-02 0. -1.
       -2    1    3    3    0  502 -0.50875622601E+03 -0.87298160119E+02  0.12307791085E+04  0.13346426788E+04  0.25500000920E-02 0.  1.
</event>
<event>
 5   0  0.1427609E-04  0.1502888E+04  0.7818609E-02  0.8882535E-01
       -1   -1    0    0    0  501  0.00000000000E+00  0.00000000000E+00  0.87983571246E+03  0.87983571248E+03  0.50400001928E-02 0.  1.
        1   -1    0    0  501    0  0.00000000000E+00  0.00000000000E+00 -0.64178821817E+03  0.64178821819E+03  0.50400001928E-02 0. -1.
    10030    2    1    2    0    0  0.00000000000E+00  0.00000000000E+00  0.23804749429E+03  0.15216239307E+04  0.15028881452E+04 0.  0.
        4    1    3    3  502    0  0.64613658074E+03  0.10234014292E+03  0.49336343538E+03  0.81937480928E+03  0.12699999809E+01 0.  1.
       -4    1    3    3    0  502 -0.64613658074E+03 -0.10234014292E+03 -0.25531594109E+03  0.70224912139E+03  0.12699999809E+01 0. -1.
</event>
<event>
 5   0  0.1427609E-04  0.1501737E+04  0.7818609E-02  0.8883298E-01
        1   -1    0    0  501    0  0.00000000000E+00  0.00000000000E+00  0.19215626853E+04  0.19215626853E+04  0.50400001928E-02 0. -1.
       -1   -1    0    0    0  501  0.00000000000E+00  0.00000000000E+00 -0.29340904286E+03  0.29340904290E+03  0.50400001928E-02 0.  1.
    10030    2    1    2    0    0  0.00000000000E+00  0.00000000000E+00  0.16281536424E+04  0.22149717282E+04  0.15017374848E+04 0.  0.
        4    1    3    3  502    0 -0.18811183191E+03  0.39564502619E+03  0.17135252804E+04  0.17686411584E+04  0.12699999809E+01 0. -1.
       -4    1    3    3    0  502  0.18811183191E+03 -0.39564502619E+03 -0.85371637907E+02  0.44633056977E+03  0.12699999809E+01 0.  1.
</event>
<event>
 5   0  0.2696040E-04  0.1501529E+04  0.7818609E-02  0.8883437E-01
        2   -1    0    0  501    0  0.00000000000E+00  0.00000000000E+00  0.18507186302E+04  0.18507186302E+04  0.25500000920E-02 0. -1.
       -2   -1    0    0    0  501  0.00000000000E+00  0.00000000000E+00 -0.30455582735E+03  0.30455582736E+03  0.25500000920E-02 0.  1.
    10030    2    1    2    0    0  0.00000000000E+00  0.00000000000E+00  0.15461628029E+04  0.21552744576E+04  0.15015287458E+04 0.  0.
        2    1    3    3  502    0  0.68272714573E+02 -0.63681694466E+03  0.21080144484E+03  0.67426569964E+03  0.25500000920E-02 0.  1.
       -2    1    3    3    0  502 -0.68272714573E+02  0.63681694466E+03  0.13353613580E+04  0.14810087579E+04  0.25500000920E-02 0. -1.
</event>
<event>
 5   0  0.1426929E-04  0.1499394E+04  0.7818609E-02  0.8884856E-01
        1   -1    0    0  501    0  0.00000000000E+00  0.00000000000E+00  0.53571700241E+03  0.53571700243E+03  0.50400001928E-02 0.  1.
       -1   -1    0    0    0  501  0.00000000000E+00  0.00000000000E+00 -0.10491462672E+04  0.10491462672E+04  0.50400001928E-02 0. -1.
    10030    2    1    2    0    0  0.00000000000E+00  0.00000000000E+00 -0.51342926475E+03  0.15848632696E+04  0.14993938687E+04 0.  0.
        1    1    3    3  502    0  0.51767732529E+03  0.21239004329E+03 -0.78410085081E+03  0.96328266250E+03  0.50400001928E-02 0. -1.
       -1    1    3    3    0  502 -0.51767732529E+03 -0.21239004329E+03  0.27067158605E+03  0.62158060711E+03  0.50400001928E-02 0.  1.
</event>
<event>
 5   0  0.2696040E-04  0.1421529E+04  0.7818609E-02  0.8938381E-01
        2   -1    0    0  501    0  0.00000000000E+00  0.00000000000E+00  0.13814214948E+04  0.13814214948E+04  0.25500000920E-02 0. -1.
       -2   -1    0    0    0  501  0.00000000000E+00  0.00000000000E+00 -0.36570000704E+03  0.36570000704E+03  0.25500000920E-02 0.  1.
    10030    2    1    2    0    0  0.00000000000E+00  0.00000000000E+00  0.10157214878E+04  0.17471215019E+04  0.14215285440E+04 0.  0.
        2    1    3    3  502    0 -0.61758709985E+03 -0.14339461132E+02  0.93989454744E+03  0.11247316153E+04  0.25500000920E-02 0. -1.
       -2    1    3    3    0  502  0.61758709985E+03  0.14339461132E+02  0.75826940332E+02  0.62238988660E+03  0.25500000920E-02 0.  1.
</event>
<event>
 5   0  0.2696040E-04  0.1486794E+04  0.7818609E-02  0.8893283E-01
        2   -1    0    0  501    0  0.00000000000E+00  0.00000000000E+00  0.16472762668E+04  0.16472762668E+04  0.25500000920E-02 0. -1.
       -2   -1    0    0    0  501  0.00000000000E+00  0.00000000000E+00 -0.33548643661E+03  0.33548643662E+03  0.25500000920E-02 0.  1.
    10030    2    1    2    0    0  0.00000000000E+00  0.00000000000E+00  0.13117898302E+04  0.19827627034E+04  0.14867936573E+04 0.  0.
        2    1    3    3  502    0  0.74745351303E+02  0.28332477097E+03 -0.25522537854E+03  0.38858691079E+03  0.25500000920E-02 0.  1.
       -2    1    3    3    0  502 -0.74745351303E+02 -0.28332477097E+03  0.15670152087E+04  0.15941757926E+04  0.25500000920E-02 0. -1.
</event>
<event>
 5   0  0.2696040E-04  0.1494759E+04  0.7818609E-02  0.8887945E-01
        2   -1    0    0  501    0  0.00000000000E+00  0.00000000000E+00  0.19347475289E+04  0.19347475289E+04  0.25500000920E-02 0. -1.
       -2   -1    0    0    0  501  0.00000000000E+00  0.00000000000E+00 -0.28870766847E+03  0.28870766848E+03  0.25500000920E-02 0.  1.
    10030    2    1    2    0    0  0.00000000000E+00  0.00000000000E+00  0.16460398604E+04  0.22234551974E+04  0.14947594431E+04 0.  0.
        2    1    3    3  502    0 -0.95446731993E+02  0.72915447557E+03  0.62456195987E+03  0.96480773712E+03  0.25500000920E-02 0. -1.
       -2    1    3    3    0  502  0.95446731993E+02 -0.72915447557E+03  0.10214779006E+04  0.12586474603E+04  0.25500000920E-02 0.  1.
</event>
<event>
 5   0  0.2618901E-04  0.1502930E+04  0.7818609E-02  0.8882507E-01
        2   -1    0    0  501    0  0.00000000000E+00  0.00000000000E+00  0.60522671104E+03  0.60522671105E+03  0.25500000920E-02 0.  1.
       -2   -1    0    0    0  501  0.00000000000E+00  0.00000000000E+00 -0.93303858971E+03  0.93303858972E+03  0.25500000920E-02 0. -1.
    10030    2    1    2    0    0  0.00000000000E+00  0.00000000000E+00 -0.32781187867E+03  0.15382653008E+04  0.15029303070E+04 0.  0.
        1    1    3    3  502    0  0.21320423147E+03 -0.71582919154E+03 -0.24850763731E+03  0.78716168708E+03  0.50400001928E-02 0. -1.
       -1    1    3    3    0  502 -0.21320423147E+03  0.71582919154E+03 -0.79304241360E+02  0.75110361369E+03  0.50400001928E-02 0.  1.
</event>
<event>
 5   0  0.1443750E-04  0.1508315E+04  0.7818609E-02  0.8878942E-01
       -1   -1    0    0    0  501  0.00000000000E+00  0.00000000000E+00  0.48060705382E+03  0.48060705385E+03  0.50400001928E-02 0. -1.
        1   -1    0    0  501    0  0.00000000000E+00  0.00000000000E+00 -0.11834062384E+04  0.11834062384E+04  0.50400001928E-02 0.  1.
    10030    2    1    2    0    0  0.00000000000E+00  0.00000000000E+00 -0.70279918456E+03  0.16640132922E+04  0.15083148023E+04 0.  0.
        2    1    3    3  502    0  0.60983799095E+03 -0.29326132197E+03 -0.71870752747E+03  0.98713985241E+03  0.25500000920E-02 0.  1.
       -2    1    3    3    0  502 -0.60983799095E+03  0.29326132197E+03  0.15908342906E+02  0.67687343983E+03  0.25500000920E-02 0. -1.
</event>
<event>
 5   0  0.2641347E-04  0.1503884E+04  0.7818609E-02  0.8881874E-01
        2   -1    0    0  501    0  0.00000000000E+00  0.00000000000E+00  0.13532480304E+04  0.13532480304E+04  0.25500000920E-02 0.  1.
       -2   -1    0    0    0  501  0.00000000000E+00  0.00000000000E+00 -0.41782175190E+03  0.41782175191E+03  0.25500000920E-02 0. -1.
    10030    2    1    2    0    0  0.00000000000E+00  0.00000000000E+00  0.93542627854E+03  0.17710697824E+04  0.15038835897E+04 0.  0.
        4    1    3    3  502    0  0.10023914871E+03 -0.29444498236E+03  0.12739350939E+04  0.13113573010E+04  0.12699999809E+01 0.  1.
       -4    1    3    3    0  502 -0.10023914871E+03  0.29444498236E+03 -0.33850881532E+03  0.45971248136E+03  0.12699999809E+01 0. -1.
</event>
<event>
 5   0  0.2734072E-04  0.1500266E+04  0.7818609E-02  0.8884276E-01
        2   -1    0    0  501    0  0.00000000000E+00  0.00000000000E+00  0.16820315659E+04  0.16820315659E+04  0.25500000920E-02 0. -1.
       -2   -1    0    0    0  501  0.00000000000E+00  0.00000000000E+00 -0.33453578986E+03  0.33453578987E+03  0.25500000920E-02 0.  1.
    10030    2    1    2    0    0  0.00000000000E+00  0.00000000000E+00  0.13474957761E+04  0.20165673558E+04  0.15002663210E+04 0.  0.
        5    1    3    3  502    0  0.58910493608E+03  0.45827673034E+03  0.77447302382E+03  0.10755894858E+04  0.46999998093E+01 0. -1.
       -5    1    3    3    0  502 -0.58910493608E+03 -0.45827673034E+03  0.57302275226E+03  0.94097787004E+03  0.46999998093E+01 0.  1.
</event>
<event>
 5   0  0.1474203E-04  0.1502053E+04  0.7818609E-02  0.8883089E-01
       -1   -1    0    0    0  501  0.00000000000E+00  0.00000000000E+00  0.81479085054E+03  0.81479085056E+03  0.50400001928E-02 0. -1.
        1   -1    0    0  501    0  0.00000000000E+00  0.00000000000E+00 -0.69225190480E+03  0.69225190482E+03  0.50400001928E-02 0.  1.
    10030    2    1    2    0    0  0.00000000000E+00  0.00000000000E+00  0.12253894574E+03  0.15070427554E+04  0.15020526200E+04 0.  0.
        3    1    3    3  502    0  0.20383880818E+03 -0.16638941264E+03  0.76703003050E+03  0.81090737710E+03  0.10100000352E+00 0. -1.
       -3    1    3    3    0  502 -0.20383880818E+03  0.16638941264E+03 -0.64449108476E+03  0.69613537828E+03  0.10100000352E+00 0.  1.
</event>
<event>
 5   0  0.2734072E-04  0.1497746E+04  0.7818609E-02  0.8885953E-01
        2   -1    0    0  501    0  0.00000000000E+00  0.00000000000E+00  0.79970827499E+03  0.79970827500E+03  0.25500000920E-02 0.  1.
       -2   -1    0    0    0  501  0.00000000000E+00  0.00000000000E+00 -0.70126905320E+03  0.70126905321E+03  0.25500000920E-02 0. -1.
    10030    2    1    2    0    0  0.00000000000E+00  0.00000000000E+00  0.98439221793E+02  0.15009773282E+04  0.14977458594E+04 0.  0.
        5    1    3    3  502    0  0.21813197901E+03 -0.39951914782E+02 -0.66759340350E+03  0.70347761738E+03  0.46999998093E+01 0. -1.
       -5    1    3    3    0  502 -0.21813197901E+03  0.39951914782E+02  0.76603262529E+03  0.79749971083E+03  0.46999998093E+01 0.  1.
</event>
<event>
 5   0  0.1484251E-04  0.1545444E+04  0.7818609E-02  0.8854783E-01
       -1   -1    0    0    0  501  0.00000000000E+00  0.00000000000E+00  0.10044037534E+04  0.10044037535E+04  0.50400001928E-02 0.  1.
        1   -1    0    0  501    0  0.00000000000E+00  0.00000000000E+00 -0.59448096480E+03  0.59448096482E+03  0.50400001928E-02 0. -1.
    10030    2    1    2    0    0  0.00000000000E+00  0.00000000000E+00  0.40992278865E+03  0.15988847183E+04  0.15454435123E+04 0.  0.
        5    1    3    3  502    0 -0.65380351561E+03  0.39077974267E+03  0.33949249547E+03  0.83393350382E+03  0.46999998093E+01 0. -1.
       -5    1    3    3    0  502  0.65380351561E+03 -0.39077974267E+03  0.70430293172E+02  0.76495121446E+03  0.46999998093E+01 0.  1.
</event>
<event>
 5   0  0.2734072E-04  0.1483127E+04  0.7818609E-02  0.8895752E-01
       -2   -1    0    0    0  501  0.00000000000E+00  0.00000000000E+00  0.35679046995E+03  0.35679046996E+03  0.25500000920E-02 0.  1.
        2   -1    0    0  501    0  0.00000000000E+00  0.00000000000E+00 -0.15412860386E+04  0.15412860386E+04  0.25500000920E-02 0. -1.
    10030    2    1    2    0    0  0.00000000000E+00  0.00000000000E+00 -0.11844955687E+04  0.18980765086E+04  0.14831266569E+04 0.  0.
        5    1    3    3  502    0  0.67976197790E+03 -0.27297222603E+03 -0.44463467946E+03  0.85692022438E+03  0.46999998093E+01 0. -1.
       -5    1    3    3    0  502 -0.67976197790E+03  0.27297222603E+03 -0.73986088923E+03  0.10411562842E+04  0.46999998093E+01 0.  1.
</event>
<event>
 5   0  0.2696040E-04  0.1498903E+04  0.7818609E-02  0.8885183E-01
       -2   -1    0    0    0  501  0.00000000000E+00  0.00000000000E+00  0.62627078737E+03  0.62627078737E+03  0.25500000920E-02 0.  1.
        2   -1    0    0  501    0  0.00000000000E+00  0.00000000000E+00 -0.89686026929E+03  0.89686026929E+03  0.25500000920E-02 0. -1.
    10030    2    1    2    0    0  0.00000000000E+00  0.00000000000E+00 -0.27058948193E+03  0.15231310567E+04  0.14989027814E+04 0.  0.
        2    1    3    3  502    0  0.65224073295E+03 -0.34397023038E+03 -0.27141480800E+03  0.78574772740E+03  0.25500000920E-02 0.  1.
       -2    1    3    3    0  502 -0.65224073295E+03  0.34397023038E+03  0.82532607422E+00  0.73738332926E+03  0.25500000920E-02 0. -1.
</event>
<event>
 5   0  0.1426929E-04  0.1498155E+04  0.7818609E-02  0.8885681E-01
       -1   -1    0    0    0  501  0.00000000000E+00  0.00000000000E+00  0.64518534646E+03  0.64518534648E+03  0.50400001928E-02 0.  1.
        1   -1    0    0  501    0  0.00000000000E+00  0.00000000000E+00 -0.86969878425E+03  0.86969878427E+03  0.50400001928E-02 0. -1.
    10030    2    1    2    0    0  0.00000000000E+00  0.00000000000E+00 -0.22451343779E+03  0.15148841307E+04  0.14981547470E+04 0.  0.
        1    1    3    3  502    0  0.36105958296E+03  0.56844221215E+03  0.21947120304E+03  0.70827832100E+03  0.50400001928E-02 0.  1.
       -1    1    3    3    0  502 -0.36105958296E+03 -0.56844221215E+03 -0.44398464083E+03  0.80660580975E+03  0.50400001928E-02 0. -1.
</event>
<event>
 5   0  0.1426929E-04  0.1497760E+04  0.7818609E-02  0.8885944E-01
        1   -1    0    0  501    0  0.00000000000E+00  0.00000000000E+00  0.19897850143E+04  0.19897850143E+04  0.50400001928E-02 0.  1.
       -1   -1    0    0    0  501  0.00000000000E+00  0.00000000000E+00 -0.28185024000E+03  0.28185024005E+03  0.50400001928E-02 0. -1.
    10030    2    1    2    0    0  0.00000000000E+00  0.00000000000E+00  0.17079347743E+04  0.22716352544E+04  0.14977601729E+04 0.  0.
        1    1    3    3  502    0  0.66949343604E+03 -0.20660468635E+03  0.45293474652E+03  0.83430021093E+03  0.50400001928E-02 0. -1.
       -1    1    3    3    0  502 -0.66949343604E+03  0.20660468635E+03  0.12550000278E+04  0.14373350434E+04  0.50400001928E-02 0.  1.
</event>
<event>
 5   0  0.2641347E-04  0.1485668E+04  0.7818609E-02  0.8894040E-01
        2   -1    0    0  501    0  0.00000000000E+00  0.00000000000E+00  0.10561354228E+04  0.10561354228E+04  0.25500000920E-02 0. -1.
       -2   -1    0    0    0  501  0.00000000000E+00  0.00000000000E+00 -0.52247318855E+03  0.52247318855E+03  0.25500000920E-02 0.  1.
    10030    2    1    2    0    0  0.00000000000E+00  0.00000000000E+00  0.53366223425E+03  0.15786086114E+04  0.14856681216E+04 0.  0.
        4    1    3    3  502    0  0.61924866319E+03  0.10830494893E+03 -0.15365461095E+03  0.64715548456E+03  0.12699999809E+01 0.  1.
       -4    1    3    3    0  502 -0.61924866319E+03 -0.10830494893E+03  0.68731684520E+03  0.93145312680E+03  0.12699999809E+01 0. -1.
</event>
<event>
 5   0  0.2641347E-04  0.1501234E+04  0.7818609E-02  0.8883633E-01
       -2   -1    0    0    0  501  0.00000000000E+00  0.00000000000E+00  0.71755278293E+03  0.71755278294E+03  0.25500000920E-02 0.  1.
        2   -1    0    0  501    0  0.00000000000E+00  0.00000000000E+00 -0.78520435087E+03  0.78520435088E+03  0.25500000920E-02 0. -1.
    10030    2    1    2    0    0  0.00000000000E+00  0.00000000000E+00 -0.67651567937E+02  0.15027571338E+04  0.15012335823E+04 0.  0.
        4    1    3    3  502    0  0.69926627534E+03 -0.25321113028E+03  0.67937379065E+02  0.74679736254E+03  0.12699999809E+01 0.  1.
       -4    1    3    3    0  502 -0.69926627534E+03  0.25321113028E+03 -0.13558894700E+03  0.75595977127E+03  0.12699999809E+01 0. -1.
</event>
<event>
 5   0  0.2618901E-04  0.1496915E+04  0.7818609E-02  0.8886507E-01
       -2   -1    0    0    0  501  0.00000000000E+00  0.00000000000E+00  0.64318503173E+03  0.64318503174E+03  0.25500000920E-02 0.  1.
        2   -1    0    0  501    0  0.00000000000E+00  0.00000000000E+00 -0.87096077695E+03  0.87096077696E+03  0.25500000920E-02 0. -1.
    10030    2    1    2    0    0  0.00000000000E+00  0.00000000000E+00 -0.22777574522E+03  0.15141458087E+04  0.14969154084E+04 0.  0.
        1    1    3    3  502    0 -0.30059626008E+03 -0.21774188947E+02  0.57909412809E+03  0.65282634452E+03  0.50400001928E-02 0.  1.
       -1    1    3    3    0  502  0.30059626008E+03  0.21774188947E+02 -0.80686987331E+03  0.86131946417E+03  0.50400001928E-02 0. -1.
</event>
<event>
 5   0  0.2734072E-04  0.1507380E+04  0.7818609E-02  0.8879560E-01
        2   -1    0    0  501    0  0.00000000000E+00  0.00000000000E+00  0.10911000091E+04  0.10911000091E+04  0.25500000920E-02 0. -1.
       -2   -1    0    0    0  501  0.00000000000E+00  0.00000000000E+00 -0.52062040753E+03  0.52062040754E+03  0.25500000920E-02 0.  1.
    10030    2    1    2    0    0  0.00000000000E+00  0.00000000000E+00  0.57047960156E+03  0.16117204166E+04  0.15073804183E+04 0.  0.
        5    1    3    3  502    0  0.25378351036E+02  0.56365401817E+03 -0.24902436323E+03  0.61675370804E+03  0.46999998093E+01 0.  1.
       -5    1    3    3    0  502 -0.25378351036E+02 -0.56365401817E+03  0.81950396479E+03  0.99496670859E+03  0.46999998093E+01 0. -1.
</event>
<event>
 5   0  0.1474203E-04  0.1502455E+04  0.7818609E-02  0.8882822E-01
       -1   -1    0    0    0  501  0.00000000000E+00  0.00000000000E+00  0.66191081207E+03  0.66191081209E+03  0.50400001928E-02 0. -1.
        1   -1    0    0  501    0  0.00000000000E+00  0.00000000000E+00 -0.85259644447E+03  0.85259644448E+03  0.50400001928E-02 0.  1.
    10030    2    1    2    0    0  0.00000000000E+00  0.00000000000E+00 -0.19068563240E+03  0.15145072566E+04  0.15024550642E+04 0.  0.
        3    1    3    3  502    0  0.30609797199E+03 -0.40685029693E+03  0.46146453978E+03  0.68714821127E+03  0.10100000352E+00 0. -1.
       -3    1    3    3    0  502 -0.30609797199E+03  0.40685029693E+03 -0.65215017218E+03  0.82735904531E+03  0.10100000352E+00 0.  1.
</event>
<event>
 5   0  0.1426929E-04  0.1492282E+04  0.7818609E-02  0.8889602E-01
       -1   -1    0    0    0  501  0.00000000000E+00  0.00000000000E+00  0.69852288316E+03  0.69852288317E+03  0.50400001928E-02 0.  1.
        1   -1    0    0  501    0  0.00000000000E+00  0.00000000000E+00 -0.79700498810E+03  0.79700498812E+03  0.50400001928E-02 0. -1.
    10030    2    1    2    0    0  0.00000000000E+00  0.00000000000E+00 -0.98482104947E+02  0.14955278713E+04  0.14922817726E+04 0.  0.
        1    1    3    3  502    0 -0.73119211512E+03 -0.80037988044E+02 -0.17472617528E+03  0.75602726478E+03  0.50400001928E-02 0.  1.
       -1    1    3    3    0  502  0.73119211512E+03  0.80037988044E+02  0.76244070331E+02  0.73950060651E+03  0.50400001928E-02 0. -1.
</event>
<event>
 5   0  0.2696040E-04  0.1514210E+04  0.7818609E-02  0.8875058E-01
       -2   -1    0    0    0  501  0.00000000000E+00  0.00000000000E+00  0.29202797318E+03  0.29202797319E+03  0.25500000920E-02 0. -1.
        2   -1    0    0  501    0  0.00000000000E+00  0.00000000000E+00 -0.19628538491E+04  0.19628538491E+04  0.25500000920E-02 0.  1.
    10030    2    1    2    0    0  0.00000000000E+00  0.00000000000E+00 -0.16708258759E+04  0.22548818222E+04  0.15142103304E+04 0.  0.
        2    1    3    3  502    0 -0.12365997460E+03  0.69013916785E+03 -0.40996394078E+03  0.81219104468E+03  0.25500000920E-02 0. -1.
       -2    1    3    3    0  502  0.12365997460E+03 -0.69013916785E+03 -0.12608619351E+04  0.14426907776E+04  0.25500000920E-02 0.  1.
</event>
<event>
 5   0  0.1484251E-04  0.1498814E+04  0.7818609E-02  0.8885242E-01
        1   -1    0    0  501    0  0.00000000000E+00  0.00000000000E+00  0.86855316062E+03  0.86855316063E+03  0.50400001928E-02 0.  1.
       -1   -1    0    0    0  501  0.00000000000E+00  0.00000000000E+00 -0.64660482046E+03  0.64660482048E+03  0.50400001928E-02 0. -1.
    10030    2    1    2    0    0  0.00000000000E+00  0.00000000000E+00  0.22194834016E+03  0.15151579811E+04  0.14988137449E+04 0.  0.
        5    1    3    3  502    0 -0.33247442496E+03  0.68414753445E+02  0.78636808150E+03  0.85651425636E+03  0.46999998093E+01 0.  1.
       -5    1    3    3    0  502  0.33247442496E+03 -0.68414753445E+02 -0.56441974135E+03  0.65864372476E+03  0.46999998093E+01 0. -1.
</event>
<event>
 5   0  0.1426929E-04  0.1465603E+04  0.7818609E-02  0.8907654E-01
       -1   -1    0    0    0  501  0.00000000000E+00  0.00000000000E+00  0.29246646194E+03  0.29246646198E+03  0.50400001928E-02 0. -1.
        1   -1    0    0  501    0  0.00000000000E+00  0.00000000000E+00 -0.18361012957E+04  0.18361012957E+04  0.50400001928E-02 0.  1.
    10030    2    1    2    0    0  0.00000000000E+00  0.00000000000E+00 -0.15436348338E+04  0.21285677577E+04  0.14656030155E+04 0.  0.
        1    1    3    3  502    0 -0.60321402696E+03 -0.27539507527E+03 -0.12248211169E+04  0.13928016292E+04  0.50400001928E-02 0.  1.
       -1    1    3    3    0  502  0.60321402696E+03  0.27539507527E+03 -0.31881371690E+03  0.73576612855E+03  0.50400001928E-02 0. -1.
</event>
<event>
 5   0  0.1443750E-04  0.1498802E+04  0.7818609E-02  0.8885250E-01
       -1   -1    0    0    0  501  0.00000000000E+00  0.00000000000E+00  0.27399224910E+03  0.27399224914E+03  0.50400001928E-02 0.  1.
        1   -1    0    0  501    0  0.00000000000E+00  0.00000000000E+00 -0.20496990484E+04  0.20496990484E+04  0.50400001928E-02 0. -1.
    10030    2    1    2    0    0  0.00000000000E+00  0.00000000000E+00 -0.17757067993E+04  0.23236912975E+04  0.14988017244E+04 0.  0.
        2    1    3    3  502    0  0.68504791341E+03  0.19613092218E+03 -0.52810276039E+03  0.88693320370E+03  0.25500000920E-02 0. -1.
       -2    1    3    3    0  502 -0.68504791341E+03 -0.19613092218E+03 -0.12476040389E+04  0.14367580938E+04  0.25500000920E-02 0.  1.
</event>
<event>
 5   0  0.2696040E-04  0.1493545E+04  0.7818609E-02  0.8888757E-01
       -2   -1    0    0    0  501  0.00000000000E+00  0.00000000000E+00  0.31023591106E+03  0.31023591107E+03  0.25500000920E-02 0.  1.
        2   -1    0    0  501    0  0.00000000000E+00  0.00000000000E+00 -0.17975636409E+04  0.17975636409E+04  0.25500000920E-02 0. -1.
    10030    2    1    2    0    0  0.00000000000E+00  0.00000000000E+00 -0.14873277299E+04  0.21077995520E+04  0.14935445006E+04 0.  0.
        2    1    3    3  502    0 -0.38919078112E+03  0.13456011009E+03  0.13551855062E+03  0.43352181595E+03  0.25500000920E-02 0.  1.
       -2    1    3    3    0  502  0.38919078112E+03 -0.13456011009E+03 -0.16228462805E+04  0.16742777360E+04  0.25500000920E-02 0. -1.
</event>
<event>
 5   0  0.2646718E-04  0.1482030E+04  0.7818609E-02  0.8896491E-01
        2   -1    0    0  501    0  0.00000000000E+00  0.00000000000E+00  0.10239798070E+04  0.10239798070E+04  0.25500000920E-02 0.  1.
       -2   -1    0    0    0  501  0.00000000000E+00  0.00000000000E+00 -0.53624455493E+03  0.53624455494E+03  0.25500000920E-02 0. -1.
    10030    2    1    2    0    0  0.00000000000E+00  0.00000000000E+00  0.48773525206E+03  0.15602243619E+04  0.14820304934E+04 0.  0.
        3    1    3    3  502    0 -0.37764176153E+01  0.23366525652E+02  0.10235817201E+04  0.10238553627E+04  0.10100000352E+00 0.  1.
       -3    1    3    3    0  502  0.37764176153E+01 -0.23366525652E+02 -0.53584646802E+03  0.53636899924E+03  0.10100000352E+00 0. -1.
</event>
<event>
 5   0  0.1484251E-04  0.1484603E+04  0.7818609E-02  0.8894757E-01
        1   -1    0    0  501    0  0.00000000000E+00  0.00000000000E+00  0.45041688531E+03  0.45041688534E+03  0.50400001928E-02 0. -1.
       -1   -1    0    0    0  501  0.00000000000E+00  0.00000000000E+00 -0.12233361516E+04  0.12233361516E+04  0.50400001928E-02 0.  1.
    10030    2    1    2    0    0  0.00000000000E+00  0.00000000000E+00 -0.77291926630E+03  0.16737530370E+04  0.14846026527E+04 0.  0.
        5    1    3    3  502    0 -0.11886884603E+03  0.68680249755E+03 -0.98668548976E+02  0.70397801510E+03  0.46999998093E+01 0. -1.
       -5    1    3    3    0  502  0.11886884603E+03 -0.68680249755E+03 -0.67425071732E+03  0.96977502185E+03  0.46999998093E+01 0.  1.
</event>
<event>
 5   0  0.1426929E-04  0.1486049E+04  0.7818609E-02  0.8893783E-01
        1   -1    0    0  501    0  0.00000000000E+00  0.00000000000E+00  0.14338982891E+04  0.14338982891E+04  0.50400001928E-02 0. -1.
       -1   -1    0    0    0  501  0.00000000000E+00  0.00000000000E+00 -0.38502434462E+03  0.38502434465E+03  0.50400001928E-02 0.  1.
    10030    2    1    2    0    0  0.00000000000E+00  0.00000000000E+00  0.10488739444E+04  0.18189226337E+04  0.14860494595E+04 0.  0.
        1    1    3    3  502    0 -0.17740134853E+03 -0.38296449110E+03  0.12729326640E+04  0.13410781509E+04  0.50400001928E-02 0. -1.
       -1    1    3    3    0  502  0.17740134853E+03  0.38296449110E+03 -0.22405871953E+03  0.47784448278E+03  0.50400001928E-02 0.  1.
</event>
<event>
 5   0  0.1474203E-04  0.1507385E+04  0.7818609E-02  0.8879557E-01
        1   -1    0    0  501    0  0.00000000000E+00  0.00000000000E+00  0.12015049768E+04  0.12015049768E+04  0.50400001928E-02 0.  1.
       -1   -1    0    0    0  501  0.00000000000E+00  0.00000000000E+00 -0.47278405712E+03  0.47278405715E+03  0.50400001928E-02 0. -1.
    10030    2    1    2    0    0  0.00000000000E+00  0.00000000000E+00  0.72872091963E+03  0.16742890339E+04  0.15073850173E+04 0.  0.
        3    1    3    3  502    0 -0.34365238823E+03  0.54373972236E+03  0.80066805473E+03  0.10270439103E+04  0.10100000352E+00 0. -1.
       -3    1    3    3    0  502  0.34365238823E+03 -0.54373972236E+03 -0.71947135094E+02  0.64724512362E+03  0.10100000352E+00 0.  1.
</event>
<event>
 5   0  0.2734072E-04  0.1499305E+04  0.7818609E-02  0.8884915E-01
       -2   -1    0    0    0  501  0.00000000000E+00  0.00000000000E+00  0.42172294859E+03  0.42172294860E+03  0.25500000920E-02 0. -1.
        2   -1    0    0  501    0  0.00000000000E+00  0.00000000000E+00 -0.13325789251E+04  0.13325789251E+04  0.25500000920E-02 0.  1.
    10030    2    1    2    0    0  0.00000000000E+00  0.00000000000E+00 -0.91085597656E+03  0.17543018737E+04  0.14993053239E+04 0.  0.
        5    1    3    3  502    0  0.51542439319E+03  0.54399333342E+03 -0.43304397454E+03  0.86552887057E+03  0.46999998093E+01 0. -1.
       -5    1    3    3    0  502 -0.51542439319E+03 -0.54399333342E+03 -0.47781200202E+03  0.88877300318E+03  0.46999998093E+01 0.  1.
</event>
<event>
 5   0  0.1004313E-04  0.1494876E+04  0.7818609E-02  0.8887868E-01
        3   -1    0    0  501    0  0.00000000000E+00  0.00000000000E+00  0.14963331056E+04  0.14963331090E+04  0.10100000352E+00 0. -1.
       -3   -1    0    0    0  501  0.00000000000E+00  0.00000000000E+00 -0.37335485628E+03  0.37335486994E+03  0.10100000352E+00 0.  1.
    10030    2    1    2    0    0  0.00000000000E+00  0.00000000000E+00  0.11229782493E+04  0.18696879789E+04  0.14948755768E+04 0.  0.
        4    1    3    3  502    0  0.36008280532E+03  0.30947445640E+03  0.12834847258E+04  0.13684914030E+04  0.12699999809E+01 0. -1.
       -4    1    3    3    0  502 -0.36008280532E+03 -0.30947445640E+03 -0.16050647648E+03  0.50119657595E+03  0.12699999809E+01 0.  1.
</event>
<event>
 5   0  0.2696040E-04  0.1476645E+04  0.7818609E-02  0.8900134E-01
        2   -1    0    0  501    0  0.00000000000E+00  0.00000000000E+00  0.10786537399E+04  0.10786537399E+04  0.25500000920E-02 0. -1.
       -2   -1    0    0    0  501  0.00000000000E+00  0.00000000000E+00 -0.50537088970E+03  0.50537088971E+03  0.25500000920E-02 0.  1.
    10030    2    1    2    0    0  0.00000000000E+00  0.00000000000E+00  0.57328285022E+03  0.15840246296E+04  0.14766451168E+04 0.  0.
        2    1    3    3  502    0  0.18453536561E+03 -0.64187378486E+03  0.62427512998E+03  0.91420713997E+03  0.25500000920E-02 0. -1.
       -2    1    3    3    0  502 -0.18453536561E+03  0.64187378486E+03 -0.50992279760E+02  0.66981748966E+03  0.25500000920E-02 0.  1.
</event>
<event>
 5   0  0.2696040E-04  0.1499231E+04  0.7818609E-02  0.8884964E-01
       -2   -1    0    0    0  501  0.00000000000E+00  0.00000000000E+00  0.55799073576E+03  0.55799073576E+03  0.25500000920E-02 0.  1.
        2   -1    0    0  501    0  0.00000000000E+00  0.00000000000E+00 -0.10070482775E+04  0.10070482775E+04  0.25500000920E-02 0. -1.
    10030    2    1    2    0    0  0.00000000000E+00  0.00000000000E+00 -0.44905754174E+03  0.15650390133E+04  0.14992312821E+04 0.  0.
        2    1    3    3  502    0 -0.58709391635E+03 -0.45344663876E+03 -0.11195025720E+03  0.75021728913E+03  0.25500000920E-02 0.  1.
       -2    1    3    3    0  502  0.58709391635E+03  0.45344663876E+03 -0.33710728454E+03  0.81482172413E+03  0.25500000920E-02 0. -1.
</event>
<event>
 5   0  0.2734072E-04  0.1499786E+04  0.7818609E-02  0.8884595E-01
       -2   -1    0    0    0  501  0.00000000000E+00  0.00000000000E+00  0.21452541367E+03  0.21452541368E+03  0.25500000920E-02 0. -1.
        2   -1    0    0  501    0  0.00000000000E+00  0.00000000000E+00 -0.26213200296E+04  0.26213200296E+04  0.25500000920E-02 0.  1.
    10030    2    1    2    0    0  0.00000000000E+00  0.00000000000E+00 -0.24067946159E+04  0.28358454432E+04  0.14997863364E+04 0.  0.
        5    1    3    3  502    0  0.71953933176E+03  0.39104882466E+02 -0.15957241064E+04  0.17508922170E+04  0.46999998093E+01 0. -1.
       -5    1    3    3    0  502 -0.71953933176E+03 -0.39104882466E+02 -0.81107050950E+03  0.10849532263E+04  0.46999998093E+01 0.  1.
</event>
<event>
 5   0  0.2618901E-04  0.1499083E+04  0.7818609E-02  0.8885063E-01
       -2   -1    0    0    0  501  0.00000000000E+00  0.00000000000E+00  0.32474751210E+03  0.32474751211E+03  0.25500000920E-02 0. -1.
        2   -1    0    0  501    0  0.00000000000E+00  0.00000000000E+00 -0.17299974139E+04  0.17299974139E+04  0.25500000920E-02 0.  1.
    10030    2    1    2    0    0  0.00000000000E+00  0.00000000000E+00 -0.14052499018E+04  0.20547449260E+04  0.14990828611E+04 0.  0.
        1    1    3    3  502    0  0.34192323166E+03 -0.29764499808E+02  0.21071208060E+03  0.40273689020E+03  0.50400001928E-02 0. -1.
       -1    1    3    3    0  502 -0.34192323166E+03  0.29764499808E+02 -0.16159619824E+04  0.16520080358E+04  0.50400001928E-02 0.  1.
</event>
<event>
 5   0  0.2696040E-04  0.1499105E+04  0.7818609E-02  0.8885049E-01
        2   -1    0    0  501    0  0.00000000000E+00  0.00000000000E+00  0.95566579878E+03  0.95566579878E+03  0.25500000920E-02 0.  1.
       -2   -1    0    0    0  501  0.00000000000E+00  0.00000000000E+00 -0.58789242813E+03  0.58789242813E+03  0.25500000920E-02 0. -1.
    10030    2    1    2    0    0  0.00000000000E+00  0.00000000000E+00  0.36777337065E+03  0.15435582269E+04  0.14991046487E+04 0.  0.
        2    1    3    3  502    0  0.32868224497E+03 -0.64660230737E+02 -0.50653084677E+03  0.60727791194E+03  0.25500000920E-02 0. -1.
       -2    1    3    3    0  502 -0.32868224497E+03  0.64660230737E+02  0.87430421742E+03  0.93628031497E+03  0.25500000920E-02 0.  1.
</event>
<event>
 5   0  0.2618901E-04  0.1555462E+04  0.7818609E-02  0.8848387E-01
        2   -1    0    0  501    0  0.00000000000E+00  0.00000000000E+00  0.12048085185E+04  0.12048085185E+04  0.25500000920E-02 0.  1.
       -2   -1    0    0    0  501  0.00000000000E+00  0.00000000000E+00 -0.50204256311E+03  0.50204256311E+03  0.25500000920E-02 0. -1.
    10030    2    1    2    0    0  0.00000000000E+00  0.00000000000E+00  0.70276595541E+03  0.17068510816E+04  0.15554615478E+04 0.  0.
        1    1    3    3  502    0  0.57619525499E+03 -0.26283867967E+03 -0.14397270011E+03  0.64947154042E+03  0.50400001928E-02 0. -1.
       -1    1    3    3    0  502 -0.57619525499E+03  0.26283867967E+03  0.84673865552E+03  0.10573795412E+04  0.50400001928E-02 0.  1.
</event>
<event>
 5   0  0.1427609E-04  0.1502955E+04  0.7818609E-02  0.8882490E-01
        1   -1    0    0  501    0  0.00000000000E+00  0.00000000000E+00  0.19113151665E+04  0.19113151665E+04  0.50400001928E-02 0. -1.
       -1   -1    0    0    0  501  0.00000000000E+00  0.00000000000E+00 -0.29546076647E+03  0.29546076651E+03  0.50400001928E-02 0.  1.
    10030    2    1    2    0    0  0.00000000000E+00  0.00000000000E+00  0.16158544000E+04  0.22067759330E+04  0.15029552809E+04 0.  0.
        4    1    3    3  502    0  0.25428119820E+03 -0.14930230413E+03  0.18228201154E+04  0.18465169622E+04  0.12699999809E+01 0. -1.
       -4    1    3    3    0  502 -0.25428119820E+03  0.14930230413E+03 -0.20696571539E+03  0.36025897077E+03  0.12699999809E+01 0.  1.
</event>
<event>
 5   0  0.1427609E-04  0.1495717E+04  0.7818609E-02  0.8887306E-01
       -1   -1    0    0    0  501  0.00000000000E+00  0.00000000000E+00  0.46725357077E+03  0.46725357080E+03  0.50400001928E-02 0.  1.
        1   -1    0    0  501    0  0.00000000000E+00  0.00000000000E+00 -0.11969782840E+04  0.11969782841E+04  0.50400001928E-02 0. -1.
    10030    2    1    2    0    0  0.00000000000E+00  0.00000000000E+00 -0.72972471327E+03  0.16642318548E+04  0.14957170553E+04 0.  0.
        4    1    3    3  502    0 -0.62025605448E+03 -0.12080782468E+03  0.80173919778E+02  0.63697847211E+03  0.12699999809E+01 0.  1.
       -4    1    3    3    0  502  0.62025605448E+03  0.12080782468E+03 -0.80989863305E+03  0.10272533827E+04  0.12699999809E+01 0. -1.
</event>
<event>
 5   0  0.1427609E-04  0.1506246E+04  0.7818609E-02  0.8880310E-01
       -1   -1    0    0    0  501  0.00000000000E+00  0.00000000000E+00  0.10534980409E+04  0.10534980409E+04  0.50400001928E-02 0.  1.
        1   -1    0    0  501    0  0.00000000000E+00  0.00000000000E+00 -0.53839121698E+03  0.53839121700E+03  0.50400001928E-02 0. -1.
    10030    2    1    2    0    0  0.00000000000E+00  0.00000000000E+00  0.51510682389E+03  0.15918892579E+04  0.15062457865E+04 0.  0.
        4    1    3    3  502    0  0.48619657113E+03 -0.16074156243E+03  0.84119173882E+03  0.98479952784E+03  0.12699999809E+01 0.  1.
       -4    1    3    3    0  502 -0.48619657113E+03  0.16074156243E+03 -0.32608491493E+03  0.60708973004E+03  0.12699999809E+01 0. -1.
</event>
<event>
 5   0  0.2641347E-04  0.1499545E+04  0.7818609E-02  0.8884755E-01
        2   -1    0    0  501    0  0.00000000000E+00  0.00000000000E+00  0.83255445037E+03  0.83255445037E+03  0.25500000920E-02 0.  1.
       -2   -1    0    0    0  501  0.00000000000E+00  0.00000000000E+00 -0.67522203756E+03  0.67522203756E+03  0.25500000920E-02 0. -1.
    10030    2    1    2    0    0  0.00000000000E+00  0.00000000000E+00  0.15733241281E+03  0.15077764879E+04  0.14995454143E+04 0.  0.
        4    1    3    3  502    0 -0.63865369636E+03 -0.32892066688E+03  0.29453079607E+03  0.77641313211E+03  0.12699999809E+01 0.  1.
       -4    1    3    3    0  502  0.63865369636E+03  0.32892066688E+03 -0.13719838326E+03  0.73136335583E+03  0.12699999809E+01 0. -1.
</event>
<event>
 5   0  0.1484251E-04  0.1483933E+04  0.7818609E-02  0.8895208E-01
       -1   -1    0    0    0  501  0.00000000000E+00  0.00000000000E+00  0.40918889641E+03  0.40918889644E+03  0.50400001928E-02 0.  1.
        1   -1    0    0  501    0  0.00000000000E+00  0.00000000000E+00 -0.13453789957E+04  0.13453789957E+04  0.50400001928E-02 0. -1.
    10030    2    1    2    0    0  0.00000000000E+00  0.00000000000E+00 -0.93619009928E+03  0.17545678921E+04  0.14839328105E+04 0.  0.
        5    1    3    3  502    0  0.15309637915E+03 -0.57994677523E+03 -0.98445042225E+03  0.11527972447E+04  0.46999998093E+01 0. -1.
       -5    1    3    3    0  502 -0.15309637915E+03  0.57994677523E+03  0.48260322964E+02  0.60177064749E+03  0.46999998093E+01 0.  1.
</event>
<event>
 5   0  0.1443750E-04  0.1497914E+04  0.7818609E-02  0.8885842E-01
        1   -1    0    0  501    0  0.00000000000E+00  0.00000000000E+00  0.73077044887E+03  0.73077044889E+03  0.50400001928E-02 0. -1.
       -1   -1    0    0    0  501  0.00000000000E+00  0.00000000000E+00 -0.76759570185E+03  0.76759570186E+03  0.50400001928E-02 0.  1.
    10030    2    1    2    0    0  0.00000000000E+00  0.00000000000E+00 -0.36825252977E+02  0.14983661507E+04  0.14979135564E+04 0.  0.
        2    1    3    3  502    0  0.59747320521E+03 -0.41722558662E+03  0.15451191385E+03  0.74493311955E+03  0.25500000920E-02 0. -1.
       -2    1    3    3    0  502 -0.59747320521E+03  0.41722558662E+03 -0.19133716683E+03  0.75343303119E+03  0.25500000920E-02 0.  1.
</event>
<event>
 5   0  0.1427609E-04  0.1502324E+04  0.7818609E-02  0.8882909E-01
       -1   -1    0    0    0  501  0.00000000000E+00  0.00000000000E+00  0.26966002158E+03  0.26966002163E+03  0.50400001928E-02 0.  1.
        1   -1    0    0  501    0  0.00000000000E+00  0.00000000000E+00 -0.20924299935E+04  0.20924299935E+04  0.50400001928E-02 0. -1.
    10030    2    1    2    0    0  0.00000000000E+00  0.00000000000E+00 -0.18227699719E+04  0.23620900151E+04  0.15023244886E+04 0.  0.
        4    1    3    3  502    0  0.23721484035E+03  0.26690824066E+03 -0.19504442323E+04  0.19828628812E+04  0.12699999809E+01 0. -1.
       -4    1    3    3    0  502 -0.23721484035E+03 -0.26690824066E+03  0.12767426042E+03  0.37922713390E+03  0.12699999809E+01 0.  1.
</event>
<event>
 5   0  0.1427609E-04  0.1449393E+04  0.7818609E-02  0.8918821E-01
       -1   -1    0    0    0  501  0.00000000000E+00  0.00000000000E+00  0.11242493529E+04  0.11242493529E+04  0.50400001928E-02 0. -1.
        1   -1    0    0  501    0  0.00000000000E+00  0.00000000000E+00 -0.46714288486E+03  0.46714288489E+03  0.50400001928E-02 0.  1.
    10030    2    1    2    0    0  0.00000000000E+00  0.00000000000E+00  0.65710646802E+03  0.15913922378E+04  0.14493930951E+04 0.  0.
        4    1    3    3  502    0 -0.54341569245E+03  0.36138999060E+03  0.67451031381E+03  0.93854627826E+03  0.12699999809E+01 0.  1.
       -4    1    3    3    0  502  0.54341569245E+03 -0.36138999060E+03 -0.17403845792E+02  0.65284595952E+03  0.12699999809E+01 0. -1.
</event>
<event>
 5   0  0.2646718E-04  0.1499713E+04  0.7818609E-02  0.8884644E-01
       -2   -1    0    0    0  501  0.00000000000E+00  0.00000000000E+00  0.76903955911E+03  0.76903955912E+03  0.25500000920E-02 0. -1.
        2   -1    0    0  501    0  0.00000000000E+00  0.00000000000E+00 -0.73115228859E+03  0.73115228860E+03  0.25500000920E-02 0.  1.
    10030    2    1    2    0    0  0.00000000000E+00  0.00000000000E+00  0.37887270518E+02  0.15001918477E+04  0.14997133508E+04 0.  0.
        3    1    3    3  502    0 -0.77523791530E+02  0.61659052694E+03  0.43870975128E+03  0.76069709625E+03  0.10100000352E+00 0. -1.
       -3    1    3    3    0  502  0.77523791530E+02 -0.61659052694E+03 -0.40082248076E+03  0.73949475147E+03  0.10100000352E+00 0.  1.
</event>
<event>
 5   0  0.1443750E-04  0.1499407E+04  0.7818609E-02  0.8884847E-01
        1   -1    0    0  501    0  0.00000000000E+00  0.00000000000E+00  0.15047132940E+04  0.15047132940E+04  0.50400001928E-02 0. -1.
       -1   -1    0    0    0  501  0.00000000000E+00  0.00000000000E+00 -0.37352997793E+03  0.37352997796E+03  0.50400001928E-02 0.  1.
    10030    2    1    2    0    0  0.00000000000E+00  0.00000000000E+00  0.11311833161E+04  0.18782432720E+04  0.14994072476E+04 0.  0.
        2    1    3    3  502    0 -0.60254339368E+03 -0.21677512638E+03  0.10539762181E+04  0.12332541770E+04  0.25500000920E-02 0. -1.
       -2    1    3    3    0  502  0.60254339368E+03  0.21677512638E+03  0.77207097970E+02  0.64498909500E+03  0.25500000920E-02 0.  1.
</event>
<event>
 5   0  0.2646718E-04  0.1470602E+04  0.7818609E-02  0.8904241E-01
       -2   -1    0    0    0  501  0.00000000000E+00  0.00000000000E+00  0.72432079102E+03  0.72432079103E+03  0.25500000920E-02 0.  1.
        2   -1    0    0  501    0  0.00000000000E+00  0.00000000000E+00 -0.74644755964E+03  0.74644755965E+03  0.25500000920E-02 0. -1.
    10030    2    1    2    0    0  0.00000000000E+00  0.00000000000E+00 -0.22126768619E+02  0.14707683507E+04  0.14706018997E+04 0.  0.
        3    1    3    3  502    0 -0.43888026450E+03  0.49063791911E+03 -0.33870697013E+03  0.74031336341E+03  0.10100000352E+00 0. -1.
       -3    1    3    3    0  502  0.43888026450E+03 -0.49063791911E+03  0.31658020151E+03  0.73045498726E+03  0.10100000352E+00 0.  1.
</event>
<event>
 5   0  0.1484251E-04  0.1532478E+04  0.7818609E-02  0.8863138E-01
        1   -1    0    0  501    0  0.00000000000E+00  0.00000000000E+00  0.10483386484E+04  0.10483386485E+04  0.50400001928E-02 0.  1.
       -1   -1    0    0    0  501  0.00000000000E+00  0.00000000000E+00 -0.56005038399E+03  0.56005038401E+03  0.50400001928E-02 0. -1.
    10030    2    1    2    0    0  0.00000000000E+00  0.00000000000E+00  0.48828826445E+03  0.16083890325E+04  0.15324783361E+04 0.  0.
        5    1    3    3  502    0 -0.46180607485E+03 -0.44752967567E+03 -0.19308839238E+03  0.67145579053E+03  0.46999998093E+01 0. -1.
       -5    1    3    3    0  502  0.46180607485E+03  0.44752967567E+03  0.68137665682E+03  0.93693324193E+03  0.46999998093E+01 0.  1.
</event>
<event>
 5   0  0.2646718E-04  0.1500494E+04  0.7818609E-02  0.8884125E-01
        2   -1    0    0  501    0  0.00000000000E+00  0.00000000000E+00  0.19238587677E+04  0.19238587677E+04  0.25500000920E-02 0. -1.
       -2   -1    0    0    0  501  0.00000000000E+00  0.00000000000E+00 -0.29257359496E+03  0.29257359497E+03  0.25500000920E-02 0.  1.
    10030    2    1    2    0    0  0.00000000000E+00  0.00000000000E+00  0.16312851727E+04  0.22164323626E+04  0.15004936199E+04 0.  0.
        3    1    3    3  502    0  0.46696648690E+03  0.26343612051E+03  0.40443383897E+02  0.53767273222E+03  0.10100000352E+00 0.  1.
       -3    1    3    3    0  502 -0.46696648690E+03 -0.26343612051E+03  0.15908417888E+04  0.16787596304E+04  0.10100000352E+00 0. -1.
</event>
<event>
 5   0  0.1474203E-04  0.1504900E+04  0.7818609E-02  0.8881201E-01
        1   -1    0    0  501    0  0.00000000000E+00  0.00000000000E+00  0.18410013134E+04  0.18410013134E+04  0.50400001928E-02 0.  1.
       -1   -1    0    0    0  501  0.00000000000E+00  0.00000000000E+00 -0.30753989072E+03  0.30753989076E+03  0.50400001928E-02 0. -1.
    10030    2    1    2    0    0  0.00000000000E+00  0.00000000000E+00  0.15334614227E+04  0.21485412041E+04  0.15049004522E+04 0.  0.
        3    1    3    3  502    0 -0.56918549693E+03  0.22378882207E+03  0.14093730858E+03  0.62762799647E+03  0.10100000352E+00 0. -1.
       -3    1    3    3    0  502  0.56918549693E+03 -0.22378882207E+03  0.13925241141E+04  0.15209132077E+04  0.10100000352E+00 0.  1.
</event>
<event>
 5   0  0.1484251E-04  0.1502883E+04  0.7818609E-02  0.8882538E-01
       -1   -1    0    0    0  501  0.00000000000E+00  0.00000000000E+00  0.41531533194E+03  0.41531533197E+03  0.50400001928E-02 0.  1.
        1   -1    0    0  501    0  0.00000000000E+00  0.00000000000E+00 -0.13596044810E+04  0.13596044810E+04  0.50400001928E-02 0. -1.
    10030    2    1    2    0    0  0.00000000000E+00  0.00000000000E+00 -0.94428914903E+03  0.17749198129E+04  0.15028833439E+04 0.  0.
        5    1    3    3  502    0  0.68928025752E+03  0.27398239515E+03 -0.33008491321E+03  0.81188162079E+03  0.46999998093E+01 0.  1.
       -5    1    3    3    0  502 -0.68928025752E+03 -0.27398239515E+03 -0.61420423582E+03  0.96303819216E+03  0.46999998093E+01 0. -1.
</event>
<event>
 5   0  0.2734072E-04  0.1512609E+04  0.7818609E-02  0.8876111E-01
        2   -1    0    0  501    0  0.00000000000E+00  0.00000000000E+00  0.80252269973E+03  0.80252269973E+03  0.25500000920E-02 0.  1.
       -2   -1    0    0    0  501  0.00000000000E+00  0.00000000000E+00 -0.71274813964E+03  0.71274813964E+03  0.25500000920E-02 0. -1.
    10030    2    1    2    0    0  0.00000000000E+00  0.00000000000E+00  0.89774560089E+02  0.15152708394E+04  0.15126090853E+04 0.  0.
        5    1    3    3  502    0 -0.26632782285E+03 -0.20785040346E+03 -0.63294376740E+03  0.71747627287E+03  0.46999998093E+01 0. -1.
       -5    1    3    3    0  502  0.26632782285E+03  0.20785040346E+03  0.72271832749E+03  0.79779456650E+03  0.46999998093E+01 0.  1.
</event>
<event>
 5   0  0.1426929E-04  0.1478043E+04  0.7818609E-02  0.8899187E-01
       -1   -1    0    0    0  501  0.00000000000E+00  0.00000000000E+00  0.72243944152E+03  0.72243944154E+03  0.50400001928E-02 0.  1.
        1   -1    0    0  501    0  0.00000000000E+00  0.00000000000E+00 -0.75598387007E+03  0.75598387009E+03  0.50400001928E-02 0. -1.
    10030    2    1    2    0    0  0.00000000000E+00  0.00000000000E+00 -0.33544428556E+02  0.14784233116E+04  0.14780427124E+04 0.  0.
        1    1    3    3  502    0  0.33593306409E+03  0.48974746274E+03  0.42316937727E+03  0.72922967760E+03  0.50400001928E-02 0.  1.
       -1    1    3    3    0  502 -0.33593306409E+03 -0.48974746274E+03 -0.45671380582E+03  0.74919363403E+03  0.50400001928E-02 0. -1.
</event>
<event>
 5   0  0.1443750E-04  0.1499867E+04  0.7818609E-02  0.8884542E-01
        1   -1    0    0  501    0  0.00000000000E+00  0.00000000000E+00  0.11504770662E+04  0.11504770662E+04  0.50400001928E-02 0. -1.
       -1   -1    0    0    0  501  0.00000000000E+00  0.00000000000E+00 -0.48884074830E+03  0.48884074833E+03  0.50400001928E-02 0.  1.
    10030    2    1    2    0    0  0.00000000000E+00  0.00000000000E+00  0.66163631791E+03  0.16393178146E+04  0.14998667541E+04 0.  0.
        2    1    3    3  502    0 -0.34480451780E+03 -0.44577769886E+03 -0.20994765655E+03  0.60140330129E+03  0.25500000920E-02 0.  1.
       -2    1    3    3    0  502  0.34480451780E+03  0.44577769886E+03  0.87158397446E+03  0.10379145133E+04  0.25500000920E-02 0. -1.
</event>
<event>
 5   0  0.2696040E-04  0.1479168E+04  0.7818609E-02  0.8898426E-01
       -2   -1    0    0    0  501  0.00000000000E+00  0.00000000000E+00  0.51076734835E+03  0.51076734836E+03  0.25500000920E-02 0.  1.
        2   -1    0    0  501    0  0.00000000000E+00  0.00000000000E+00 -0.10709069428E+04  0.10709069428E+04  0.25500000920E-02 0. -1.
    10030    2    1    2    0    0  0.00000000000E+00  0.00000000000E+00 -0.56013959443E+03  0.15816742911E+04  0.14791677383E+04 0.  0.
        2    1    3    3  502    0  0.46538139163E+03 -0.15242182700E+03  0.31256954025E+03  0.58095780443E+03  0.25500000920E-02 0.  1.
       -2    1    3    3    0  502 -0.46538139163E+03  0.15242182700E+03 -0.87270913468E+03  0.10007164867E+04  0.25500000920E-02 0. -1.
</event>
<event>
 5   0  0.2696040E-04  0.1497400E+04  0.7818609E-02  0.8886184E-01
        2   -1    0    0  501    0  0.00000000000E+00  0.00000000000E+00  0.15730572573E+04  0.15730572573E+04  0.25500000920E-02 0. -1.
       -2   -1    0    0    0  501  0.00000000000E+00  0.00000000000E+00 -0.35634522663E+03  0.35634522664E+03  0.25500000920E-02 0.  1.
    10030    2    1    2    0    0  0.00000000000E+00  0.00000000000E+00  0.12167120307E+04  0.19294024839E+04  0.14973996726E+04 0.  0.
        2    1    3    3  502    0 -0.57681167637E+03 -0.90369024517E+02  0.44440807424E+01  0.58386472787E+03  0.25500000920E-02 0. -1.
       -2    1    3    3    0  502  0.57681167637E+03  0.90369024517E+02  0.12122679499E+04  0.13455377561E+04  0.25500000920E-02 0.  1.
</event>
<event>
 5   0  0.2641347E-04  0.1534250E+04  0.7818609E-02  0.8861991E-01
       -2   -1    0    0    0  501  0.00000000000E+00  0.00000000000E+00  0.26348403532E+03  0.26348403534E+03  0.25500000920E-02 0. -1.
        2   -1    0    0  501    0  0.00000000000E+00  0.00000000000E+00 -0.22334583440E+04  0.22334583440E+04  0.25500000920E-02 0.  1.
    10030    2    1    2    0    0  0.00000000000E+00  0.00000000000E+00 -0.19699743087E+04  0.24969423794E+04  0.15342498066E+04 0.  0.
        4    1    3    3  502    0 -0.62835217394E+03  0.42597199207E+03 -0.11647498981E+04  0.13902958428E+04  0.12699999809E+01 0.  1.
       -4    1    3    3    0  502  0.62835217394E+03 -0.42597199207E+03 -0.80522441060E+03  0.11066465365E+04  0.12699999809E+01 0. -1.
</event>
<event>
 5   0  0.2618901E-04  0.1514813E+04  0.7818609E-02  0.8874662E-01
        2   -1    0    0  501    0  0.00000000000E+00  0.00000000000E+00  0.18566810097E+04  0.18566810097E+04  0.25500000920E-02 0.  1.
       -2   -1    0    0    0  501  0.00000000000E+00  0.00000000000E+00 -0.30897333573E+03  0.30897333574E+03  0.25500000920E-02 0. -1.
    10030    2    1    2    0    0  0.00000000000E+00  0.00000000000E+00  0.15477076740E+04  0.21656543455E+04  0.15148134208E+04 0.  0.
        1    1    3    3  502    0 -0.63258411863E+03 -0.97816862712E+02  0.19500565616E+03  0.66914722725E+03  0.50400001928E-02 0.  1.
       -1    1    3    3    0  502  0.63258411863E+03  0.97816862712E+02  0.13527020178E+04  0.14965071182E+04  0.50400001928E-02 0. -1.
</event>
<event>
 5   0  0.1004313E-04  0.1494436E+04  0.7818609E-02  0.8888161E-01
        4   -1    0    0  501    0  0.00000000000E+00  0.00000000000E+00  0.84164780401E+03  0.84164876219E+03  0.12699999809E+01 0. -1.
       -4   -1    0    0    0  501  0.00000000000E+00  0.00000000000E+00 -0.66338120347E+03  0.66338241914E+03  0.12699999809E+01 0.  1.
    10030    2    1    2    0    0  0.00000000000E+00  0.00000000000E+00  0.17826660054E+03  0.15050311813E+04  0.14944363071E+04 0.  0.
        2    1    3    3  502    0  0.19438721933E+03 -0.22933119562E+03  0.77805600168E+03  0.83411649670E+03  0.25500000920E-02 0. -1.
       -2    1    3    3    0  502 -0.19438721933E+03  0.22933119562E+03 -0.59978940113E+03  0.67091468462E+03  0.25500000920E-02 0.  1.
</event>
<event>
 5   0  0.2641347E-04  0.1486158E+04  0.7818609E-02  0.8893710E-01
       -2   -1    0    0    0  501  0.00000000000E+00  0.00000000000E+00  0.32927626786E+03  0.32927626787E+03  0.25500000920E-02 0. -1.
        2   -1    0    0  501    0  0.00000000000E+00  0.00000000000E+00 -0.16769099953E+04  0.16769099953E+04  0.25500000920E-02 0.  1.
    10030    2    1    2    0    0  0.00000000000E+00  0.00000000000E+00 -0.13476337274E+04  0.20061862631E+04  0.14861583560E+04 0.  0.
        4    1    3    3  502    0  0.45550554067E+03  0.58199784208E+03 -0.56961724904E+03  0.93309817762E+03  0.12699999809E+01 0. -1.
       -4    1    3    3    0  502 -0.45550554067E+03 -0.58199784208E+03 -0.77801647835E+03  0.10730880855E+04  0.12699999809E+01 0.  1.
</event>
<event>
 5   0  0.2618901E-04  0.1501049E+04  0.7818609E-02  0.8883755E-01
        2   -1    0    0  501    0  0.00000000000E+00  0.00000000000E+00  0.40095352240E+03  0.40095352241E+03  0.25500000920E-02 0. -1.
       -2   -1    0    0    0  501  0.00000000000E+00  0.00000000000E+00 -0.14048691418E+04  0.14048691418E+04  0.25500000920E-02 0.  1.
    10030    2    1    2    0    0  0.00000000000E+00  0.00000000000E+00 -0.10039156194E+04  0.18058226642E+04  0.15010492742E+04 0.  0.
        1    1    3    3  502    0 -0.34505062701E+03  0.55849765906E+03 -0.64362512877E+02  0.65963785782E+03  0.50400001928E-02 0. -1.
       -1    1    3    3    0  502  0.34505062701E+03 -0.55849765906E+03 -0.93955310648E+03  0.11461848063E+04  0.50400001928E-02 0.  1.
</event>
<event>
 5   0  0.1004313E-04  0.1478661E+04  0.7818609E-02  0.8898768E-01
        3   -1    0    0  501    0  0.00000000000E+00  0.00000000000E+00  0.12219727721E+04  0.12219727763E+04  0.10100000352E+00 0.  1.
       -3   -1    0    0    0  501  0.00000000000E+00  0.00000000000E+00 -0.44731752237E+03  0.44731753378E+03  0.10100000352E+00 0. -1.
    10030    2    1    2    0    0  0.00000000000E+00  0.00000000000E+00  0.77465524974E+03  0.16692903101E+04  0.14786613484E+04 0.  0.
        4    1    3    3  502    0  0.46585817110E+03 -0.20816044685E+03  0.99133000463E+03  0.11149400873E+04  0.12699999809E+01 0.  1.
       -4    1    3    3    0  502 -0.46585817110E+03  0.20816044685E+03 -0.21667475488E+03  0.55435022280E+03  0.12699999809E+01 0. -1.
</event>
<event>
 5   0  0.1004313E-04  0.1503001E+04  0.7818609E-02  0.8882459E-01
        3   -1    0    0  501    0  0.00000000000E+00  0.00000000000E+00  0.22721423164E+04  0.22721423186E+04  0.10100000352E+00 0.  1.
       -3   -1    0    0    0  501  0.00000000000E+00  0.00000000000E+00 -0.24855542714E+03  0.24855544766E+03  0.10100000352E+00 0. -1.
    10030    2    1    2    0    0  0.00000000000E+00  0.00000000000E+00  0.20235868892E+04  0.25206977663E+04  0.15030014407E+04 0.  0.
        4    1    3    3  502    0 -0.19060722937E+03  0.19846754252E+02  0.22304724392E+04  0.22386902252E+04  0.12699999809E+01 0.  1.
       -4    1    3    3    0  502  0.19060722937E+03 -0.19846754252E+02 -0.20688554996E+03  0.28200754108E+03  0.12699999809E+01 0. -1.
</event>
<event>
 5   0  0.1474203E-04  0.1509115E+04  0.7818609E-02  0.8878414E-01
       -1   -1    0    0    0  501  0.00000000000E+00  0.00000000000E+00  0.19638374840E+04  0.19638374840E+04  0.50400001928E-02 0.  1.
        1   -1    0    0  501    0  0.00000000000E+00  0.00000000000E+00 -0.28992062002E+03  0.28992062006E+03  0.50400001928E-02 0. -1.
    10030    2    1    2    0    0  0.00000000000E+00  0.00000000000E+00  0.16739168639E+04  0.22537581040E+04  0.15091149473E+04 0.  0.
        3    1    3    3  502    0  0.13679096563E+02 -0.50663154158E+03  0.16718038242E+04  0.17469375127E+04  0.10100000352E+00 0.  1.
       -3    1    3    3    0  502 -0.13679096563E+02  0.50663154158E+03  0.21130397282E+01  0.50682059128E+03  0.10100000352E+00 0. -1.
</event>
<event>
 5   0  0.2734072E-04  0.1499259E+04  0.7818609E-02  0.8884946E-01
       -2   -1    0    0    0  501  0.00000000000E+00  0.00000000000E+00  0.57797690072E+03  0.57797690072E+03  0.25500000920E-02 0. -1.
        2   -1    0    0  501    0  0.00000000000E+00  0.00000000000E+00 -0.97226134795E+03  0.97226134796E+03  0.25500000920E-02 0.  1.
    10030    2    1    2    0    0  0.00000000000E+00  0.00000000000E+00 -0.39428444724E+03  0.15502382487E+04  0.14992592846E+04 0.  0.
        5    1    3    3  502    0  0.59372863988E+03 -0.21472766863E+03  0.22070345184E+03  0.66884510400E+03  0.46999998093E+01 0.  1.
       -5    1    3    3    0  502 -0.59372863988E+03  0.21472766863E+03 -0.61498789908E+03  0.88139314469E+03  0.46999998093E+01 0. -1.
</event>
<event>
 5   0  0.1427609E-04  0.1513539E+04  0.7818609E-02  0.8875499E-01
        1   -1    0    0  501    0  0.00000000000E+00  0.00000000000E+00  0.18884737312E+04  0.18884737312E+04  0.50400001928E-02 0. -1.
       -1   -1    0    0    0  501  0.00000000000E+00  0.00000000000E+00 -0.30326099611E+03  0.30326099615E+03  0.50400001928E-02 0.  1.
    10030    2    1    2    0    0  0.00000000000E+00  0.00000000000E+00  0.15852127350E+04  0.21917347273E+04  0.15135394608E+04 0.  0.
        4    1    3    3  502    0  0.13842408787E+03 -0.23199179752E+03  0.18162681086E+04  0.18362496773E+04  0.12699999809E+01 0. -1.
       -4    1    3    3    0  502 -0.13842408787E+03  0.23199179752E+03 -0.23105537355E+03  0.35548504999E+03  0.12699999809E+01 0.  1.
</event>
<event>
 5   0  0.2618901E-04  0.1527107E+04  0.7818609E-02  0.8866624E-01
        2   -1    0    0  501    0  0.00000000000E+00  0.00000000000E+00  0.76620064763E+03  0.76620064764E+03  0.25500000920E-02 0. -1.
       -2   -1    0    0    0  501  0.00000000000E+00  0.00000000000E+00 -0.76091594259E+03  0.76091594260E+03  0.25500000920E-02 0.  1.
    10030    2    1    2    0    0  0.00000000000E+00  0.00000000000E+00  0.52847050406E+01  0.15271165902E+04  0.15271074461E+04 0.  0.
        1    1    3    3  502    0 -0.22675232067E+03  0.71756180431E+03 -0.12659746365E+03  0.76311105074E+03  0.50400001928E-02 0. -1.
       -1    1    3    3    0  502  0.22675232067E+03 -0.71756180431E+03  0.13188216869E+03  0.76400553950E+03  0.50400001928E-02 0.  1.
</event>
<event>
 5   0  0.1004313E-04  0.1469124E+04  0.7818609E-02  0.8905249E-01
       -3   -1    0    0    0  501  0.00000000000E+00  0.00000000000E+00  0.10565158135E+04  0.10565158184E+04  0.10100000352E+00 0. -1.
        3   -1    0    0  501    0  0.00000000000E+00  0.00000000000E+00 -0.51071744967E+03  0.51071745966E+03  0.10100000352E+00 0.  1.
    10030    2    1    2    0    0  0.00000000000E+00  0.00000000000E+00  0.54579836386E+03  0.15672332780E+04  0.14691236482E+04 0.  0.
        5    1    3    3  502    0  0.21500491478E+03 -0.25436585109E+03  0.97131894246E+03  0.10268454984E+04  0.46999998093E+01 0. -1.
       -5    1    3    3    0  502 -0.21500491478E+03  0.25436585109E+03 -0.42552057859E+03  0.54038777964E+03  0.46999998093E+01 0.  1.
</event>
<event>
 5   0  0.2696040E-04  0.1497753E+04  0.7818609E-02  0.8885948E-01
        2   -1    0    0  501    0  0.00000000000E+00  0.00000000000E+00  0.14742563885E+04  0.14742563885E+04  0.25500000920E-02 0.  1.
       -2   -1    0    0    0  501  0.00000000000E+00  0.00000000000E+00 -0.38040625183E+03  0.38040625183E+03  0.25500000920E-02 0. -1.
    10030    2    1    2    0    0  0.00000000000E+00  0.00000000000E+00  0.10938501367E+04  0.18546626403E+04  0.14977534470E+04 0.  0.
        2    1    3    3  502    0  0.19092619516E+03 -0.40263863888E+03 -0.19836647323E+03  0.48777037961E+03  0.25500000920E-02 0. -1.
       -2    1    3    3    0  502 -0.19092619516E+03  0.40263863888E+03  0.12922166099E+04  0.13668922607E+04  0.25500000920E-02 0.  1.
</event>
<event>
 5   0  0.1484251E-04  0.1496765E+04  0.7818609E-02  0.8886607E-01
        1   -1    0    0  501    0  0.00000000000E+00  0.00000000000E+00  0.11039321637E+04  0.11039321637E+04  0.50400001928E-02 0. -1.
       -1   -1    0    0    0  501  0.00000000000E+00  0.00000000000E+00 -0.50734696293E+03  0.50734696295E+03  0.50400001928E-02 0.  1.
    10030    2    1    2    0    0  0.00000000000E+00  0.00000000000E+00  0.59658520077E+03  0.16112791267E+04  0.14967653531E+04 0.  0.
        5    1    3    3  502    0  0.72116611799E+03  0.14046640912E+03  0.14512877674E+03  0.74892979221E+03  0.46999998093E+01 0. -1.
       -5    1    3    3    0  502 -0.72116611799E+03 -0.14046640912E+03  0.45145642403E+03  0.86234933444E+03  0.46999998093E+01 0.  1.
</event>
<event>
 5   0  0.2641347E-04  0.1502664E+04  0.7818609E-02  0.8882683E-01
        2   -1    0    0  501    0  0.00000000000E+00  0.00000000000E+00  0.24381297939E+04  0.24381297940E+04  0.25500000920E-02 0.  1.
       -2   -1    0    0    0  501  0.00000000000E+00  0.00000000000E+00 -0.23152984104E+03  0.23152984105E+03  0.25500000920E-02 0. -1.
    10030    2    1    2    0    0  0.00000000000E+00  0.00000000000E+00  0.22065999529E+04  0.26696596350E+04  0.15026640392E+04 0.  0.
        4    1    3    3  502    0 -0.14518888667E+03 -0.62558108975E+03  0.41049494799E+03  0.76219369447E+03  0.12699999809E+01 0.  1.
       -4    1    3    3    0  502  0.14518888667E+03  0.62558108975E+03  0.17961050049E+04  0.19074659405E+04  0.12699999809E+01 0. -1.
</event>
<event>
 5   0  0.2734072E-04  0.1501916E+04  0.7818609E-02  0.8883180E-01
       -2   -1    0    0    0  501  0.00000000000E+00  0.00000000000E+00  0.46780439362E+03  0.46780439363E+03  0.25500000920E-02 0.  1.
        2   -1    0    0  501    0  0.00000000000E+00  0.00000000000E+00 -0.12054992719E+04  0.12054992719E+04  0.25500000920E-02 0. -1.
    10030    2    1    2    0    0  0.00000000000E+00  0.00000000000E+00 -0.73769487826E+03  0.16733036655E+04  0.15019159176E+04 0.  0.
        5    1    3    3  502    0 -0.35428516619E+03 -0.66119709803E+03 -0.40770082489E+03  0.85378078805E+03  0.46999998093E+01 0. -1.
       -5    1    3    3    0  502  0.35428516619E+03  0.66119709803E+03 -0.32999405337E+03  0.81952287747E+03  0.46999998093E+01 0.  1.
</event>
<event>
 5   0  0.1427609E-04  0.1492566E+04  0.7818609E-02  0.8889412E-01
        1   -1    0    0  501    0  0.00000000000E+00  0.00000000000E+00  0.13490371883E+04  0.13490371883E+04  0.50400001928E-02 0.  1.
       -1   -1    0    0    0  501  0.00000000000E+00  0.00000000000E+00 -0.41284136595E+03  0.41284136598E+03  0.50400001928E-02 0. -1.
    10030    2    1    2    0    0  0.00000000000E+00  0.00000000000E+00  0.93619582234E+03  0.17618785543E+04  0.14925660529E+04 0.  0.
        4    1    3    3  502    0 -0.67370281547E+03  0.40901493819E+02  0.92229015651E+02  0.68121672029E+03  0.12699999809E+01 0. -1.
       -4    1    3    3    0  502  0.67370281547E+03 -0.40901493819E+02  0.84396680669E+03  0.10806618340E+04  0.12699999809E+01 0.  1.
</event>
<event>
 5   0  0.2618901E-04  0.1490363E+04  0.7818609E-02  0.8890887E-01
        2   -1    0    0  501    0  0.00000000000E+00  0.00000000000E+00  0.73746579119E+03  0.73746579119E+03  0.25500000920E-02 0.  1.
       -2   -1    0    0    0  501  0.00000000000E+00  0.00000000000E+00 -0.75297791288E+03  0.75297791289E+03  0.25500000920E-02 0. -1.
    10030    2    1    2    0    0  0.00000000000E+00  0.00000000000E+00 -0.15512121696E+02  0.14904437041E+04  0.14903629790E+04 0.  0.
        1    1    3    3  502    0  0.64757405918E+03 -0.36720825350E+03 -0.40945035171E+02  0.74556727361E+03  0.50400001928E-02 0.  1.
       -1    1    3    3    0  502 -0.64757405918E+03  0.36720825350E+03  0.25432913475E+02  0.74487643047E+03  0.50400001928E-02 0. -1.
</event>
<event>
 5   0  0.1484251E-04  0.1509981E+04  0.7818609E-02  0.8877843E-01
       -1   -1    0    0    0  501  0.00000000000E+00  0.00000000000E+00  0.40390867156E+03  0.40390867159E+03  0.50400001928E-02 0. -1.
        1   -1    0    0  501    0  0.00000000000E+00  0.00000000000E+00 -0.14112360880E+04  0.14112360880E+04  0.50400001928E-02 0.  1.
    10030    2    1    2    0    0  0.00000000000E+00  0.00000000000E+00 -0.10073274164E+04  0.18151447596E+04  0.15099807861E+04 0.  0.
        5    1    3    3  502    0  0.72601833162E+03 -0.81507197437E+02 -0.73251222134E+03  0.10345734800E+04  0.46999998093E+01 0. -1.
       -5    1    3    3    0  502 -0.72601833162E+03  0.81507197437E+02 -0.27481519510E+03  0.78057127960E+03  0.46999998093E+01 0.  1.
</event>
<event>
 5   0  0.1474203E-04  0.1502524E+04  0.7818609E-02  0.8882776E-01
       -1   -1    0    0    0  501  0.00000000000E+00  0.00000000000E+00  0.59587298023E+03  0.59587298025E+03  0.50400001928E-02 0.  1.
        1   -1    0    0  501    0  0.00000000000E+00  0.00000000000E+00 -0.94717281529E+03  0.94717281530E+03  0.50400001928E-02 0. -1.
    10030    2    1    2    0    0  0.00000000000E+00  0.00000000000E+00 -0.35129983506E+03  0.15430457956E+04  0.15025241273E+04 0.  0.
        3    1    3    3  502    0 -0.26665259409E+02  0.34902557091E+03  0.50700631635E+03  0.61610494255E+03  0.10100000352E+00 0.  1.
       -3    1    3    3    0  502  0.26665259409E+02 -0.34902557091E+03 -0.85830615142E+03  0.92694085301E+03  0.10100000352E+00 0. -1.
</event>
<event>
 5   0  0.1474203E-04  0.1497242E+04  0.7818609E-02  0.8886289E-01
       -1   -1    0    0    0  501  0.00000000000E+00  0.00000000000E+00  0.62343327443E+03  0.62343327445E+03  0.50400001928E-02 0. -1.
        1   -1    0    0  501    0  0.00000000000E+00  0.00000000000E+00 -0.89894631030E+03  0.89894631031E+03  0.50400001928E-02 0.  1.
    10030    2    1    2    0    0  0.00000000000E+00  0.00000000000E+00 -0.27551303587E+03  0.15223795848E+04  0.14972415193E+04 0.  0.
        3    1    3    3  502    0 -0.62214194015E+03 -0.30986200658E+02  0.28444054115E+03  0.68478257131E+03  0.10100000352E+00 0. -1.
       -3    1    3    3    0  502  0.62214194015E+03  0.30986200658E+02 -0.55995357702E+03  0.83759701345E+03  0.10100000352E+00 0.  1.
</event>
<event>
 5   0  0.1427609E-04  0.1501343E+04  0.7818609E-02  0.8883560E-01
        1   -1    0    0  501    0  0.00000000000E+00  0.00000000000E+00  0.12928902759E+04  0.12928902759E+04  0.50400001928E-02 0. -1.
       -1   -1    0    0    0  501  0.00000000000E+00  0.00000000000E+00 -0.43585131754E+03  0.43585131757E+03  0.50400001928E-02 0.  1.
    10030    2    1    2    0    0  0.00000000000E+00  0.00000000000E+00  0.85703895835E+03  0.17287415935E+04  0.15013433055E+04 0.  0.
        4    1    3    3  502    0  0.19816848718E+03  0.50999533347E+03 -0.16327025306E+03  0.57098579484E+03  0.12699999809E+01 0.  1.
       -4    1    3    3    0  502 -0.19816848718E+03 -0.50999533347E+03  0.10203092114E+04  0.11577557986E+04  0.12699999809E+01 0. -1.
</event>
<event>
 5   0  0.2646718E-04  0.1493820E+04  0.7818609E-02  0.8888573E-01
        2   -1    0    0  501    0  0.00000000000E+00  0.00000000000E+00  0.14112114985E+04  0.14112114985E+04  0.25500000920E-02 0. -1.
       -2   -1    0    0    0  501  0.00000000000E+00  0.00000000000E+00 -0.39531594975E+03  0.39531594975E+03  0.25500000920E-02 0.  1.
    10030    2    1    2    0    0  0.00000000000E+00  0.00000000000E+00  0.10158955487E+04  0.18065274482E+04  0.14938198202E+04 0.  0.
        3    1    3    3  502    0  0.61569287599E+03 -0.15443581734E+03  0.98398060115E+03  0.11709594241E+04  0.10100000352E+00 0. -1.
       -3    1    3    3    0  502 -0.61569287599E+03  0.15443581734E+03  0.31914947577E+02  0.63556802414E+03  0.10100000352E+00 0.  1.
</event>
<event>
 5   0  0.1004313E-04  0.1492826E+04  0.7818609E-02  0.8889237E-01
       -3   -1    0    0    0  501  0.00000000000E+00  0.00000000000E+00  0.31446599393E+03  0.31446601015E+03  0.10100000352E+00 0. -1.
        3   -1    0    0  501    0  0.00000000000E+00  0.00000000000E+00 -0.17716780127E+04  0.17716780156E+04  0.10100000352E+00 0.  1.
    10030    2    1    2    0    0  0.00000000000E+00  0.00000000000E+00 -0.14572120188E+04  0.20861440257E+04  0.14928261883E+04 0.  0.
        2    1    3    3  502    0 -0.53375166883E+03 -0.43315180274E+03 -0.11351191408E+04  0.13270293109E+04  0.25500000920E-02 0.  1.
       -2    1    3    3    0  502  0.53375166883E+03  0.43315180274E+03 -0.32209287797E+03  0.75911471482E+03  0.25500000920E-02 0. -1.
</event>
<event>
 5   0  0.2646718E-04  0.1503791E+04  0.7818609E-02  0.8881936E-01
       -2   -1    0    0    0  501  0.00000000000E+00  0.00000000000E+00  0.53177838812E+03  0.53177838812E+03  0.25500000920E-02 0.  1.
        2   -1    0    0  501    0  0.00000000000E+00  0.00000000000E+00 -0.10631253693E+04  0.10631253693E+04  0.25500000920E-02 0. -1.
    10030    2    1    2    0    0  0.00000000000E+00  0.00000000000E+00 -0.53134698120E+03  0.15949037574E+04  0.15037913356E+04 0.  0.
        3    1    3    3  502    0  0.14560637658E+03  0.73676733791E+03 -0.30420305051E+03  0.81028811743E+03  0.10100000352E+00 0.  1.
       -3    1    3    3    0  502 -0.14560637658E+03 -0.73676733791E+03 -0.22714393069E+03  0.78461564001E+03  0.10100000352E+00 0. -1.
</event>
<event>
 5   0  0.2734072E-04  0.1504273E+04  0.7818609E-02  0.8881616E-01
        2   -1    0    0  501    0  0.00000000000E+00  0.00000000000E+00  0.20488343786E+04  0.20488343786E+04  0.25500000920E-02 0.  1.
       -2   -1    0    0    0  501  0.00000000000E+00  0.00000000000E+00 -0.27611287873E+03  0.27611287875E+03  0.25500000920E-02 0. -1.
    10030    2    1    2    0    0  0.00000000000E+00  0.00000000000E+00  0.17727214999E+04  0.23249472574E+04  0.15042733240E+04 0.  0.
        5    1    3    3  502    0  0.24682889970E+03  0.19064443806E+03  0.19441593347E+04  0.19690219440E+04  0.46999998093E+01 0.  1.
       -5    1    3    3    0  502 -0.24682889970E+03 -0.19064443806E+03 -0.17143783478E+03  0.35592531334E+03  0.46999998093E+01 0. -1.
</event>
<event>
 5   0  0.1443750E-04  0.1499473E+04  0.7818609E-02  0.8884803E-01
       -1   -1    0    0    0  501  0.00000000000E+00  0.00000000000E+00  0.85893294082E+03  0.85893294084E+03  0.50400001928E-02 0. -1.
        1   -1    0    0  501    0  0.00000000000E+00  0.00000000000E+00 -0.65442230652E+03  0.65442230654E+03  0.50400001928E-02 0.  1.
    10030    2    1    2    0    0  0.00000000000E+00  0.00000000000E+00  0.20451063430E+03  0.15133552474E+04  0.14994730759E+04 0.  0.
        2    1    3    3  502    0 -0.64905405568E+03  0.36186499441E+03  0.20261147686E+03  0.77023947700E+03  0.25500000920E-02 0. -1.
       -2    1    3    3    0  502  0.64905405568E+03 -0.36186499441E+03  0.18991574451E+01  0.74311577037E+03  0.25500000920E-02 0.  1.
</event>
<event>
 5   0  0.1427609E-04  0.1500956E+04  0.7818609E-02  0.8883818E-01
        1   -1    0    0  501    0  0.00000000000E+00  0.00000000000E+00  0.16877572562E+04  0.16877572562E+04  0.50400001928E-02 0. -1.
       -1   -1    0    0    0  501  0.00000000000E+00  0.00000000000E+00 -0.33370736057E+03  0.33370736060E+03  0.50400001928E-02 0.  1.
    10030    2    1    2    0    0  0.00000000000E+00  0.00000000000E+00  0.13540498957E+04  0.20214646168E+04  0.15009557213E+04 0.  0.
        4    1    3    3  502    0  0.51793426064E+03  0.78576691643E+02 -0.46720321786E+02  0.52594162811E+03  0.12699999809E+01 0.  1.
       -4    1    3    3    0  502 -0.51793426064E+03 -0.78576691643E+02  0.14007702175E+04  0.14955229887E+04  0.12699999809E+01 0. -1.
</event>
<event>
 5   0  0.2696040E-04  0.1495108E+04  0.7818609E-02  0.8887713E-01
       -2   -1    0    0    0  501  0.00000000000E+00  0.00000000000E+00  0.54215276180E+03  0.54215276180E+03  0.25500000920E-02 0.  1.
        2   -1    0    0  501    0  0.00000000000E+00  0.00000000000E+00 -0.10307739303E+04  0.10307739303E+04  0.25500000920E-02 0. -1.
    10030    2    1    2    0    0  0.00000000000E+00  0.00000000000E+00 -0.48862116848E+03  0.15729266921E+04  0.14951079334E+04 0.  0.
        2    1    3    3  502    0 -0.15378642086E+03  0.55730713673E+03 -0.74289234765E+03  0.94134507387E+03  0.25500000920E-02 0. -1.
       -2    1    3    3    0  502  0.15378642086E+03 -0.55730713673E+03  0.25427117917E+03  0.63158161821E+03  0.25500000920E-02 0.  1.
</event>
<event>
 5   0  0.2646718E-04  0.1552516E+04  0.7818609E-02  0.8850262E-01
       -2   -1    0    0    0  501  0.00000000000E+00  0.00000000000E+00  0.25951792782E+03  0.25951792784E+03  0.25500000920E-02 0. -1.
        2   -1    0    0  501    0  0.00000000000E+00  0.00000000000E+00 -0.23219062454E+04  0.23219062454E+04  0.25500000920E-02 0.  1.
    10030    2    1    2    0    0  0.00000000000E+00  0.00000000000E+00 -0.20623883175E+04  0.25814241732E+04  0.15525157615E+04 0.  0.
        3    1    3    3  502    0  0.37844490425E+03 -0.93692051873E+02 -0.21473070517E+04  0.21824129606E+04  0.10100000352E+00 0.  1.
       -3    1    3    3    0  502 -0.37844490425E+03  0.93692051873E+02  0.84918734191E+02  0.39901121257E+03  0.10100000352E+00 0. -1.
</event>
<event>
 5   0  0.1426929E-04  0.1513411E+04  0.7818609E-02  0.8875584E-01
        1   -1    0    0  501    0  0.00000000000E+00  0.00000000000E+00  0.74947945267E+03  0.74947945269E+03  0.50400001928E-02 0.  1.
       -1   -1    0    0    0  501  0.00000000000E+00  0.00000000000E+00 -0.76400080968E+03  0.76400080970E+03  0.50400001928E-02 0. -1.
    10030    2    1    2    0    0  0.00000000000E+00  0.00000000000E+00 -0.14521357007E+02  0.15134802624E+04  0.15134105969E+04 0.  0.
        1    1    3    3  502    0  0.10077969238E+03 -0.41316968821E+03  0.61865723691E+03  0.75073464983E+03  0.50400001928E-02 0.  1.
       -1    1    3    3    0  502 -0.10077969238E+03  0.41316968821E+03 -0.63317859391E+03  0.76274561256E+03  0.50400001928E-02 0. -1.
</event>
<event>
 5   0  0.2734072E-04  0.1507556E+04  0.7818609E-02  0.8879444E-01
        2   -1    0    0  501    0  0.00000000000E+00  0.00000000000E+00  0.85477953149E+03  0.85477953149E+03  0.25500000920E-02 0. -1.
       -2   -1    0    0    0  501  0.00000000000E+00  0.00000000000E+00 -0.66471077095E+03  0.66471077096E+03  0.25500000920E-02 0.  1.
    10030    2    1    2    0    0  0.00000000000E+00  0.00000000000E+00  0.19006876053E+03  0.15194903024E+04  0.15075558515E+04 0.  0.
        5    1    3    3  502    0 -0.26656756607E+03 -0.63475194780E+03 -0.21430035727E+03  0.72105134050E+03  0.46999998093E+01 0.  1.
       -5    1    3    3    0  502  0.26656756607E+03  0.63475194780E+03  0.40436911781E+03  0.79843896194E+03  0.46999998093E+01 0. -1.
</event>
<event>
 5   0  0.1427609E-04  0.1494836E+04  0.7818609E-02  0.8887894E-01
        1   -1    0    0  501    0  0.00000000000E+00  0.00000000000E+00  0.12664438867E+04  0.12664438867E+04  0.50400001928E-02 0. -1.
       -1   -1    0    0    0  501  0.00000000000E+00  0.00000000000E+00 -0.44110409565E+03  0.44110409568E+03  0.50400001928E-02 0.  1.
    10030    2    1    2    0    0  0.00000000000E+00  0.00000000000E+00  0.82533979106E+03  0.17075479824E+04  0.14948358912E+04 0.  0.
        4    1    3    3  502    0 -0.30271702843E+03 -0.21244465371E+03 -0.32926264456E+03  0.49516243011E+03  0.12699999809E+01 0.  1.
       -4    1    3    3    0  502  0.30271702843E+03  0.21244465371E+03  0.11546024356E+04  0.12123855523E+04  0.12699999809E+01 0. -1.
</event>
<event>
 5   0  0.1484251E-04  0.1488684E+04  0.7818609E-02  0.8892013E-01
        1   -1    0    0  501    0  0.00000000000E+00  0.00000000000E+00  0.10308969447E+04  0.10308969447E+04  0.50400001928E-02 0.  1.
       -1   -1    0    0    0  501  0.00000000000E+00  0.00000000000E+00 -0.53743952634E+03  0.53743952636E+03  0.50400001928E-02 0. -1.
    10030    2    1    2    0    0  0.00000000000E+00  0.00000000000E+00  0.49345741838E+03  0.15683364711E+04  0.14886836678E+04 0.  0.
        5    1    3    3  502    0 -0.59288018545E+02  0.19018761457E+02 -0.53467551713E+03  0.53830918722E+03  0.46999998093E+01 0. -1.
       -5    1    3    3    0  502  0.59288018545E+02 -0.19018761457E+02  0.10281329355E+04  0.10300272839E+04  0.46999998093E+01 0.  1.
</event>
<event>
 5   0  0.2696040E-04  0.1507424E+04  0.7818609E-02  0.8879531E-01
        2   -1    0    0  501    0  0.00000000000E+00  0.00000000000E+00  0.91057892058E+03  0.91057892058E+03  0.25500000920E-02 0. -1.
       -2   -1    0    0    0  501  0.00000000000E+00  0.00000000000E+00 -0.62386849892E+03  0.62386849892E+03  0.25500000920E-02 0.  1.
    10030    2    1    2    0    0  0.00000000000E+00  0.00000000000E+00  0.28671042166E+03  0.15344474195E+04  0.15074236357E+04 0.  0.
        2    1    3    3  502    0  0.66945668628E+03  0.31111012637E+03  0.29813282655E+03  0.79614379845E+03  0.25500000920E-02 0.  1.
       -2    1    3    3    0  502 -0.66945668628E+03 -0.31111012637E+03 -0.11422404886E+02  0.73830362106E+03  0.25500000920E-02 0. -1.
</event>
<event>
 5   0  0.1426929E-04  0.1498411E+04  0.7818609E-02  0.8885510E-01
       -1   -1    0    0    0  501  0.00000000000E+00  0.00000000000E+00  0.25079793510E+03  0.25079793515E+03  0.50400001928E-02 0. -1.
        1   -1    0    0  501    0  0.00000000000E+00  0.00000000000E+00 -0.22380932101E+04  0.22380932101E+04  0.50400001928E-02 0.  1.
    10030    2    1    2    0    0  0.00000000000E+00  0.00000000000E+00 -0.19872952750E+04  0.24888911453E+04  0.14984113664E+04 0.  0.
        1    1    3    3  502    0  0.70862615651E+03  0.68992974211E+02 -0.13810539487E+04  0.15537763898E+04  0.50400001928E-02 0.  1.
       -1    1    3    3    0  502 -0.70862615651E+03 -0.68992974211E+02 -0.60624132634E+03  0.93511475551E+03  0.50400001928E-02 0. -1.
</event>
<event>
 5   0  0.1443750E-04  0.1488707E+04  0.7818609E-02  0.8891998E-01
        1   -1    0    0  501    0  0.00000000000E+00  0.00000000000E+00  0.52564975111E+03  0.52564975113E+03  0.50400001928E-02 0.  1.
       -1   -1    0    0    0  501  0.00000000000E+00  0.00000000000E+00 -0.10540516000E+04  0.10540516000E+04  0.50400001928E-02 0. -1.
    10030    2    1    2    0    0  0.00000000000E+00  0.00000000000E+00 -0.52840184889E+03  0.15797013511E+04  0.14887067693E+04 0.  0.
        2    1    3    3  502    0 -0.73309024657E+02  0.46283911452E+03 -0.87788226685E+03  0.99512387846E+03  0.25500000920E-02 0. -1.
       -2    1    3    3    0  502  0.73309024657E+02 -0.46283911452E+03  0.34948041796E+03  0.58457747268E+03  0.25500000920E-02 0.  1.
</event>
<event>
 5   0  0.2734072E-04  0.1501239E+04  0.7818609E-02  0.8883630E-01
       -2   -1    0    0    0  501  0.00000000000E+00  0.00000000000E+00  0.11585154811E+04  0.11585154811E+04  0.25500000920E-02 0.  1.
        2   -1    0    0  501    0  0.00000000000E+00  0.00000000000E+00 -0.48633740997E+03  0.48633740997E+03  0.25500000920E-02 0. -1.
    10030    2    1    2    0    0  0.00000000000E+00  0.00000000000E+00  0.67217807110E+03  0.16448528910E+04  0.15012387132E+04 0.  0.
        5    1    3    3  502    0  0.26773831777E+02 -0.14184010224E+03 -0.47097119368E+03  0.49261689775E+03  0.46999998093E+01 0. -1.
       -5    1    3    3    0  502 -0.26773831777E+02  0.14184010224E+03  0.11431492648E+04  0.11522359933E+04  0.46999998093E+01 0.  1.
</event>
<event>
 5   0  0.2641347E-04  0.1499002E+04  0.7818609E-02  0.8885117E-01
       -2   -1    0    0    0  501  0.00000000000E+00  0.00000000000E+00  0.10298952073E+04  0.10298952073E+04  0.25500000920E-02 0.  1.
        2   -1    0    0  501    0  0.00000000000E+00  0.00000000000E+00 -0.54544566397E+03  0.54544566398E+03  0.25500000920E-02 0. -1.
    10030    2    1    2    0    0  0.00000000000E+00  0.00000000000E+00  0.48444954330E+03  0.15753408713E+04  0.14990021683E+04 0.  0.
        4    1    3    3  502    0  0.24962352051E+03  0.67958753041E+03  0.44600464412E+03  0.85033691496E+03  0.12699999809E+01 0. -1.
       -4    1    3    3    0  502 -0.24962352051E+03 -0.67958753041E+03  0.38444899189E+02  0.72500395630E+03  0.12699999809E+01 0.  1.
</event>
<event>
 5   0  0.1443750E-04  0.1499622E+04  0.7818609E-02  0.8884704E-01
        1   -1    0    0  501    0  0.00000000000E+00  0.00000000000E+00  0.84090948646E+03  0.84090948647E+03  0.50400001928E-02 0.  1.
       -1   -1    0    0    0  501  0.00000000000E+00  0.00000000000E+00 -0.66858186354E+03  0.66858186356E+03  0.50400001928E-02 0. -1.
    10030    2    1    2    0    0  0.00000000000E+00  0.00000000000E+00  0.17232762291E+03  0.15094913500E+04  0.14996223945E+04 0.  0.
        2    1    3    3  502    0 -0.43771556642E+03  0.54053491198E+03 -0.19575779719E+03  0.72256074023E+03  0.25500000920E-02 0. -1.
       -2    1    3    3    0  502  0.43771556642E+03 -0.54053491198E+03  0.36808542010E+03  0.78693060980E+03  0.25500000920E-02 0.  1.
</event>
<event>
 5   0  0.1474203E-04  0.1499139E+04  0.7818609E-02  0.8885026E-01
       -1   -1    0    0    0  501  0.00000000000E+00  0.00000000000E+00  0.55590957983E+03  0.55590957986E+03  0.50400001928E-02 0.  1.
        1   -1    0    0  501    0  0.00000000000E+00  0.00000000000E+00 -0.10106933927E+04  0.10106933928E+04  0.50400001928E-02 0. -1.
    10030    2    1    2    0    0  0.00000000000E+00  0.00000000000E+00 -0.45478381291E+03  0.15666029726E+04  0.14991386051E+04 0.  0.
        3    1    3    3  502    0 -0.10718399101E+03  0.24380377982E+02 -0.10022250647E+04  0.10082350427E+04  0.10100000352E+00 0. -1.
       -3    1    3    3    0  502  0.10718399101E+03 -0.24380377982E+02  0.54744125182E+03  0.55836792991E+03  0.10100000352E+00 0.  1.
</event>
<event>
 5   0  0.1443750E-04  0.1501885E+04  0.7818609E-02  0.8883200E-01
       -1   -1    0    0    0  501  0.00000000000E+00  0.00000000000E+00  0.37063007865E+03  0.37063007868E+03  0.50400001928E-02 0.  1.
        1   -1    0    0  501    0  0.00000000000E+00  0.00000000000E+00 -0.15215035203E+04  0.15215035203E+04  0.50400001928E-02 0. -1.
    10030    2    1    2    0    0  0.00000000000E+00  0.00000000000E+00 -0.11508734417E+04  0.18921335990E+04  0.15018854409E+04 0.  0.
        2    1    3    3  502    0  0.39123499650E+03 -0.62917490632E+03 -0.42119475922E+03  0.85225049747E+03  0.25500000920E-02 0.  1.
       -2    1    3    3    0  502 -0.39123499650E+03  0.62917490632E+03 -0.72967868244E+03  0.10398831015E+04  0.25500000920E-02 0. -1.
</event>
<event>
 5   0  0.2646718E-04  0.1506194E+04  0.7818609E-02  0.8880344E-01
       -2   -1    0    0    0  501  0.00000000000E+00  0.00000000000E+00  0.51805471830E+03  0.51805471831E+03  0.25500000920E-02 0.  1.
        2   -1    0    0  501    0  0.00000000000E+00  0.00000000000E+00 -0.10947785577E+04  0.10947785577E+04  0.25500000920E-02 0. -1.
    10030    2    1    2    0    0  0.00000000000E+00  0.00000000000E+00 -0.57672383937E+03  0.16128332760E+04  0.15061941406E+04 0.  0.
        3    1    3    3  502    0 -0.74169752797E+03 -0.37607533318E+02 -0.15450914002E+03  0.75855298702E+03  0.10100000352E+00 0.  1.
       -3    1    3    3    0  502  0.74169752797E+03  0.37607533318E+02 -0.42221469935E+03  0.85428028896E+03  0.10100000352E+00 0. -1.
</event>
<event>
 5   0  0.1484251E-04  0.1587597E+04  0.7818609E-02  0.8828204E-01
        1   -1    0    0  501    0  0.00000000000E+00  0.00000000000E+00  0.11526874507E+04  0.11526874508E+04  0.50400001928E-02 0. -1.
       -1   -1    0    0    0  501  0.00000000000E+00  0.00000000000E+00 -0.54664926705E+03  0.54664926708E+03  0.50400001928E-02 0.  1.
    10030    2    1    2    0    0  0.00000000000E+00  0.00000000000E+00  0.60603818370E+03  0.16993367178E+04  0.15875966114E+04 0.  0.
        5    1    3    3  502    0  0.78335792161E+03 -0.12261610747E+03  0.26283597523E+03  0.83533776584E+03  0.46999998093E+01 0.  1.
       -5    1    3    3    0  502 -0.78335792161E+03  0.12261610747E+03  0.34320220846E+03  0.86399895200E+03  0.46999998093E+01 0. -1.
</event>
<event>
 5   0  0.1427609E-04  0.1487523E+04  0.7818609E-02  0.8892793E-01
       -1   -1    0    0    0  501  0.00000000000E+00  0.00000000000E+00  0.93210351007E+03  0.93210351008E+03  0.50400001928E-02 0. -1.
        1   -1    0    0  501    0  0.00000000000E+00  0.00000000000E+00 -0.59347608688E+03  0.59347608690E+03  0.50400001928E-02 0.  1.
    10030    2    1    2    0    0  0.00000000000E+00  0.00000000000E+00  0.33862742319E+03  0.15255795970E+04  0.14875229662E+04 0.  0.
        4    1    3    3  502    0  0.11726784853E+03 -0.56795272629E+03  0.64690720212E+03  0.86879951004E+03  0.12699999809E+01 0. -1.
       -4    1    3    3    0  502 -0.11726784853E+03  0.56795272629E+03 -0.30827977892E+03  0.65678008694E+03  0.12699999809E+01 0.  1.
</event>
<event>
 5   0  0.1474203E-04  0.1499970E+04  0.7818609E-02  0.8884473E-01
       -1   -1    0    0    0  501  0.00000000000E+00  0.00000000000E+00  0.81839776167E+03  0.81839776168E+03  0.50400001928E-02 0. -1.
        1   -1    0    0  501    0  0.00000000000E+00  0.00000000000E+00 -0.68729066974E+03  0.68729066976E+03  0.50400001928E-02 0.  1.
    10030    2    1    2    0    0  0.00000000000E+00  0.00000000000E+00  0.13110709192E+03  0.15056884314E+04  0.14999695274E+04 0.  0.
        3    1    3    3  502    0  0.17954264303E+03 -0.54357161675E+03  0.55193313250E+03  0.79519548298E+03  0.10100000352E+00 0. -1.
       -3    1    3    3    0  502 -0.17954264303E+03  0.54357161675E+03 -0.42082604058E+03  0.71049294847E+03  0.10100000352E+00 0.  1.
</event>
<event>
 5   0  0.2618901E-04  0.1503206E+04  0.7818609E-02  0.8882324E-01
        2   -1    0    0  501    0  0.00000000000E+00  0.00000000000E+00  0.97804730708E+03  0.97804730709E+03  0.25500000920E-02 0. -1.
       -2   -1    0    0    0  501  0.00000000000E+00  0.00000000000E+00 -0.57758645565E+03  0.57758645566E+03  0.25500000920E-02 0.  1.
    10030    2    1    2    0    0  0.00000000000E+00  0.00000000000E+00  0.40046085143E+03  0.15556337627E+04  0.15032057445E+04 0.  0.
        1    1    3    3  502    0  0.61900537965E+03  0.42505189961E+03  0.16637711519E+03  0.76910215308E+03  0.50400001928E-02 0.  1.
       -1    1    3    3    0  502 -0.61900537965E+03 -0.42505189961E+03  0.23408373624E+03  0.78653160966E+03  0.50400001928E-02 0. -1.
</event>
<event>
 5   0  0.1426929E-04  0.1510157E+04  0.7818609E-02  0.8877727E-01
        1   -1    0    0  501    0  0.00000000000E+00  0.00000000000E+00  0.76530874104E+03  0.76530874105E+03  0.50400001928E-02 0. -1.
       -1   -1    0    0    0  501  0.00000000000E+00  0.00000000000E+00 -0.74498489236E+03  0.74498489238E+03  0.50400001928E-02 0.  1.
    10030    2    1    2    0    0  0.00000000000E+00  0.00000000000E+00  0.20323848674E+02  0.15102936334E+04  0.15101568794E+04 0.  0.
        1    1    3    3  502    0 -0.13102558231E+03 -0.42300360040E+03 -0.60148458134E+03  0.74691595965E+03  0.50400001928E-02 0.  1.
       -1    1    3    3    0  502  0.13102558231E+03  0.42300360040E+03  0.62180843001E+03  0.76337767378E+03  0.50400001928E-02 0. -1.
</event>
<event>
 5   0  0.2646718E-04  0.1493809E+04  0.7818609E-02  0.8888580E-01
        2   -1    0    0  501    0  0.00000000000E+00  0.00000000000E+00  0.86313080045E+03  0.86313080045E+03  0.25500000920E-02 0.  1.
       -2   -1    0    0    0  501  0.00000000000E+00  0.00000000000E+00 -0.64632895174E+03  0.64632895174E+03  0.25500000920E-02 0. -1.
    10030    2    1    2    0    0  0.00000000000E+00  0.00000000000E+00  0.21680184871E+03  0.15094597522E+04  0.14938091250E+04 0.  0.
        3    1    3    3  502    0 -0.57815254902E+03  0.32934207713E+03 -0.23447677790E+03  0.70548277320E+03  0.10100000352E+00 0. -1.
       -3    1    3    3    0  502  0.57815254902E+03 -0.32934207713E+03  0.45127862662E+03  0.80397697899E+03  0.10100000352E+00 0.  1.
</event>
<event>
 5   0  0.2646718E-04  0.1506431E+04  0.7818609E-02  0.8880188E-01
       -2   -1    0    0    0  501  0.00000000000E+00  0.00000000000E+00  0.47052604864E+03  0.47052604865E+03  0.25500000920E-02 0.  1.
        2   -1    0    0  501    0  0.00000000000E+00  0.00000000000E+00 -0.12057432775E+04  0.12057432775E+04  0.25500000920E-02 0. -1.
    10030    2    1    2    0    0  0.00000000000E+00  0.00000000000E+00 -0.73521722889E+03  0.16762693262E+04  0.15064310406E+04 0.  0.
        3    1    3    3  502    0  0.14924808162E+03  0.34091116689E+03 -0.10962960352E+04  0.11577393578E+04  0.10100000352E+00 0. -1.
       -3    1    3    3    0  502 -0.14924808162E+03 -0.34091116689E+03  0.36107880629E+03  0.51852996840E+03  0.10100000352E+00 0.  1.
</event>
<event>
 5   0  0.2641347E-04  0.1489062E+04  0.7818609E-02  0.8891760E-01
        2   -1    0    0  501    0  0.00000000000E+00  0.00000000000E+00  0.21631476890E+04  0.21631476890E+04  0.25500000920E-02 0.  1.
       -2   -1    0    0    0  501  0.00000000000E+00  0.00000000000E+00 -0.25625904062E+03  0.25625904064E+03  0.25500000920E-02 0. -1.
    10030    2    1    2    0    0  0.00000000000E+00  0.00000000000E+00  0.19068886484E+04  0.24194067296E+04  0.14890616529E+04 0.  0.
        4    1    3    3  502    0  0.15866660006E+03  0.72629167696E+03  0.10194404216E+04  0.12617190956E+04  0.12699999809E+01 0.  1.
       -4    1    3    3    0  502 -0.15866660006E+03 -0.72629167696E+03  0.88744822674E+03  0.11576876341E+04  0.12699999809E+01 0. -1.
</event>
<event>
 5   0  0.1474203E-04  0.1496311E+04  0.7818609E-02  0.8886910E-01
       -1   -1    0    0    0  501  0.00000000000E+00  0.00000000000E+00  0.50102343399E+03  0.50102343402E+03  0.50400001928E-02 0.  1.
        1   -1    0    0  501    0  0.00000000000E+00  0.00000000000E+00 -0.11171862839E+04  0.11171862839E+04  0.50400001928E-02 0. -1.
    10030    2    1    2    0    0  0.00000000000E+00  0.00000000000E+00 -0.61616284993E+03  0.16182097179E+04  0.14963108078E+04 0.  0.
        3    1    3    3  502    0 -0.24703425430E+03 -0.29744718123E+03  0.38459394306E+03  0.54535608519E+03  0.10100000352E+00 0.  1.
       -3    1    3    3    0  502  0.24703425430E+03  0.29744718123E+03 -0.10007567930E+04  0.10728536328E+04  0.10100000352E+00 0. -1.
</event>
<event>
 5   0  0.2641347E-04  0.1497750E+04  0.7818609E-02  0.8885951E-01
        2   -1    0    0  501    0  0.00000000000E+00  0.00000000000E+00  0.20083493856E+04  0.20083493856E+04  0.25500000920E-02 0.  1.
       -2   -1    0    0    0  501  0.00000000000E+00  0.00000000000E+00 -0.27924099283E+03  0.27924099284E+03  0.25500000920E-02 0. -1.
    10030    2    1    2    0    0  0.00000000000E+00  0.00000000000E+00  0.17291083928E+04  0.22875903784E+04  0.14977496138E+04 0.  0.
        4    1    3    3  502    0  0.53292551089E+03 -0.41281637313E+02  0.63461389205E+02  0.53827756275E+03  0.12699999809E+01 0. -1.
       -4    1    3    3    0  502 -0.53292551089E+03  0.41281637313E+02  0.16656470036E+04  0.17493128157E+04  0.12699999809E+01 0.  1.
</event>
<event>
 5   0  0.1484251E-04  0.1496525E+04  0.7818609E-02  0.8886767E-01
        1   -1    0    0  501    0  0.00000000000E+00  0.00000000000E+00  0.96241748273E+03  0.96241748275E+03  0.50400001928E-02 0. -1.
       -1   -1    0    0    0  501  0.00000000000E+00  0.00000000000E+00 -0.58176060902E+03  0.58176060904E+03  0.50400001928E-02 0.  1.
    10030    2    1    2    0    0  0.00000000000E+00  0.00000000000E+00  0.38065687371E+03  0.15441780918E+04  0.14965247488E+04 0.  0.
        5    1    3    3  502    0  0.60326754318E+03 -0.43692260396E+02 -0.26419064451E+03  0.66004509612E+03  0.46999998093E+01 0.  1.
       -5    1    3    3    0  502 -0.60326754318E+03  0.43692260396E+02  0.64484751823E+03  0.88413299567E+03  0.46999998093E+01 0. -1.
</event>
<event>
 5   0  0.2618901E-04  0.1498935E+04  0.7818609E-02  0.8885161E-01
        2   -1    0    0  501    0  0.00000000000E+00  0.00000000000E+00  0.14356236899E+04  0.14356236899E+04  0.25500000920E-02 0.  1.
       -2   -1    0    0    0  501  0.00000000000E+00  0.00000000000E+00 -0.39125980685E+03  0.39125980686E+03  0.25500000920E-02 0. -1.
    10030    2    1    2    0    0  0.00000000000E+00  0.00000000000E+00  0.10443638830E+04  0.18268834967E+04  0.14989354190E+04 0.  0.
        1    1    3    3  502    0 -0.36981014520E+03  0.63810547135E+03  0.68462261695E+03  0.10063032663E+04  0.50400001928E-02 0. -1.
       -1    1    3    3    0  502  0.36981014520E+03 -0.63810547135E+03  0.35974126605E+03  0.82058023044E+03  0.50400001928E-02 0.  1.
</event>
<event>
 5   0  0.1443750E-04  0.1497116E+04  0.7818609E-02  0.8886373E-01
       -1   -1    0    0    0  501  0.00000000000E+00  0.00000000000E+00  0.56074166877E+03  0.56074166879E+03  0.50400001928E-02 0. -1.
        1   -1    0    0  501    0  0.00000000000E+00  0.00000000000E+00 -0.99928232621E+03  0.99928232623E+03  0.50400001928E-02 0.  1.
    10030    2    1    2    0    0  0.00000000000E+00  0.00000000000E+00 -0.43854065744E+03  0.15600239950E+04  0.14971162135E+04 0.  0.
        2    1    3    3  502    0  0.45754442169E+03  0.55199469536E+03 -0.44347210315E+03  0.84303769062E+03  0.25500000920E-02 0.  1.
       -2    1    3    3    0  502 -0.45754442169E+03 -0.55199469536E+03  0.49314457095E+01  0.71698630440E+03  0.25500000920E-02 0. -1.
</event>
<event>
 5   0  0.2734072E-04  0.1472119E+04  0.7818609E-02  0.8903208E-01
        2   -1    0    0  501    0  0.00000000000E+00  0.00000000000E+00  0.76576039049E+03  0.76576039049E+03  0.25500000920E-02 0.  1.
       -2   -1    0    0    0  501  0.00000000000E+00  0.00000000000E+00 -0.70751063573E+03  0.70751063573E+03  0.25500000920E-02 0. -1.
    10030    2    1    2    0    0  0.00000000000E+00  0.00000000000E+00  0.58249754766E+02  0.14732710262E+04  0.14721190450E+04 0.  0.
        5    1    3    3  502    0  0.64836761952E+03 -0.32889601684E+03 -0.85892733528E+02  0.73208798078E+03  0.46999998093E+01 0. -1.
       -5    1    3    3    0  502 -0.64836761952E+03  0.32889601684E+03  0.14414248829E+03  0.74118304545E+03  0.46999998093E+01 0.  1.
</event>
<event>
 5   0  0.1474203E-04  0.1501663E+04  0.7818609E-02  0.8883348E-01
        1   -1    0    0  501    0  0.00000000000E+00  0.00000000000E+00  0.16799475779E+04  0.16799475779E+04  0.50400001928E-02 0.  1.
       -1   -1    0    0    0  501  0.00000000000E+00  0.00000000000E+00 -0.33557475921E+03  0.33557475925E+03  0.50400001928E-02 0. -1.
    10030    2    1    2    0    0  0.00000000000E+00  0.00000000000E+00  0.13443728186E+04  0.20155223371E+04  0.15016630833E+04 0.  0.
        3    1    3    3  502    0 -0.35379795021E+02 -0.15797699894E+03 -0.31187072806E+03  0.35138557642E+03  0.10100000352E+00 0. -1.
       -3    1    3    3    0  502  0.35379795021E+02  0.15797699894E+03  0.16562435467E+04  0.16641367607E+04  0.10100000352E+00 0.  1.
</event>
<event>
 5   0  0.1474203E-04  0.1498510E+04  0.7818609E-02  0.8885445E-01
       -1   -1    0    0    0  501  0.00000000000E+00  0.00000000000E+00  0.18164093587E+03  0.18164093594E+03  0.50400001928E-02 0.  1.
        1   -1    0    0  501    0  0.00000000000E+00  0.00000000000E+00 -0.30906180668E+04  0.30906180668E+04  0.50400001928E-02 0. -1.
    10030    2    1    2    0    0  0.00000000000E+00  0.00000000000E+00 -0.29089771309E+04  0.32722590027E+04  0.14985096038E+04 0.  0.
        3    1    3    3  502    0 -0.56996983381E+03 -0.46804207086E+03 -0.17429797827E+04  0.18925928048E+04  0.10100000352E+00 0.  1.
       -3    1    3    3    0  502  0.56996983381E+03  0.46804207086E+03 -0.11659973481E+04  0.13796661979E+04  0.10100000352E+00 0. -1.
</event>
<event>
 5   0  0.1004313E-04  0.1419768E+04  0.7818609E-02  0.8939633E-01
       -3   -1    0    0    0  501  0.00000000000E+00  0.00000000000E+00  0.44021163280E+03  0.44021164438E+03  0.10100000352E+00 0. -1.
        3   -1    0    0  501    0  0.00000000000E+00  0.00000000000E+00 -0.11447560865E+04  0.11447560910E+04  0.10100000352E+00 0.  1.
    10030    2    1    2    0    0  0.00000000000E+00  0.00000000000E+00 -0.70454445372E+03  0.15849677354E+04  0.14197675285E+04 0.  0.
        4    1    3    3  502    0  0.28021003276E+03  0.61230295989E+03 -0.10140023333E+03  0.68096710447E+03  0.12699999809E+01 0. -1.
       -4    1    3    3    0  502 -0.28021003276E+03 -0.61230295989E+03 -0.60314422040E+03  0.90400063089E+03  0.12699999809E+01 0.  1.
</event>
<event>
 5   0  0.1426929E-04  0.1516503E+04  0.7818609E-02  0.8873552E-01
       -1   -1    0    0    0  501  0.00000000000E+00  0.00000000000E+00  0.43553218169E+03  0.43553218172E+03  0.50400001928E-02 0. -1.
        1   -1    0    0  501    0  0.00000000000E+00  0.00000000000E+00 -0.13200992495E+04  0.13200992495E+04  0.50400001928E-02 0.  1.
    10030    2    1    2    0    0  0.00000000000E+00  0.00000000000E+00 -0.88456706782E+03  0.17556314312E+04  0.15165034866E+04 0.  0.
        1    1    3    3  502    0  0.58173965686E+03  0.43797665208E+03 -0.19751860760E+03  0.75449199897E+03  0.50400001928E-02 0. -1.
       -1    1    3    3    0  502 -0.58173965686E+03 -0.43797665208E+03 -0.68704846023E+03  0.10011394323E+04  0.50400001928E-02 0.  1.
</event>
<event>
 5   0  0.1443750E-04  0.1498789E+04  0.7818609E-02  0.8885259E-01
       -1   -1    0    0    0  501  0.00000000000E+00  0.00000000000E+00  0.42636242338E+03  0.42636242341E+03  0.50400001928E-02 0.  1.
        1   -1    0    0  501    0  0.00000000000E+00  0.00000000000E+00 -0.13171699404E+04  0.13171699404E+04  0.50400001928E-02 0. -1.
    10030    2    1    2    0    0  0.00000000000E+00  0.00000000000E+00 -0.89080751701E+03  0.17435323638E+04  0.14987885345E+04 0.  0.
        2    1    3    3  502    0  0.36482656438E+03  0.51945153263E+03  0.17966440313E+02  0.63502055857E+03  0.25500000920E-02 0.  1.
       -2    1    3    3    0  502 -0.36482656438E+03 -0.51945153263E+03 -0.90877395732E+03  0.11085118052E+04  0.25500000920E-02 0. -1.
</event>
<event>
 5   0  0.1484251E-04  0.1505449E+04  0.7818609E-02  0.8880837E-01
       -1   -1    0    0    0  501  0.00000000000E+00  0.00000000000E+00  0.70527939112E+03  0.70527939114E+03  0.50400001928E-02 0. -1.
        1   -1    0    0  501    0  0.00000000000E+00  0.00000000000E+00 -0.80336150683E+03  0.80336150684E+03  0.50400001928E-02 0.  1.
    10030    2    1    2    0    0  0.00000000000E+00  0.00000000000E+00 -0.98082115710E+02  0.15086408980E+04  0.15054491880E+04 0.  0.
        5    1    3    3  502    0  0.22651600744E+03  0.68576073107E+03 -0.26161088811E+03  0.76814037043E+03  0.46999998093E+01 0.  1.
       -5    1    3    3    0  502 -0.22651600744E+03 -0.68576073107E+03  0.16352877240E+03  0.74050052755E+03  0.46999998093E+01 0. -1.
</event>
<event>
 5   0  0.2734072E-04  0.1512064E+04  0.7818609E-02  0.8876470E-01
        2   -1    0    0  501    0  0.00000000000E+00  0.00000000000E+00  0.44489336299E+03  0.44489336300E+03  0.25500000920E-02 0. -1.
       -2   -1    0    0    0  501  0.00000000000E+00  0.00000000000E+00 -0.12847675665E+04  0.12847675665E+04  0.25500000920E-02 0.  1.
    10030    2    1    2    0    0  0.00000000000E+00  0.00000000000E+00 -0.83987420350E+03  0.17296609295E+04  0.15120642358E+04 0.  0.
        5    1    3    3  502    0 -0.60217055524E+03  0.28673768178E+03 -0.82716575605E+03  0.10625691289E+04  0.46999998093E+01 0. -1.
       -5    1    3    3    0  502  0.60217055524E+03 -0.28673768178E+03 -0.12708447450E+02  0.66709180057E+03  0.46999998093E+01 0.  1.
</event>
<event>
 5   0  0.1484251E-04  0.1500916E+04  0.7818609E-02  0.8883844E-01
        1   -1    0    0  501    0  0.00000000000E+00  0.00000000000E+00  0.55994973747E+03  0.55994973749E+03  0.50400001928E-02 0.  1.
       -1   -1    0    0    0  501  0.00000000000E+00  0.00000000000E+00 -0.10057817023E+04  0.10057817023E+04  0.50400001928E-02 0. -1.
    10030    2    1    2    0    0  0.00000000000E+00  0.00000000000E+00 -0.44583196484E+03  0.15657314398E+04  0.15009159872E+04 0.  0.
        5    1    3    3  502    0 -0.94399428157E+02  0.60086433578E+03 -0.68146136963E+03  0.91343357194E+03  0.46999998093E+01 0. -1.
       -5    1    3    3    0  502  0.94399428157E+02 -0.60086433578E+03  0.23562940479E+03  0.65229786788E+03  0.46999998093E+01 0.  1.
</event>
<event>
 5   0  0.2618901E-04  0.1509702E+04  0.7818609E-02  0.8878027E-01
        2   -1    0    0  501    0  0.00000000000E+00  0.00000000000E+00  0.12307291264E+04  0.12307291264E+04  0.25500000920E-02 0. -1.
       -2   -1    0    0    0  501  0.00000000000E+00  0.00000000000E+00 -0.46297749243E+03  0.46297749244E+03  0.25500000920E-02 0.  1.
    10030    2    1    2    0    0  0.00000000000E+00  0.00000000000E+00  0.76775163394E+03  0.16937066188E+04  0.15097018047E+04 0.  0.
        1    1    3    3  502    0 -0.25712798885E+03 -0.64124727489E+03  0.42692811211E+02  0.69219617621E+03  0.50400001928E-02 0.  1.
       -1    1    3    3    0  502  0.25712798885E+03  0.64124727489E+03  0.72505882273E+03  0.10015104426E+04  0.50400001928E-02 0. -1.
</event>
<event>
 5   0  0.1426929E-04  0.1506173E+04  0.7818609E-02  0.8880358E-01
       -1   -1    0    0    0  501  0.00000000000E+00  0.00000000000E+00  0.72569463343E+03  0.72569463345E+03  0.50400001928E-02 0.  1.
        1   -1    0    0  501    0  0.00000000000E+00  0.00000000000E+00 -0.78151234975E+03  0.78151234977E+03  0.50400001928E-02 0. -1.
    10030    2    1    2    0    0  0.00000000000E+00  0.00000000000E+00 -0.55817716322E+02  0.15072069832E+04  0.15061730554E+04 0.  0.
        1    1    3    3  502    0  0.71340145945E+03 -0.13231175442E+03 -0.22976811737E+03  0.76107912236E+03  0.50400001928E-02 0.  1.
       -1    1    3    3    0  502 -0.71340145945E+03  0.13231175442E+03  0.17395040105E+03  0.74612786086E+03  0.50400001928E-02 0. -1.
</event>
<event>
 5   0  0.2641347E-04  0.1502806E+04  0.7818609E-02  0.8882589E-01
        2   -1    0    0  501    0  0.00000000000E+00  0.00000000000E+00  0.13678647131E+04  0.13678647131E+04  0.25500000920E-02 0.  1.
       -2   -1    0    0    0  501  0.00000000000E+00  0.00000000000E+00 -0.41276471350E+03  0.41276471351E+03  0.25500000920E-02 0. -1.
    10030    2    1    2    0    0  0.00000000000E+00  0.00000000000E+00  0.95509999958E+03  0.17806294266E+04  0.15028057578E+04 0.  0.
        4    1    3    3  502    0  0.22169054736E+03  0.71351710408E+03  0.38312160925E+03  0.83966489564E+03  0.12699999809E+01 0. -1.
       -4    1    3    3    0  502 -0.22169054736E+03 -0.71351710408E+03  0.57197839034E+03  0.94096453095E+03  0.12699999809E+01 0.  1.
</event>
<event>
 5   0  0.2646718E-04  0.1486134E+04  0.7818609E-02  0.8893726E-01
       -2   -1    0    0    0  501  0.00000000000E+00  0.00000000000E+00  0.27598490425E+03  0.27598490426E+03  0.25500000920E-02 0.  1.
        2   -1    0    0  501    0  0.00000000000E+00  0.00000000000E+00 -0.20006472695E+04  0.20006472695E+04  0.25500000920E-02 0. -1.
    10030    2    1    2    0    0  0.00000000000E+00  0.00000000000E+00 -0.17246623653E+04  0.22766321738E+04  0.14861338367E+04 0.  0.
        3    1    3    3  502    0  0.10292023183E+03  0.45165048667E+03  0.27720833266E+02  0.46405731438E+03  0.10100000352E+00 0.  1.
       -3    1    3    3    0  502 -0.10292023183E+03 -0.45165048667E+03 -0.17523831986E+04  0.18125748594E+04  0.10100000352E+00 0. -1.
</event>
<event>
 5   0  0.1474203E-04  0.1466777E+04  0.7818609E-02  0.8906851E-01
        1   -1    0    0  501    0  0.00000000000E+00  0.00000000000E+00  0.77642506630E+03  0.77642506632E+03  0.50400001928E-02 0.  1.
       -1   -1    0    0    0  501  0.00000000000E+00  0.00000000000E+00 -0.69273776226E+03  0.69273776228E+03  0.50400001928E-02 0. -1.
    10030    2    1    2    0    0  0.00000000000E+00  0.00000000000E+00  0.83687304042E+02  0.14691628286E+04  0.14667773696E+04 0.  0.
        3    1    3    3  502    0 -0.44051909772E+03 -0.30253317118E+02  0.62836118141E+03  0.76799096554E+03  0.10100000352E+00 0.  1.
       -3    1    3    3    0  502  0.44051909772E+03  0.30253317118E+02 -0.54467387737E+03  0.70117186305E+03  0.10100000352E+00 0. -1.
</event>
<event>
 5   0  0.1484251E-04  0.1511795E+04  0.7818609E-02  0.8876647E-01
        1   -1    0    0  501    0  0.00000000000E+00  0.00000000000E+00  0.12444769598E+04  0.12444769598E+04  0.50400001928E-02 0. -1.
       -1   -1    0    0    0  501  0.00000000000E+00  0.00000000000E+00 -0.45913336221E+03  0.45913336224E+03  0.50400001928E-02 0.  1.
    10030    2    1    2    0    0  0.00000000000E+00  0.00000000000E+00  0.78534359757E+03  0.17036103220E+04  0.15117948151E+04 0.  0.
        5    1    3    3  502    0  0.71888329616E+03  0.13673547038E+03  0.60609280211E+03  0.95018964272E+03  0.46999998093E+01 0. -1.
       -5    1    3    3    0  502 -0.71888329616E+03 -0.13673547038E+03  0.17925079546E+03  0.75342067932E+03  0.46999998093E+01 0.  1.
</event>
<event>
 5   0  0.1004313E-04  0.1507761E+04  0.7818609E-02  0.8879308E-01
        3   -1    0    0  501    0  0.00000000000E+00  0.00000000000E+00  0.10921011996E+04  0.10921012043E+04  0.10100000352E+00 0. -1.
       -3   -1    0    0    0  501  0.00000000000E+00  0.00000000000E+00 -0.52040576295E+03  0.52040577275E+03  0.10100000352E+00 0.  1.
    10030    2    1    2    0    0  0.00000000000E+00  0.00000000000E+00  0.57169543666E+03  0.16125069770E+04  0.15077609488E+04 0.  0.
        1    1    3    3  502    0 -0.92096454074E+00 -0.36188407339E+02  0.10911711547E+04  0.10917714678E+04  0.50400001928E-02 0. -1.
       -1    1    3    3    0  502  0.92096454074E+00  0.36188407339E+02 -0.51947571801E+03  0.52073550928E+03  0.50400001928E-02 0.  1.
</event>
<event>
 5   0  0.1443750E-04  0.1497307E+04  0.7818609E-02  0.8886245E-01
        1   -1    0    0  501    0  0.00000000000E+00  0.00000000000E+00  0.93649946669E+03  0.93649946670E+03  0.50400001928E-02 0.  1.
       -1   -1    0    0    0  501  0.00000000000E+00  0.00000000000E+00 -0.59848655773E+03  0.59848655775E+03  0.50400001928E-02 0. -1.
    10030    2    1    2    0    0  0.00000000000E+00  0.00000000000E+00  0.33801290896E+03  0.15349860245E+04  0.14973073728E+04 0.  0.
        2    1    3    3  502    0  0.59062653241E+03  0.35252838825E+03 -0.13400959052E+03  0.70076710515E+03  0.25500000920E-02 0. -1.
       -2    1    3    3    0  502 -0.59062653241E+03 -0.35252838825E+03  0.47202249948E+03  0.83421891931E+03  0.25500000920E-02 0.  1.
</event>
<event>
 5   0  0.2646718E-04  0.1501917E+04  0.7818609E-02  0.8883179E-01
        2   -1    0    0  501    0  0.00000000000E+00  0.00000000000E+00  0.57599289885E+03  0.57599289886E+03  0.25500000920E-02 0.  1.
       -2   -1    0    0    0  501  0.00000000000E+00  0.00000000000E+00 -0.97907276042E+03  0.97907276042E+03  0.25500000920E-02 0. -1.
    10030    2    1    2    0    0  0.00000000000E+00  0.00000000000E+00 -0.40307986157E+03  0.15550656593E+04  0.15019173845E+04 0.  0.
        3    1    3    3  502    0 -0.39609213296E+03  0.47708438430E+03  0.23705425817E+03  0.66384728594E+03  0.10100000352E+00 0.  1.
       -3    1    3    3    0  502  0.39609213296E+03 -0.47708438430E+03 -0.64013411974E+03  0.89121837334E+03  0.10100000352E+00 0. -1.
</event>
<event>
 5   0  0.2696040E-04  0.1506017E+04  0.7818609E-02  0.8880461E-01
        2   -1    0    0  501    0  0.00000000000E+00  0.00000000000E+00  0.97034599487E+03  0.97034599488E+03  0.25500000920E-02 0.  1.
       -2   -1    0    0    0  501  0.00000000000E+00  0.00000000000E+00 -0.58435021308E+03  0.58435021309E+03  0.25500000920E-02 0. -1.
    10030    2    1    2    0    0  0.00000000000E+00  0.00000000000E+00  0.38599578179E+03  0.15546962080E+04  0.15060171166E+04 0.  0.
        2    1    3    3  502    0 -0.36325595695E+03 -0.65698340689E+03  0.25354345545E+03  0.79238019347E+03  0.25500000920E-02 0.  1.
       -2    1    3    3    0  502  0.36325595695E+03  0.65698340689E+03  0.13245232634E+03  0.76231601449E+03  0.25500000920E-02 0. -1.
</event>
<event>
 5   0  0.2646718E-04  0.1482380E+04  0.7818609E-02  0.8896256E-01
       -2   -1    0    0    0  501  0.00000000000E+00  0.00000000000E+00  0.29138673614E+03  0.29138673615E+03  0.25500000920E-02 0.  1.
        2   -1    0    0  501    0  0.00000000000E+00  0.00000000000E+00 -0.18853375040E+04  0.18853375040E+04  0.25500000920E-02 0. -1.
    10030    2    1    2    0    0  0.00000000000E+00  0.00000000000E+00 -0.15939507679E+04  0.21767242402E+04  0.14823796300E+04 0.  0.
        3    1    3    3  502    0  0.21964292032E+02  0.74085895173E+03 -0.80110656322E+03  0.10913872605E+04  0.10100000352E+00 0. -1.
       -3    1    3    3    0  502 -0.21964292032E+02 -0.74085895173E+03 -0.79284420469E+03  0.10853369797E+04  0.10100000352E+00 0.  1.
</event>
<event>
 5   0  0.2696040E-04  0.1525825E+04  0.7818609E-02  0.8867459E-01
        2   -1    0    0  501    0  0.00000000000E+00  0.00000000000E+00  0.98938176377E+03  0.98938176377E+03  0.25500000920E-02 0. -1.
       -2   -1    0    0    0  501  0.00000000000E+00  0.00000000000E+00 -0.58828221298E+03  0.58828221299E+03  0.25500000920E-02 0.  1.
    10030    2    1    2    0    0  0.00000000000E+00  0.00000000000E+00  0.40109955078E+03  0.15776639768E+04  0.15258252763E+04 0.  0.
        2    1    3    3  502    0  0.61567529650E+03  0.11165873079E+03 -0.25075592190E+03  0.67409366950E+03  0.25500000920E-02 0.  1.
       -2    1    3    3    0  502 -0.61567529650E+03 -0.11165873079E+03  0.65185547268E+03  0.90357030726E+03  0.25500000920E-02 0. -1.
</event>
<event>
 5   0  0.2646718E-04  0.1500745E+04  0.7818609E-02  0.8883958E-01
       -2   -1    0    0    0  501  0.00000000000E+00  0.00000000000E+00  0.41615358920E+03  0.41615358921E+03  0.25500000920E-02 0.  1.
        2   -1    0    0  501    0  0.00000000000E+00  0.00000000000E+00 -0.13530073071E+04  0.13530073071E+04  0.25500000920E-02 0. -1.
    10030    2    1    2    0    0  0.00000000000E+00  0.00000000000E+00 -0.93685371785E+03  0.17691608963E+04  0.15007449444E+04 0.  0.
        3    1    3    3  502    0  0.19907358740E+02  0.71957587567E+03 -0.21870679024E+03  0.75234195289E+03  0.10100000352E+00 0. -1.
       -3    1    3    3    0  502 -0.19907358740E+02 -0.71957587567E+03 -0.71814692760E+03  0.10168189434E+04  0.10100000352E+00 0.  1.
</event>
<event>
 5   0  0.2734072E-04  0.1490926E+04  0.7818609E-02  0.8890509E-01
        2   -1    0    0  501    0  0.00000000000E+00  0.00000000000E+00  0.58491296818E+03  0.58491296818E+03  0.25500000920E-02 0.  1.
       -2   -1    0    0    0  501  0.00000000000E+00  0.00000000000E+00 -0.95008214274E+03  0.95008214274E+03  0.25500000920E-02 0. -1.
    10030    2    1    2    0    0  0.00000000000E+00  0.00000000000E+00 -0.36516917456E+03  0.15349951109E+04  0.14909263780E+04 0.  0.
        5    1    3    3  502    0 -0.24507697802E+03  0.37577958380E+03 -0.79551343935E+03  0.91331086873E+03  0.46999998093E+01 0. -1.
       -5    1    3    3    0  502  0.24507697802E+03 -0.37577958380E+03  0.43034426479E+03  0.62168424219E+03  0.46999998093E+01 0.  1.
</event>
<event>
 5   0  0.2641347E-04  0.1496006E+04  0.7818609E-02  0.8887113E-01
       -2   -1    0    0    0  501  0.00000000000E+00  0.00000000000E+00  0.38568867556E+03  0.38568867557E+03  0.25500000920E-02 0. -1.
        2   -1    0    0  501    0  0.00000000000E+00  0.00000000000E+00 -0.14506731131E+04  0.14506731131E+04  0.25500000920E-02 0.  1.
    10030    2    1    2    0    0  0.00000000000E+00  0.00000000000E+00 -0.10649844376E+04  0.18363617887E+04  0.14960056039E+04 0.  0.
        4    1    3    3  502    0  0.55699339535E+03  0.49387572085E+03 -0.62229116897E+03  0.97025913136E+03  0.12699999809E+01 0. -1.
       -4    1    3    3    0  502 -0.55699339535E+03 -0.49387572085E+03 -0.44269326859E+03  0.86610265734E+03  0.12699999809E+01 0.  1.
</event>
<event>
 5   0  0.2641347E-04  0.1500187E+04  0.7818609E-02  0.8884328E-01
        2   -1    0    0  501    0  0.00000000000E+00  0.00000000000E+00  0.18543757571E+04  0.18543757571E+04  0.25500000920E-02 0.  1.
       -2   -1    0    0    0  501  0.00000000000E+00  0.00000000000E+00 -0.30341237474E+03  0.30341237475E+03  0.25500000920E-02 0. -1.
    10030    2    1    2    0    0  0.00000000000E+00  0.00000000000E+00  0.15509633824E+04  0.21577881319E+04  0.15001873912E+04 0.  0.
        4    1    3    3  502    0  0.15506042322E+03 -0.72020785412E+03  0.57259920796E+03  0.93306728259E+03  0.12699999809E+01 0. -1.
       -4    1    3    3    0  502 -0.15506042322E+03  0.72020785412E+03  0.97836417443E+03  0.12247208493E+04  0.12699999809E+01 0.  1.
</event>
<event>
 5   0  0.1426929E-04  0.1525805E+04  0.7818609E-02  0.8867472E-01
        1   -1    0    0  501    0  0.00000000000E+00  0.00000000000E+00  0.68077570426E+03  0.68077570428E+03  0.50400001928E-02 0.  1.
       -1   -1    0    0    0  501  0.00000000000E+00  0.00000000000E+00 -0.85493713921E+03  0.85493713923E+03  0.50400001928E-02 0. -1.
    10030    2    1    2    0    0  0.00000000000E+00  0.00000000000E+00 -0.17416143495E+03  0.15357128435E+04  0.15258052734E+04 0.  0.
        1    1    3    3  502    0  0.35741765070E+03  0.20385665227E+02  0.59098323037E+03  0.69095884898E+03  0.50400001928E-02 0.  1.
       -1    1    3    3    0  502 -0.35741765070E+03 -0.20385665227E+02 -0.76514466533E+03  0.84475399453E+03  0.50400001928E-02 0. -1.
</event>
<event>
 5   0  0.2696040E-04  0.1572271E+04  0.7818609E-02  0.8837766E-01
        2   -1    0    0  501    0  0.00000000000E+00  0.00000000000E+00  0.11473018474E+04  0.11473018474E+04  0.25500000920E-02 0.  1.
       -2   -1    0    0    0  501  0.00000000000E+00  0.00000000000E+00 -0.53866300647E+03  0.53866300647E+03  0.25500000920E-02 0. -1.
    10030    2    1    2    0    0  0.00000000000E+00  0.00000000000E+00  0.60863884090E+03  0.16859648538E+04  0.15722710484E+04 0.  0.
        2    1    3    3  502    0  0.33559681817E+03 -0.13196516052E+03 -0.44474165744E+03  0.57256892146E+03  0.25500000920E-02 0. -1.
       -2    1    3    3    0  502 -0.33559681817E+03  0.13196516052E+03  0.10533804983E+04  0.11133959324E+04  0.25500000920E-02 0.  1.
</event>
<event>
 5   0  0.1484251E-04  0.1499676E+04  0.7818609E-02  0.8884669E-01
        1   -1    0    0  501    0  0.00000000000E+00  0.00000000000E+00  0.19348486700E+04  0.19348486700E+04  0.50400001928E-02 0. -1.
       -1   -1    0    0    0  501  0.00000000000E+00  0.00000000000E+00 -0.29059469667E+03  0.29059469671E+03  0.50400001928E-02 0.  1.
    10030    2    1    2    0    0  0.00000000000E+00  0.00000000000E+00  0.16442539734E+04  0.22254433668E+04  0.14996756482E+04 0.  0.
        5    1    3    3  502    0  0.28329112364E+03 -0.53530477458E+03  0.16611104974E+03  0.62802868825E+03  0.46999998093E+01 0.  1.
       -5    1    3    3    0  502 -0.28329112364E+03  0.53530477458E+03  0.14781429236E+04  0.15974146785E+04  0.46999998093E+01 0. -1.
</event>
<event>
 5   0  0.1427609E-04  0.1491125E+04  0.7818609E-02  0.8890376E-01
        1   -1    0    0  501    0  0.00000000000E+00  0.00000000000E+00  0.89310607159E+03  0.89310607160E+03  0.50400001928E-02 0.  1.
       -1   -1    0    0    0  501  0.00000000000E+00  0.00000000000E+00 -0.62239376335E+03  0.62239376337E+03  0.50400001928E-02 0. -1.
    10030    2    1    2    0    0  0.00000000000E+00  0.00000000000E+00  0.27071230824E+03  0.15154998350E+04  0.14911252784E+04 0.  0.
        4    1    3    3  502    0 -0.35922078308E+03  0.67189228176E+02 -0.52511895060E+03  0.63976987156E+03  0.12699999809E+01 0. -1.
       -4    1    3    3    0  502  0.35922078308E+03 -0.67189228176E+02  0.79583125884E+03  0.87572996342E+03  0.12699999809E+01 0.  1.
</event>
<event>
 5   0  0.1484251E-04  0.1499700E+04  0.7818609E-02  0.8884653E-01
       -1   -1    0    0    0  501  0.00000000000E+00  0.00000000000E+00  0.37273665283E+03  0.37273665286E+03  0.50400001928E-02 0.  1.
        1   -1    0    0  501    0  0.00000000000E+00  0.00000000000E+00 -0.15085039693E+04  0.15085039693E+04  0.50400001928E-02 0. -1.
    10030    2    1    2    0    0  0.00000000000E+00  0.00000000000E+00 -0.11357673164E+04  0.18812406221E+04  0.14996995970E+04 0.  0.
        5    1    3    3  502    0  0.69605005949E+03  0.19454831817E+03 -0.81850837507E+03  0.10919307595E+04  0.46999998093E+01 0. -1.
       -5    1    3    3    0  502 -0.69605005949E+03 -0.19454831817E+03 -0.31725894137E+03  0.78930986266E+03  0.46999998093E+01 0.  1.
</event>
<event>
 5   0  0.2618901E-04  0.1505222E+04  0.7818609E-02  0.8880988E-01
        2   -1    0    0  501    0  0.00000000000E+00  0.00000000000E+00  0.90729527368E+03  0.90729527369E+03  0.25500000920E-02 0.  1.
       -2   -1    0    0    0  501  0.00000000000E+00  0.00000000000E+00 -0.62429858733E+03  0.62429858734E+03  0.25500000920E-02 0. -1.
    10030    2    1    2    0    0  0.00000000000E+00  0.00000000000E+00  0.28299668635E+03  0.15315938610E+04  0.15052217879E+04 0.  0.
        1    1    3    3  502    0  0.57289624929E+03 -0.43206362125E+03 -0.89490153526E+02  0.72311656934E+03  0.50400001928E-02 0. -1.
       -1    1    3    3    0  502 -0.57289624929E+03  0.43206362125E+03  0.37248683988E+03  0.80847729168E+03  0.50400001928E-02 0.  1.
</event>
<event>
 5   0  0.2646718E-04  0.1436889E+04  0.7818609E-02  0.8927541E-01
       -2   -1    0    0    0  501  0.00000000000E+00  0.00000000000E+00  0.10239650226E+04  0.10239650226E+04  0.25500000920E-02 0.  1.
        2   -1    0    0  501    0  0.00000000000E+00  0.00000000000E+00 -0.50408193929E+03  0.50408193929E+03  0.25500000920E-02 0. -1.
    10030    2    1    2    0    0  0.00000000000E+00  0.00000000000E+00  0.51988308330E+03  0.15280469619E+04  0.14368886865E+04 0.  0.
        3    1    3    3  502    0  0.11208221848E+03 -0.35551808934E+03  0.91307704502E+03  0.98623792053E+03  0.10100000352E+00 0.  1.
       -3    1    3    3    0  502 -0.11208221848E+03  0.35551808934E+03 -0.39319396172E+03  0.54180904135E+03  0.10100000352E+00 0. -1.
</event>
<event>
 5   0  0.2734072E-04  0.1475125E+04  0.7818609E-02  0.8901165E-01
        2   -1    0    0  501    0  0.00000000000E+00  0.00000000000E+00  0.17178980975E+04  0.17178980975E+04  0.25500000920E-02 0.  1.
       -2   -1    0    0    0  501  0.00000000000E+00  0.00000000000E+00 -0.31666522069E+03  0.31666522070E+03  0.25500000920E-02 0. -1.
    10030    2    1    2    0    0  0.00000000000E+00  0.00000000000E+00  0.14012328768E+04  0.20345633182E+04  0.14751251881E+04 0.  0.
        5    1    3    3  502    0  0.12708209414E+03  0.41059398847E+03  0.15272902822E+04  0.15866237670E+04  0.46999998093E+01 0.  1.
       -5    1    3    3    0  502 -0.12708209414E+03 -0.41059398847E+03 -0.12605740542E+03  0.44793955114E+03  0.46999998093E+01 0. -1.
</event>
<event>
 5   0  0.1484251E-04  0.1502249E+04  0.7818609E-02  0.8882959E-01
        1   -1    0    0  501    0  0.00000000000E+00  0.00000000000E+00  0.62086549492E+03  0.62086549494E+03  0.50400001928E-02 0.  1.
       -1   -1    0    0    0  501  0.00000000000E+00  0.00000000000E+00 -0.90871191922E+03  0.90871191923E+03  0.50400001928E-02 0. -1.
    10030    2    1    2    0    0  0.00000000000E+00  0.00000000000E+00 -0.28784642430E+03  0.15295774142E+04  0.15022488149E+04 0.  0.
        5    1    3    3  502    0  0.59383160994E+03  0.16046466110E+03  0.29494095230E+03  0.68220022263E+03  0.46999998093E+01 0.  1.
       -5    1    3    3    0  502 -0.59383160994E+03 -0.16046466110E+03 -0.58278737659E+03  0.84737719154E+03  0.46999998093E+01 0. -1.
</event>
<event>
 5   0  0.2646718E-04  0.1504208E+04  0.7818609E-02  0.8881659E-01
       -2   -1    0    0    0  501  0.00000000000E+00  0.00000000000E+00  0.26172216583E+03  0.26172216584E+03  0.25500000920E-02 0. -1.
        2   -1    0    0  501    0  0.00000000000E+00  0.00000000000E+00 -0.21613015895E+04  0.21613015895E+04  0.25500000920E-02 0.  1.
    10030    2    1    2    0    0  0.00000000000E+00  0.00000000000E+00 -0.18995794236E+04  0.24230237553E+04  0.15042081412E+04 0.  0.
        3    1    3    3  502    0  0.30685068970E+03  0.44335068909E+03 -0.10515030049E+03  0.54933939889E+03  0.10100000352E+00 0. -1.
       -3    1    3    3    0  502 -0.30685068970E+03 -0.44335068909E+03 -0.17944291232E+04  0.18736843564E+04  0.10100000352E+00 0.  1.
</event>
<event>
 5   0  0.2641347E-04  0.1412697E+04  0.7818609E-02  0.8944678E-01
        2   -1    0    0  501    0  0.00000000000E+00  0.00000000000E+00  0.13552364849E+04  0.13552364849E+04  0.25500000920E-02 0. -1.
       -2   -1    0    0    0  501  0.00000000000E+00  0.00000000000E+00 -0.36814864630E+03  0.36814864631E+03  0.25500000920E-02 0.  1.
    10030    2    1    2    0    0  0.00000000000E+00  0.00000000000E+00  0.98708783862E+03  0.17233851312E+04  0.14126973878E+04 0.  0.
        4    1    3    3  502    0  0.25518806802E+03  0.58976283687E+03  0.85126648915E+03  0.10665821123E+04  0.12699999809E+01 0.  1.
       -4    1    3    3    0  502 -0.25518806802E+03 -0.58976283687E+03  0.13582134947E+03  0.65680301894E+03  0.12699999809E+01 0. -1.
</event>
<event>
 5   0  0.2734072E-04  0.1494469E+04  0.7818609E-02  0.8888139E-01
       -2   -1    0    0    0  501  0.00000000000E+00  0.00000000000E+00  0.37907142685E+03  0.37907142686E+03  0.25500000920E-02 0.  1.
        2   -1    0    0  501    0  0.00000000000E+00  0.00000000000E+00 -0.14729664007E+04  0.14729664007E+04  0.25500000920E-02 0. -1.
    10030    2    1    2    0    0  0.00000000000E+00  0.00000000000E+00 -0.10938949739E+04  0.18520378276E+04  0.14944691034E+04 0.  0.
        5    1    3    3  502    0 -0.69987133122E+03 -0.18495911205E+03 -0.31740753707E+03  0.79044252668E+03  0.46999998093E+01 0.  1.
       -5    1    3    3    0  502  0.69987133122E+03  0.18495911205E+03 -0.77648743680E+03  0.10615953009E+04  0.46999998093E+01 0. -1.
</event>
<event>
 5   0  0.1484251E-04  0.1494305E+04  0.7818609E-02  0.8888249E-01
        1   -1    0    0  501    0  0.00000000000E+00  0.00000000000E+00  0.66700833740E+03  0.66700833742E+03  0.50400001928E-02 0.  1.
       -1   -1    0    0    0  501  0.00000000000E+00  0.00000000000E+00 -0.83692613361E+03  0.83692613362E+03  0.50400001928E-02 0. -1.
    10030    2    1    2    0    0  0.00000000000E+00  0.00000000000E+00 -0.16991779620E+03  0.15039344710E+04  0.14943048001E+04 0.  0.
        5    1    3    3  502    0 -0.27099994943E+03  0.49691849958E+03  0.40587814332E+03  0.69651139620E+03  0.46999998093E+01 0.  1.
       -5    1    3    3    0  502  0.27099994943E+03 -0.49691849958E+03 -0.57579593952E+03  0.80742307484E+03  0.46999998093E+01 0. -1.
</event>
<event>
 5   0  0.2646718E-04  0.1492368E+04  0.7818609E-02  0.8889544E-01
        2   -1    0    0  501    0  0.00000000000E+00  0.00000000000E+00  0.14916999338E+04  0.14916999338E+04  0.25500000920E-02 0. -1.
       -2   -1    0    0    0  501  0.00000000000E+00  0.00000000000E+00 -0.37325913548E+03  0.37325913548E+03  0.25500000920E-02 0.  1.
    10030    2    1    2    0    0  0.00000000000E+00  0.00000000000E+00  0.11184407983E+04  0.18649590692E+04  0.14923680882E+04 0.  0.
        3    1    3    3  502    0  0.15986327988E+03  0.25560128537E+03  0.14122042188E+04  0.14440252945E+04  0.10100000352E+00 0. -1.
       -3    1    3    3    0  502 -0.15986327988E+03 -0.25560128537E+03 -0.29376342048E+03  0.42093377478E+03  0.10100000352E+00 0.  1.
</event>
<event>
 5   0  0.2618901E-04  0.1492961E+04  0.7818609E-02  0.8889148E-01
        2   -1    0    0  501    0  0.00000000000E+00  0.00000000000E+00  0.83496254949E+03  0.83496254950E+03  0.25500000920E-02 0.  1.
       -2   -1    0    0    0  501  0.00000000000E+00  0.00000000000E+00 -0.66737460854E+03  0.66737460854E+03  0.25500000920E-02 0. -1.
    10030    2    1    2    0    0  0.00000000000E+00  0.00000000000E+00  0.16758794096E+03  0.15023371580E+04  0.14929605549E+04 0.  0.
        1    1    3    3  502    0  0.12051850005E+03  0.93824801008E+02  0.81907112179E+03  0.83318983714E+03  0.50400001928E-02 0.  1.
       -1    1    3    3    0  502 -0.12051850005E+03 -0.93824801008E+02 -0.65148318083E+03  0.66914732090E+03  0.50400001928E-02 0. -1.
</event>
<event>
 5   0  0.2641347E-04  0.1504668E+04  0.7818609E-02  0.8881355E-01
       -2   -1    0    0    0  501  0.00000000000E+00  0.00000000000E+00  0.31505082149E+03  0.31505082150E+03  0.25500000920E-02 0.  1.
        2   -1    0    0  501    0  0.00000000000E+00  0.00000000000E+00 -0.17965565928E+04  0.17965565928E+04  0.25500000920E-02 0. -1.
    10030    2    1    2    0    0  0.00000000000E+00  0.00000000000E+00 -0.14815057713E+04  0.21116074143E+04  0.15046682431E+04 0.  0.
        4    1    3    3  502    0  0.61107472955E+03 -0.66118896463E+02 -0.13495974638E+04  0.14829696425E+04  0.12699999809E+01 0. -1.
       -4    1    3    3    0  502 -0.61107472955E+03  0.66118896463E+02 -0.13190830751E+03  0.62863777174E+03  0.12699999809E+01 0.  1.
</event>
<event>
 5   0  0.2618901E-04  0.1499918E+04  0.7818609E-02  0.8884507E-01
        2   -1    0    0  501    0  0.00000000000E+00  0.00000000000E+00  0.91139369092E+03  0.91139369092E+03  0.25500000920E-02 0.  1.
       -2   -1    0    0    0  501  0.00000000000E+00  0.00000000000E+00 -0.61711932730E+03  0.61711932730E+03  0.25500000920E-02 0. -1.
    10030    2    1    2    0    0  0.00000000000E+00  0.00000000000E+00  0.29427436362E+03  0.15285130182E+04  0.14999182130E+04 0.  0.
        1    1    3    3  502    0  0.13258750407E+03  0.67741307979E+03  0.44593462845E+03  0.82178197825E+03  0.50400001928E-02 0.  1.
       -1    1    3    3    0  502 -0.13258750407E+03 -0.67741307979E+03 -0.15166026483E+03  0.70673103997E+03  0.50400001928E-02 0. -1.
</event>
<event>
 5   0  0.2646718E-04  0.1501527E+04  0.7818609E-02  0.8883438E-01
       -2   -1    0    0    0  501  0.00000000000E+00  0.00000000000E+00  0.38378714761E+03  0.38378714762E+03  0.25500000920E-02 0. -1.
        2   -1    0    0  501    0  0.00000000000E+00  0.00000000000E+00 -0.14686413442E+04  0.14686413442E+04  0.25500000920E-02 0.  1.
    10030    2    1    2    0    0  0.00000000000E+00  0.00000000000E+00 -0.10848541966E+04  0.18524284919E+04  0.15015267861E+04 0.  0.
        3    1    3    3  502    0  0.68938264622E+03  0.28162312370E+03 -0.42483280108E+03  0.85734645027E+03  0.10100000352E+00 0. -1.
       -3    1    3    3    0  502 -0.68938264622E+03 -0.28162312370E+03 -0.66002139555E+03  0.99508204159E+03  0.10100000352E+00 0.  1.
</event>
<event>
 5   0  0.2696040E-04  0.1517400E+04  0.7818609E-02  0.8872964E-01
        2   -1    0    0  501    0  0.00000000000E+00  0.00000000000E+00  0.16083428217E+04  0.16083428217E+04  0.25500000920E-02 0.  1.
       -2   -1    0    0    0  501  0.00000000000E+00  0.00000000000E+00 -0.35789986431E+03  0.35789986432E+03  0.25500000920E-02 0. -1.
    10030    2    1    2    0    0  0.00000000000E+00  0.00000000000E+00  0.12504429574E+04  0.19662426860E+04  0.15173999838E+04 0.  0.
        2    1    3    3  502    0 -0.59198936872E+03 -0.30557046338E+03  0.15479005190E+03  0.68394786420E+03  0.25500000920E-02 0. -1.
       -2    1    3    3    0  502  0.59198936872E+03  0.30557046338E+03  0.10956529055E+04  0.12822948219E+04  0.25500000920E-02 0.  1.
</event>
<event>
 5   0  0.2618901E-04  0.1500020E+04  0.7818609E-02  0.8884440E-01
       -2   -1    0    0    0  501  0.00000000000E+00  0.00000000000E+00  0.24315359352E+03  0.24315359353E+03  0.25500000920E-02 0.  1.
        2   -1    0    0  501    0  0.00000000000E+00  0.00000000000E+00 -0.23134132689E+04  0.23134132689E+04  0.25500000920E-02 0. -1.
    10030    2    1    2    0    0  0.00000000000E+00  0.00000000000E+00 -0.20702596754E+04  0.25565668624E+04  0.15000196661E+04 0.  0.
        1    1    3    3  502    0  0.64249220612E+03  0.18174613057E+03 -0.45293121092E+03  0.80682995281E+03  0.50400001928E-02 0.  1.
       -1    1    3    3    0  502 -0.64249220612E+03 -0.18174613057E+03 -0.16173284644E+04  0.17497369096E+04  0.50400001928E-02 0. -1.
</event>
<event>
 5   0  0.2696040E-04  0.1490144E+04  0.7818609E-02  0.8891033E-01
       -2   -1    0    0    0  501  0.00000000000E+00  0.00000000000E+00  0.42783426501E+03  0.42783426501E+03  0.25500000920E-02 0.  1.
        2   -1    0    0  501    0  0.00000000000E+00  0.00000000000E+00 -0.12975408434E+04  0.12975408434E+04  0.25500000920E-02 0. -1.
    10030    2    1    2    0    0  0.00000000000E+00  0.00000000000E+00 -0.86970657836E+03  0.17253751084E+04  0.14901441985E+04 0.  0.
        2    1    3    3  502    0  0.25299428099E+03  0.43529838060E+03 -0.10707709456E+04  0.11832333685E+04  0.25500000920E-02 0. -1.
       -2    1    3    3    0  502 -0.25299428099E+03 -0.43529838060E+03  0.20106436723E+03  0.54214173990E+03  0.25500000920E-02 0.  1.
</event>
<event>
 5   0  0.1426929E-04  0.1502468E+04  0.7818609E-02  0.8882813E-01
       -1   -1    0    0    0  501  0.00000000000E+00  0.00000000000E+00  0.24386362832E+03  0.24386362837E+03  0.50400001928E-02 0. -1.
        1   -1    0    0  501    0  0.00000000000E+00  0.00000000000E+00 -0.23142145051E+04  0.23142145051E+04  0.50400001928E-02 0.  1.
    10030    2    1    2    0    0  0.00000000000E+00  0.00000000000E+00 -0.20703508768E+04  0.25580781335E+04  0.15024682972E+04 0.  0.
        1    1    3    3  502    0 -0.58279059550E+03 -0.17621541268E+03 -0.17844206268E+04  0.18854319726E+04  0.50400001928E-02 0.  1.
       -1    1    3    3    0  502  0.58279059550E+03  0.17621541268E+03 -0.28593024994E+03  0.67264616086E+03  0.50400001928E-02 0. -1.
</event>
<event>
 5   0  0.1443750E-04  0.1498012E+04  0.7818609E-02  0.8885776E-01
        1   -1    0    0  501    0  0.00000000000E+00  0.00000000000E+00  0.92650227574E+03  0.92650227576E+03  0.50400001928E-02 0. -1.
       -1   -1    0    0    0  501  0.00000000000E+00  0.00000000000E+00 -0.60551389643E+03  0.60551389645E+03  0.50400001928E-02 0.  1.
    10030    2    1    2    0    0  0.00000000000E+00  0.00000000000E+00  0.32098837931E+03  0.15320161722E+04  0.14980120201E+04 0.  0.
        2    1    3    3  502    0  0.28276441778E+03 -0.63012212657E+03  0.45690136304E+03  0.82811138496E+03  0.25500000920E-02 0. -1.
       -2    1    3    3    0  502 -0.28276441778E+03  0.63012212657E+03 -0.13591298373E+03  0.70390478725E+03  0.25500000920E-02 0.  1.
</event>
<event>
 5   0  0.1427609E-04  0.1513062E+04  0.7818609E-02  0.8875813E-01
        1   -1    0    0  501    0  0.00000000000E+00  0.00000000000E+00  0.77691423280E+03  0.77691423282E+03  0.50400001928E-02 0.  1.
       -1   -1    0    0    0  501  0.00000000000E+00  0.00000000000E+00 -0.73668266137E+03  0.73668266139E+03  0.50400001928E-02 0. -1.
    10030    2    1    2    0    0  0.00000000000E+00  0.00000000000E+00  0.40231571434E+02  0.15135968942E+04  0.15130621199E+04 0.  0.
        4    1    3    3  502    0  0.64806333134E+03  0.31209205242E+03  0.25461301601E+03  0.76303140920E+03  0.12699999809E+01 0.  1.
       -4    1    3    3    0  502 -0.64806333134E+03 -0.31209205242E+03 -0.21438144457E+03  0.75056548501E+03  0.12699999809E+01 0. -1.
</event>
<event>
 5   0  0.1484251E-04  0.1491436E+04  0.7818609E-02  0.8890168E-01
        1   -1    0    0  501    0  0.00000000000E+00  0.00000000000E+00  0.17504420112E+04  0.17504420112E+04  0.50400001928E-02 0. -1.
       -1   -1    0    0    0  501  0.00000000000E+00  0.00000000000E+00 -0.31768833451E+03  0.31768833455E+03  0.50400001928E-02 0.  1.
    10030    2    1    2    0    0  0.00000000000E+00  0.00000000000E+00  0.14327536767E+04  0.20681303457E+04  0.14914355598E+04 0.  0.
        5    1    3    3  502    0 -0.22617524040E+03 -0.51178747901E+03  0.13999243943E+04  0.15076113765E+04  0.46999998093E+01 0. -1.
       -5    1    3    3    0  502  0.22617524040E+03  0.51178747901E+03  0.32829282393E+02  0.56051896919E+03  0.46999998093E+01 0.  1.
</event>
<event>
 5   0  0.2646718E-04  0.1508403E+04  0.7818609E-02  0.8878884E-01
        2   -1    0    0  501    0  0.00000000000E+00  0.00000000000E+00  0.11646357110E+04  0.11646357110E+04  0.25500000920E-02 0. -1.
       -2   -1    0    0    0  501  0.00000000000E+00  0.00000000000E+00 -0.48840984479E+03  0.48840984480E+03  0.25500000920E-02 0.  1.
    10030    2    1    2    0    0  0.00000000000E+00  0.00000000000E+00  0.67622586626E+03  0.16530455558E+04  0.15084025283E+04 0.  0.
        3    1    3    3  502    0 -0.16468831308E+03  0.69667037183E+03  0.59825202870E+03  0.93294016287E+03  0.10100000352E+00 0. -1.
       -3    1    3    3    0  502  0.16468831308E+03 -0.69667037183E+03  0.77973837560E+02  0.72010539298E+03  0.10100000352E+00 0.  1.
</event>
<event>
 5   0  0.1004313E-04  0.1514162E+04  0.7818609E-02  0.8875089E-01
        3   -1    0    0  501    0  0.00000000000E+00  0.00000000000E+00  0.52597487555E+03  0.52597488525E+03  0.10100000352E+00 0.  1.
       -3   -1    0    0    0  501  0.00000000000E+00  0.00000000000E+00 -0.10897325824E+04  0.10897325871E+04  0.10100000352E+00 0. -1.
    10030    2    1    2    0    0  0.00000000000E+00  0.00000000000E+00 -0.56375770684E+03  0.16157074723E+04  0.15141624365E+04 0.  0.
        3    1    3    3  502    0 -0.35823052858E+03 -0.51266529496E+02 -0.99146773206E+03  0.10554457080E+04  0.10100000352E+00 0. -1.
       -3    1    3    3    0  502  0.35823052858E+03  0.51266529496E+02  0.42771002523E+03  0.56026176430E+03  0.10100000352E+00 0.  1.
</event>
<event>
 5   0  0.2646718E-04  0.1561964E+04  0.7818609E-02  0.8844262E-01
        2   -1    0    0  501    0  0.00000000000E+00  0.00000000000E+00  0.16894489692E+04  0.16894489692E+04  0.25500000920E-02 0. -1.
       -2   -1    0    0    0  501  0.00000000000E+00  0.00000000000E+00 -0.36102461045E+03  0.36102461046E+03  0.25500000920E-02 0.  1.
    10030    2    1    2    0    0  0.00000000000E+00  0.00000000000E+00  0.13284243588E+04  0.20504735797E+04  0.15619637076E+04 0.  0.
        3    1    3    3  502    0  0.36810263749E+03  0.59138877961E+02 -0.23666179389E+03  0.44159458048E+03  0.10100000352E+00 0.  1.
       -3    1    3    3    0  502 -0.36810263749E+03 -0.59138877961E+02  0.15650861526E+04  0.16088789992E+04  0.10100000352E+00 0. -1.
</event>
<event>
 5   0  0.1474203E-04  0.1498990E+04  0.7818609E-02  0.8885125E-01
        1   -1    0    0  501    0  0.00000000000E+00  0.00000000000E+00  0.12537329909E+04  0.12537329909E+04  0.50400001928E-02 0.  1.
       -1   -1    0    0    0  501  0.00000000000E+00  0.00000000000E+00 -0.44805640302E+03  0.44805640305E+03  0.50400001928E-02 0. -1.
    10030    2    1    2    0    0  0.00000000000E+00  0.00000000000E+00  0.80567658789E+03  0.17017893940E+04  0.14989904527E+04 0.  0.
        3    1    3    3  502    0 -0.31257859380E+03 -0.59097265479E+03  0.78748067578E+03  0.10329955861E+04  0.10100000352E+00 0.  1.
       -3    1    3    3    0  502  0.31257859380E+03  0.59097265479E+03  0.18195912114E+02  0.66879380786E+03  0.10100000352E+00 0. -1.
</event>
<event>
 5   0  0.1427609E-04  0.1504935E+04  0.7818609E-02  0.8881178E-01
        1   -1    0    0  501    0  0.00000000000E+00  0.00000000000E+00  0.54516013917E+03  0.54516013920E+03  0.50400001928E-02 0. -1.
       -1   -1    0    0    0  501  0.00000000000E+00  0.00000000000E+00 -0.10386071203E+04  0.10386071203E+04  0.50400001928E-02 0.  1.
    10030    2    1    2    0    0  0.00000000000E+00  0.00000000000E+00 -0.49344698108E+03  0.15837672595E+04  0.15049348189E+04 0.  0.
        4    1    3    3  502    0  0.74920548907E+03 -0.68746437232E+02 -0.26047116377E+03  0.79616692819E+03  0.12699999809E+01 0.  1.
       -4    1    3    3    0  502 -0.74920548907E+03  0.68746437232E+02 -0.23297581732E+03  0.78760033128E+03  0.12699999809E+01 0. -1.
</event>
<event>
 5   0  0.1484251E-04  0.1503137E+04  0.7818609E-02  0.8882369E-01
        1   -1    0    0  501    0  0.00000000000E+00  0.00000000000E+00  0.92262235912E+03  0.92262235913E+03  0.50400001928E-02 0. -1.
       -1   -1    0    0    0  501  0.00000000000E+00  0.00000000000E+00 -0.61222800803E+03  0.61222800806E+03  0.50400001928E-02 0.  1.
    10030    2    1    2    0    0  0.00000000000E+00  0.00000000000E+00  0.31039435108E+03  0.15348503672E+04  0.15031370518E+04 0.  0.
        5    1    3    3  502    0  0.22142179391E+03 -0.64059324255E+03  0.48677249739E+03  0.83447999823E+03  0.46999998093E+01 0. -1.
       -5    1    3    3    0  502 -0.22142179391E+03  0.64059324255E+03 -0.17637814631E+03  0.70037036896E+03  0.46999998093E+01 0.  1.
</event>
<event>
 5   0  0.2641347E-04  0.1502458E+04  0.7818609E-02  0.8882820E-01
       -2   -1    0    0    0  501  0.00000000000E+00  0.00000000000E+00  0.52594901079E+03  0.52594901080E+03  0.25500000920E-02 0.  1.
        2   -1    0    0  501    0  0.00000000000E+00  0.00000000000E+00 -0.10730033414E+04  0.10730033414E+04  0.25500000920E-02 0. -1.
    10030    2    1    2    0    0  0.00000000000E+00  0.00000000000E+00 -0.54705433061E+03  0.15989523522E+04  0.15024580473E+04 0.  0.
        4    1    3    3  502    0 -0.10047943718E+03  0.47732872488E+03 -0.88153798283E+03  0.10074967280E+04  0.12699999809E+01 0. -1.
       -4    1    3    3    0  502  0.10047943718E+03 -0.47732872488E+03  0.33448365222E+03  0.59145562419E+03  0.12699999809E+01 0.  1.
</event>
<event>
 5   0  0.2641347E-04  0.1497233E+04  0.7818609E-02  0.8886295E-01
       -2   -1    0    0    0  501  0.00000000000E+00  0.00000000000E+00  0.28604066722E+03  0.28604066723E+03  0.25500000920E-02 0.  1.
        2   -1    0    0  501    0  0.00000000000E+00  0.00000000000E+00 -0.19592560393E+04  0.19592560393E+04  0.25500000920E-02 0. -1.
    10030    2    1    2    0    0  0.00000000000E+00  0.00000000000E+00 -0.16732153721E+04  0.22452967065E+04  0.14972333215E+04 0.  0.
        4    1    3    3  502    0  0.14880529025E+03  0.22009764215E+03  0.21296149699E+03  0.34049992450E+03  0.12699999809E+01 0.  1.
       -4    1    3    3    0  502 -0.14880529025E+03 -0.22009764215E+03 -0.18861768691E+04  0.19047967820E+04  0.12699999809E+01 0. -1.
</event>
<event>
 5   0  0.2646718E-04  0.1500654E+04  0.7818609E-02  0.8884018E-01
        2   -1    0    0  501    0  0.00000000000E+00  0.00000000000E+00  0.12662778514E+04  0.12662778514E+04  0.25500000920E-02 0. -1.
       -2   -1    0    0    0  501  0.00000000000E+00  0.00000000000E+00 -0.44460254427E+03  0.44460254428E+03  0.25500000920E-02 0.  1.
    10030    2    1    2    0    0  0.00000000000E+00  0.00000000000E+00  0.82167530717E+03  0.17108803957E+04  0.15006536636E+04 0.  0.
        3    1    3    3  502    0  0.57042418656E+03 -0.43269091369E+03  0.15492573118E+03  0.73253475807E+03  0.10100000352E+00 0.  1.
       -3    1    3    3    0  502 -0.57042418656E+03  0.43269091369E+03  0.66674957599E+03  0.97834563764E+03  0.10100000352E+00 0. -1.
</event>
<event>
 5   0  0.1426929E-04  0.1507404E+04  0.7818609E-02  0.8879544E-01
        1   -1    0    0  501    0  0.00000000000E+00  0.00000000000E+00  0.18699914226E+04  0.18699914226E+04  0.50400001928E-02 0. -1.
       -1   -1    0    0    0  501  0.00000000000E+00  0.00000000000E+00 -0.30378055416E+03  0.30378055420E+03  0.50400001928E-02 0.  1.
    10030    2    1    2    0    0  0.00000000000E+00  0.00000000000E+00  0.15662108685E+04  0.21737719768E+04  0.15074044324E+04 0.  0.
        1    1    3    3  502    0  0.28560024783E+03  0.29910782480E+03  0.16917584416E+04  0.17415738908E+04  0.50400001928E-02 0. -1.
       -1    1    3    3    0  502 -0.28560024783E+03 -0.29910782480E+03 -0.12554757314E+03  0.43219808602E+03  0.50400001928E-02 0.  1.
</event>
<event>
 5   0  0.2641347E-04  0.1500648E+04  0.7818609E-02  0.8884022E-01
        2   -1    0    0  501    0  0.00000000000E+00  0.00000000000E+00  0.22228962657E+04  0.22228962657E+04  0.25500000920E-02 0. -1.
       -2   -1    0    0    0  501  0.00000000000E+00  0.00000000000E+00 -0.25326678829E+03  0.25326678830E+03  0.25500000920E-02 0.  1.
    10030    2    1    2    0    0  0.00000000000E+00  0.00000000000E+00  0.19696294774E+04  0.24761630540E+04  0.15006475908E+04 0.  0.
        4    1    3    3  502    0  0.32138332412E+03  0.65358647746E+03  0.12823831867E+04  0.14747782121E+04  0.12699999809E+01 0. -1.
       -4    1    3    3    0  502 -0.32138332412E+03 -0.65358647746E+03  0.68724629070E+03  0.10013848419E+04  0.12699999809E+01 0.  1.
</event>
<event>
 5   0  0.1427609E-04  0.1494572E+04  0.7818609E-02  0.8888070E-01
       -1   -1    0    0    0  501  0.00000000000E+00  0.00000000000E+00  0.35841922874E+03  0.35841922878E+03  0.50400001928E-02 0.  1.
        1   -1    0    0  501    0  0.00000000000E+00  0.00000000000E+00 -0.15580544843E+04  0.15580544843E+04  0.50400001928E-02 0. -1.
    10030    2    1    2    0    0  0.00000000000E+00  0.00000000000E+00 -0.11996352555E+04  0.19164737130E+04  0.14945724293E+04 0.  0.
        4    1    3    3  502    0 -0.89550124003E+02  0.73964715006E+03 -0.52573347451E+03  0.91186316431E+03  0.12699999809E+01 0. -1.
       -4    1    3    3    0  502  0.89550124003E+02 -0.73964715006E+03 -0.67390178100E+03  0.10046105487E+04  0.12699999809E+01 0.  1.
</event>
<event>
 5   0  0.2618901E-04  0.1494081E+04  0.7818609E-02  0.8888398E-01
        2   -1    0    0  501    0  0.00000000000E+00  0.00000000000E+00  0.77767561802E+03  0.77767561802E+03  0.25500000920E-02 0. -1.
       -2   -1    0    0    0  501  0.00000000000E+00  0.00000000000E+00 -0.71761228273E+03  0.71761228274E+03  0.25500000920E-02 0.  1.
    10030    2    1    2    0    0  0.00000000000E+00  0.00000000000E+00  0.60063335282E+02  0.14952879008E+04  0.14940810895E+04 0.  0.
        1    1    3    3  502    0 -0.59031632196E+03  0.14075078867E+03 -0.40596391129E+03  0.73013070184E+03  0.50400001928E-02 0.  1.
       -1    1    3    3    0  502  0.59031632196E+03 -0.14075078867E+03  0.46602724657E+03  0.76515719892E+03  0.50400001928E-02 0. -1.
</event>
<event>
 5   0  0.2734072E-04  0.1501718E+04  0.7818609E-02  0.8883312E-01
       -2   -1    0    0    0  501  0.00000000000E+00  0.00000000000E+00  0.32778654524E+03  0.32778654525E+03  0.25500000920E-02 0. -1.
        2   -1    0    0  501    0  0.00000000000E+00  0.00000000000E+00 -0.17199881660E+04  0.17199881660E+04  0.25500000920E-02 0.  1.
    10030    2    1    2    0    0  0.00000000000E+00  0.00000000000E+00 -0.13922016207E+04  0.20477747112E+04  0.15017176549E+04 0.  0.
        5    1    3    3  502    0 -0.68551778024E+03 -0.99916304275E+02 -0.30124110529E+03  0.75543774621E+03  0.46999998093E+01 0. -1.
       -5    1    3    3    0  502  0.68551778024E+03  0.99916304275E+02 -0.10909605154E+04  0.12923369650E+04  0.46999998093E+01 0.  1.
</event>
<event>
 5   0  0.1427609E-04  0.1508091E+04  0.7818609E-02  0.8879091E-01
       -1   -1    0    0    0  501  0.00000000000E+00  0.00000000000E+00  0.76495671758E+03  0.76495671760E+03  0.50400001928E-02 0. -1.
        1   -1    0    0  501    0  0.00000000000E+00  0.00000000000E+00 -0.74328948279E+03  0.74328948281E+03  0.50400001928E-02 0.  1.
    10030    2    1    2    0    0  0.00000000000E+00  0.00000000000E+00  0.21667234790E+02  0.15082462004E+04  0.15080905583E+04 0.  0.
        4    1    3    3  502    0 -0.32945198537E+03 -0.26704690019E+03 -0.61271289590E+03  0.74516532613E+03  0.12699999809E+01 0.  1.
       -4    1    3    3    0  502  0.32945198537E+03  0.26704690019E+03  0.63438013069E+03  0.76308087427E+03  0.12699999809E+01 0. -1.
</event>
<event>
 5   0  0.1426929E-04  0.1501160E+04  0.7818609E-02  0.8883682E-01
       -1   -1    0    0    0  501  0.00000000000E+00  0.00000000000E+00  0.82918706309E+03  0.82918706311E+03  0.50400001928E-02 0.  1.
        1   -1    0    0  501    0  0.00000000000E+00  0.00000000000E+00 -0.67942490744E+03  0.67942490745E+03  0.50400001928E-02 0. -1.
    10030    2    1    2    0    0  0.00000000000E+00  0.00000000000E+00  0.14976215566E+03  0.15086119706E+04  0.15011600096E+04 0.  0.
        1    1    3    3  502    0 -0.32936039322E+03 -0.13180319899E+03  0.73961755942E+03  0.82029536517E+03  0.50400001928E-02 0.  1.
       -1    1    3    3    0  502  0.32936039322E+03  0.13180319899E+03 -0.58985540376E+03  0.68831660539E+03  0.50400001928E-02 0. -1.
</event>
<event>
 5   0  0.1427609E-04  0.1504334E+04  0.7818609E-02  0.8881576E-01
       -1   -1    0    0    0  501  0.00000000000E+00  0.00000000000E+00  0.51970533048E+03  0.51970533050E+03  0.50400001928E-02 0.  1.
        1   -1    0    0  501    0  0.00000000000E+00  0.00000000000E+00 -0.10886074449E+04  0.10886074449E+04  0.50400001928E-02 0. -1.
    10030    2    1    2    0    0  0.00000000000E+00  0.00000000000E+00 -0.56890211440E+03  0.16083127754E+04  0.15043338618E+04 0.  0.
        4    1    3    3  502    0  0.26503300322E+03 -0.19589785653E+03  0.43839950789E+03  0.54846531742E+03  0.12699999809E+01 0.  1.
       -4    1    3    3    0  502 -0.26503300322E+03  0.19589785653E+03 -0.10073016223E+04  0.10598474580E+04  0.12699999809E+01 0. -1.
</event>
<event>
 5   0  0.2641347E-04  0.1489814E+04  0.7818609E-02  0.8891255E-01
       -2   -1    0    0    0  501  0.00000000000E+00  0.00000000000E+00  0.36502339632E+03  0.36502339633E+03  0.25500000920E-02 0. -1.
        2   -1    0    0  501    0  0.00000000000E+00  0.00000000000E+00 -0.15201402060E+04  0.15201402060E+04  0.25500000920E-02 0.  1.
    10030    2    1    2    0    0  0.00000000000E+00  0.00000000000E+00 -0.11551168097E+04  0.18851636023E+04  0.14898144057E+04 0.  0.
        4    1    3    3  502    0 -0.28926536097E+03 -0.64332092318E+03 -0.88058399408E+03  0.11282579682E+04  0.12699999809E+01 0.  1.
       -4    1    3    3    0  502  0.28926536097E+03  0.64332092318E+03 -0.27453281560E+03  0.75690563415E+03  0.12699999809E+01 0. -1.
</event>
<event>
 5   0  0.1426929E-04  0.1497326E+04  0.7818609E-02  0.8886233E-01
       -1   -1    0    0    0  501  0.00000000000E+00  0.00000000000E+00  0.33759490023E+03  0.33759490027E+03  0.50400001928E-02 0. -1.
        1   -1    0    0  501    0  0.00000000000E+00  0.00000000000E+00 -0.16602627168E+04  0.16602627168E+04  0.50400001928E-02 0.  1.
    10030    2    1    2    0    0  0.00000000000E+00  0.00000000000E+00 -0.13226678166E+04  0.19978576171E+04  0.14973259181E+04 0.  0.
        1    1    3    3  502    0  0.28232248763E+03 -0.67679200980E+03 -0.86255351610E+03  0.11321448581E+04  0.50400001928E-02 0.  1.
       -1    1    3    3    0  502 -0.28232248763E+03  0.67679200980E+03 -0.46011430047E+03  0.86571275898E+03  0.50400001928E-02 0. -1.
</event>
<event>
 5   0  0.2618901E-04  0.1495797E+04  0.7818609E-02  0.8887253E-01
       -2   -1    0    0    0  501  0.00000000000E+00  0.00000000000E+00  0.72521089583E+03  0.72521089584E+03  0.25500000920E-02 0. -1.
        2   -1    0    0  501    0  0.00000000000E+00  0.00000000000E+00 -0.77129578620E+03  0.77129578621E+03  0.25500000920E-02 0.  1.
    10030    2    1    2    0    0  0.00000000000E+00  0.00000000000E+00 -0.46084890372E+02  0.14965066820E+04  0.14957969221E+04 0.  0.
        1    1    3    3  502    0 -0.45727808126E+03 -0.59181768031E+03 -0.22206752391E+02  0.74822760588E+03  0.50400001928E-02 0.  1.
       -1    1    3    3    0  502  0.45727808126E+03  0.59181768031E+03 -0.23878137981E+02  0.74827907616E+03  0.50400001928E-02 0. -1.
</event>
<event>
 5   0  0.1004313E-04  0.1492602E+04  0.7818609E-02  0.8889388E-01
        3   -1    0    0  501    0  0.00000000000E+00  0.00000000000E+00  0.99963969313E+03  0.99963969823E+03  0.10100000352E+00 0.  1.
       -3   -1    0    0    0  501  0.00000000000E+00  0.00000000000E+00 -0.55716577930E+03  0.55716578846E+03  0.10100000352E+00 0. -1.
    10030    2    1    2    0    0  0.00000000000E+00  0.00000000000E+00  0.44247391383E+03  0.15568054867E+04  0.14926018086E+04 0.  0.
        4    1    3    3  502    0  0.36337422017E+03  0.16095268114E+01 -0.45866138607E+03  0.58516262221E+03  0.12699999809E+01 0. -1.
       -4    1    3    3    0  502 -0.36337422017E+03 -0.16095268114E+01  0.90113529990E+03  0.97164286447E+03  0.12699999809E+01 0.  1.
</event>
<event>
 5   0  0.1484251E-04  0.1497916E+04  0.7818609E-02  0.8885840E-01
       -1   -1    0    0    0  501  0.00000000000E+00  0.00000000000E+00  0.34978966880E+03  0.34978966884E+03  0.50400001928E-02 0.  1.
        1   -1    0    0  501    0  0.00000000000E+00  0.00000000000E+00 -0.16036442740E+04  0.16036442740E+04  0.50400001928E-02 0. -1.
    10030    2    1    2    0    0  0.00000000000E+00  0.00000000000E+00 -0.12538546052E+04  0.19534339428E+04  0.14979161519E+04 0.  0.
        5    1    3    3  502    0  0.10224443546E+02 -0.68615475072E+03 -0.23568998763E+03  0.72559268288E+03  0.46999998093E+01 0.  1.
       -5    1    3    3    0  502 -0.10224443546E+02  0.68615475072E+03 -0.10181646176E+04  0.12278412599E+04  0.46999998093E+01 0. -1.
</event>
<event>
 5   0  0.2646718E-04  0.1501184E+04  0.7818609E-02  0.8883666E-01
       -2   -1    0    0    0  501  0.00000000000E+00  0.00000000000E+00  0.47673969531E+03  0.47673969532E+03  0.25500000920E-02 0.  1.
        2   -1    0    0  501    0  0.00000000000E+00  0.00000000000E+00 -0.11817531305E+04  0.11817531305E+04  0.25500000920E-02 0. -1.
    10030    2    1    2    0    0  0.00000000000E+00  0.00000000000E+00 -0.70501343518E+03  0.16584928258E+04  0.15011843689E+04 0.  0.
        3    1    3    3  502    0 -0.32514639285E+03 -0.27843403655E+03  0.32865937467E+03  0.53968758023E+03  0.10100000352E+00 0.  1.
       -3    1    3    3    0  502  0.32514639285E+03  0.27843403655E+03 -0.10336728099E+04  0.11188052456E+04  0.10100000352E+00 0. -1.
</event>
<event>
 5   0  0.1426929E-04  0.1501415E+04  0.7818609E-02  0.8883513E-01
       -1   -1    0    0    0  501  0.00000000000E+00  0.00000000000E+00  0.59445745442E+03  0.59445745444E+03  0.50400001928E-02 0. -1.
        1   -1    0    0  501    0  0.00000000000E+00  0.00000000000E+00 -0.94802674075E+03  0.94802674076E+03  0.50400001928E-02 0.  1.
    10030    2    1    2    0    0  0.00000000000E+00  0.00000000000E+00 -0.35356928633E+03  0.15424841952E+04  0.15014147502E+04 0.  0.
        1    1    3    3  502    0 -0.43226147152E+03 -0.34304112045E+03  0.34609139910E+03  0.65138809218E+03  0.50400001928E-02 0. -1.
       -1    1    3    3    0  502  0.43226147152E+03  0.34304112045E+03 -0.69966068542E+03  0.89109610303E+03  0.50400001928E-02 0.  1.
</event>
<event>
 5   0  0.1484251E-04  0.1482169E+04  0.7818609E-02  0.8896398E-01
        1   -1    0    0  501    0  0.00000000000E+00  0.00000000000E+00  0.87123789077E+03  0.87123789078E+03  0.50400001928E-02 0. -1.
       -1   -1    0    0    0  501  0.00000000000E+00  0.00000000000E+00 -0.63037455716E+03  0.63037455718E+03  0.50400001928E-02 0.  1.
    10030    2    1    2    0    0  0.00000000000E+00  0.00000000000E+00  0.24086333361E+03  0.15016124480E+04  0.14821689507E+04 0.  0.
        5    1    3    3  502    0 -0.61230985714E+02 -0.70025126608E+03 -0.11734492643E+03  0.71266611468E+03  0.46999998093E+01 0.  1.
       -5    1    3    3    0  502  0.61230985714E+02  0.70025126608E+03  0.35820826003E+03  0.78894633329E+03  0.46999998093E+01 0. -1.
</event>
<event>
 5   0  0.1004313E-04  0.1499765E+04  0.7818609E-02  0.8884609E-01
        3   -1    0    0  501    0  0.00000000000E+00  0.00000000000E+00  0.11404477635E+04  0.11404477680E+04  0.10100000352E+00 0. -1.
       -3   -1    0    0    0  501  0.00000000000E+00  0.00000000000E+00 -0.49307298167E+03  0.49307299201E+03  0.10100000352E+00 0.  1.
    10030    2    1    2    0    0  0.00000000000E+00  0.00000000000E+00  0.64737478187E+03  0.16335207600E+04  0.14997653034E+04 0.  0.
        5    1    3    3  502    0  0.20195570987E+03 -0.90424937920E+02  0.11040627330E+04  0.11260281464E+04  0.46999998093E+01 0. -1.
       -5    1    3    3    0  502 -0.20195570987E+03  0.90424937920E+02 -0.45668795113E+03  0.50749261359E+03  0.46999998093E+01 0.  1.
</event>
<event>
 5   0  0.2734072E-04  0.1485189E+04  0.7818609E-02  0.8894362E-01
        2   -1    0    0  501    0  0.00000000000E+00  0.00000000000E+00  0.93048619804E+03  0.93048619804E+03  0.25500000920E-02 0. -1.
       -2   -1    0    0    0  501  0.00000000000E+00  0.00000000000E+00 -0.59264350386E+03  0.59264350387E+03  0.25500000920E-02 0.  1.
    10030    2    1    2    0    0  0.00000000000E+00  0.00000000000E+00  0.33784269417E+03  0.15231297019E+04  0.14851890125E+04 0.  0.
        5    1    3    3  502    0  0.56252517442E+03  0.48468813653E+03  0.16050504585E+03  0.75969804613E+03  0.46999998093E+01 0. -1.
       -5    1    3    3    0  502 -0.56252517442E+03 -0.48468813653E+03  0.17733764832E+03  0.76343165578E+03  0.46999998093E+01 0.  1.
</event>
<event>
 5   0  0.1426929E-04  0.1510629E+04  0.7818609E-02  0.8877415E-01
       -1   -1    0    0    0  501  0.00000000000E+00  0.00000000000E+00  0.90750213775E+03  0.90750213776E+03  0.50400001928E-02 0. -1.
        1   -1    0    0  501    0  0.00000000000E+00  0.00000000000E+00 -0.62864863275E+03  0.62864863277E+03  0.50400001928E-02 0.  1.
    10030    2    1    2    0    0  0.00000000000E+00  0.00000000000E+00  0.27885350500E+03  0.15361507705E+04  0.15106289791E+04 0.  0.
        1    1    3    3  502    0 -0.48000859771E+03 -0.45592653059E+03 -0.23034103920E+03  0.70095238749E+03  0.50400001928E-02 0.  1.
       -1    1    3    3    0  502  0.48000859771E+03  0.45592653059E+03  0.50919454420E+03  0.83519838304E+03  0.50400001928E-02 0. -1.
</event>
<event>
 5   0  0.1484251E-04  0.1506645E+04  0.7818609E-02  0.8880046E-01
       -1   -1    0    0    0  501  0.00000000000E+00  0.00000000000E+00  0.85806745035E+03  0.85806745036E+03  0.50400001928E-02 0.  1.
        1   -1    0    0  501    0  0.00000000000E+00  0.00000000000E+00 -0.66136362503E+03  0.66136362505E+03  0.50400001928E-02 0. -1.
    10030    2    1    2    0    0  0.00000000000E+00  0.00000000000E+00  0.19670382532E+03  0.15194310754E+04  0.15066447485E+04 0.  0.
        5    1    3    3  502    0 -0.26076887450E+03 -0.22362353557E+03 -0.57775892422E+03  0.67218699488E+03  0.46999998093E+01 0. -1.
       -5    1    3    3    0  502  0.26076887450E+03  0.22362353557E+03  0.77446274955E+03  0.84724408053E+03  0.46999998093E+01 0.  1.
</event>
<event>
 5   0  0.1474203E-04  0.1499906E+04  0.7818609E-02  0.8884515E-01
       -1   -1    0    0    0  501  0.00000000000E+00  0.00000000000E+00  0.58295456207E+03  0.58295456209E+03  0.50400001928E-02 0. -1.
        1   -1    0    0  501    0  0.00000000000E+00  0.00000000000E+00 -0.96479186965E+03  0.96479186966E+03  0.50400001928E-02 0.  1.
    10030    2    1    2    0    0  0.00000000000E+00  0.00000000000E+00 -0.38183730758E+03  0.15477464318E+04  0.14999064263E+04 0.  0.
        3    1    3    3  502    0 -0.85067941397E+02 -0.66150922308E+03  0.16294593057E+03  0.68657293376E+03  0.10100000352E+00 0. -1.
       -3    1    3    3    0  502  0.85067941397E+02  0.66150922308E+03 -0.54478323815E+03  0.86117349800E+03  0.10100000352E+00 0.  1.
</event>
<event>
 5   0  0.2641347E-04  0.1500796E+04  0.7818609E-02  0.8883924E-01
        2   -1    0    0  501    0  0.00000000000E+00  0.00000000000E+00  0.48235606632E+03  0.48235606633E+03  0.25500000920E-02 0.  1.
       -2   -1    0    0    0  501  0.00000000000E+00  0.00000000000E+00 -0.11673883303E+04  0.11673883303E+04  0.25500000920E-02 0. -1.
    10030    2    1    2    0    0  0.00000000000E+00  0.00000000000E+00 -0.68503226399E+03  0.16497443966E+04  0.15007955795E+04 0.  0.
        4    1    3    3  502    0  0.38983075734E+02 -0.20753146865E+03  0.44902249541E+03  0.49619734477E+03  0.12699999809E+01 0.  1.
       -4    1    3    3    0  502 -0.38983075734E+02  0.20753146865E+03 -0.11340547594E+04  0.11535470519E+04  0.12699999809E+01 0. -1.
</event>
<event>
 5   0  0.1443750E-04  0.1492286E+04  0.7818609E-02  0.8889599E-01
       -1   -1    0    0    0  501  0.00000000000E+00  0.00000000000E+00  0.13506866880E+04  0.13506866880E+04  0.50400001928E-02 0.  1.
        1   -1    0    0  501    0  0.00000000000E+00  0.00000000000E+00 -0.41218261324E+03  0.41218261327E+03  0.50400001928E-02 0. -1.
    10030    2    1    2    0    0  0.00000000000E+00  0.00000000000E+00  0.93850407472E+03  0.17628693012E+04  0.14922862577E+04 0.  0.
        2    1    3    3  502    0  0.10885965403E+03 -0.63145005483E+03  0.17638091320E+02  0.64100756493E+03  0.25500000920E-02 0. -1.
       -2    1    3    3    0  502 -0.10885965403E+03  0.63145005483E+03  0.92086598340E+03  0.11218617363E+04  0.25500000920E-02 0.  1.
</event>
<event>
 5   0  0.1004313E-04  0.1503937E+04  0.7818609E-02  0.8881839E-01
       -3   -1    0    0    0  501  0.00000000000E+00  0.00000000000E+00  0.23880009109E+04  0.23880009131E+04  0.10100000352E+00 0. -1.
        3   -1    0    0  501    0  0.00000000000E+00  0.00000000000E+00 -0.23679082423E+03  0.23679084577E+03  0.10100000352E+00 0.  1.
    10030    2    1    2    0    0  0.00000000000E+00  0.00000000000E+00  0.21512100867E+04  0.26247917588E+04  0.15039371463E+04 0.  0.
        4    1    3    3  502    0 -0.57826934689E+03 -0.45302465604E+03  0.79511757542E+03  0.10825157496E+04  0.12699999809E+01 0.  1.
       -4    1    3    3    0  502  0.57826934689E+03  0.45302465604E+03  0.13560925113E+04  0.15422760092E+04  0.12699999809E+01 0. -1.
</event>
<event>
 5   0  0.2618901E-04  0.1502173E+04  0.7818609E-02  0.8883009E-01
        2   -1    0    0  501    0  0.00000000000E+00  0.00000000000E+00  0.48500391471E+03  0.48500391471E+03  0.25500000920E-02 0. -1.
       -2   -1    0    0    0  501  0.00000000000E+00  0.00000000000E+00 -0.11631473005E+04  0.11631473005E+04  0.25500000920E-02 0.  1.
    10030    2    1    2    0    0  0.00000000000E+00  0.00000000000E+00 -0.67814338581E+03  0.16481512152E+04  0.15021730848E+04 0.  0.
        1    1    3    3  502    0 -0.16133928270E+03 -0.69054296504E+03 -0.61061169962E+03  0.93580264931E+03  0.50400001928E-02 0.  1.
       -1    1    3    3    0  502  0.16133928270E+03  0.69054296504E+03 -0.67531686195E+02  0.71234856593E+03  0.50400001928E-02 0. -1.
</event>
<event>
 5   0  0.2641347E-04  0.1496395E+04  0.7818609E-02  0.8886854E-01
       -2   -1    0    0    0  501  0.00000000000E+00  0.00000000000E+00  0.15831808371E+04  0.15831808371E+04  0.25500000920E-02 0.  1.
        2   -1    0    0  501    0  0.00000000000E+00  0.00000000000E+00 -0.35359167197E+03  0.35359167198E+03  0.25500000920E-02 0. -1.
    10030    2    1    2    0    0  0.00000000000E+00  0.00000000000E+00  0.12295891651E+04  0.19367725091E+04  0.14963950805E+04 0.  0.
        4    1    3    3  502    0 -0.18301051717E+03  0.43247192908E+03 -0.13909383559E+03  0.48976885041E+03  0.12699999809E+01 0. -1.
       -4    1    3    3    0  502  0.18301051717E+03 -0.43247192908E+03  0.13686830007E+04  0.14470036587E+04  0.12699999809E+01 0.  1.
</event>
<event>
 5   0  0.2641347E-04  0.1499828E+04  0.7818609E-02  0.8884567E-01
        2   -1    0    0  501    0  0.00000000000E+00  0.00000000000E+00  0.13395625245E+04  0.13395625245E+04  0.25500000920E-02 0.  1.
       -2   -1    0    0    0  501  0.00000000000E+00  0.00000000000E+00 -0.41981710484E+03  0.41981710485E+03  0.25500000920E-02 0. -1.
    10030    2    1    2    0    0  0.00000000000E+00  0.00000000000E+00  0.91974541963E+03  0.17593796293E+04  0.14998283379E+04 0.  0.
        4    1    3    3  502    0  0.49378909865E+03  0.42894083459E+03  0.29581321473E+02  0.65474772317E+03  0.12699999809E+01 0. -1.
       -4    1    3    3    0  502 -0.49378909865E+03 -0.42894083459E+03  0.89016409816E+03  0.11046319061E+04  0.12699999809E+01 0.  1.
</event>
<event>
 5   0  0.2696040E-04  0.1496445E+04  0.7818609E-02  0.8886820E-01
        2   -1    0    0  501    0  0.00000000000E+00  0.00000000000E+00  0.14669025735E+04  0.14669025735E+04  0.25500000920E-02 0. -1.
       -2   -1    0    0    0  501  0.00000000000E+00  0.00000000000E+00 -0.38164575849E+03  0.38164575850E+03  0.25500000920E-02 0.  1.
    10030    2    1    2    0    0  0.00000000000E+00  0.00000000000E+00  0.10852568150E+04  0.18485483320E+04  0.14964453152E+04 0.  0.
        2    1    3    3  502    0 -0.53031338510E+03  0.52781075907E+03  0.54824342358E+03  0.92757066324E+03  0.25500000920E-02 0. -1.
       -2    1    3    3    0  502  0.53031338510E+03 -0.52781075907E+03  0.53701339146E+03  0.92097766880E+03  0.25500000920E-02 0.  1.
</event>
<event>
 5   0  0.2646718E-04  0.1486373E+04  0.7818609E-02  0.8893566E-01
       -2   -1    0    0    0  501  0.00000000000E+00  0.00000000000E+00  0.25081310261E+03  0.25081310263E+03  0.25500000920E-02 0.  1.
        2   -1    0    0  501    0  0.00000000000E+00  0.00000000000E+00 -0.22021419224E+04  0.22021419224E+04  0.25500000920E-02 0. -1.
    10030    2    1    2    0    0  0.00000000000E+00  0.00000000000E+00 -0.19513288198E+04  0.24529550251E+04  0.14863728307E+04 0.  0.
        3    1    3    3  502    0  0.32007601521E+02 -0.62396624523E+03 -0.16398294360E+04  0.17548216295E+04  0.10100000352E+00 0.  1.
       -3    1    3    3    0  502 -0.32007601521E+02  0.62396624523E+03 -0.31149938377E+03  0.69813339559E+03  0.10100000352E+00 0. -1.
</event>
<event>
 5   0  0.1474203E-04  0.1504376E+04  0.7818609E-02  0.8881548E-01
       -1   -1    0    0    0  501  0.00000000000E+00  0.00000000000E+00  0.38799784664E+03  0.38799784667E+03  0.50400001928E-02 0. -1.
        1   -1    0    0  501    0  0.00000000000E+00  0.00000000000E+00 -0.14582222532E+04  0.14582222532E+04  0.50400001928E-02 0.  1.
    10030    2    1    2    0    0  0.00000000000E+00  0.00000000000E+00 -0.10702244065E+04  0.18462200998E+04  0.15043764079E+04 0.  0.
        3    1    3    3  502    0  0.74491890661E+03 -0.14791126975E+02 -0.40837922002E+03  0.84964495668E+03  0.10100000352E+00 0. -1.
       -3    1    3    3    0  502 -0.74491890661E+03  0.14791126975E+02 -0.66184518652E+03  0.99657514317E+03  0.10100000352E+00 0.  1.
</event>
<event>
 5   0  0.1427609E-04  0.1505487E+04  0.7818609E-02  0.8880812E-01
        1   -1    0    0  501    0  0.00000000000E+00  0.00000000000E+00  0.17150716971E+04  0.17150716971E+04  0.50400001928E-02 0.  1.
       -1   -1    0    0    0  501  0.00000000000E+00  0.00000000000E+00 -0.33037856797E+03  0.33037856801E+03  0.50400001928E-02 0. -1.
    10030    2    1    2    0    0  0.00000000000E+00  0.00000000000E+00  0.13846931291E+04  0.20454502651E+04  0.15054872053E+04 0.  0.
        4    1    3    3  502    0 -0.11280553017E+03 -0.20915535982E+02  0.17031215662E+04  0.17069819066E+04  0.12699999809E+01 0.  1.
       -4    1    3    3    0  502  0.11280553017E+03  0.20915535982E+02 -0.31842843708E+03  0.33846835852E+03  0.12699999809E+01 0. -1.
</event>
<event>
 5   0  0.2646718E-04  0.1494029E+04  0.7818609E-02  0.8888433E-01
        2   -1    0    0  501    0  0.00000000000E+00  0.00000000000E+00  0.15346297129E+04  0.15346297129E+04  0.25500000920E-02 0. -1.
       -2   -1    0    0    0  501  0.00000000000E+00  0.00000000000E+00 -0.36362563158E+03  0.36362563159E+03  0.25500000920E-02 0.  1.
    10030    2    1    2    0    0  0.00000000000E+00  0.00000000000E+00  0.11710040813E+04  0.18982553445E+04  0.14940290474E+04 0.  0.
        3    1    3    3  502    0  0.70989642101E+03 -0.18799523224E+03  0.75941375745E+03  0.10564110947E+04  0.10100000352E+00 0. -1.
       -3    1    3    3    0  502 -0.70989642101E+03  0.18799523224E+03  0.41159032386E+03  0.84184424973E+03  0.10100000352E+00 0.  1.
</event>
<event>
 5   0  0.2696040E-04  0.1500705E+04  0.7818609E-02  0.8883984E-01
       -2   -1    0    0    0  501  0.00000000000E+00  0.00000000000E+00  0.77789332242E+03  0.77789332242E+03  0.25500000920E-02 0. -1.
        2   -1    0    0  501    0  0.00000000000E+00  0.00000000000E+00 -0.72378717852E+03  0.72378717852E+03  0.25500000920E-02 0.  1.
    10030    2    1    2    0    0  0.00000000000E+00  0.00000000000E+00  0.54106143900E+02  0.15016805009E+04  0.15007054515E+04 0.  0.
        2    1    3    3  502    0 -0.15857798318E+03  0.52419724022E+03  0.54031858471E+03  0.76933341042E+03  0.25500000920E-02 0. -1.
       -2    1    3    3    0  502  0.15857798318E+03 -0.52419724022E+03 -0.48621244081E+03  0.73234709053E+03  0.25500000920E-02 0.  1.
</event>
<event>
 5   0  0.1426929E-04  0.1500147E+04  0.7818609E-02  0.8884355E-01
       -1   -1    0    0    0  501  0.00000000000E+00  0.00000000000E+00  0.27955468084E+03  0.27955468089E+03  0.50400001928E-02 0. -1.
        1   -1    0    0  501    0  0.00000000000E+00  0.00000000000E+00 -0.20125220946E+04  0.20125220946E+04  0.50400001928E-02 0.  1.
    10030    2    1    2    0    0  0.00000000000E+00  0.00000000000E+00 -0.17329674138E+04  0.22920767755E+04  0.15001466220E+04 0.  0.
        1    1    3    3  502    0 -0.15933763927E+03  0.67157308953E+02 -0.19816546407E+04  0.19891841802E+04  0.50400001928E-02 0.  1.
       -1    1    3    3    0  502  0.15933763927E+03 -0.67157308953E+02  0.24868722696E+03  0.30289259534E+03  0.50400001928E-02 0. -1.
</event>
<event>
 5   0  0.2618901E-04  0.1497697E+04  0.7818609E-02  0.8885986E-01
        2   -1    0    0  501    0  0.00000000000E+00  0.00000000000E+00  0.74099254746E+03  0.74099254746E+03  0.25500000920E-02 0.  1.
       -2   -1    0    0    0  501  0.00000000000E+00  0.00000000000E+00 -0.75678757623E+03  0.75678757624E+03  0.25500000920E-02 0. -1.
    10030    2    1    2    0    0  0.00000000000E+00  0.00000000000E+00 -0.15795028778E+02  0.14977801237E+04  0.14976968372E+04 0.  0.
        1    1    3    3  502    0 -0.13844225284E+03 -0.59426015521E+03 -0.44204440869E+03  0.75346841256E+03  0.50400001928E-02 0. -1.
       -1    1    3    3    0  502  0.13844225284E+03  0.59426015521E+03  0.42624937991E+03  0.74431171114E+03  0.50400001928E-02 0.  1.
</event>
<event>
 5   0  0.1443750E-04  0.1499042E+04  0.7818609E-02  0.8885091E-01
       -1   -1    0    0    0  501  0.00000000000E+00  0.00000000000E+00  0.37949477587E+03  0.37949477591E+03  0.50400001928E-02 0.  1.
        1   -1    0    0  501    0  0.00000000000E+00  0.00000000000E+00 -0.14803401683E+04  0.14803401683E+04  0.50400001928E-02 0. -1.
    10030    2    1    2    0    0  0.00000000000E+00  0.00000000000E+00 -0.11008453924E+04  0.18598349442E+04  0.14990415077E+04 0.  0.
        2    1    3    3  502    0 -0.72271045204E+03 -0.36677161956E+01 -0.79687086013E+03  0.10757913447E+04  0.25500000920E-02 0. -1.
       -2    1    3    3    0  502  0.72271045204E+03  0.36677161956E+01 -0.30397453229E+03  0.78404359949E+03  0.25500000920E-02 0.  1.
</event>
<event>
 5   0  0.2734072E-04  0.1486684E+04  0.7818609E-02  0.8893356E-01
       -2   -1    0    0    0  501  0.00000000000E+00  0.00000000000E+00  0.14542787514E+04  0.14542787514E+04  0.25500000920E-02 0.  1.
        2   -1    0    0  501    0  0.00000000000E+00  0.00000000000E+00 -0.37995299508E+03  0.37995299509E+03  0.25500000920E-02 0. -1.
    10030    2    1    2    0    0  0.00000000000E+00  0.00000000000E+00  0.10743257564E+04  0.18342317465E+04  0.14866843206E+04 0.  0.
        5    1    3    3  502    0 -0.36741222787E+02 -0.62349705063E+03  0.10344164465E+04  0.12083616860E+04  0.46999998093E+01 0.  1.
       -5    1    3    3    0  502  0.36741222787E+02  0.62349705063E+03  0.39909309904E+02  0.62587006048E+03  0.46999998093E+01 0. -1.
</event>
<event>
 5   0  0.1443750E-04  0.1502490E+04  0.7818609E-02  0.8882799E-01
       -1   -1    0    0    0  501  0.00000000000E+00  0.00000000000E+00  0.17212050529E+04  0.17212050529E+04  0.50400001928E-02 0.  1.
        1   -1    0    0  501    0  0.00000000000E+00  0.00000000000E+00 -0.32789200143E+03  0.32789200147E+03  0.50400001928E-02 0. -1.
    10030    2    1    2    0    0  0.00000000000E+00  0.00000000000E+00  0.13933130515E+04  0.20490970544E+04  0.15024904256E+04 0.  0.
        2    1    3    3  502    0  0.39692931836E+03  0.71455978352E+02 -0.16772887538E+03  0.43679722556E+03  0.25500000920E-02 0. -1.
       -2    1    3    3    0  502 -0.39692931836E+03 -0.71455978352E+02  0.15610419268E+04  0.16122998288E+04  0.25500000920E-02 0.  1.
</event>
<event>
 5   0  0.1474203E-04  0.1467846E+04  0.7818609E-02  0.8906121E-01
       -1   -1    0    0    0  501  0.00000000000E+00  0.00000000000E+00  0.75776562983E+03  0.75776562985E+03  0.50400001928E-02 0.  1.
        1   -1    0    0  501    0  0.00000000000E+00  0.00000000000E+00 -0.71083045352E+03  0.71083045353E+03  0.50400001928E-02 0. -1.
    10030    2    1    2    0    0  0.00000000000E+00  0.00000000000E+00  0.46935176317E+02  0.14685960834E+04  0.14678458861E+04 0.  0.
        3    1    3    3  502    0  0.28133487639E+03 -0.41053453543E+02  0.70042863343E+03  0.75593318452E+03  0.10100000352E+00 0.  1.
       -3    1    3    3    0  502 -0.28133487639E+03  0.41053453543E+02 -0.65349345712E+03  0.71266289886E+03  0.10100000352E+00 0. -1.
</event>
<event>
 5   0  0.1484251E-04  0.1513094E+04  0.7818609E-02  0.8875792E-01
       -1   -1    0    0    0  501  0.00000000000E+00  0.00000000000E+00  0.36668248354E+03  0.36668248358E+03  0.50400001928E-02 0.  1.
        1   -1    0    0  501    0  0.00000000000E+00  0.00000000000E+00 -0.15609236231E+04  0.15609236232E+04  0.50400001928E-02 0. -1.
    10030    2    1    2    0    0  0.00000000000E+00  0.00000000000E+00 -0.11942411396E+04  0.19276061067E+04  0.15130939836E+04 0.  0.
        5    1    3    3  502    0 -0.18080415053E+03  0.20259889558E+03  0.30244043289E+03  0.40648340531E+03  0.46999998093E+01 0.  1.
       -5    1    3    3    0  502  0.18080415053E+03 -0.20259889558E+03 -0.14966815725E+04  0.15211227014E+04  0.46999998093E+01 0. -1.
</event>
<event>
 5   0  0.2618901E-04  0.1499915E+04  0.7818609E-02  0.8884510E-01
        2   -1    0    0  501    0  0.00000000000E+00  0.00000000000E+00  0.12541795344E+04  0.12541795344E+04  0.25500000920E-02 0. -1.
       -2   -1    0    0    0  501  0.00000000000E+00  0.00000000000E+00 -0.44844930392E+03  0.44844930393E+03  0.25500000920E-02 0.  1.
    10030    2    1    2    0    0  0.00000000000E+00  0.00000000000E+00  0.80573023048E+03  0.17026288383E+04  0.14999145832E+04 0.  0.
        1    1    3    3  502    0 -0.35523567038E+03 -0.11442777514E+03  0.11412801808E+04  0.12007524926E+04  0.50400001928E-02 0. -1.
       -1    1    3    3    0  502  0.35523567038E+03  0.11442777514E+03 -0.33554995035E+03  0.50187634576E+03  0.50400001928E-02 0.  1.
</event>
<event>
 5   0  0.1474203E-04  0.1494012E+04  0.7818609E-02  0.8888444E-01
        1   -1    0    0  501    0  0.00000000000E+00  0.00000000000E+00  0.22475653355E+04  0.22475653355E+04  0.50400001928E-02 0.  1.
       -1   -1    0    0    0  501  0.00000000000E+00  0.00000000000E+00 -0.24827678290E+03  0.24827678295E+03  0.50400001928E-02 0. -1.
    10030    2    1    2    0    0  0.00000000000E+00  0.00000000000E+00  0.19992885526E+04  0.24958421185E+04  0.14940124376E+04 0.  0.
        3    1    3    3  502    0 -0.44365421896E+03 -0.18370879531E+02 -0.38786287121E+01  0.44405135872E+03  0.10100000352E+00 0. -1.
       -3    1    3    3    0  502  0.44365421896E+03  0.18370879531E+02  0.20031671814E+04  0.20517907598E+04  0.10100000352E+00 0.  1.
</event>
<event>
 5   0  0.2696040E-04  0.1508569E+04  0.7818609E-02  0.8878774E-01
        2   -1    0    0  501    0  0.00000000000E+00  0.00000000000E+00  0.69950195229E+03  0.69950195229E+03  0.25500000920E-02 0. -1.
       -2   -1    0    0    0  501  0.00000000000E+00  0.00000000000E+00 -0.81335764803E+03  0.81335764804E+03  0.25500000920E-02 0.  1.
    10030    2    1    2    0    0  0.00000000000E+00  0.00000000000E+00 -0.11385569575E+03  0.15128596003E+04  0.15085692065E+04 0.  0.
        2    1    3    3  502    0 -0.54491655620E+03  0.46357714011E+03  0.18272343096E+03  0.73839398039E+03  0.25500000920E-02 0. -1.
       -2    1    3    3    0  502  0.54491655620E+03 -0.46357714011E+03 -0.29657912671E+03  0.77446561993E+03  0.25500000920E-02 0.  1.
</event>
<event>
 5   0  0.1427609E-04  0.1418033E+04  0.7818609E-02  0.8940868E-01
       -1   -1    0    0    0  501  0.00000000000E+00  0.00000000000E+00  0.53511694221E+03  0.53511694223E+03  0.50400001928E-02 0. -1.
        1   -1    0    0  501    0  0.00000000000E+00  0.00000000000E+00 -0.93942888885E+03  0.93942888886E+03  0.50400001928E-02 0.  1.
    10030    2    1    2    0    0  0.00000000000E+00  0.00000000000E+00 -0.40431194664E+03  0.14745458311E+04  0.14180328832E+04 0.  0.
        4    1    3    3  502    0  0.52853682118E+03  0.33813841544E+03 -0.54548695574E+03  0.83141228708E+03  0.12699999809E+01 0.  1.
       -4    1    3    3    0  502 -0.52853682118E+03 -0.33813841544E+03  0.14117500909E+03  0.64313354401E+03  0.12699999809E+01 0. -1.
</event>
<event>
 5   0  0.1484251E-04  0.1497187E+04  0.7818609E-02  0.8886325E-01
       -1   -1    0    0    0  501  0.00000000000E+00  0.00000000000E+00  0.22794261344E+03  0.22794261350E+03  0.50400001928E-02 0.  1.
        1   -1    0    0  501    0  0.00000000000E+00  0.00000000000E+00 -0.24584804070E+04  0.24584804070E+04  0.50400001928E-02 0. -1.
    10030    2    1    2    0    0  0.00000000000E+00  0.00000000000E+00 -0.22305377936E+04  0.26864230205E+04  0.14971872951E+04 0.  0.
        5    1    3    3  502    0  0.53051192021E+03  0.31477247468E+03 -0.18762052942E+04  0.19750172162E+04  0.46999998093E+01 0. -1.
       -5    1    3    3    0  502 -0.53051192021E+03 -0.31477247468E+03 -0.35433249936E+03  0.71140580430E+03  0.46999998093E+01 0.  1.
</event>
<event>
 5   0  0.2734072E-04  0.1494702E+04  0.7818609E-02  0.8887983E-01
        2   -1    0    0  501    0  0.00000000000E+00  0.00000000000E+00  0.76326573994E+03  0.76326573994E+03  0.25500000920E-02 0.  1.
       -2   -1    0    0    0  501  0.00000000000E+00  0.00000000000E+00 -0.73176850341E+03  0.73176850342E+03  0.25500000920E-02 0. -1.
    10030    2    1    2    0    0  0.00000000000E+00  0.00000000000E+00  0.31497236525E+02  0.14950342434E+04  0.14947024162E+04 0.  0.
        5    1    3    3  502    0 -0.21668867543E+03 -0.94280257661E+02 -0.69340030909E+03  0.73257684081E+03  0.46999998093E+01 0. -1.
       -5    1    3    3    0  502  0.21668867543E+03  0.94280257661E+02  0.72489754562E+03  0.76245740254E+03  0.46999998093E+01 0.  1.
</event>
<event>
 5   0  0.1484251E-04  0.1501153E+04  0.7818609E-02  0.8883687E-01
       -1   -1    0    0    0  501  0.00000000000E+00  0.00000000000E+00  0.34506949704E+03  0.34506949708E+03  0.50400001928E-02 0. -1.
        1   -1    0    0  501    0  0.00000000000E+00  0.00000000000E+00 -0.16326123922E+04  0.16326123922E+04  0.50400001928E-02 0.  1.
    10030    2    1    2    0    0  0.00000000000E+00  0.00000000000E+00 -0.12875428951E+04  0.19776818893E+04  0.15011525400E+04 0.  0.
        5    1    3    3  502    0 -0.55707087924E+03 -0.21396169967E+03 -0.44031135988E+02  0.59838817197E+03  0.46999998093E+01 0. -1.
       -5    1    3    3    0  502  0.55707087924E+03  0.21396169967E+03 -0.12435117591E+04  0.13792937173E+04  0.46999998093E+01 0.  1.
</event>
<event>
 5   0  0.1443750E-04  0.1516221E+04  0.7818609E-02  0.8873737E-01
       -1   -1    0    0    0  501  0.00000000000E+00  0.00000000000E+00  0.16975562078E+04  0.16975562078E+04  0.50400001928E-02 0.  1.
        1   -1    0    0  501    0  0.00000000000E+00  0.00000000000E+00 -0.33856412524E+03  0.33856412528E+03  0.50400001928E-02 0. -1.
    10030    2    1    2    0    0  0.00000000000E+00  0.00000000000E+00  0.13589920826E+04  0.20361203331E+04  0.15162211351E+04 0.  0.
        2    1    3    3  502    0 -0.42017565496E+03  0.57057781529E+02  0.15234137716E+04  0.15813262443E+04  0.25500000920E-02 0.  1.
       -2    1    3    3    0  502  0.42017565496E+03 -0.57057781529E+02 -0.16442168895E+03  0.45479408885E+03  0.25500000920E-02 0. -1.
</event>
<event>
 5   0  0.2618901E-04  0.1502099E+04  0.7818609E-02  0.8883059E-01
        2   -1    0    0  501    0  0.00000000000E+00  0.00000000000E+00  0.17432248494E+04  0.17432248494E+04  0.25500000920E-02 0.  1.
       -2   -1    0    0    0  501  0.00000000000E+00  0.00000000000E+00 -0.32358135845E+03  0.32358135846E+03  0.25500000920E-02 0. -1.
    10030    2    1    2    0    0  0.00000000000E+00  0.00000000000E+00  0.14196434910E+04  0.20668062079E+04  0.15020986184E+04 0.  0.
        1    1    3    3  502    0  0.33328679241E+03 -0.67243547295E+03  0.74935507742E+03  0.10605576756E+04  0.50400001928E-02 0.  1.
       -1    1    3    3    0  502 -0.33328679241E+03  0.67243547295E+03  0.67028841357E+03  0.10062485323E+04  0.50400001928E-02 0. -1.
</event>
<event>
 5   0  0.1427609E-04  0.1499795E+04  0.7818609E-02  0.8884589E-01
        1   -1    0    0  501    0  0.00000000000E+00  0.00000000000E+00  0.16833593637E+04  0.16833593637E+04  0.50400001928E-02 0. -1.
       -1   -1    0    0    0  501  0.00000000000E+00  0.00000000000E+00 -0.33406186740E+03  0.33406186744E+03  0.50400001928E-02 0.  1.
    10030    2    1    2    0    0  0.00000000000E+00  0.00000000000E+00  0.13492974963E+04  0.20174212311E+04  0.14997948828E+04 0.  0.
        4    1    3    3  502    0  0.22182126225E+03  0.64915353224E+03  0.26722804812E+03  0.73621832591E+03  0.12699999809E+01 0.  1.
       -4    1    3    3    0  502 -0.22182126225E+03 -0.64915353224E+03  0.10820694482E+04  0.12812029052E+04  0.12699999809E+01 0. -1.
</event>
<event>
 5   0  0.2618901E-04  0.1497142E+04  0.7818609E-02  0.8886356E-01
        2   -1    0    0  501    0  0.00000000000E+00  0.00000000000E+00  0.60366178655E+03  0.60366178656E+03  0.25500000920E-02 0. -1.
       -2   -1    0    0    0  501  0.00000000000E+00  0.00000000000E+00 -0.92826522947E+03  0.92826522947E+03  0.25500000920E-02 0.  1.
    10030    2    1    2    0    0  0.00000000000E+00  0.00000000000E+00 -0.32460344292E+03  0.15319270160E+04  0.14971416056E+04 0.  0.
        1    1    3    3  502    0  0.28280935667E+02  0.21372180793E+03 -0.89581276213E+03  0.92138880356E+03  0.50400001928E-02 0.  1.
       -1    1    3    3    0  502 -0.28280935667E+02 -0.21372180793E+03  0.57120931921E+03  0.61053821247E+03  0.50400001928E-02 0. -1.
</event>
<event>
 5   0  0.2618901E-04  0.1499560E+04  0.7818609E-02  0.8884745E-01
       -2   -1    0    0    0  501  0.00000000000E+00  0.00000000000E+00  0.65988852280E+03  0.65988852280E+03  0.25500000920E-02 0. -1.
        2   -1    0    0  501    0  0.00000000000E+00  0.00000000000E+00 -0.85191714049E+03  0.85191714049E+03  0.25500000920E-02 0.  1.
    10030    2    1    2    0    0  0.00000000000E+00  0.00000000000E+00 -0.19202861769E+03  0.15118056633E+04  0.14995603934E+04 0.  0.
        1    1    3    3  502    0 -0.24418389017E+03  0.43900253792E+03 -0.65717555711E+03  0.82718118536E+03  0.50400001928E-02 0.  1.
       -1    1    3    3    0  502  0.24418389017E+03 -0.43900253792E+03  0.46514693942E+03  0.68462447794E+03  0.50400001928E-02 0. -1.
</event>
<event>
 5   0  0.1427609E-04  0.1503203E+04  0.7818609E-02  0.8882326E-01
       -1   -1    0    0    0  501  0.00000000000E+00  0.00000000000E+00  0.79126835722E+03  0.79126835724E+03  0.50400001928E-02 0.  1.
        1   -1    0    0  501    0  0.00000000000E+00  0.00000000000E+00 -0.71392352520E+03  0.71392352522E+03  0.50400001928E-02 0. -1.
    10030    2    1    2    0    0  0.00000000000E+00  0.00000000000E+00  0.77344832023E+02  0.15051918825E+04  0.15032033728E+04 0.  0.
        4    1    3    3  502    0 -0.15828272627E+03  0.67737541971E+03 -0.24633122945E+03  0.73795092531E+03  0.12699999809E+01 0.  1.
       -4    1    3    3    0  502  0.15828272627E+03 -0.67737541971E+03  0.32367606148E+03  0.76724095715E+03  0.12699999809E+01 0. -1.
</event>
<event>
 5   0  0.1474203E-04  0.1517819E+04  0.7818609E-02  0.8872690E-01
        1   -1    0    0  501    0  0.00000000000E+00  0.00000000000E+00  0.42479960642E+03  0.42479960645E+03  0.50400001928E-02 0. -1.
       -1   -1    0    0    0  501  0.00000000000E+00  0.00000000000E+00 -0.13557999416E+04  0.13557999416E+04  0.50400001928E-02 0.  1.
    10030    2    1    2    0    0  0.00000000000E+00  0.00000000000E+00 -0.93100033514E+03  0.17805995480E+04  0.15178185420E+04 0.  0.
        3    1    3    3  502    0  0.57914040088E+03 -0.48742593655E+03 -0.40172215450E+03  0.85695294338E+03  0.10100000352E+00 0.  1.
       -3    1    3    3    0  502 -0.57914040088E+03  0.48742593655E+03 -0.52927818064E+03  0.92364660463E+03  0.10100000352E+00 0. -1.
</event>
<event>
 5   0  0.2641347E-04  0.1485842E+04  0.7818609E-02  0.8893923E-01
        2   -1    0    0  501    0  0.00000000000E+00  0.00000000000E+00  0.18078037587E+04  0.18078037587E+04  0.25500000920E-02 0.  1.
       -2   -1    0    0    0  501  0.00000000000E+00  0.00000000000E+00 -0.30530494726E+03  0.30530494728E+03  0.25500000920E-02 0. -1.
    10030    2    1    2    0    0  0.00000000000E+00  0.00000000000E+00  0.15024988114E+04  0.21131087060E+04  0.14858417564E+04 0.  0.
        4    1    3    3  502    0 -0.45753732819E+03 -0.16084902354E+03 -0.49109846882E+02  0.48746918366E+03  0.12699999809E+01 0. -1.
       -4    1    3    3    0  502  0.45753732819E+03  0.16084902354E+03  0.15516086583E+04  0.16256395223E+04  0.12699999809E+01 0.  1.
</event>
<event>
 5   0  0.1427609E-04  0.1507489E+04  0.7818609E-02  0.8879488E-01
        1   -1    0    0  501    0  0.00000000000E+00  0.00000000000E+00  0.14053343070E+04  0.14053343071E+04  0.50400001928E-02 0.  1.
       -1   -1    0    0    0  501  0.00000000000E+00  0.00000000000E+00 -0.40426740993E+03  0.40426740997E+03  0.50400001928E-02 0. -1.
    10030    2    1    2    0    0  0.00000000000E+00  0.00000000000E+00  0.10010668971E+04  0.18096017170E+04  0.15074891183E+04 0.  0.
        4    1    3    3  502    0  0.59090756221E+03  0.35851865429E+03  0.86149884266E+03  0.11044859625E+04  0.12699999809E+01 0.  1.
       -4    1    3    3    0  502 -0.59090756221E+03 -0.35851865429E+03  0.13956805445E+03  0.70511575452E+03  0.12699999809E+01 0. -1.
</event>
<event>
 5   0  0.1426929E-04  0.1498931E+04  0.7818609E-02  0.8885164E-01
        1   -1    0    0  501    0  0.00000000000E+00  0.00000000000E+00  0.90493349394E+03  0.90493349395E+03  0.50400001928E-02 0.  1.
       -1   -1    0    0    0  501  0.00000000000E+00  0.00000000000E+00 -0.62070697069E+03  0.62070697071E+03  0.50400001928E-02 0. -1.
    10030    2    1    2    0    0  0.00000000000E+00  0.00000000000E+00  0.28422652325E+03  0.15256404647E+04  0.14989309894E+04 0.  0.
        1    1    3    3  502    0  0.42213549209E+03  0.45773176742E+02 -0.48647133533E+03  0.64571504359E+03  0.50400001928E-02 0. -1.
       -1    1    3    3    0  502 -0.42213549209E+03 -0.45773176742E+02  0.77069785858E+03  0.87992542107E+03  0.50400001928E-02 0.  1.
</event>
<event>
 5   0  0.1484251E-04  0.1507263E+04  0.7818609E-02  0.8879638E-01
        1   -1    0    0  501    0  0.00000000000E+00  0.00000000000E+00  0.20061840901E+04  0.20061840901E+04  0.50400001928E-02 0.  1.
       -1   -1    0    0    0  501  0.00000000000E+00  0.00000000000E+00 -0.28310468056E+03  0.28310468061E+03  0.50400001928E-02 0. -1.
    10030    2    1    2    0    0  0.00000000000E+00  0.00000000000E+00  0.17230794096E+04  0.22892887707E+04  0.15072625598E+04 0.  0.
        5    1    3    3  502    0  0.51539615334E+03  0.54324107610E+03  0.99036332725E+03  0.12416060855E+04  0.46999998093E+01 0. -1.
       -5    1    3    3    0  502 -0.51539615334E+03 -0.54324107610E+03  0.73271608232E+03  0.10476826852E+04  0.46999998093E+01 0.  1.
</event>
<event>
 5   0  0.2641347E-04  0.1501339E+04  0.7818609E-02  0.8883563E-01
        2   -1    0    0  501    0  0.00000000000E+00  0.00000000000E+00  0.38251623533E+03  0.38251623534E+03  0.25500000920E-02 0.  1.
       -2   -1    0    0    0  501  0.00000000000E+00  0.00000000000E+00 -0.14731533434E+04  0.14731533434E+04  0.25500000920E-02 0. -1.
    10030    2    1    2    0    0  0.00000000000E+00  0.00000000000E+00 -0.10906371081E+04  0.18556695787E+04  0.15013394966E+04 0.  0.
        4    1    3    3  502    0  0.45411913858E+03  0.72916386883E+02  0.18796157185E+03  0.49686231181E+03  0.12699999809E+01 0.  1.
       -4    1    3    3    0  502 -0.45411913858E+03 -0.72916386883E+02 -0.12785986799E+04  0.13588072669E+04  0.12699999809E+01 0. -1.
</event>
<event>
 5   0  0.2696040E-04  0.1501239E+04  0.7818609E-02  0.8883629E-01
       -2   -1    0    0    0  501  0.00000000000E+00  0.00000000000E+00  0.61272659924E+03  0.61272659925E+03  0.25500000920E-02 0.  1.
        2   -1    0    0  501    0  0.00000000000E+00  0.00000000000E+00 -0.91954537167E+03  0.91954537167E+03  0.25500000920E-02 0. -1.
    10030    2    1    2    0    0  0.00000000000E+00  0.00000000000E+00 -0.30681877242E+03  0.15322719709E+04  0.15012393659E+04 0.  0.
        2    1    3    3  502    0 -0.64529639896E+03  0.35080788263E+03  0.45682979825E+01  0.73450288112E+03  0.25500000920E-02 0. -1.
       -2    1    3    3    0  502  0.64529639896E+03 -0.35080788263E+03 -0.31138707040E+03  0.79776908980E+03  0.25500000920E-02 0.  1.
</event>
<event>
 5   0  0.1484251E-04  0.1496178E+04  0.7818609E-02  0.8886998E-01
        1   -1    0    0  501    0  0.00000000000E+00  0.00000000000E+00  0.53845558933E+03  0.53845558935E+03  0.50400001928E-02 0. -1.
       -1   -1    0    0    0  501  0.00000000000E+00  0.00000000000E+00 -0.10393378476E+04  0.10393378476E+04  0.50400001928E-02 0.  1.
    10030    2    1    2    0    0  0.00000000000E+00  0.00000000000E+00 -0.50088225828E+03  0.15777934370E+04  0.14961781622E+04 0.  0.
        5    1    3    3  502    0 -0.46546340807E+03  0.22907765040E+03  0.31792313965E+03  0.60846525528E+03  0.46999998093E+01 0. -1.
       -5    1    3    3    0  502  0.46546340807E+03 -0.22907765040E+03 -0.81880539792E+03  0.96932818169E+03  0.46999998093E+01 0.  1.
</event>
<event>
 5   0  0.1426929E-04  0.1498343E+04  0.7818609E-02  0.8885556E-01
       -1   -1    0    0    0  501  0.00000000000E+00  0.00000000000E+00  0.69356686134E+03  0.69356686136E+03  0.50400001928E-02 0. -1.
        1   -1    0    0  501    0  0.00000000000E+00  0.00000000000E+00 -0.80923373907E+03  0.80923373909E+03  0.50400001928E-02 0.  1.
    10030    2    1    2    0    0  0.00000000000E+00  0.00000000000E+00 -0.11566687773E+03  0.15028006004E+04  0.14983426905E+04 0.  0.
        1    1    3    3  502    0  0.35580102799E+03  0.27626468698E+03 -0.65823049121E+03  0.79761138932E+03  0.50400001928E-02 0.  1.
       -1    1    3    3    0  502 -0.35580102799E+03 -0.27626468698E+03  0.54256361348E+03  0.70518921112E+03  0.50400001928E-02 0. -1.
</event>
<event>
 5   0  0.2646718E-04  0.1511626E+04  0.7818609E-02  0.8876758E-01
       -2   -1    0    0    0  501  0.00000000000E+00  0.00000000000E+00  0.54626390628E+03  0.54626390629E+03  0.25500000920E-02 0.  1.
        2   -1    0    0  501    0  0.00000000000E+00  0.00000000000E+00 -0.10457461336E+04  0.10457461336E+04  0.25500000920E-02 0. -1.
    10030    2    1    2    0    0  0.00000000000E+00  0.00000000000E+00 -0.49948222732E+03  0.15920100399E+04  0.15116261018E+04 0.  0.
        3    1    3    3  502    0  0.70975012338E+03 -0.18411520192E+03 -0.44281957030E+03  0.85658206102E+03  0.10100000352E+00 0. -1.
       -3    1    3    3    0  502 -0.70975012338E+03  0.18411520192E+03 -0.56662657024E+02  0.73542797888E+03  0.10100000352E+00 0.  1.
</event>
<event>
 5   0  0.2641347E-04  0.1506824E+04  0.7818609E-02  0.8879928E-01
        2   -1    0    0  501    0  0.00000000000E+00  0.00000000000E+00  0.62721011382E+03  0.62721011383E+03  0.25500000920E-02 0.  1.
       -2   -1    0    0    0  501  0.00000000000E+00  0.00000000000E+00 -0.90500658084E+03  0.90500658084E+03  0.25500000920E-02 0. -1.
    10030    2    1    2    0    0  0.00000000000E+00  0.00000000000E+00 -0.27779646701E+03  0.15322166947E+04  0.15068235206E+04 0.  0.
        4    1    3    3  502    0 -0.46453018571E+03  0.88517179479E+01 -0.74198757910E+03  0.87545064212E+03  0.12699999809E+01 0. -1.
       -4    1    3    3    0  502  0.46453018571E+03 -0.88517179479E+01  0.46419111209E+03  0.65676605255E+03  0.12699999809E+01 0.  1.
</event>
<event>
 5   0  0.2641347E-04  0.1501673E+04  0.7818609E-02  0.8883341E-01
       -2   -1    0    0    0  501  0.00000000000E+00  0.00000000000E+00  0.54713301364E+03  0.54713301364E+03  0.25500000920E-02 0. -1.
        2   -1    0    0  501    0  0.00000000000E+00  0.00000000000E+00 -0.10303804072E+04  0.10303804072E+04  0.25500000920E-02 0.  1.
    10030    2    1    2    0    0  0.00000000000E+00  0.00000000000E+00 -0.48324739352E+03  0.15775134208E+04  0.15016725840E+04 0.  0.
        4    1    3    3  502    0  0.41229197996E+03 -0.16303082529E+02 -0.90060313873E+03  0.99062510246E+03  0.12699999809E+01 0.  1.
       -4    1    3    3    0  502 -0.41229197996E+03  0.16303082529E+02  0.41735574521E+03  0.58688831834E+03  0.12699999809E+01 0. -1.
</event>
<event>
 5   0  0.1474203E-04  0.1503384E+04  0.7818609E-02  0.8882206E-01
       -1   -1    0    0    0  501  0.00000000000E+00  0.00000000000E+00  0.67881547681E+03  0.67881547682E+03  0.50400001928E-02 0. -1.
        1   -1    0    0  501    0  0.00000000000E+00  0.00000000000E+00 -0.83239238811E+03  0.83239238812E+03  0.50400001928E-02 0.  1.
    10030    2    1    2    0    0  0.00000000000E+00  0.00000000000E+00 -0.15357691130E+03  0.15112078649E+04  0.15033839641E+04 0.  0.
        3    1    3    3  502    0 -0.51108769286E+03 -0.32121411653E+03 -0.52706124179E+03  0.80136302713E+03  0.10100000352E+00 0.  1.
       -3    1    3    3    0  502  0.51108769286E+03  0.32121411653E+03  0.37348433049E+03  0.70984483782E+03  0.10100000352E+00 0. -1.
</event>
<event>
 5   0  0.1474203E-04  0.1498817E+04  0.7818609E-02  0.8885240E-01
       -1   -1    0    0    0  501  0.00000000000E+00  0.00000000000E+00  0.42514226477E+03  0.42514226480E+03  0.50400001928E-02 0.  1.
        1   -1    0    0  501    0  0.00000000000E+00  0.00000000000E+00 -0.13209998754E+04  0.13209998754E+04  0.50400001928E-02 0. -1.
    10030    2    1    2    0    0  0.00000000000E+00  0.00000000000E+00 -0.89585761063E+03  0.17461421402E+04  0.14988167050E+04 0.  0.
        3    1    3    3  502    0  0.24473990568E+03  0.38244769667E+03 -0.11425047222E+04  0.12294229999E+04  0.10100000352E+00 0. -1.
       -3    1    3    3    0  502 -0.24473990568E+03 -0.38244769667E+03  0.24664711160E+03  0.51671914033E+03  0.10100000352E+00 0.  1.
</event>
<event>
 5   0  0.1426929E-04  0.1498502E+04  0.7818609E-02  0.8885449E-01
        1   -1    0    0  501    0  0.00000000000E+00  0.00000000000E+00  0.15392495802E+04  0.15392495802E+04  0.50400001928E-02 0.  1.
       -1   -1    0    0    0  501  0.00000000000E+00  0.00000000000E+00 -0.36470842939E+03  0.36470842943E+03  0.50400001928E-02 0. -1.
    10030    2    1    2    0    0  0.00000000000E+00  0.00000000000E+00  0.11745411508E+04  0.19039580096E+04  0.14985023148E+04 0.  0.
        1    1    3    3  502    0  0.12324126512E+03  0.46227601564E+03  0.13199079899E+04  0.14039389680E+04  0.50400001928E-02 0.  1.
       -1    1    3    3    0  502 -0.12324126512E+03 -0.46227601564E+03 -0.14536683909E+03  0.50001904163E+03  0.50400001928E-02 0. -1.
</event>
<event>
 5   0  0.1443750E-04  0.1490759E+04  0.7818609E-02  0.8890621E-01
       -1   -1    0    0    0  501  0.00000000000E+00  0.00000000000E+00  0.68689030968E+03  0.68689030970E+03  0.50400001928E-02 0.  1.
        1   -1    0    0  501    0  0.00000000000E+00  0.00000000000E+00 -0.80884919858E+03  0.80884919859E+03  0.50400001928E-02 0. -1.
    10030    2    1    2    0    0  0.00000000000E+00  0.00000000000E+00 -0.12195888890E+03  0.14957395083E+04  0.14907591040E+04 0.  0.
        2    1    3    3  502    0 -0.63870112253E+03  0.21361063998E+03 -0.38145544470E+03  0.77400057217E+03  0.25500000920E-02 0. -1.
       -2    1    3    3    0  502  0.63870112253E+03 -0.21361063998E+03  0.25949655580E+03  0.72173893612E+03  0.25500000920E-02 0.  1.
</event>
<event>
 5   0  0.2646718E-04  0.1463020E+04  0.7818609E-02  0.8909424E-01
       -2   -1    0    0    0  501  0.00000000000E+00  0.00000000000E+00  0.37104115293E+03  0.37104115294E+03  0.25500000920E-02 0.  1.
        2   -1    0    0  501    0  0.00000000000E+00  0.00000000000E+00 -0.14421758107E+04  0.14421758107E+04  0.25500000920E-02 0. -1.
    10030    2    1    2    0    0  0.00000000000E+00  0.00000000000E+00 -0.10711346577E+04  0.18132169636E+04  0.14630195836E+04 0.  0.
        3    1    3    3  502    0 -0.21867275311E+03  0.38710266210E+02  0.32825426577E+03  0.39631695757E+03  0.10100000352E+00 0.  1.
       -3    1    3    3    0  502  0.21867275311E+03 -0.38710266210E+02 -0.13993889235E+04  0.14169000060E+04  0.10100000352E+00 0. -1.
</event>
<event>
 5   0  0.2646718E-04  0.1500296E+04  0.7818609E-02  0.8884256E-01
        2   -1    0    0  501    0  0.00000000000E+00  0.00000000000E+00  0.48108154615E+03  0.48108154615E+03  0.25500000920E-02 0.  1.
       -2   -1    0    0    0  501  0.00000000000E+00  0.00000000000E+00 -0.11697025273E+04  0.11697025273E+04  0.25500000920E-02 0. -1.
    10030    2    1    2    0    0  0.00000000000E+00  0.00000000000E+00 -0.68862098112E+03  0.16507840734E+04  0.15002963712E+04 0.  0.
        3    1    3    3  502    0  0.65500675620E+03  0.29248713597E+03 -0.58572588905E+03  0.92609794443E+03  0.10100000352E+00 0. -1.
       -3    1    3    3    0  502 -0.65500675620E+03 -0.29248713597E+03 -0.10289509207E+03  0.72468612899E+03  0.10100000352E+00 0.  1.
</event>
<event>
 5   0  0.1474203E-04  0.1503213E+04  0.7818609E-02  0.8882319E-01
       -1   -1    0    0    0  501  0.00000000000E+00  0.00000000000E+00  0.95271184867E+03  0.95271184869E+03  0.50400001928E-02 0. -1.
        1   -1    0    0  501    0  0.00000000000E+00  0.00000000000E+00 -0.59295171180E+03  0.59295171183E+03  0.50400001928E-02 0.  1.
    10030    2    1    2    0    0  0.00000000000E+00  0.00000000000E+00  0.35976013687E+03  0.15456635605E+04  0.15032127215E+04 0.  0.
        3    1    3    3  502    0 -0.10189073923E+03 -0.13915879636E+03  0.93208896514E+03  0.94791177991E+03  0.10100000352E+00 0. -1.
       -3    1    3    3    0  502  0.10189073923E+03  0.13915879636E+03 -0.57232882827E+03  0.59775178061E+03  0.10100000352E+00 0.  1.
</event>
<event>
 5   0  0.2696040E-04  0.1504459E+04  0.7818609E-02  0.8881493E-01
        2   -1    0    0  501    0  0.00000000000E+00  0.00000000000E+00  0.16444873116E+04  0.16444873116E+04  0.25500000920E-02 0. -1.
       -2   -1    0    0    0  501  0.00000000000E+00  0.00000000000E+00 -0.34408835662E+03  0.34408835663E+03  0.25500000920E-02 0.  1.
    10030    2    1    2    0    0  0.00000000000E+00  0.00000000000E+00  0.13003989550E+04  0.19885756682E+04  0.15044586223E+04 0.  0.
        2    1    3    3  502    0  0.70947242941E+03  0.73090484717E+02  0.33419646147E+03  0.78764244547E+03  0.25500000920E-02 0.  1.
       -2    1    3    3    0  502 -0.70947242941E+03 -0.73090484717E+02  0.96620249354E+03  0.12009332228E+04  0.25500000920E-02 0. -1.
</event>
<event>
 5   0  0.2618901E-04  0.1500184E+04  0.7818609E-02  0.8884331E-01
        2   -1    0    0  501    0  0.00000000000E+00  0.00000000000E+00  0.43610798766E+03  0.43610798767E+03  0.25500000920E-02 0. -1.
       -2   -1    0    0    0  501  0.00000000000E+00  0.00000000000E+00 -0.12901338407E+04  0.12901338407E+04  0.25500000920E-02 0.  1.
    10030    2    1    2    0    0  0.00000000000E+00  0.00000000000E+00 -0.85402585300E+03  0.17262418283E+04  0.15001835529E+04 0.  0.
        1    1    3    3  502    0 -0.51090911048E+03  0.52912149130E+03 -0.25774063348E+03  0.77937661365E+03  0.50400001928E-02 0. -1.
       -1    1    3    3    0  502  0.51090911048E+03 -0.52912149130E+03 -0.59628521952E+03  0.94686521468E+03  0.50400001928E-02 0.  1.
</event>
<event>
 5   0  0.2641347E-04  0.1500760E+04  0.7818609E-02  0.8883948E-01
        2   -1    0    0  501    0  0.00000000000E+00  0.00000000000E+00  0.21711246792E+04  0.21711246792E+04  0.25500000920E-02 0.  1.
       -2   -1    0    0    0  501  0.00000000000E+00  0.00000000000E+00 -0.25934478846E+03  0.25934478848E+03  0.25500000920E-02 0. -1.
    10030    2    1    2    0    0  0.00000000000E+00  0.00000000000E+00  0.19117798907E+04  0.24304694677E+04  0.15007596352E+04 0.  0.
        4    1    3    3  502    0  0.46052789013E+03  0.37879526063E+03  0.16935977642E+04  0.17955073898E+04  0.12699999809E+01 0.  1.
       -4    1    3    3    0  502 -0.46052789013E+03 -0.37879526063E+03  0.21818212650E+03  0.63496207783E+03  0.12699999809E+01 0. -1.
</event>
<event>
 5   0  0.1484251E-04  0.1502955E+04  0.7818609E-02  0.8882490E-01
       -1   -1    0    0    0  501  0.00000000000E+00  0.00000000000E+00  0.37958272362E+03  0.37958272365E+03  0.50400001928E-02 0.  1.
        1   -1    0    0  501    0  0.00000000000E+00  0.00000000000E+00 -0.14877343057E+04  0.14877343057E+04  0.50400001928E-02 0. -1.
    10030    2    1    2    0    0  0.00000000000E+00  0.00000000000E+00 -0.11081515820E+04  0.18673170293E+04  0.15029547429E+04 0.  0.
        5    1    3    3  502    0 -0.45719934161E+03  0.16839005477E+03  0.15673104104E+03  0.51183313466E+03  0.46999998093E+01 0.  1.
       -5    1    3    3    0  502  0.45719934161E+03 -0.16839005477E+03 -0.12648826231E+04  0.13554838947E+04  0.46999998093E+01 0. -1.
</event>
<event>
 5   0  0.2618901E-04  0.1499411E+04  0.7818609E-02  0.8884845E-01
        2   -1    0    0  501    0  0.00000000000E+00  0.00000000000E+00  0.11959612481E+04  0.11959612481E+04  0.25500000920E-02 0. -1.
       -2   -1    0    0    0  501  0.00000000000E+00  0.00000000000E+00 -0.46996344942E+03  0.46996344943E+03  0.25500000920E-02 0.  1.
    10030    2    1    2    0    0  0.00000000000E+00  0.00000000000E+00  0.72599779866E+03  0.16659246975E+04  0.14994106489E+04 0.  0.
        1    1    3    3  502    0 -0.32446122685E+03  0.63129289177E+03  0.63115717532E+03  0.94982376413E+03  0.50400001928E-02 0. -1.
       -1    1    3    3    0  502  0.32446122685E+03 -0.63129289177E+03  0.94840623343E+02  0.71610093338E+03  0.50400001928E-02 0.  1.
</event>
<event>
 5   0  0.2646718E-04  0.1498095E+04  0.7818609E-02  0.8885721E-01
       -2   -1    0    0    0  501  0.00000000000E+00  0.00000000000E+00  0.47691285544E+03  0.47691285544E+03  0.25500000920E-02 0.  1.
        2   -1    0    0  501    0  0.00000000000E+00  0.00000000000E+00 -0.11764665728E+04  0.11764665728E+04  0.25500000920E-02 0. -1.
    10030    2    1    2    0    0  0.00000000000E+00  0.00000000000E+00 -0.69955371736E+03  0.16533794282E+04  0.14980948335E+04 0.  0.
        3    1    3    3  502    0 -0.58813451249E+02 -0.10442696563E+03 -0.11658159087E+04  0.11719602196E+04  0.10100000352E+00 0. -1.
       -3    1    3    3    0  502  0.58813451249E+02  0.10442696563E+03  0.46626219132E+03  0.48141920864E+03  0.10100000352E+00 0.  1.
</event>
<event>
 5   0  0.1427609E-04  0.1498274E+04  0.7818609E-02  0.8885601E-01
       -1   -1    0    0    0  501  0.00000000000E+00  0.00000000000E+00  0.63533400861E+03  0.63533400863E+03  0.50400001928E-02 0. -1.
        1   -1    0    0  501    0  0.00000000000E+00  0.00000000000E+00 -0.88332532111E+03  0.88332532112E+03  0.50400001928E-02 0.  1.
    10030    2    1    2    0    0  0.00000000000E+00  0.00000000000E+00 -0.24799131250E+03  0.15186593298E+04  0.14982744971E+04 0.  0.
        4    1    3    3  502    0 -0.34549404897E+03 -0.31221581372E+03  0.47081045336E+03  0.66220008162E+03  0.12699999809E+01 0. -1.
       -4    1    3    3    0  502  0.34549404897E+03  0.31221581372E+03 -0.71880176586E+03  0.85645924813E+03  0.12699999809E+01 0.  1.
</event>
<event>
 5   0  0.2734072E-04  0.1514870E+04  0.7818609E-02  0.8874625E-01
        2   -1    0    0  501    0  0.00000000000E+00  0.00000000000E+00  0.81580621153E+03  0.81580621153E+03  0.25500000920E-02 0.  1.
       -2   -1    0    0    0  501  0.00000000000E+00  0.00000000000E+00 -0.70323993670E+03  0.70323993670E+03  0.25500000920E-02 0. -1.
    10030    2    1    2    0    0  0.00000000000E+00  0.00000000000E+00  0.11256627483E+03  0.15190461482E+04  0.15148696427E+04 0.  0.
        5    1    3    3  502    0  0.19313149272E+02 -0.22395077755E+03  0.78157421645E+03  0.81326950903E+03  0.46999998093E+01 0.  1.
       -5    1    3    3    0  502 -0.19313149272E+02  0.22395077755E+03 -0.66900794162E+03  0.70577663921E+03  0.46999998093E+01 0. -1.
</event>
<event>
 5   0  0.2696040E-04  0.1500293E+04  0.7818609E-02  0.8884258E-01
       -2   -1    0    0    0  501  0.00000000000E+00  0.00000000000E+00  0.11964451322E+04  0.11964451322E+04  0.25500000920E-02 0.  1.
        2   -1    0    0  501    0  0.00000000000E+00  0.00000000000E+00 -0.47032671649E+03  0.47032671649E+03  0.25500000920E-02 0. -1.
    10030    2    1    2    0    0  0.00000000000E+00  0.00000000000E+00  0.72611841568E+03  0.16667718487E+04  0.15002934519E+04 0.  0.
        2    1    3    3  502    0  0.51207888690E+03  0.35228541950E+03  0.82965122186E+03  0.10366537287E+04  0.25500000920E-02 0.  1.
       -2    1    3    3    0  502 -0.51207888690E+03 -0.35228541950E+03 -0.10353280618E+03  0.63011812001E+03  0.25500000920E-02 0. -1.
</event>
<event>
 5   0  0.2696040E-04  0.1496354E+04  0.7818609E-02  0.8886881E-01
       -2   -1    0    0    0  501  0.00000000000E+00  0.00000000000E+00  0.67994108031E+03  0.67994108031E+03  0.25500000920E-02 0.  1.
        2   -1    0    0  501    0  0.00000000000E+00  0.00000000000E+00 -0.82326098958E+03  0.82326098958E+03  0.25500000920E-02 0. -1.
    10030    2    1    2    0    0  0.00000000000E+00  0.00000000000E+00 -0.14331990927E+03  0.15032020699E+04  0.14963541915E+04 0.  0.
        2    1    3    3  502    0  0.41565679306E+03 -0.48516330439E+03 -0.46281955677E+03  0.78889539464E+03  0.25500000920E-02 0. -1.
       -2    1    3    3    0  502 -0.41565679306E+03  0.48516330439E+03  0.31949964750E+03  0.71430667525E+03  0.25500000920E-02 0.  1.
</event>
<event>
 5   0  0.1474203E-04  0.1489553E+04  0.7818609E-02  0.8891430E-01
        1   -1    0    0  501    0  0.00000000000E+00  0.00000000000E+00  0.53881575128E+03  0.53881575130E+03  0.50400001928E-02 0. -1.
       -1   -1    0    0    0  501  0.00000000000E+00  0.00000000000E+00 -0.10294646181E+04  0.10294646182E+04  0.50400001928E-02 0.  1.
    10030    2    1    2    0    0  0.00000000000E+00  0.00000000000E+00 -0.49064886686E+03  0.15682803695E+04  0.14895526196E+04 0.  0.
        3    1    3    3  502    0 -0.68876224735E+03 -0.13227406334E+03 -0.50917266030E+03  0.86668718082E+03  0.10100000352E+00 0.  1.
       -3    1    3    3    0  502  0.68876224735E+03  0.13227406334E+03  0.18523793432E+02  0.70159318863E+03  0.10100000352E+00 0. -1.
</event>
<event>
 5   0  0.1443750E-04  0.1500471E+04  0.7818609E-02  0.8884139E-01
        1   -1    0    0  501    0  0.00000000000E+00  0.00000000000E+00  0.10233215139E+04  0.10233215139E+04  0.50400001928E-02 0. -1.
       -1   -1    0    0    0  501  0.00000000000E+00  0.00000000000E+00 -0.55002619308E+03  0.55002619311E+03  0.50400001928E-02 0.  1.
    10030    2    1    2    0    0  0.00000000000E+00  0.00000000000E+00  0.47329532082E+03  0.15733477070E+04  0.15004714414E+04 0.  0.
        2    1    3    3  502    0  0.10090905804E+03 -0.72715052568E+03  0.74464480606E+02  0.73788582034E+03  0.25500000920E-02 0.  1.
       -2    1    3    3    0  502 -0.10090905804E+03  0.72715052568E+03  0.39883084021E+03  0.83546188668E+03  0.25500000920E-02 0. -1.
</event>
<event>
 5   0  0.2618901E-04  0.1497377E+04  0.7818609E-02  0.8886199E-01
        2   -1    0    0  501    0  0.00000000000E+00  0.00000000000E+00  0.11055293792E+04  0.11055293792E+04  0.25500000920E-02 0. -1.
       -2   -1    0    0    0  501  0.00000000000E+00  0.00000000000E+00 -0.50702832419E+03  0.50702832419E+03  0.25500000920E-02 0.  1.
    10030    2    1    2    0    0  0.00000000000E+00  0.00000000000E+00  0.59850105500E+03  0.16125577034E+04  0.14973773185E+04 0.  0.
        1    1    3    3  502    0  0.26395135851E+02 -0.54734876451E+03  0.84863598540E+03  0.10101833541E+04  0.50400001928E-02 0. -1.
       -1    1    3    3    0  502 -0.26395135851E+02  0.54734876451E+03 -0.25013493040E+03  0.60237434925E+03  0.50400001928E-02 0.  1.
</event>
<event>
 5   0  0.1004313E-04  0.1505253E+04  0.7818609E-02  0.8880967E-01
       -4   -1    0    0    0  501  0.00000000000E+00  0.00000000000E+00  0.10400164250E+04  0.10400172004E+04  0.12699999809E+01 0. -1.
        4   -1    0    0  501    0  0.00000000000E+00  0.00000000000E+00 -0.54464980317E+03  0.54465128384E+03  0.12699999809E+01 0.  1.
    10030    2    1    2    0    0  0.00000000000E+00  0.00000000000E+00  0.49536662182E+03  0.15846684843E+04  0.15052528409E+04 0.  0.
        3    1    3    3  502    0  0.96876781830E+02  0.43690350522E+03  0.88473451244E+03  0.99147614768E+03  0.10100000352E+00 0. -1.
       -3    1    3    3    0  502 -0.96876781830E+02 -0.43690350522E+03 -0.38936789061E+03  0.59319233657E+03  0.10100000352E+00 0.  1.
</event>
<event>
 5   0  0.1484251E-04  0.1496299E+04  0.7818609E-02  0.8886918E-01
        1   -1    0    0  501    0  0.00000000000E+00  0.00000000000E+00  0.67703803391E+03  0.67703803393E+03  0.50400001928E-02 0. -1.
       -1   -1    0    0    0  501  0.00000000000E+00  0.00000000000E+00 -0.82673010558E+03  0.82673010560E+03  0.50400001928E-02 0.  1.
    10030    2    1    2    0    0  0.00000000000E+00  0.00000000000E+00 -0.14969207167E+03  0.15037681395E+04  0.14962990681E+04 0.  0.
        5    1    3    3  502    0 -0.12410750754E+03  0.19296805231E+03 -0.79048642719E+03  0.82312224135E+03  0.46999998093E+01 0.  1.
       -5    1    3    3    0  502  0.12410750754E+03 -0.19296805231E+03  0.64079435552E+03  0.68064589817E+03  0.46999998093E+01 0. -1.
</event>
<event>
 5   0  0.2734072E-04  0.1495495E+04  0.7818609E-02  0.8887454E-01
       -2   -1    0    0    0  501  0.00000000000E+00  0.00000000000E+00  0.50886789245E+03  0.50886789246E+03  0.25500000920E-02 0. -1.
        2   -1    0    0  501    0  0.00000000000E+00  0.00000000000E+00 -0.10987652309E+04  0.10987652309E+04  0.25500000920E-02 0.  1.
    10030    2    1    2    0    0  0.00000000000E+00  0.00000000000E+00 -0.58989733840E+03  0.16076331233E+04  0.14954950315E+04 0.  0.
        5    1    3    3  502    0  0.64838011379E+03  0.34105089621E+03 -0.45580797817E+03  0.86284152005E+03  0.46999998093E+01 0.  1.
       -5    1    3    3    0  502 -0.64838011379E+03 -0.34105089621E+03 -0.13408936023E+03  0.74479160326E+03  0.46999998093E+01 0. -1.
</event>
<event>
 5   0  0.1443750E-04  0.1502305E+04  0.7818609E-02  0.8882922E-01
        1   -1    0    0  501    0  0.00000000000E+00  0.00000000000E+00  0.19471055444E+04  0.19471055444E+04  0.50400001928E-02 0.  1.
       -1   -1    0    0    0  501  0.00000000000E+00  0.00000000000E+00 -0.28977890376E+03  0.28977890380E+03  0.50400001928E-02 0. -1.
    10030    2    1    2    0    0  0.00000000000E+00  0.00000000000E+00  0.16573266407E+04  0.22368844482E+04  0.15023050426E+04 0.  0.
        2    1    3    3  502    0  0.30124130024E+03 -0.58724294748E+03  0.29464552120E+03  0.72278391204E+03  0.25500000920E-02 0. -1.
       -2    1    3    3    0  502 -0.30124130024E+03  0.58724294748E+03  0.13626811195E+04  0.15141005362E+04  0.25500000920E-02 0.  1.
</event>
<event>
 5   0  0.1474203E-04  0.1497646E+04  0.7818609E-02  0.8886020E-01
        1   -1    0    0  501    0  0.00000000000E+00  0.00000000000E+00  0.31262159839E+03  0.31262159843E+03  0.50400001928E-02 0. -1.
       -1   -1    0    0    0  501  0.00000000000E+00  0.00000000000E+00 -0.17936571694E+04  0.17936571694E+04  0.50400001928E-02 0.  1.
    10030    2    1    2    0    0  0.00000000000E+00  0.00000000000E+00 -0.14810355710E+04  0.21062787678E+04  0.14976461148E+04 0.  0.
        3    1    3    3  502    0 -0.41658942914E+02  0.57932772730E+02 -0.17888648237E+04  0.17902874187E+04  0.10100000352E+00 0.  1.
       -3    1    3    3    0  502  0.41658942914E+02 -0.57932772730E+02  0.30782925275E+03  0.31599134914E+03  0.10100000352E+00 0. -1.
</event>
<event>
 5   0  0.1474203E-04  0.1499522E+04  0.7818609E-02  0.8884771E-01
        1   -1    0    0  501    0  0.00000000000E+00  0.00000000000E+00  0.10705289890E+04  0.10705289890E+04  0.50400001928E-02 0. -1.
       -1   -1    0    0    0  501  0.00000000000E+00  0.00000000000E+00 -0.52510607689E+03  0.52510607691E+03  0.50400001928E-02 0.  1.
    10030    2    1    2    0    0  0.00000000000E+00  0.00000000000E+00  0.54542291210E+03  0.15956350659E+04  0.14995216272E+04 0.  0.
        3    1    3    3  502    0 -0.38518053143E+03  0.31244101706E+03  0.87103048242E+03  0.10023360427E+04  0.10100000352E+00 0. -1.
       -3    1    3    3    0  502  0.38518053143E+03 -0.31244101706E+03 -0.32560757031E+03  0.59329902324E+03  0.10100000352E+00 0.  1.
</event>
<event>
 5   0  0.2696040E-04  0.1495442E+04  0.7818609E-02  0.8887490E-01
        2   -1    0    0  501    0  0.00000000000E+00  0.00000000000E+00  0.10142350289E+04  0.10142350289E+04  0.25500000920E-02 0. -1.
       -2   -1    0    0    0  501  0.00000000000E+00  0.00000000000E+00 -0.55123966002E+03  0.55123966002E+03  0.25500000920E-02 0.  1.
    10030    2    1    2    0    0  0.00000000000E+00  0.00000000000E+00  0.46299536890E+03  0.15654746890E+04  0.14954418378E+04 0.  0.
        2    1    3    3  502    0  0.35892020268E+02 -0.34826355696E+03 -0.46013265380E+03  0.57818491966E+03  0.25500000920E-02 0.  1.
       -2    1    3    3    0  502 -0.35892020268E+02  0.34826355696E+03  0.92312802271E+03  0.98728976929E+03  0.25500000920E-02 0. -1.
</event>
<event>
 5   0  0.2618901E-04  0.1503306E+04  0.7818609E-02  0.8882257E-01
        2   -1    0    0  501    0  0.00000000000E+00  0.00000000000E+00  0.45268577033E+03  0.45268577033E+03  0.25500000920E-02 0.  1.
       -2   -1    0    0    0  501  0.00000000000E+00  0.00000000000E+00 -0.12480674731E+04  0.12480674731E+04  0.25500000920E-02 0. -1.
    10030    2    1    2    0    0  0.00000000000E+00  0.00000000000E+00 -0.79538170281E+03  0.17007532435E+04  0.15033062037E+04 0.  0.
        1    1    3    3  502    0  0.28152600249E+03 -0.43398273159E+03 -0.10146451735E+04  0.11389041792E+04  0.50400001928E-02 0. -1.
       -1    1    3    3    0  502 -0.28152600249E+03  0.43398273159E+03  0.21926347066E+03  0.56184906424E+03  0.50400001928E-02 0.  1.
</event>
<event>
 5   0  0.1426929E-04  0.1502482E+04  0.7818609E-02  0.8882804E-01
        1   -1    0    0  501    0  0.00000000000E+00  0.00000000000E+00  0.14184352510E+04  0.14184352510E+04  0.50400001928E-02 0.  1.
       -1   -1    0    0    0  501  0.00000000000E+00  0.00000000000E+00 -0.39787706537E+03  0.39787706541E+03  0.50400001928E-02 0. -1.
    10030    2    1    2    0    0  0.00000000000E+00  0.00000000000E+00  0.10205581856E+04  0.18163123164E+04  0.15024817538E+04 0.  0.
        1    1    3    3  502    0  0.20313869711E+03  0.60925512756E+03  0.98143905366E+03  0.11728937534E+04  0.50400001928E-02 0.  1.
       -1    1    3    3    0  502 -0.20313869711E+03 -0.60925512756E+03  0.39119131978E+02  0.64341856302E+03  0.50400001928E-02 0. -1.
</event>
<event>
 5   0  0.2618901E-04  0.1501303E+04  0.7818609E-02  0.8883587E-01
        2   -1    0    0  501    0  0.00000000000E+00  0.00000000000E+00  0.10546168540E+04  0.10546168540E+04  0.25500000920E-02 0. -1.
       -2   -1    0    0    0  501  0.00000000000E+00  0.00000000000E+00 -0.53429615834E+03  0.53429615834E+03  0.25500000920E-02 0.  1.
    10030    2    1    2    0    0  0.00000000000E+00  0.00000000000E+00  0.52032069568E+03  0.15889130124E+04  0.15013030788E+04 0.  0.
        1    1    3    3  502    0  0.12519879004E+03 -0.52311075575E+03  0.81431669774E+03  0.97592585992E+03  0.50400001928E-02 0. -1.
       -1    1    3    3    0  502 -0.12519879004E+03  0.52311075575E+03 -0.29399600206E+03  0.61298715245E+03  0.50400001928E-02 0.  1.
</event>
<event>
 5   0  0.2618901E-04  0.1497921E+04  0.7818609E-02  0.8885837E-01
       -2   -1    0    0    0  501  0.00000000000E+00  0.00000000000E+00  0.92072030749E+03  0.92072030750E+03  0.25500000920E-02 0. -1.
        2   -1    0    0  501    0  0.00000000000E+00  0.00000000000E+00 -0.60924215358E+03  0.60924215359E+03  0.25500000920E-02 0.  1.
    10030    2    1    2    0    0  0.00000000000E+00  0.00000000000E+00  0.31147815391E+03  0.15299624611E+04  0.14979207229E+04 0.  0.
        1    1    3    3  502    0  0.28451287190E+03  0.57978928700E+03  0.54311213783E+03  0.84384476409E+03  0.50400001928E-02 0. -1.
       -1    1    3    3    0  502 -0.28451287190E+03 -0.57978928700E+03 -0.23163398392E+03  0.68611769700E+03  0.50400001928E-02 0.  1.
</event>
<event>
 5   0  0.2734072E-04  0.1496960E+04  0.7818609E-02  0.8886477E-01
        2   -1    0    0  501    0  0.00000000000E+00  0.00000000000E+00  0.10730013139E+04  0.10730013139E+04  0.25500000920E-02 0.  1.
       -2   -1    0    0    0  501  0.00000000000E+00  0.00000000000E+00 -0.52210742761E+03  0.52210742761E+03  0.25500000920E-02 0. -1.
    10030    2    1    2    0    0  0.00000000000E+00  0.00000000000E+00  0.55089388625E+03  0.15951087415E+04  0.14969595262E+04 0.  0.
        5    1    3    3  502    0  0.10396801704E+03 -0.65660910444E+03 -0.90982189977E+02  0.67100276712E+03  0.46999998093E+01 0. -1.
       -5    1    3    3    0  502 -0.10396801704E+03  0.65660910444E+03  0.64187607623E+03  0.92410597435E+03  0.46999998093E+01 0.  1.
</event>
<event>
 5   0  0.2646718E-04  0.1503270E+04  0.7818609E-02  0.8882281E-01
       -2   -1    0    0    0  501  0.00000000000E+00  0.00000000000E+00  0.39533114208E+03  0.39533114209E+03  0.25500000920E-02 0. -1.
        2   -1    0    0  501    0  0.00000000000E+00  0.00000000000E+00 -0.14290685562E+04  0.14290685562E+04  0.25500000920E-02 0.  1.
    10030    2    1    2    0    0  0.00000000000E+00  0.00000000000E+00 -0.10337374141E+04  0.18243996983E+04  0.15032701746E+04 0.  0.
        3    1    3    3  502    0 -0.21736915971E+03 -0.94760493786E+02  0.34874691347E+03  0.42172659702E+03  0.10100000352E+00 0. -1.
       -3    1    3    3    0  502  0.21736915971E+03  0.94760493786E+02 -0.13824843276E+04  0.14026731013E+04  0.10100000352E+00 0.  1.
</event>
<event>
 5   0  0.1427609E-04  0.1494228E+04  0.7818609E-02  0.8888301E-01
        1   -1    0    0  501    0  0.00000000000E+00  0.00000000000E+00  0.86694311102E+03  0.86694311104E+03  0.50400001928E-02 0. -1.
       -1   -1    0    0    0  501  0.00000000000E+00  0.00000000000E+00 -0.64384728591E+03  0.64384728593E+03  0.50400001928E-02 0.  1.
    10030    2    1    2    0    0  0.00000000000E+00  0.00000000000E+00  0.22309582511E+03  0.15107903970E+04  0.14942275183E+04 0.  0.
        4    1    3    3  502    0 -0.27212510224E+03 -0.67545341943E+03  0.28039589786E+03  0.78032869070E+03  0.12699999809E+01 0. -1.
       -4    1    3    3    0  502  0.27212510224E+03  0.67545341943E+03 -0.57300072753E+02  0.73046170627E+03  0.12699999809E+01 0.  1.
</event>
<event>
 5   0  0.1426929E-04  0.1504971E+04  0.7818609E-02  0.8881154E-01
        1   -1    0    0  501    0  0.00000000000E+00  0.00000000000E+00  0.13763725463E+04  0.13763725463E+04  0.50400001928E-02 0. -1.
       -1   -1    0    0    0  501  0.00000000000E+00  0.00000000000E+00 -0.41139593902E+03  0.41139593905E+03  0.50400001928E-02 0.  1.
    10030    2    1    2    0    0  0.00000000000E+00  0.00000000000E+00  0.96497660728E+03  0.17877684854E+04  0.15049705328E+04 0.  0.
        1    1    3    3  502    0 -0.69874014459E+03  0.10432891647E+03  0.79022735218E+03  0.10599913116E+04  0.50400001928E-02 0.  1.
       -1    1    3    3    0  502  0.69874014459E+03 -0.10432891647E+03  0.17474925510E+03  0.72777717377E+03  0.50400001928E-02 0. -1.
</event>
<event>
 5   0  0.1426929E-04  0.1481651E+04  0.7818609E-02  0.8896747E-01
        1   -1    0    0  501    0  0.00000000000E+00  0.00000000000E+00  0.15506800829E+04  0.15506800829E+04  0.50400001928E-02 0.  1.
       -1   -1    0    0    0  501  0.00000000000E+00  0.00000000000E+00 -0.35392388830E+03  0.35392388833E+03  0.50400001928E-02 0. -1.
    10030    2    1    2    0    0  0.00000000000E+00  0.00000000000E+00  0.11967561946E+04  0.19046039712E+04  0.14816514090E+04 0.  0.
        1    1    3    3  502    0  0.35290019842E+03  0.43263032535E+03  0.12243261930E+04  0.13456159093E+04  0.50400001928E-02 0.  1.
       -1    1    3    3    0  502 -0.35290019842E+03 -0.43263032535E+03 -0.27569998485E+02  0.55898806186E+03  0.50400001928E-02 0. -1.
</event>
<event>
 5   0  0.2734072E-04  0.1497781E+04  0.7818609E-02  0.8885930E-01
        2   -1    0    0  501    0  0.00000000000E+00  0.00000000000E+00  0.58681951081E+03  0.58681951082E+03  0.25500000920E-02 0. -1.
       -2   -1    0    0    0  501  0.00000000000E+00  0.00000000000E+00 -0.95572283726E+03  0.95572283726E+03  0.25500000920E-02 0.  1.
    10030    2    1    2    0    0  0.00000000000E+00  0.00000000000E+00 -0.36890332644E+03  0.15425423481E+04  0.14977807688E+04 0.  0.
        5    1    3    3  502    0 -0.29846705005E+03  0.23071194747E+03  0.48180063862E+03  0.61193506849E+03  0.46999998093E+01 0. -1.
       -5    1    3    3    0  502  0.29846705005E+03 -0.23071194747E+03 -0.85070396506E+03  0.93060727960E+03  0.46999998093E+01 0.  1.
</event>
<event>
 5   0  0.2618901E-04  0.1499169E+04  0.7818609E-02  0.8885006E-01
       -2   -1    0    0    0  501  0.00000000000E+00  0.00000000000E+00  0.37119650748E+03  0.37119650749E+03  0.25500000920E-02 0.  1.
        2   -1    0    0  501    0  0.00000000000E+00  0.00000000000E+00 -0.15136912328E+04  0.15136912328E+04  0.25500000920E-02 0. -1.
    10030    2    1    2    0    0  0.00000000000E+00  0.00000000000E+00 -0.11424947254E+04  0.18848877403E+04  0.14991689685E+04 0.  0.
        1    1    3    3  502    0  0.49055758840E+03 -0.20363224107E+03 -0.12362614848E+04  0.13455316035E+04  0.50400001928E-02 0. -1.
       -1    1    3    3    0  502 -0.49055758840E+03  0.20363224107E+03  0.93766759453E+02  0.53935613683E+03  0.50400001928E-02 0.  1.
</event>
<event>
 5   0  0.1484251E-04  0.1496310E+04  0.7818609E-02  0.8886911E-01
       -1   -1    0    0    0  501  0.00000000000E+00  0.00000000000E+00  0.44157457456E+03  0.44157457459E+03  0.50400001928E-02 0. -1.
        1   -1    0    0  501    0  0.00000000000E+00  0.00000000000E+00 -0.12675907098E+04  0.12675907098E+04  0.50400001928E-02 0.  1.
    10030    2    1    2    0    0  0.00000000000E+00  0.00000000000E+00 -0.82601613519E+03  0.17091652844E+04  0.14963098989E+04 0.  0.
        5    1    3    3  502    0 -0.41763352849E+03 -0.15371022064E+03  0.27393104099E+03  0.52259439459E+03  0.46999998093E+01 0. -1.
       -5    1    3    3    0  502  0.41763352849E+03  0.15371022064E+03 -0.10999471762E+04  0.11865708898E+04  0.46999998093E+01 0.  1.
</event>
<event>
 5   0  0.1474203E-04  0.1503587E+04  0.7818609E-02  0.8882071E-01
        1   -1    0    0  501    0  0.00000000000E+00  0.00000000000E+00  0.72904928313E+03  0.72904928315E+03  0.50400001928E-02 0.  1.
       -1   -1    0    0    0  501  0.00000000000E+00  0.00000000000E+00 -0.77524734334E+03  0.77524734336E+03  0.50400001928E-02 0. -1.
    10030    2    1    2    0    0  0.00000000000E+00  0.00000000000E+00 -0.46198060209E+02  0.15042966265E+04  0.15035870709E+04 0.  0.
        3    1    3    3  502    0 -0.21334850644E+03  0.49150858203E+03 -0.55069525006E+03  0.76835118276E+03  0.10100000352E+00 0. -1.
       -3    1    3    3    0  502  0.21334850644E+03 -0.49150858203E+03  0.50449718985E+03  0.73594544375E+03  0.10100000352E+00 0.  1.
</event>
<event>
 5   0  0.2618901E-04  0.1499514E+04  0.7818609E-02  0.8884776E-01
        2   -1    0    0  501    0  0.00000000000E+00  0.00000000000E+00  0.15215243919E+04  0.15215243919E+04  0.25500000920E-02 0. -1.
       -2   -1    0    0    0  501  0.00000000000E+00  0.00000000000E+00 -0.36945535382E+03  0.36945535383E+03  0.25500000920E-02 0.  1.
    10030    2    1    2    0    0  0.00000000000E+00  0.00000000000E+00  0.11520690381E+04  0.18909797457E+04  0.14995136979E+04 0.  0.
        1    1    3    3  502    0  0.54633839672E+03 -0.38946007025E+03  0.15405795558E+03  0.68840296611E+03  0.50400001928E-02 0.  1.
       -1    1    3    3    0  502 -0.54633839672E+03  0.38946007025E+03  0.99801108250E+03  0.12025767796E+04  0.50400001928E-02 0. -1.
</event>
<event>
 5   0  0.1426929E-04  0.1522215E+04  0.7818609E-02  0.8869813E-01
       -1   -1    0    0    0  501  0.00000000000E+00  0.00000000000E+00  0.53484117304E+03  0.53484117306E+03  0.50400001928E-02 0.  1.
        1   -1    0    0  501    0  0.00000000000E+00  0.00000000000E+00 -0.10830972322E+04  0.10830972322E+04  0.50400001928E-02 0. -1.
    10030    2    1    2    0    0  0.00000000000E+00  0.00000000000E+00 -0.54825605920E+03  0.16179384053E+04  0.15222154831E+04 0.  0.
        1    1    3    3  502    0  0.24078593434E+03 -0.14320867875E+02  0.49314023598E+03  0.54897199000E+03  0.50400001928E-02 0.  1.
       -1    1    3    3    0  502 -0.24078593434E+03  0.14320867875E+02 -0.10413962952E+04  0.10689664153E+04  0.50400001928E-02 0. -1.
</event>
<event>
 5   0  0.1443750E-04  0.1494434E+04  0.7818609E-02  0.8888163E-01
        1   -1    0    0  501    0  0.00000000000E+00  0.00000000000E+00  0.75519817961E+03  0.75519817963E+03  0.50400001928E-02 0.  1.
       -1   -1    0    0    0  501  0.00000000000E+00  0.00000000000E+00 -0.73931967826E+03  0.73931967828E+03  0.50400001928E-02 0. -1.
    10030    2    1    2    0    0  0.00000000000E+00  0.00000000000E+00  0.15878501352E+02  0.14945178579E+04  0.14944335050E+04 0.  0.
        2    1    3    3  502    0  0.53468146151E+03  0.43305717650E+03 -0.28347055960E+03  0.74416284613E+03  0.25500000920E-02 0.  1.
       -2    1    3    3    0  502 -0.53468146151E+03 -0.43305717650E+03  0.29934906095E+03  0.75035501178E+03  0.25500000920E-02 0. -1.
</event>
<event>
 5   0  0.1427609E-04  0.1500808E+04  0.7818609E-02  0.8883916E-01
       -1   -1    0    0    0  501  0.00000000000E+00  0.00000000000E+00  0.61795771090E+03  0.61795771092E+03  0.50400001928E-02 0. -1.
        1   -1    0    0  501    0  0.00000000000E+00  0.00000000000E+00 -0.91123790255E+03  0.91123790256E+03  0.50400001928E-02 0.  1.
    10030    2    1    2    0    0  0.00000000000E+00  0.00000000000E+00 -0.29328019165E+03  0.15291956135E+04  0.15008084333E+04 0.  0.
        4    1    3    3  502    0  0.71218116365E+03  0.50889175433E+02  0.88623637370E+02  0.71947722691E+03  0.12699999809E+01 0. -1.
       -4    1    3    3    0  502 -0.71218116365E+03 -0.50889175433E+02 -0.38190382902E+03  0.80971838658E+03  0.12699999809E+01 0.  1.
</event>
<event>
 5   0  0.1443750E-04  0.1593730E+04  0.7818609E-02  0.8824409E-01
        1   -1    0    0  501    0  0.00000000000E+00  0.00000000000E+00  0.10405598685E+04  0.10405598685E+04  0.50400001928E-02 0. -1.
       -1   -1    0    0    0  501  0.00000000000E+00  0.00000000000E+00 -0.61024221588E+03  0.61024221590E+03  0.50400001928E-02 0.  1.
    10030    2    1    2    0    0  0.00000000000E+00  0.00000000000E+00  0.43031765264E+03  0.16508020844E+04  0.15937296633E+04 0.  0.
        2    1    3    3  502    0 -0.76315572381E+03  0.92128846689E+02  0.43267702276E+03  0.88210191543E+03  0.25500000920E-02 0.  1.
       -2    1    3    3    0  502  0.76315572381E+03 -0.92128846689E+02 -0.23593701171E+01  0.76870016900E+03  0.25500000920E-02 0. -1.
</event>
<event>
 5   0  0.1426929E-04  0.1502885E+04  0.7818609E-02  0.8882536E-01
       -1   -1    0    0    0  501  0.00000000000E+00  0.00000000000E+00  0.54598813024E+03  0.54598813027E+03  0.50400001928E-02 0. -1.
        1   -1    0    0  501    0  0.00000000000E+00  0.00000000000E+00 -0.10342095370E+04  0.10342095370E+04  0.50400001928E-02 0.  1.
    10030    2    1    2    0    0  0.00000000000E+00  0.00000000000E+00 -0.48822140679E+03  0.15801976673E+04  0.15028854001E+04 0.  0.
        1    1    3    3  502    0  0.16351015055E+03  0.25903438004E+03 -0.96558094494E+03  0.10130058937E+04  0.50400001928E-02 0.  1.
       -1    1    3    3    0  502 -0.16351015055E+03 -0.25903438004E+03  0.47735953815E+03  0.56719177363E+03  0.50400001928E-02 0. -1.
</event>
<event>
 5   0  0.1474203E-04  0.1498642E+04  0.7818609E-02  0.8885356E-01
        1   -1    0    0  501    0  0.00000000000E+00  0.00000000000E+00  0.13140274435E+04  0.13140274436E+04  0.50400001928E-02 0.  1.
       -1   -1    0    0    0  501  0.00000000000E+00  0.00000000000E+00 -0.42729864920E+03  0.42729864923E+03  0.50400001928E-02 0. -1.
    10030    2    1    2    0    0  0.00000000000E+00  0.00000000000E+00  0.88672879434E+03  0.17413260928E+04  0.14986422544E+04 0.  0.
        3    1    3    3  502    0  0.30224715930E+03  0.19875267482E+03 -0.31912242820E+03  0.48238481054E+03  0.10100000352E+00 0. -1.
       -3    1    3    3    0  502 -0.30224715930E+03 -0.19875267482E+03  0.12058512225E+04  0.12589412822E+04  0.10100000352E+00 0.  1.
</event>
<event>
 5   0  0.1427609E-04  0.1494156E+04  0.7818609E-02  0.8888349E-01
        1   -1    0    0  501    0  0.00000000000E+00  0.00000000000E+00  0.57015702629E+03  0.57015702631E+03  0.50400001928E-02 0.  1.
       -1   -1    0    0    0  501  0.00000000000E+00  0.00000000000E+00 -0.97889753995E+03  0.97889753996E+03  0.50400001928E-02 0. -1.
    10030    2    1    2    0    0  0.00000000000E+00  0.00000000000E+00 -0.40874051366E+03  0.15490545663E+04  0.14941556953E+04 0.  0.
        4    1    3    3  502    0  0.53698256916E+03  0.44798564906E+03  0.68122009581E+02  0.70262624662E+03  0.12699999809E+01 0.  1.
       -4    1    3    3    0  502 -0.53698256916E+03 -0.44798564906E+03 -0.47686252324E+03  0.84642831966E+03  0.12699999809E+01 0. -1.
</event>
<event>
 5   0  0.2646718E-04  0.1488630E+04  0.7818609E-02  0.8892050E-01
        2   -1    0    0  501    0  0.00000000000E+00  0.00000000000E+00  0.18272892351E+04  0.18272892351E+04  0.25500000920E-02 0. -1.
       -2   -1    0    0    0  501  0.00000000000E+00  0.00000000000E+00 -0.30318378235E+03  0.30318378236E+03  0.25500000920E-02 0.  1.
    10030    2    1    2    0    0  0.00000000000E+00  0.00000000000E+00  0.15241054528E+04  0.21304730175E+04  0.14886295198E+04 0.  0.
        3    1    3    3  502    0  0.50721191966E+03  0.42481457058E+03  0.12500630827E+04  0.14143511133E+04  0.10100000352E+00 0.  1.
       -3    1    3    3    0  502 -0.50721191966E+03 -0.42481457058E+03  0.27404237004E+03  0.71612190415E+03  0.10100000352E+00 0. -1.
</event>
<event>
 5   0  0.1443750E-04  0.1501884E+04  0.7818609E-02  0.8883201E-01
       -1   -1    0    0    0  501  0.00000000000E+00  0.00000000000E+00  0.47178825279E+03  0.47178825282E+03  0.50400001928E-02 0. -1.
        1   -1    0    0  501    0  0.00000000000E+00  0.00000000000E+00 -0.11952684434E+04  0.11952684434E+04  0.50400001928E-02 0.  1.
    10030    2    1    2    0    0  0.00000000000E+00  0.00000000000E+00 -0.72348019061E+03  0.16670566962E+04  0.15018836314E+04 0.  0.
        2    1    3    3  502    0  0.61249492418E+03  0.28200330428E+03 -0.72860011869E+03  0.99274066540E+03  0.25500000920E-02 0.  1.
       -2    1    3    3    0  502 -0.61249492418E+03 -0.28200330428E+03  0.51199280804E+01  0.67431603084E+03  0.25500000920E-02 0. -1.
</event>
<event>
 5   0  0.1474203E-04  0.1498986E+04  0.7818609E-02  0.8885127E-01
       -1   -1    0    0    0  501  0.00000000000E+00  0.00000000000E+00  0.10359592102E+04  0.10359592102E+04  0.50400001928E-02 0. -1.
        1   -1    0    0  501    0  0.00000000000E+00  0.00000000000E+00 -0.54224135775E+03  0.54224135777E+03  0.50400001928E-02 0.  1.
    10030    2    1    2    0    0  0.00000000000E+00  0.00000000000E+00  0.49371785243E+03  0.15782005680E+04  0.14989862291E+04 0.  0.
        3    1    3    3  502    0  0.56778298039E+03  0.16807073549E+01  0.76195704074E+03  0.95024148496E+03  0.10100000352E+00 0. -1.
       -3    1    3    3    0  502 -0.56778298039E+03 -0.16807073549E+01 -0.26823918830E+03  0.62795908301E+03  0.10100000352E+00 0.  1.
</event>
<event>
 5   0  0.1443750E-04  0.1522400E+04  0.7818609E-02  0.8869692E-01
        1   -1    0    0  501    0  0.00000000000E+00  0.00000000000E+00  0.11710836936E+04  0.11710836936E+04  0.50400001928E-02 0.  1.
       -1   -1    0    0    0  501  0.00000000000E+00  0.00000000000E+00 -0.49477699582E+03  0.49477699584E+03  0.50400001928E-02 0. -1.
    10030    2    1    2    0    0  0.00000000000E+00  0.00000000000E+00  0.67630669778E+03  0.16658606894E+04  0.15223997790E+04 0.  0.
        2    1    3    3  502    0  0.86228761114E+02  0.18279350868E+03 -0.46488008916E+03  0.50691455233E+03  0.25500000920E-02 0. -1.
       -2    1    3    3    0  502 -0.86228761114E+02 -0.18279350868E+03  0.11411867869E+04  0.11589461371E+04  0.25500000920E-02 0.  1.
</event>
<event>
 5   0  0.2618901E-04  0.1500877E+04  0.7818609E-02  0.8883870E-01
       -2   -1    0    0    0  501  0.00000000000E+00  0.00000000000E+00  0.37456697592E+03  0.37456697593E+03  0.25500000920E-02 0.  1.
        2   -1    0    0  501    0  0.00000000000E+00  0.00000000000E+00 -0.15034898704E+04  0.15034898704E+04  0.25500000920E-02 0. -1.
    10030    2    1    2    0    0  0.00000000000E+00  0.00000000000E+00 -0.11289228945E+04  0.18780568463E+04  0.15008766160E+04 0.  0.
        1    1    3    3  502    0  0.65708917213E+03  0.46411799232E+02 -0.11462164435E+03  0.66862422676E+03  0.50400001928E-02 0.  1.
       -1    1    3    3    0  502 -0.65708917213E+03 -0.46411799232E+02 -0.10143012501E+04  0.12094326196E+04  0.50400001928E-02 0. -1.
</event>
<event>
 5   0  0.1426929E-04  0.1501009E+04  0.7818609E-02  0.8883782E-01
       -1   -1    0    0    0  501  0.00000000000E+00  0.00000000000E+00  0.76616340709E+03  0.76616340711E+03  0.50400001928E-02 0. -1.
        1   -1    0    0  501    0  0.00000000000E+00  0.00000000000E+00 -0.73516543656E+03  0.73516543658E+03  0.50400001928E-02 0.  1.
    10030    2    1    2    0    0  0.00000000000E+00  0.00000000000E+00  0.30997970534E+02  0.15013288437E+04  0.15010088017E+04 0.  0.
        1    1    3    3  502    0  0.16598064220E+03 -0.30488911869E+03  0.68103540947E+03  0.76440576742E+03  0.50400001928E-02 0. -1.
       -1    1    3    3    0  502 -0.16598064220E+03  0.30488911869E+03 -0.65003743894E+03  0.73692307626E+03  0.50400001928E-02 0.  1.
</event>
<event>
 5   0  0.2696040E-04  0.1490752E+04  0.7818609E-02  0.8890626E-01
        2   -1    0    0  501    0  0.00000000000E+00  0.00000000000E+00  0.13415659017E+04  0.13415659017E+04  0.25500000920E-02 0. -1.
       -2   -1    0    0    0  501  0.00000000000E+00  0.00000000000E+00 -0.41413225643E+03  0.41413225644E+03  0.25500000920E-02 0.  1.
    10030    2    1    2    0    0  0.00000000000E+00  0.00000000000E+00  0.92743364531E+03  0.17556981582E+04  0.14907524463E+04 0.  0.
        2    1    3    3  502    0  0.22345100165E+03 -0.66929243319E+03  0.74662371605E+03  0.10272924046E+04  0.25500000920E-02 0. -1.
       -2    1    3    3    0  502 -0.22345100165E+03  0.66929243319E+03  0.18080992926E+03  0.72840575354E+03  0.25500000920E-02 0.  1.
</event>
<event>
 5   0  0.1484251E-04  0.1491496E+04  0.7818609E-02  0.8890128E-01
        1   -1    0    0  501    0  0.00000000000E+00  0.00000000000E+00  0.68821538330E+03  0.68821538332E+03  0.50400001928E-02 0.  1.
       -1   -1    0    0    0  501  0.00000000000E+00  0.00000000000E+00 -0.80808993958E+03  0.80808993960E+03  0.50400001928E-02 0. -1.
    10030    2    1    2    0    0  0.00000000000E+00  0.00000000000E+00 -0.11987455629E+03  0.14963053229E+04  0.14914957962E+04 0.  0.
        5    1    3    3  502    0  0.63076822952E+03  0.21690494521E+03  0.27460696024E+03  0.72135108459E+03  0.46999998093E+01 0.  1.
       -5    1    3    3    0  502 -0.63076822952E+03 -0.21690494521E+03 -0.39448151652E+03  0.77495423833E+03  0.46999998093E+01 0. -1.
</event>
<event>
 5   0  0.1427609E-04  0.1503238E+04  0.7818609E-02  0.8882303E-01
       -1   -1    0    0    0  501  0.00000000000E+00  0.00000000000E+00  0.53992502167E+03  0.53992502169E+03  0.50400001928E-02 0. -1.
        1   -1    0    0  501    0  0.00000000000E+00  0.00000000000E+00 -0.10463134715E+04  0.10463134716E+04  0.50400001928E-02 0.  1.
    10030    2    1    2    0    0  0.00000000000E+00  0.00000000000E+00 -0.50638844987E+03  0.15862384932E+04  0.15032376044E+04 0.  0.
        4    1    3    3  502    0 -0.27696000738E+03 -0.66087818464E+03 -0.49257310483E+03  0.86953820912E+03  0.12699999809E+01 0. -1.
       -4    1    3    3    0  502  0.27696000738E+03  0.66087818464E+03 -0.13815345044E+02  0.71670028413E+03  0.12699999809E+01 0.  1.
</event>
<event>
 5   0  0.1474203E-04  0.1528460E+04  0.7818609E-02  0.8865745E-01
        1   -1    0    0  501    0  0.00000000000E+00  0.00000000000E+00  0.14274456514E+04  0.14274456514E+04  0.50400001928E-02 0.  1.
       -1   -1    0    0    0  501  0.00000000000E+00  0.00000000000E+00 -0.40915570079E+03  0.40915570082E+03  0.50400001928E-02 0. -1.
    10030    2    1    2    0    0  0.00000000000E+00  0.00000000000E+00  0.10182899506E+04  0.18366013522E+04  0.15284600431E+04 0.  0.
        3    1    3    3  502    0 -0.55281559774E+03 -0.49796546431E+03  0.29938762788E+03  0.80200227598E+03  0.10100000352E+00 0. -1.
       -3    1    3    3    0  502  0.55281559774E+03  0.49796546431E+03  0.71890232273E+03  0.10345990763E+04  0.10100000352E+00 0.  1.
</event>
<event>
 5   0  0.1004313E-04  0.1501996E+04  0.7818609E-02  0.8883126E-01
        3   -1    0    0  501    0  0.00000000000E+00  0.00000000000E+00  0.68377021173E+03  0.68377021919E+03  0.10100000352E+00 0. -1.
       -3   -1    0    0    0  501  0.00000000000E+00  0.00000000000E+00 -0.82483588131E+03  0.82483588750E+03  0.10100000352E+00 0.  1.
    10030    2    1    2    0    0  0.00000000000E+00  0.00000000000E+00 -0.14106566958E+03  0.15086061067E+04  0.15019962923E+04 0.  0.
        5    1    3    3  502    0 -0.59495338388E+02 -0.19217897568E+03 -0.79725242343E+03  0.82225663309E+03  0.46999998093E+01 0.  1.
       -5    1    3    3    0  502  0.59495338388E+02  0.19217897568E+03  0.65618675386E+03  0.68634947360E+03  0.46999998093E+01 0. -1.
</event>
<event>
 5   0  0.2646718E-04  0.1499627E+04  0.7818609E-02  0.8884701E-01
       -2   -1    0    0    0  501  0.00000000000E+00  0.00000000000E+00  0.76202959810E+03  0.76202959810E+03  0.25500000920E-02 0.  1.
        2   -1    0    0  501    0  0.00000000000E+00  0.00000000000E+00 -0.73779364726E+03  0.73779364726E+03  0.25500000920E-02 0. -1.
    10030    2    1    2    0    0  0.00000000000E+00  0.00000000000E+00  0.24235950839E+02  0.14998232454E+04  0.14996274157E+04 0.  0.
        3    1    3    3  502    0  0.41911820609E+03 -0.64124328202E+02  0.63062300950E+03  0.75990617214E+03  0.10100000352E+00 0.  1.
       -3    1    3    3    0  502 -0.41911820609E+03  0.64124328202E+02 -0.60638705866E+03  0.73991707323E+03  0.10100000352E+00 0. -1.
</event>
<event>
 5   0  0.2641347E-04  0.1485267E+04  0.7818609E-02  0.8894310E-01
        2   -1    0    0  501    0  0.00000000000E+00  0.00000000000E+00  0.52325092548E+03  0.52325092549E+03  0.25500000920E-02 0.  1.
       -2   -1    0    0    0  501  0.00000000000E+00  0.00000000000E+00 -0.10539961543E+04  0.10539961543E+04  0.25500000920E-02 0. -1.
    10030    2    1    2    0    0  0.00000000000E+00  0.00000000000E+00 -0.53074522883E+03  0.15772470798E+04  0.14852669298E+04 0.  0.
        4    1    3    3  502    0 -0.61259974358E+03  0.34359842243E+02 -0.70966471751E+03  0.93812827949E+03  0.12699999809E+01 0. -1.
       -4    1    3    3    0  502  0.61259974358E+03 -0.34359842243E+02  0.17891948868E+03  0.63911880032E+03  0.12699999809E+01 0.  1.
</event>
<event>
 5   0  0.1427609E-04  0.1502975E+04  0.7818609E-02  0.8882477E-01
        1   -1    0    0  501    0  0.00000000000E+00  0.00000000000E+00  0.11310837830E+04  0.11310837830E+04  0.50400001928E-02 0. -1.
       -1   -1    0    0    0  501  0.00000000000E+00  0.00000000000E+00 -0.49928522486E+03  0.49928522489E+03  0.50400001928E-02 0.  1.
    10030    2    1    2    0    0  0.00000000000E+00  0.00000000000E+00  0.63179855814E+03  0.16303690079E+04  0.15029749445E+04 0.  0.
        4    1    3    3  502    0  0.70648944461E+03 -0.10755033082E+03  0.63736263734E+02  0.71746660773E+03  0.12699999809E+01 0.  1.
       -4    1    3    3    0  502 -0.70648944461E+03  0.10755033082E+03  0.56806229441E+03  0.91290240017E+03  0.12699999809E+01 0. -1.
</event>
<event>
 5   0  0.1484251E-04  0.1459868E+04  0.7818609E-02  0.8911588E-01
        1   -1    0    0  501    0  0.00000000000E+00  0.00000000000E+00  0.19595923918E+04  0.19595923918E+04  0.50400001928E-02 0.  1.
       -1   -1    0    0    0  501  0.00000000000E+00  0.00000000000E+00 -0.27189509415E+03  0.27189509419E+03  0.50400001928E-02 0. -1.
    10030    2    1    2    0    0  0.00000000000E+00  0.00000000000E+00  0.16876972977E+04  0.22314874860E+04  0.14598678816E+04 0.  0.
        5    1    3    3  502    0 -0.37918786257E+03 -0.39157279962E+03  0.10180077603E+03  0.55452518475E+03  0.46999998093E+01 0. -1.
       -5    1    3    3    0  502  0.37918786257E+03  0.39157279962E+03  0.15858965217E+04  0.16769623013E+04  0.46999998093E+01 0.  1.
</event>
<event>
 5   0  0.2646718E-04  0.1495701E+04  0.7818609E-02  0.8887316E-01
        2   -1    0    0  501    0  0.00000000000E+00  0.00000000000E+00  0.97967528202E+03  0.97967528202E+03  0.25500000920E-02 0.  1.
       -2   -1    0    0    0  501  0.00000000000E+00  0.00000000000E+00 -0.57088369286E+03  0.57088369287E+03  0.25500000920E-02 0. -1.
    10030    2    1    2    0    0  0.00000000000E+00  0.00000000000E+00  0.40879158916E+03  0.15505589749E+04  0.14957013643E+04 0.  0.
        3    1    3    3  502    0 -0.68872247098E+02 -0.72527075584E+03  0.37946708727E+03  0.82143553382E+03  0.10100000352E+00 0.  1.
       -3    1    3    3    0  502  0.68872247098E+02  0.72527075584E+03  0.29324501887E+02  0.72912344107E+03  0.10100000352E+00 0. -1.
</event>
<event>
 5   0  0.1427609E-04  0.1502809E+04  0.7818609E-02  0.8882587E-01
       -1   -1    0    0    0  501  0.00000000000E+00  0.00000000000E+00  0.51991385560E+03  0.51991385562E+03  0.50400001928E-02 0.  1.
        1   -1    0    0  501    0  0.00000000000E+00  0.00000000000E+00 -0.10859654928E+04  0.10859654928E+04  0.50400001928E-02 0. -1.
    10030    2    1    2    0    0  0.00000000000E+00  0.00000000000E+00 -0.56605163719E+03  0.16058793484E+04  0.15028087123E+04 0.  0.
        4    1    3    3  502    0  0.43336961878E+03  0.22884748701E+03 -0.89167545385E+03  0.10174807746E+04  0.12699999809E+01 0. -1.
       -4    1    3    3    0  502 -0.43336961878E+03 -0.22884748701E+03  0.32562381666E+03  0.58839857382E+03  0.12699999809E+01 0.  1.
</event>
<event>
 5   0  0.2646718E-04  0.1498763E+04  0.7818609E-02  0.8885276E-01
        2   -1    0    0  501    0  0.00000000000E+00  0.00000000000E+00  0.14984792811E+04  0.14984792811E+04  0.25500000920E-02 0. -1.
       -2   -1    0    0    0  501  0.00000000000E+00  0.00000000000E+00 -0.37476186492E+03  0.37476186493E+03  0.25500000920E-02 0.  1.
    10030    2    1    2    0    0  0.00000000000E+00  0.00000000000E+00  0.11237174161E+04  0.18732411460E+04  0.14987633435E+04 0.  0.
        3    1    3    3  502    0  0.53353730533E+03 -0.43257096214E+03  0.18733241065E+03  0.71195023404E+03  0.10100000352E+00 0. -1.
       -3    1    3    3    0  502 -0.53353730533E+03  0.43257096214E+03  0.93638500548E+03  0.11612909119E+04  0.10100000352E+00 0.  1.
</event>
<event>
 5   0  0.1484251E-04  0.1588498E+04  0.7818609E-02  0.8827646E-01
        1   -1    0    0  501    0  0.00000000000E+00  0.00000000000E+00  0.60374285806E+03  0.60374285808E+03  0.50400001928E-02 0.  1.
       -1   -1    0    0    0  501  0.00000000000E+00  0.00000000000E+00 -0.10448673558E+04  0.10448673558E+04  0.50400001928E-02 0. -1.
    10030    2    1    2    0    0  0.00000000000E+00  0.00000000000E+00 -0.44112449773E+03  0.16486102139E+04  0.15884976597E+04 0.  0.
        5    1    3    3  502    0  0.43892092942E+03  0.53921837015E+03 -0.61901950566E+03  0.93092173214E+03  0.46999998093E+01 0. -1.
       -5    1    3    3    0  502 -0.43892092942E+03 -0.53921837015E+03  0.17789500793E+03  0.71768848175E+03  0.46999998093E+01 0.  1.
</event>
<event>
 5   0  0.1443750E-04  0.1479804E+04  0.7818609E-02  0.8897995E-01
       -1   -1    0    0    0  501  0.00000000000E+00  0.00000000000E+00  0.86397502952E+03  0.86397502953E+03  0.50400001928E-02 0. -1.
        1   -1    0    0  501    0  0.00000000000E+00  0.00000000000E+00 -0.63364687681E+03  0.63364687684E+03  0.50400001928E-02 0.  1.
    10030    2    1    2    0    0  0.00000000000E+00  0.00000000000E+00  0.23032815270E+03  0.14976219064E+04  0.14798041480E+04 0.  0.
        2    1    3    3  502    0  0.21793641865E+03  0.70682315696E+03  0.95966721521E+02  0.74585847816E+03  0.25500000920E-02 0. -1.
       -2    1    3    3    0  502 -0.21793641865E+03 -0.70682315696E+03  0.13436143118E+03  0.75176342821E+03  0.25500000920E-02 0.  1.
</event>
<event>
 5   0  0.2734072E-04  0.1498226E+04  0.7818609E-02  0.8885633E-01
        2   -1    0    0  501    0  0.00000000000E+00  0.00000000000E+00  0.48642861441E+03  0.48642861441E+03  0.25500000920E-02 0.  1.
       -2   -1    0    0    0  501  0.00000000000E+00  0.00000000000E+00 -0.11536543237E+04  0.11536543237E+04  0.25500000920E-02 0. -1.
    10030    2    1    2    0    0  0.00000000000E+00  0.00000000000E+00 -0.66722570926E+03  0.16400829381E+04  0.14982262502E+04 0.  0.
        5    1    3    3  502    0 -0.58518543471E+03 -0.25871077560E+03 -0.76008307378E+03  0.99353994759E+03  0.46999998093E+01 0. -1.
       -5    1    3    3    0  502  0.58518543471E+03  0.25871077560E+03  0.92857364523E+02  0.64654299049E+03  0.46999998093E+01 0.  1.
</event>
<event>
 5   0  0.1426929E-04  0.1510463E+04  0.7818609E-02  0.8877525E-01
       -1   -1    0    0    0  501  0.00000000000E+00  0.00000000000E+00  0.44074771188E+03  0.44074771191E+03  0.50400001928E-02 0.  1.
        1   -1    0    0  501    0  0.00000000000E+00  0.00000000000E+00 -0.12941073725E+04  0.12941073725E+04  0.50400001928E-02 0. -1.
    10030    2    1    2    0    0  0.00000000000E+00  0.00000000000E+00 -0.85335966057E+03  0.17348550844E+04  0.15104633241E+04 0.  0.
        1    1    3    3  502    0  0.66463731459E+03 -0.27441894605E+03 -0.16144904595E+03  0.73696289754E+03  0.50400001928E-02 0. -1.
       -1    1    3    3    0  502 -0.66463731459E+03  0.27441894605E+03 -0.69191061462E+03  0.99789218683E+03  0.50400001928E-02 0.  1.
</event>
<event>
 5   0  0.1426929E-04  0.1500606E+04  0.7818609E-02  0.8884050E-01
        1   -1    0    0  501    0  0.00000000000E+00  0.00000000000E+00  0.19222831982E+04  0.19222831982E+04  0.50400001928E-02 0. -1.
       -1   -1    0    0    0  501  0.00000000000E+00  0.00000000000E+00 -0.29285736379E+03  0.29285736383E+03  0.50400001928E-02 0.  1.
    10030    2    1    2    0    0  0.00000000000E+00  0.00000000000E+00  0.16294258344E+04  0.22151405620E+04  0.15006062641E+04 0.  0.
        1    1    3    3  502    0  0.70325761809E+03  0.20038361964E+03  0.10627344226E+04  0.12900113664E+04  0.50400001928E-02 0.  1.
       -1    1    3    3    0  502 -0.70325761809E+03 -0.20038361964E+03  0.56669141185E+03  0.92512919569E+03  0.50400001928E-02 0. -1.
</event>
<event>
 5   0  0.2646718E-04  0.1497781E+04  0.7818609E-02  0.8885930E-01
        2   -1    0    0  501    0  0.00000000000E+00  0.00000000000E+00  0.13982928624E+04  0.13982928624E+04  0.25500000920E-02 0. -1.
       -2   -1    0    0    0  501  0.00000000000E+00  0.00000000000E+00 -0.40108714028E+03  0.40108714028E+03  0.25500000920E-02 0.  1.
    10030    2    1    2    0    0  0.00000000000E+00  0.00000000000E+00  0.99720572210E+03  0.17993800027E+04  0.14977814065E+04 0.  0.
        3    1    3    3  502    0 -0.55970431949E+03 -0.16706911188E+02  0.10960191435E+04  0.12307745607E+04  0.10100000352E+00 0. -1.
       -3    1    3    3    0  502  0.55970431949E+03  0.16706911188E+02 -0.98813421434E+02  0.56860544193E+03  0.10100000352E+00 0.  1.
</event>
<event>
 5   0  0.1427609E-04  0.1509894E+04  0.7818609E-02  0.8877900E-01
        1   -1    0    0  501    0  0.00000000000E+00  0.00000000000E+00  0.13143949928E+04  0.13143949929E+04  0.50400001928E-02 0. -1.
       -1   -1    0    0    0  501  0.00000000000E+00  0.00000000000E+00 -0.43361764240E+03  0.43361764243E+03  0.50400001928E-02 0.  1.
    10030    2    1    2    0    0  0.00000000000E+00  0.00000000000E+00  0.88077735045E+03  0.17480126353E+04  0.15098938479E+04 0.  0.
        4    1    3    3  502    0 -0.19548297258E+03 -0.61649193671E+03 -0.10473906376E+02  0.64682858333E+03  0.12699999809E+01 0.  1.
       -4    1    3    3    0  502  0.19548297258E+03  0.61649193671E+03  0.89125125682E+03  0.11011840520E+04  0.12699999809E+01 0. -1.
</event>
<event>
 5   0  0.1426929E-04  0.1505860E+04  0.7818609E-02  0.8880566E-01
       -1   -1    0    0    0  501  0.00000000000E+00  0.00000000000E+00  0.59390059663E+03  0.59390059665E+03  0.50400001928E-02 0. -1.
        1   -1    0    0  501    0  0.00000000000E+00  0.00000000000E+00 -0.95454257509E+03  0.95454257510E+03  0.50400001928E-02 0.  1.
    10030    2    1    2    0    0  0.00000000000E+00  0.00000000000E+00 -0.36064197846E+03  0.15484431717E+04  0.15058597609E+04 0.  0.
        1    1    3    3  502    0 -0.18263676868E+03 -0.30651106285E+03  0.50145026772E+03  0.61543284926E+03  0.50400001928E-02 0. -1.
       -1    1    3    3    0  502  0.18263676868E+03  0.30651106285E+03 -0.86209224618E+03  0.93301032249E+03  0.50400001928E-02 0.  1.
</event>
<event>
 5   0  0.2734072E-04  0.1503119E+04  0.7818609E-02  0.8882381E-01
        2   -1    0    0  501    0  0.00000000000E+00  0.00000000000E+00  0.41322036134E+03  0.41322036135E+03  0.25500000920E-02 0.  1.
       -2   -1    0    0    0  501  0.00000000000E+00  0.00000000000E+00 -0.13669261172E+04  0.13669261172E+04  0.25500000920E-02 0. -1.
    10030    2    1    2    0    0  0.00000000000E+00  0.00000000000E+00 -0.95370575585E+03  0.17801464786E+04  0.15031190293E+04 0.  0.
        5    1    3    3  502    0 -0.72534197217E+03 -0.61266339485E+02 -0.69824152357E+03  0.10086812461E+04  0.46999998093E+01 0.  1.
       -5    1    3    3    0  502  0.72534197217E+03  0.61266339485E+02 -0.25546423228E+03  0.77146523248E+03  0.46999998093E+01 0. -1.
</event>
<event>
 5   0  0.1484251E-04  0.1499005E+04  0.7818609E-02  0.8885115E-01
        1   -1    0    0  501    0  0.00000000000E+00  0.00000000000E+00  0.10592304673E+04  0.10592304674E+04  0.50400001928E-02 0.  1.
       -1   -1    0    0    0  501  0.00000000000E+00  0.00000000000E+00 -0.53034127773E+03  0.53034127775E+03  0.50400001928E-02 0. -1.
    10030    2    1    2    0    0  0.00000000000E+00  0.00000000000E+00  0.52888918962E+03  0.15895717451E+04  0.14990045223E+04 0.  0.
        5    1    3    3  502    0 -0.18209927306E+03 -0.61666384298E+02 -0.50373211755E+03  0.53919479268E+03  0.46999998093E+01 0. -1.
       -5    1    3    3    0  502  0.18209927306E+03  0.61666384298E+02  0.10326213072E+04  0.10503769524E+04  0.46999998093E+01 0.  1.
</event>
<event>
 5   0  0.2646718E-04  0.1509553E+04  0.7818609E-02  0.8878125E-01
        2   -1    0    0  501    0  0.00000000000E+00  0.00000000000E+00  0.19998880563E+04  0.19998880563E+04  0.25500000920E-02 0.  1.
       -2   -1    0    0    0  501  0.00000000000E+00  0.00000000000E+00 -0.28485968853E+03  0.28485968854E+03  0.25500000920E-02 0. -1.
    10030    2    1    2    0    0  0.00000000000E+00  0.00000000000E+00  0.17150283678E+04  0.22847477448E+04  0.15095528991E+04 0.  0.
        3    1    3    3  502    0  0.20033201788E+03 -0.12211426070E+03 -0.22826826174E+03  0.32733960893E+03  0.10100000352E+00 0. -1.
       -3    1    3    3    0  502 -0.20033201788E+03  0.12211426070E+03  0.19432966295E+04  0.19574081359E+04  0.10100000352E+00 0.  1.
</event>
<event>
 5   0  0.1443750E-04  0.1497342E+04  0.7818609E-02  0.8886223E-01
       -1   -1    0    0    0  501  0.00000000000E+00  0.00000000000E+00  0.70233154410E+03  0.70233154412E+03  0.50400001928E-02 0.  1.
        1   -1    0    0  501    0  0.00000000000E+00  0.00000000000E+00 -0.79806753096E+03  0.79806753098E+03  0.50400001928E-02 0. -1.
    10030    2    1    2    0    0  0.00000000000E+00  0.00000000000E+00 -0.95735986867E+02  0.15003990751E+04  0.14973416462E+04 0.  0.
        2    1    3    3  502    0  0.73433199930E+03  0.14101736792E+03 -0.10662431400E+02  0.74782556168E+03  0.25500000920E-02 0. -1.
       -2    1    3    3    0  502 -0.73433199930E+03 -0.14101736792E+03 -0.85073555467E+02  0.75257351342E+03  0.25500000920E-02 0.  1.
</event>
<event>
 5   0  0.1427609E-04  0.1492094E+04  0.7818609E-02  0.8889728E-01
       -1   -1    0    0    0  501  0.00000000000E+00  0.00000000000E+00  0.62699726919E+03  0.62699726921E+03  0.50400001928E-02 0. -1.
        1   -1    0    0  501    0  0.00000000000E+00  0.00000000000E+00 -0.88770066072E+03  0.88770066073E+03  0.50400001928E-02 0.  1.
    10030    2    1    2    0    0  0.00000000000E+00  0.00000000000E+00 -0.26070339153E+03  0.15146979299E+04  0.14920936836E+04 0.  0.
        4    1    3    3  502    0  0.11647307365E+03 -0.41400595343E+03 -0.74919107702E+03  0.86386097791E+03  0.12699999809E+01 0.  1.
       -4    1    3    3    0  502 -0.11647307365E+03  0.41400595343E+03  0.48848768550E+03  0.65083695204E+03  0.12699999809E+01 0. -1.
</event>
<event>
 5   0  0.1426929E-04  0.1520979E+04  0.7818609E-02  0.8870621E-01
        1   -1    0    0  501    0  0.00000000000E+00  0.00000000000E+00  0.56851302310E+03  0.56851302312E+03  0.50400001928E-02 0. -1.
       -1   -1    0    0    0  501  0.00000000000E+00  0.00000000000E+00 -0.10172931149E+04  0.10172931149E+04  0.50400001928E-02 0.  1.
    10030    2    1    2    0    0  0.00000000000E+00  0.00000000000E+00 -0.44878009179E+03  0.15858061380E+04  0.15209791375E+04 0.  0.
        1    1    3    3  502    0 -0.11071000147E+03  0.33551114070E+01 -0.10088384266E+04  0.10149004544E+04  0.50400001928E-02 0.  1.
       -1    1    3    3    0  502  0.11071000147E+03 -0.33551114070E+01  0.56005833483E+03  0.57090568367E+03  0.50400001928E-02 0. -1.
</event>
<event>
 5   0  0.1427609E-04  0.1500827E+04  0.7818609E-02  0.8883903E-01
       -1   -1    0    0    0  501  0.00000000000E+00  0.00000000000E+00  0.58563495012E+03  0.58563495015E+03  0.50400001928E-02 0. -1.
        1   -1    0    0  501    0  0.00000000000E+00  0.00000000000E+00 -0.96155471775E+03  0.96155471776E+03  0.50400001928E-02 0.  1.
    10030    2    1    2    0    0  0.00000000000E+00  0.00000000000E+00 -0.37591976762E+03  0.15471896679E+04  0.15008265046E+04 0.  0.
        4    1    3    3  502    0  0.73928911557E+03 -0.11911608659E+03 -0.23826695581E+03  0.78581791378E+03  0.12699999809E+01 0.  1.
       -4    1    3    3    0  502 -0.73928911557E+03  0.11911608659E+03 -0.13765281181E+03  0.76137175413E+03  0.12699999809E+01 0. -1.
</event>
<event>
 5   0  0.2696040E-04  0.1495073E+04  0.7818609E-02  0.8887736E-01
       -2   -1    0    0    0  501  0.00000000000E+00  0.00000000000E+00  0.36157895723E+03  0.36157895724E+03  0.25500000920E-02 0. -1.
        2   -1    0    0  501    0  0.00000000000E+00  0.00000000000E+00 -0.15454738231E+04  0.15454738231E+04  0.25500000920E-02 0.  1.
    10030    2    1    2    0    0  0.00000000000E+00  0.00000000000E+00 -0.11838948659E+04  0.19070527804E+04  0.14950729927E+04 0.  0.
        2    1    3    3  502    0  0.24704423394E+03 -0.63298265082E+03 -0.98944898711E+03  0.12002946254E+04  0.25500000920E-02 0. -1.
       -2    1    3    3    0  502 -0.24704423394E+03  0.63298265082E+03 -0.19444587878E+03  0.70675815491E+03  0.25500000920E-02 0.  1.
</event>
<event>
 5   0  0.2618901E-04  0.1491504E+04  0.7818609E-02  0.8890122E-01
       -2   -1    0    0    0  501  0.00000000000E+00  0.00000000000E+00  0.75182249334E+03  0.75182249335E+03  0.25500000920E-02 0. -1.
        2   -1    0    0  501    0  0.00000000000E+00  0.00000000000E+00 -0.73973062069E+03  0.73973062069E+03  0.25500000920E-02 0.  1.
    10030    2    1    2    0    0  0.00000000000E+00  0.00000000000E+00  0.12091872652E+02  0.14915531140E+04  0.14915040994E+04 0.  0.
        1    1    3    3  502    0  0.29493081192E+03 -0.68154643562E+03  0.74285938861E+02  0.74632977193E+03  0.50400001928E-02 0.  1.
       -1    1    3    3    0  502 -0.29493081192E+03  0.68154643562E+03 -0.62194066210E+02  0.74522334211E+03  0.50400001928E-02 0. -1.
</event>
<event>
 5   0  0.2646718E-04  0.1502105E+04  0.7818609E-02  0.8883054E-01
       -2   -1    0    0    0  501  0.00000000000E+00  0.00000000000E+00  0.41143629476E+03  0.41143629477E+03  0.25500000920E-02 0.  1.
        2   -1    0    0  501    0  0.00000000000E+00  0.00000000000E+00 -0.13710024743E+04  0.13710024743E+04  0.25500000920E-02 0. -1.
    10030    2    1    2    0    0  0.00000000000E+00  0.00000000000E+00 -0.95956617957E+03  0.17824387691E+04  0.15021054266E+04 0.  0.
        3    1    3    3  502    0 -0.21977882852E+03 -0.70368028315E+03 -0.65014360179E+03  0.98293203606E+03  0.10100000352E+00 0. -1.
       -3    1    3    3    0  502  0.21977882852E+03  0.70368028315E+03 -0.30942257777E+03  0.79950673305E+03  0.10100000352E+00 0.  1.
</event>
<event>
 5   0  0.2618901E-04  0.1506049E+04  0.7818609E-02  0.8880441E-01
        2   -1    0    0  501    0  0.00000000000E+00  0.00000000000E+00  0.13205270245E+04  0.13205270245E+04  0.25500000920E-02 0.  1.
       -2   -1    0    0    0  501  0.00000000000E+00  0.00000000000E+00 -0.42940864779E+03  0.42940864780E+03  0.25500000920E-02 0. -1.
    10030    2    1    2    0    0  0.00000000000E+00  0.00000000000E+00  0.89111837666E+03  0.17499356723E+04  0.15060487694E+04 0.  0.
        1    1    3    3  502    0  0.90244927788E+02 -0.33473698497E+03  0.12222805607E+04  0.12704970544E+04  0.50400001928E-02 0.  1.
       -1    1    3    3    0  502 -0.90244927788E+02  0.33473698497E+03 -0.33116218406E+03  0.47943861785E+03  0.50400001928E-02 0. -1.
</event>
<event>
 5   0  0.2641347E-04  0.1515838E+04  0.7818609E-02  0.8873989E-01
        2   -1    0    0  501    0  0.00000000000E+00  0.00000000000E+00  0.18486567987E+04  0.18486567987E+04  0.25500000920E-02 0.  1.
       -2   -1    0    0    0  501  0.00000000000E+00  0.00000000000E+00 -0.31073430081E+03  0.31073430082E+03  0.25500000920E-02 0. -1.
    10030    2    1    2    0    0  0.00000000000E+00  0.00000000000E+00  0.15379224979E+04  0.21593910995E+04  0.15158378248E+04 0.  0.
        4    1    3    3  502    0 -0.48924427478E+03  0.33349830471E+03  0.14429695581E+04  0.15597255650E+04  0.12699999809E+01 0. -1.
       -4    1    3    3    0  502  0.48924427478E+03 -0.33349830471E+03  0.94952939828E+02  0.59966553455E+03  0.12699999809E+01 0.  1.
</event>
<event>
 5   0  0.1474203E-04  0.1488693E+04  0.7818609E-02  0.8892007E-01
       -1   -1    0    0    0  501  0.00000000000E+00  0.00000000000E+00  0.56951935684E+03  0.56951935686E+03  0.50400001928E-02 0. -1.
        1   -1    0    0  501    0  0.00000000000E+00  0.00000000000E+00 -0.97284048692E+03  0.97284048693E+03  0.50400001928E-02 0.  1.
    10030    2    1    2    0    0  0.00000000000E+00  0.00000000000E+00 -0.40332113007E+03  0.15423598438E+04  0.14886926996E+04 0.  0.
        3    1    3    3  502    0  0.22087416012E+03  0.63585252597E+03  0.12753218725E+03  0.68509729118E+03  0.10100000352E+00 0. -1.
       -3    1    3    3    0  502 -0.22087416012E+03 -0.63585252597E+03 -0.53085331733E+03  0.85726255261E+03  0.10100000352E+00 0.  1.
</event>
<event>
 5   0  0.1426929E-04  0.1527305E+04  0.7818609E-02  0.8866495E-01
        1   -1    0    0  501    0  0.00000000000E+00  0.00000000000E+00  0.56972036184E+03  0.56972036186E+03  0.50400001928E-02 0.  1.
       -1   -1    0    0    0  501  0.00000000000E+00  0.00000000000E+00 -0.10235995102E+04  0.10235995103E+04  0.50400001928E-02 0. -1.
    10030    2    1    2    0    0  0.00000000000E+00  0.00000000000E+00 -0.45387914840E+03  0.15933198721E+04  0.15273054487E+04 0.  0.
        1    1    3    3  502    0 -0.12266286145E+03  0.39730117147E+03  0.44126974244E+03  0.60631129302E+03  0.50400001928E-02 0.  1.
       -1    1    3    3    0  502  0.12266286145E+03 -0.39730117147E+03 -0.89514889083E+03  0.98700857910E+03  0.50400001928E-02 0. -1.
</event>
<event>
 5   0  0.1484251E-04  0.1498038E+04  0.7818609E-02  0.8885759E-01
        1   -1    0    0  501    0  0.00000000000E+00  0.00000000000E+00  0.10440842823E+04  0.10440842823E+04  0.50400001928E-02 0.  1.
       -1   -1    0    0    0  501  0.00000000000E+00  0.00000000000E+00 -0.53734121952E+03  0.53734121954E+03  0.50400001928E-02 0. -1.
    10030    2    1    2    0    0  0.00000000000E+00  0.00000000000E+00  0.50674306280E+03  0.15814255019E+04  0.14980380791E+04 0.  0.
        5    1    3    3  502    0 -0.24341364270E+03 -0.57819387458E+03  0.68535513144E+03  0.92913513777E+03  0.46999998093E+01 0.  1.
       -5    1    3    3    0  502  0.24341364270E+03  0.57819387458E+03 -0.17861206863E+03  0.65229036411E+03  0.46999998093E+01 0. -1.
</event>
<event>
 5   0  0.1426929E-04  0.1502224E+04  0.7818609E-02  0.8882976E-01
        1   -1    0    0  501    0  0.00000000000E+00  0.00000000000E+00  0.48456016681E+03  0.48456016684E+03  0.50400001928E-02 0. -1.
       -1   -1    0    0    0  501  0.00000000000E+00  0.00000000000E+00 -0.11642907676E+04  0.11642907676E+04  0.50400001928E-02 0.  1.
    10030    2    1    2    0    0  0.00000000000E+00  0.00000000000E+00 -0.67973060080E+03  0.16488509345E+04  0.15022235900E+04 0.  0.
        1    1    3    3  502    0  0.50554399021E+03  0.53427711308E+03 -0.17289130191E+03  0.75559126643E+03  0.50400001928E-02 0. -1.
       -1    1    3    3    0  502 -0.50554399021E+03 -0.53427711308E+03 -0.50683929890E+03  0.89325966803E+03  0.50400001928E-02 0.  1.
</event>
<event>
 5   0  0.1427609E-04  0.1533840E+04  0.7818609E-02  0.8862256E-01
       -1   -1    0    0    0  501  0.00000000000E+00  0.00000000000E+00  0.10491991709E+04  0.10491991709E+04  0.50400001928E-02 0.  1.
        1   -1    0    0  501    0  0.00000000000E+00  0.00000000000E+00 -0.56058587280E+03  0.56058587282E+03  0.50400001928E-02 0. -1.
    10030    2    1    2    0    0  0.00000000000E+00  0.00000000000E+00  0.48861329806E+03  0.16097850437E+04  0.15338399303E+04 0.  0.
        4    1    3    3  502    0 -0.41933622379E+03 -0.60497938454E+03  0.18425455701E+02  0.73633147062E+03  0.12699999809E+01 0. -1.
       -4    1    3    3    0  502  0.41933622379E+03  0.60497938454E+03  0.47018784236E+03  0.87345357307E+03  0.12699999809E+01 0.  1.
</event>
<event>
 5   0  0.1474203E-04  0.1501955E+04  0.7818609E-02  0.8883154E-01
       -1   -1    0    0    0  501  0.00000000000E+00  0.00000000000E+00  0.11083868436E+04  0.11083868436E+04  0.50400001928E-02 0.  1.
        1   -1    0    0  501    0  0.00000000000E+00  0.00000000000E+00 -0.50881794098E+03  0.50881794100E+03  0.50400001928E-02 0. -1.
    10030    2    1    2    0    0  0.00000000000E+00  0.00000000000E+00  0.59956890263E+03  0.16172047846E+04  0.15019548750E+04 0.  0.
        3    1    3    3  502    0  0.57400427848E+03  0.42780186213E+03  0.54406710380E+03  0.89916870975E+03  0.10100000352E+00 0.  1.
       -3    1    3    3    0  502 -0.57400427848E+03 -0.42780186213E+03  0.55501798834E+02  0.71803607488E+03  0.10100000352E+00 0. -1.
</event>
<event>
 5   0  0.2641347E-04  0.1499135E+04  0.7818609E-02  0.8885029E-01
        2   -1    0    0  501    0  0.00000000000E+00  0.00000000000E+00  0.78646089482E+03  0.78646089482E+03  0.25500000920E-02 0. -1.
       -2   -1    0    0    0  501  0.00000000000E+00  0.00000000000E+00 -0.71440451548E+03  0.71440451549E+03  0.25500000920E-02 0.  1.
    10030    2    1    2    0    0  0.00000000000E+00  0.00000000000E+00  0.72056379336E+02  0.15008654103E+04  0.14991347031E+04 0.  0.
        4    1    3    3  502    0  0.34002198760E+03  0.48200287353E+03 -0.42700751669E+03  0.72820241304E+03  0.12699999809E+01 0.  1.
       -4    1    3    3    0  502 -0.34002198760E+03 -0.48200287353E+03  0.49906389602E+03  0.77266299728E+03  0.12699999809E+01 0. -1.
</event>
<event>
 5   0  0.1443750E-04  0.1496137E+04  0.7818609E-02  0.8887026E-01
        1   -1    0    0  501    0  0.00000000000E+00  0.00000000000E+00  0.12005995795E+04  0.12005995795E+04  0.50400001928E-02 0. -1.
       -1   -1    0    0    0  501  0.00000000000E+00  0.00000000000E+00 -0.46610557603E+03  0.46610557606E+03  0.50400001928E-02 0.  1.
    10030    2    1    2    0    0  0.00000000000E+00  0.00000000000E+00  0.73449400347E+03  0.16667051556E+04  0.14961365694E+04 0.  0.
        2    1    3    3  502    0 -0.74469898018E+03 -0.50281650297E+02  0.42296226406E+03  0.85790552642E+03  0.25500000920E-02 0. -1.
       -2    1    3    3    0  502  0.74469898018E+03  0.50281650297E+02  0.31153173940E+03  0.80879962914E+03  0.25500000920E-02 0.  1.
</event>
<event>
 5   0  0.1474203E-04  0.1502440E+04  0.7818609E-02  0.8882832E-01
        1   -1    0    0  501    0  0.00000000000E+00  0.00000000000E+00  0.72332262375E+03  0.72332262377E+03  0.50400001928E-02 0. -1.
       -1   -1    0    0    0  501  0.00000000000E+00  0.00000000000E+00 -0.78019319946E+03  0.78019319948E+03  0.50400001928E-02 0.  1.
    10030    2    1    2    0    0  0.00000000000E+00  0.00000000000E+00 -0.56870575710E+02  0.15035158233E+04  0.15024398718E+04 0.  0.
        3    1    3    3  502    0  0.28415039492E+03  0.34422533756E+03  0.57623152960E+03  0.72888635318E+03  0.10100000352E+00 0. -1.
       -3    1    3    3    0  502 -0.28415039492E+03 -0.34422533756E+03 -0.63310210531E+03  0.77462947007E+03  0.10100000352E+00 0.  1.
</event>
<event>
 5   0  0.2734072E-04  0.1499485E+04  0.7818609E-02  0.8884796E-01
       -2   -1    0    0    0  501  0.00000000000E+00  0.00000000000E+00  0.11467718502E+04  0.11467718502E+04  0.25500000920E-02 0. -1.
        2   -1    0    0  501    0  0.00000000000E+00  0.00000000000E+00 -0.49017028576E+03  0.49017028577E+03  0.25500000920E-02 0.  1.
    10030    2    1    2    0    0  0.00000000000E+00  0.00000000000E+00  0.65660156443E+03  0.16369421360E+04  0.14994845588E+04 0.  0.
        5    1    3    3  502    0  0.59412987748E+03 -0.22394101461E+03  0.76353562316E+03  0.99305016347E+03  0.46999998093E+01 0. -1.
       -5    1    3    3    0  502 -0.59412987748E+03  0.22394101461E+03 -0.10693405873E+03  0.64389197250E+03  0.46999998093E+01 0.  1.
</event>
<event>
 5   0  0.1443750E-04  0.1445006E+04  0.7818609E-02  0.8921870E-01
        1   -1    0    0  501    0  0.00000000000E+00  0.00000000000E+00  0.11466450995E+04  0.11466450995E+04  0.50400001928E-02 0.  1.
       -1   -1    0    0    0  501  0.00000000000E+00  0.00000000000E+00 -0.45525010699E+03  0.45525010702E+03  0.50400001928E-02 0. -1.
    10030    2    1    2    0    0  0.00000000000E+00  0.00000000000E+00  0.69139499246E+03  0.16018952065E+04  0.14450056114E+04 0.  0.
        2    1    3    3  502    0  0.64717126417E+03  0.21986319584E+03  0.86092746116E+02  0.68889943460E+03  0.25500000920E-02 0. -1.
       -2    1    3    3    0  502 -0.64717126417E+03 -0.21986319584E+03  0.60530224634E+03  0.91299577189E+03  0.25500000920E-02 0.  1.
</event>
<event>
 5   0  0.1474203E-04  0.1501517E+04  0.7818609E-02  0.8883445E-01
       -1   -1    0    0    0  501  0.00000000000E+00  0.00000000000E+00  0.28742329553E+03  0.28742329558E+03  0.50400001928E-02 0. -1.
        1   -1    0    0  501    0  0.00000000000E+00  0.00000000000E+00 -0.19610045465E+04  0.19610045465E+04  0.50400001928E-02 0.  1.
    10030    2    1    2    0    0  0.00000000000E+00  0.00000000000E+00 -0.16735812510E+04  0.22484278421E+04  0.15015170853E+04 0.  0.
        3    1    3    3  502    0  0.37375802828E+02 -0.68215803652E+03 -0.13029288224E+04  0.14711764217E+04  0.10100000352E+00 0.  1.
       -3    1    3    3    0  502 -0.37375802828E+02  0.68215803652E+03 -0.37065242858E+03  0.77725142036E+03  0.10100000352E+00 0. -1.
</event>
<event>
 5   0  0.1484251E-04  0.1503986E+04  0.7818609E-02  0.8881807E-01
        1   -1    0    0  501    0  0.00000000000E+00  0.00000000000E+00  0.85208453654E+03  0.85208453655E+03  0.50400001928E-02 0. -1.
       -1   -1    0    0    0  501  0.00000000000E+00  0.00000000000E+00 -0.66365873774E+03  0.66365873776E+03  0.50400001928E-02 0.  1.
    10030    2    1    2    0    0  0.00000000000E+00  0.00000000000E+00  0.18842579880E+03  0.15157432743E+04  0.15039858350E+04 0.  0.
        5    1    3    3  502    0  0.48736405483E+03  0.30550506151E+02 -0.48210911802E+03  0.68622762043E+03  0.46999998093E+01 0.  1.
       -5    1    3    3    0  502 -0.48736405483E+03 -0.30550506151E+02  0.67053491682E+03  0.82951565388E+03  0.46999998093E+01 0. -1.
</event>
<event>
 5   0  0.2696040E-04  0.1503804E+04  0.7818609E-02  0.8881927E-01
        2   -1    0    0  501    0  0.00000000000E+00  0.00000000000E+00  0.33130508644E+04  0.33130508644E+04  0.25500000920E-02 0. -1.
       -2   -1    0    0    0  501  0.00000000000E+00  0.00000000000E+00 -0.17064535002E+03  0.17064535004E+03  0.25500000920E-02 0.  1.
    10030    2    1    2    0    0  0.00000000000E+00  0.00000000000E+00  0.31424055143E+04  0.34836962144E+04  0.15038041421E+04 0.  0.
        2    1    3    3  502    0 -0.20353472949E+03  0.67625838401E+03  0.21690664892E+04  0.22811403338E+04  0.25500000920E-02 0. -1.
       -2    1    3    3    0  502  0.20353472949E+03 -0.67625838401E+03  0.97333902516E+03  0.12025558806E+04  0.25500000920E-02 0.  1.
</event>
<event>
 5   0  0.2696040E-04  0.1496903E+04  0.7818609E-02  0.8886515E-01
        2   -1    0    0  501    0  0.00000000000E+00  0.00000000000E+00  0.78491351334E+03  0.78491351334E+03  0.25500000920E-02 0.  1.
       -2   -1    0    0    0  501  0.00000000000E+00  0.00000000000E+00 -0.71368350576E+03  0.71368350576E+03  0.25500000920E-02 0. -1.
    10030    2    1    2    0    0  0.00000000000E+00  0.00000000000E+00  0.71230007581E+02  0.14985970191E+04  0.14969032406E+04 0.  0.
        2    1    3    3  502    0  0.11950134588E+03  0.28269633600E+03 -0.64778617565E+03  0.71681568023E+03  0.25500000920E-02 0. -1.
       -2    1    3    3    0  502 -0.11950134588E+03 -0.28269633600E+03  0.71901618323E+03  0.78178133887E+03  0.25500000920E-02 0.  1.
</event>
<event>
 5   0  0.2646718E-04  0.1498620E+04  0.7818609E-02  0.8885371E-01
        2   -1    0    0  501    0  0.00000000000E+00  0.00000000000E+00  0.32554218430E+03  0.32554218431E+03  0.25500000920E-02 0. -1.
       -2   -1    0    0    0  501  0.00000000000E+00  0.00000000000E+00 -0.17247077133E+04  0.17247077133E+04  0.25500000920E-02 0.  1.
    10030    2    1    2    0    0  0.00000000000E+00  0.00000000000E+00 -0.13991655290E+04  0.20502498976E+04  0.14986195198E+04 0.  0.
        3    1    3    3  502    0 -0.33579216292E+03  0.37709865685E+03  0.57833158687E+02  0.50823661628E+03  0.10100000352E+00 0. -1.
       -3    1    3    3    0  502  0.33579216292E+03 -0.37709865685E+03 -0.14569986877E+04  0.15420132813E+04  0.10100000352E+00 0.  1.
</event>
<event>
 5   0  0.2641347E-04  0.1503331E+04  0.7818609E-02  0.8882241E-01
       -2   -1    0    0    0  501  0.00000000000E+00  0.00000000000E+00  0.31534528944E+03  0.31534528945E+03  0.25500000920E-02 0.  1.
        2   -1    0    0  501    0  0.00000000000E+00  0.00000000000E+00 -0.17916908590E+04  0.17916908590E+04  0.25500000920E-02 0. -1.
    10030    2    1    2    0    0  0.00000000000E+00  0.00000000000E+00 -0.14763455695E+04  0.21070361484E+04  0.15033313308E+04 0.  0.
        4    1    3    3  502    0 -0.67409823608E+03 -0.15778173817E+03 -0.32787616831E+03  0.76603387878E+03  0.12699999809E+01 0.  1.
       -4    1    3    3    0  502  0.67409823608E+03  0.15778173817E+03 -0.11484694012E+04  0.13410022697E+04  0.12699999809E+01 0. -1.
</event>
<event>
 5   0  0.1426929E-04  0.1501996E+04  0.7818609E-02  0.8883126E-01
        1   -1    0    0  501    0  0.00000000000E+00  0.00000000000E+00  0.92914376191E+03  0.92914376192E+03  0.50400001928E-02 0. -1.
       -1   -1    0    0    0  501  0.00000000000E+00  0.00000000000E+00 -0.60700856165E+03  0.60700856167E+03  0.50400001928E-02 0.  1.
    10030    2    1    2    0    0  0.00000000000E+00  0.00000000000E+00  0.32213520026E+03  0.15361523236E+04  0.15019962963E+04 0.  0.
        1    1    3    3  502    0 -0.27505064505E+03 -0.62935155424E+02 -0.55073660832E+03  0.61880893893E+03  0.50400001928E-02 0.  1.
       -1    1    3    3    0  502  0.27505064505E+03  0.62935155424E+02  0.87287180858E+03  0.91734338466E+03  0.50400001928E-02 0. -1.
</event>
<event>
 5   0  0.2641347E-04  0.1515660E+04  0.7818609E-02  0.8874105E-01
       -2   -1    0    0    0  501  0.00000000000E+00  0.00000000000E+00  0.79280199643E+03  0.79280199643E+03  0.25500000920E-02 0.  1.
        2   -1    0    0  501    0  0.00000000000E+00  0.00000000000E+00 -0.72440092585E+03  0.72440092585E+03  0.25500000920E-02 0. -1.
    10030    2    1    2    0    0  0.00000000000E+00  0.00000000000E+00  0.68401070583E+02  0.15172029223E+04  0.15156602525E+04 0.  0.
        4    1    3    3  502    0  0.55473610728E+03 -0.34016229717E+03  0.42300589537E+03  0.77613023233E+03  0.12699999809E+01 0.  1.
       -4    1    3    3    0  502 -0.55473610728E+03  0.34016229717E+03 -0.35460482478E+03  0.74107268995E+03  0.12699999809E+01 0. -1.
</event>
<event>
 5   0  0.1427609E-04  0.1499814E+04  0.7818609E-02  0.8884577E-01
        1   -1    0    0  501    0  0.00000000000E+00  0.00000000000E+00  0.15391319119E+04  0.15391319119E+04  0.50400001928E-02 0.  1.
       -1   -1    0    0    0  501  0.00000000000E+00  0.00000000000E+00 -0.36537501406E+03  0.36537501410E+03  0.50400001928E-02 0. -1.
    10030    2    1    2    0    0  0.00000000000E+00  0.00000000000E+00  0.11737568978E+04  0.19045069260E+04  0.14998137804E+04 0.  0.
        4    1    3    3  502    0  0.22129334790E+02 -0.11783416811E+03  0.15268813811E+04  0.15315818501E+04  0.12699999809E+01 0.  1.
       -4    1    3    3    0  502 -0.22129334790E+02  0.11783416811E+03 -0.35312448329E+03  0.37292507590E+03  0.12699999809E+01 0. -1.
</event>
<event>
 5   0  0.2618901E-04  0.1499181E+04  0.7818609E-02  0.8884998E-01
       -2   -1    0    0    0  501  0.00000000000E+00  0.00000000000E+00  0.69416235958E+03  0.69416235959E+03  0.25500000920E-02 0. -1.
        2   -1    0    0  501    0  0.00000000000E+00  0.00000000000E+00 -0.80944399730E+03  0.80944399730E+03  0.25500000920E-02 0.  1.
    10030    2    1    2    0    0  0.00000000000E+00  0.00000000000E+00 -0.11528163771E+03  0.15036063569E+04  0.14991805163E+04 0.  0.
        1    1    3    3  502    0 -0.19961106037E+03  0.97375623819E+02 -0.77568661155E+03  0.80685581543E+03  0.50400001928E-02 0.  1.
       -1    1    3    3    0  502  0.19961106037E+03 -0.97375623819E+02  0.66040497383E+03  0.69675054146E+03  0.50400001928E-02 0. -1.
</event>
<event>
 5   0  0.1474203E-04  0.1504770E+04  0.7818609E-02  0.8881287E-01
       -1   -1    0    0    0  501  0.00000000000E+00  0.00000000000E+00  0.93663518068E+03  0.93663518070E+03  0.50400001928E-02 0. -1.
        1   -1    0    0  501    0  0.00000000000E+00  0.00000000000E+00 -0.60437975257E+03  0.60437975259E+03  0.50400001928E-02 0.  1.
    10030    2    1    2    0    0  0.00000000000E+00  0.00000000000E+00  0.33225542811E+03  0.15410149333E+04  0.15047702001E+04 0.  0.
        3    1    3    3  502    0  0.34307466887E+03 -0.12049832870E+03  0.84067608737E+03  0.91594561505E+03  0.10100000352E+00 0. -1.
       -3    1    3    3    0  502 -0.34307466887E+03  0.12049832870E+03 -0.50842065926E+03  0.62506931824E+03  0.10100000352E+00 0.  1.
</event>
<event>
 5   0  0.2646718E-04  0.1525075E+04  0.7818609E-02  0.8867948E-01
        2   -1    0    0  501    0  0.00000000000E+00  0.00000000000E+00  0.97294282939E+03  0.97294282940E+03  0.25500000920E-02 0. -1.
       -2   -1    0    0    0  501  0.00000000000E+00  0.00000000000E+00 -0.59763344348E+03  0.59763344348E+03  0.25500000920E-02 0.  1.
    10030    2    1    2    0    0  0.00000000000E+00  0.00000000000E+00  0.37530938592E+03  0.15705762729E+04  0.15250746519E+04 0.  0.
        3    1    3    3  502    0 -0.44616891645E+03  0.59594945643E+03  0.17682798950E+02  0.74467116784E+03  0.10100000352E+00 0. -1.
       -3    1    3    3    0  502  0.44616891645E+03 -0.59594945643E+03  0.35762658697E+03  0.82590510504E+03  0.10100000352E+00 0.  1.
</event>
<event>
 5   0  0.1484251E-04  0.1498286E+04  0.7818609E-02  0.8885594E-01
       -1   -1    0    0    0  501  0.00000000000E+00  0.00000000000E+00  0.38376217207E+03  0.38376217211E+03  0.50400001928E-02 0. -1.
        1   -1    0    0  501    0  0.00000000000E+00  0.00000000000E+00 -0.14624031313E+04  0.14624031313E+04  0.50400001928E-02 0.  1.
    10030    2    1    2    0    0  0.00000000000E+00  0.00000000000E+00 -0.10786409592E+04  0.18461653034E+04  0.14982856899E+04 0.  0.
        5    1    3    3  502    0  0.44943188870E+03 -0.27354232994E+03  0.11776870634E+03  0.53917157477E+03  0.46999998093E+01 0. -1.
       -5    1    3    3    0  502 -0.44943188870E+03  0.27354232994E+03 -0.11964096655E+04  0.13069937286E+04  0.46999998093E+01 0.  1.
</event>
<event>
 5   0  0.2618901E-04  0.1496689E+04  0.7818609E-02  0.8886658E-01
        2   -1    0    0  501    0  0.00000000000E+00  0.00000000000E+00  0.75922600669E+03  0.75922600669E+03  0.25500000920E-02 0. -1.
       -2   -1    0    0    0  501  0.00000000000E+00  0.00000000000E+00 -0.73761908499E+03  0.73761908499E+03  0.25500000920E-02 0.  1.
    10030    2    1    2    0    0  0.00000000000E+00  0.00000000000E+00  0.21606921704E+02  0.14968450917E+04  0.14966891359E+04 0.  0.
        1    1    3    3  502    0 -0.56749416023E+02 -0.36179003345E+02 -0.73458633423E+03  0.73766286267E+03  0.50400001928E-02 0.  1.
       -1    1    3    3    0  502  0.56749416023E+02  0.36179003345E+02  0.75619325594E+03  0.75918222901E+03  0.50400001928E-02 0. -1.
</event>
<event>
 5   0  0.2646718E-04  0.1510126E+04  0.7818609E-02  0.8877747E-01
        2   -1    0    0  501    0  0.00000000000E+00  0.00000000000E+00  0.10243703736E+04  0.10243703736E+04  0.25500000920E-02 0.  1.
       -2   -1    0    0    0  501  0.00000000000E+00  0.00000000000E+00 -0.55655698179E+03  0.55655698180E+03  0.25500000920E-02 0. -1.
    10030    2    1    2    0    0  0.00000000000E+00  0.00000000000E+00  0.46781339180E+03  0.15809273554E+04  0.15101264627E+04 0.  0.
        3    1    3    3  502    0  0.21086629254E+03  0.52673868752E+03  0.75546328945E+03  0.94479787795E+03  0.10100000352E+00 0.  1.
       -3    1    3    3    0  502 -0.21086629254E+03 -0.52673868752E+03 -0.28764989765E+03  0.63612947745E+03  0.10100000352E+00 0. -1.
</event>
<event>
 5   0  0.1484251E-04  0.1497803E+04  0.7818609E-02  0.8885915E-01
        1   -1    0    0  501    0  0.00000000000E+00  0.00000000000E+00  0.66911822391E+03  0.66911822393E+03  0.50400001928E-02 0. -1.
       -1   -1    0    0    0  501  0.00000000000E+00  0.00000000000E+00 -0.83819840116E+03  0.83819840118E+03  0.50400001928E-02 0.  1.
    10030    2    1    2    0    0  0.00000000000E+00  0.00000000000E+00 -0.16908017725E+03  0.15073166251E+04  0.14978034924E+04 0.  0.
        5    1    3    3  502    0 -0.15894031523E+03  0.61539951932E+03  0.31402225463E+03  0.70895039219E+03  0.46999998093E+01 0. -1.
       -5    1    3    3    0  502  0.15894031523E+03 -0.61539951932E+03 -0.48310243188E+03  0.79836623292E+03  0.46999998093E+01 0.  1.
</event>
<event>
 5   0  0.1427609E-04  0.1499293E+04  0.7818609E-02  0.8884923E-01
        1   -1    0    0  501    0  0.00000000000E+00  0.00000000000E+00  0.13394505499E+04  0.13394505499E+04  0.50400001928E-02 0.  1.
       -1   -1    0    0    0  501  0.00000000000E+00  0.00000000000E+00 -0.41955236776E+03  0.41955236779E+03  0.50400001928E-02 0. -1.
    10030    2    1    2    0    0  0.00000000000E+00  0.00000000000E+00  0.91989818218E+03  0.17590029177E+04  0.14992926996E+04 0.  0.
        4    1    3    3  502    0  0.24651697995E+03 -0.46691272815E+03  0.10842860271E+04  0.12060082581E+04  0.12699999809E+01 0.  1.
       -4    1    3    3    0  502 -0.24651697995E+03  0.46691272815E+03 -0.16438784494E+03  0.55299465963E+03  0.12699999809E+01 0. -1.
</event>
<event>
 5   0  0.1443750E-04  0.1502516E+04  0.7818609E-02  0.8882782E-01
       -1   -1    0    0    0  501  0.00000000000E+00  0.00000000000E+00  0.84454793315E+03  0.84454793316E+03  0.50400001928E-02 0.  1.
        1   -1    0    0  501    0  0.00000000000E+00  0.00000000000E+00 -0.66827271944E+03  0.66827271946E+03  0.50400001928E-02 0. -1.
    10030    2    1    2    0    0  0.00000000000E+00  0.00000000000E+00  0.17627521370E+03  0.15128206526E+04  0.15025156825E+04 0.  0.
        2    1    3    3  502    0 -0.19978457325E+03 -0.67231622428E+03  0.35917778040E+03  0.78799216943E+03  0.25500000920E-02 0.  1.
       -2    1    3    3    0  502  0.19978457325E+03  0.67231622428E+03 -0.18290256669E+03  0.72482848319E+03  0.25500000920E-02 0. -1.
</event>
<event>
 5   0  0.2641347E-04  0.1517916E+04  0.7818609E-02  0.8872626E-01
        2   -1    0    0  501    0  0.00000000000E+00  0.00000000000E+00  0.82700870459E+03  0.82700870460E+03  0.25500000920E-02 0. -1.
       -2   -1    0    0    0  501  0.00000000000E+00  0.00000000000E+00 -0.69650665737E+03  0.69650665737E+03  0.25500000920E-02 0.  1.
    10030    2    1    2    0    0  0.00000000000E+00  0.00000000000E+00  0.13050204722E+03  0.15235153620E+04  0.15179157664E+04 0.  0.
        4    1    3    3  502    0  0.73336658671E+03 -0.19304528200E+03  0.34767546955E+02  0.75914651197E+03  0.12699999809E+01 0. -1.
       -4    1    3    3    0  502 -0.73336658671E+03  0.19304528200E+03  0.95734500269E+02  0.76436885000E+03  0.12699999809E+01 0.  1.
</event>
<event>
 5   0  0.2618901E-04  0.1412389E+04  0.7818609E-02  0.8944899E-01
       -2   -1    0    0    0  501  0.00000000000E+00  0.00000000000E+00  0.38719413776E+03  0.38719413777E+03  0.25500000920E-02 0.  1.
        2   -1    0    0  501    0  0.00000000000E+00  0.00000000000E+00 -0.12880114081E+04  0.12880114081E+04  0.25500000920E-02 0. -1.
    10030    2    1    2    0    0  0.00000000000E+00  0.00000000000E+00 -0.90081727038E+03  0.16752055459E+04  0.14123887094E+04 0.  0.
        1    1    3    3  502    0  0.33422068003E+03  0.47673070339E+03 -0.92444721744E+03  0.10925100843E+04  0.50400001928E-02 0. -1.
       -1    1    3    3    0  502 -0.33422068003E+03 -0.47673070339E+03  0.23629947058E+02  0.58269546158E+03  0.50400001928E-02 0.  1.
</event>
<event>
 5   0  0.1426929E-04  0.1493584E+04  0.7818609E-02  0.8888731E-01
        1   -1    0    0  501    0  0.00000000000E+00  0.00000000000E+00  0.66105017325E+03  0.66105017327E+03  0.50400001928E-02 0.  1.
       -1   -1    0    0    0  501  0.00000000000E+00  0.00000000000E+00 -0.84365533367E+03  0.84365533368E+03  0.50400001928E-02 0. -1.
    10030    2    1    2    0    0  0.00000000000E+00  0.00000000000E+00 -0.18260516042E+03  0.15047055069E+04  0.14935842855E+04 0.  0.
        1    1    3    3  502    0 -0.33426211308E+03  0.51754437146E+03  0.33387683180E+03  0.70075464715E+03  0.50400001928E-02 0.  1.
       -1    1    3    3    0  502  0.33426211308E+03 -0.51754437146E+03 -0.51648199222E+03  0.80395085980E+03  0.50400001928E-02 0. -1.
</event>
<event>
 5   0  0.2734072E-04  0.1528173E+04  0.7818609E-02  0.8865931E-01
       -2   -1    0    0    0  501  0.00000000000E+00  0.00000000000E+00  0.48005336016E+03  0.48005336017E+03  0.25500000920E-02 0. -1.
        2   -1    0    0  501    0  0.00000000000E+00  0.00000000000E+00 -0.12161737481E+04  0.12161737481E+04  0.25500000920E-02 0.  1.
    10030    2    1    2    0    0  0.00000000000E+00  0.00000000000E+00 -0.73612038797E+03  0.16962271083E+04  0.15281731503E+04 0.  0.
        5    1    3    3  502    0  0.22106412498E+03  0.41489247346E+03 -0.10366284123E+04  0.11382555368E+04  0.46999998093E+01 0. -1.
       -5    1    3    3    0  502 -0.22106412498E+03 -0.41489247346E+03  0.30050802435E+03  0.55797157148E+03  0.46999998093E+01 0.  1.
</event>
<event>
 5   0  0.1427609E-04  0.1491089E+04  0.7818609E-02  0.8890400E-01
       -1   -1    0    0    0  501  0.00000000000E+00  0.00000000000E+00  0.16210564940E+04  0.16210564940E+04  0.50400001928E-02 0. -1.
        1   -1    0    0  501    0  0.00000000000E+00  0.00000000000E+00 -0.34288536613E+03  0.34288536616E+03  0.50400001928E-02 0.  1.
    10030    2    1    2    0    0  0.00000000000E+00  0.00000000000E+00  0.12781711278E+04  0.19639418601E+04  0.14910889303E+04 0.  0.
        4    1    3    3  502    0 -0.42241238708E+02 -0.39847604685E+03  0.14671623487E+04  0.15208992249E+04  0.12699999809E+01 0. -1.
       -4    1    3    3    0  502  0.42241238708E+02  0.39847604685E+03 -0.18899122082E+03  0.44304263521E+03  0.12699999809E+01 0.  1.
</event>
<event>
 5   0  0.1474203E-04  0.1498154E+04  0.7818609E-02  0.8885681E-01
        1   -1    0    0  501    0  0.00000000000E+00  0.00000000000E+00  0.88251837258E+03  0.88251837259E+03  0.50400001928E-02 0.  1.
       -1   -1    0    0    0  501  0.00000000000E+00  0.00000000000E+00 -0.63581263402E+03  0.63581263404E+03  0.50400001928E-02 0. -1.
    10030    2    1    2    0    0  0.00000000000E+00  0.00000000000E+00  0.24670573856E+03  0.15183310066E+04  0.14981539722E+04 0.  0.
        3    1    3    3  502    0  0.23089124478E+03  0.14850249321E+03 -0.58299324694E+03  0.64439498259E+03  0.10100000352E+00 0. -1.
       -3    1    3    3    0  502 -0.23089124478E+03 -0.14850249321E+03  0.82969898549E+03  0.87393602405E+03  0.10100000352E+00 0.  1.
</event>
<event>
 5   0  0.1004313E-04  0.1516487E+04  0.7818609E-02  0.8873562E-01
        3   -1    0    0  501    0  0.00000000000E+00  0.00000000000E+00  0.10745383579E+04  0.10745383627E+04  0.10100000352E+00 0.  1.
       -3   -1    0    0    0  501  0.00000000000E+00  0.00000000000E+00 -0.53505168889E+03  0.53505169842E+03  0.10100000352E+00 0. -1.
    10030    2    1    2    0    0  0.00000000000E+00  0.00000000000E+00  0.53948666903E+03  0.16095900611E+04  0.15164874872E+04 0.  0.
        5    1    3    3  502    0 -0.67262881490E+03  0.22835963786E+03 -0.11743837833E+02  0.71044891059E+03  0.46999998093E+01 0. -1.
       -5    1    3    3    0  502  0.67262881490E+03 -0.22835963786E+03  0.55123050687E+03  0.89914115051E+03  0.46999998093E+01 0.  1.
</event>
<event>
 5   0  0.1443750E-04  0.1494196E+04  0.7818609E-02  0.8888322E-01
       -1   -1    0    0    0  501  0.00000000000E+00  0.00000000000E+00  0.10924746853E+04  0.10924746853E+04  0.50400001928E-02 0.  1.
        1   -1    0    0  501    0  0.00000000000E+00  0.00000000000E+00 -0.51090896880E+03  0.51090896882E+03  0.50400001928E-02 0. -1.
    10030    2    1    2    0    0  0.00000000000E+00  0.00000000000E+00  0.58156571649E+03  0.16033836541E+04  0.14941955895E+04 0.  0.
        2    1    3    3  502    0 -0.32087815787E+02 -0.24564234211E+03  0.10471181777E+04  0.10760233576E+04  0.25500000920E-02 0.  1.
       -2    1    3    3    0  502  0.32087815787E+02  0.24564234211E+03 -0.46555246120E+03  0.52736029647E+03  0.25500000920E-02 0. -1.
</event>
<event>
 5   0  0.2641347E-04  0.1503969E+04  0.7818609E-02  0.8881818E-01
       -2   -1    0    0    0  501  0.00000000000E+00  0.00000000000E+00  0.46344677501E+03  0.46344677501E+03  0.25500000920E-02 0. -1.
        2   -1    0    0  501    0  0.00000000000E+00  0.00000000000E+00 -0.12201626122E+04  0.12201626122E+04  0.25500000920E-02 0.  1.
    10030    2    1    2    0    0  0.00000000000E+00  0.00000000000E+00 -0.75671583720E+03  0.16836093872E+04  0.15039686534E+04 0.  0.
        4    1    3    3  502    0  0.26169118910E+03 -0.44957483316E+02  0.40922147481E+03  0.48781890298E+03  0.12699999809E+01 0. -1.
       -4    1    3    3    0  502 -0.26169118910E+03  0.44957483316E+02 -0.11659373120E+04  0.11957904842E+04  0.12699999809E+01 0.  1.
</event>
<event>
 5   0  0.1426929E-04  0.1497036E+04  0.7818609E-02  0.8886426E-01
        1   -1    0    0  501    0  0.00000000000E+00  0.00000000000E+00  0.11932053088E+04  0.11932053089E+04  0.50400001928E-02 0. -1.
       -1   -1    0    0    0  501  0.00000000000E+00  0.00000000000E+00 -0.46955814712E+03  0.46955814714E+03  0.50400001928E-02 0.  1.
    10030    2    1    2    0    0  0.00000000000E+00  0.00000000000E+00  0.72364716173E+03  0.16627634560E+04  0.14970361038E+04 0.  0.
        1    1    3    3  502    0  0.19092341110E+03 -0.49052916356E+03 -0.22926349693E+03  0.57413618617E+03  0.50400001928E-02 0.  1.
       -1    1    3    3    0  502 -0.19092341110E+03  0.49052916356E+03  0.95291065866E+03  0.10886272698E+04  0.50400001928E-02 0. -1.
</event>
<event>
 5   0  0.1474203E-04  0.1563714E+04  0.7818609E-02  0.8843156E-01
        1   -1    0    0  501    0  0.00000000000E+00  0.00000000000E+00  0.10007757088E+04  0.10007757088E+04  0.50400001928E-02 0. -1.
       -1   -1    0    0    0  501  0.00000000000E+00  0.00000000000E+00 -0.61082617984E+03  0.61082617986E+03  0.50400001928E-02 0.  1.
    10030    2    1    2    0    0  0.00000000000E+00  0.00000000000E+00  0.38994952898E+03  0.16116018887E+04  0.15637135328E+04 0.  0.
        3    1    3    3  502    0 -0.19928385026E+03 -0.74956750019E+03  0.29665989637E+03  0.83040507864E+03  0.10100000352E+00 0. -1.
       -3    1    3    3    0  502  0.19928385026E+03  0.74956750019E+03  0.93289632612E+02  0.78119681007E+03  0.10100000352E+00 0.  1.
</event>
<event>
 5   0  0.2696040E-04  0.1497026E+04  0.7818609E-02  0.8886433E-01
       -2   -1    0    0    0  501  0.00000000000E+00  0.00000000000E+00  0.77469655145E+03  0.77469655145E+03  0.25500000920E-02 0. -1.
        2   -1    0    0  501    0  0.00000000000E+00  0.00000000000E+00 -0.72321454172E+03  0.72321454173E+03  0.25500000920E-02 0.  1.
    10030    2    1    2    0    0  0.00000000000E+00  0.00000000000E+00  0.51482009729E+02  0.14979110932E+04  0.14970261340E+04 0.  0.
        2    1    3    3  502    0  0.65828078764E+03 -0.48082751272E+02 -0.32749213765E+03  0.73681520518E+03  0.25500000920E-02 0. -1.
       -2    1    3    3    0  502 -0.65828078764E+03  0.48082751272E+02  0.37897414738E+03  0.76109588800E+03  0.25500000920E-02 0.  1.
</event>
<event>
 5   0  0.2641347E-04  0.1503548E+04  0.7818609E-02  0.8882097E-01
        2   -1    0    0  501    0  0.00000000000E+00  0.00000000000E+00  0.52032369082E+03  0.52032369083E+03  0.25500000920E-02 0. -1.
       -2   -1    0    0    0  501  0.00000000000E+00  0.00000000000E+00 -0.10861783274E+04  0.10861783274E+04  0.25500000920E-02 0.  1.
    10030    2    1    2    0    0  0.00000000000E+00  0.00000000000E+00 -0.56585463659E+03  0.16065020182E+04  0.15035482250E+04 0.  0.
        4    1    3    3  502    0  0.59578334077E+03  0.28803094421E+03  0.98209597810E+02  0.66900399996E+03  0.12699999809E+01 0. -1.
       -4    1    3    3    0  502 -0.59578334077E+03 -0.28803094421E+03 -0.66406423440E+03  0.93749801828E+03  0.12699999809E+01 0.  1.
</event>
<event>
 5   0  0.1484251E-04  0.1498926E+04  0.7818609E-02  0.8885167E-01
        1   -1    0    0  501    0  0.00000000000E+00  0.00000000000E+00  0.63555488570E+03  0.63555488572E+03  0.50400001928E-02 0.  1.
       -1   -1    0    0    0  501  0.00000000000E+00  0.00000000000E+00 -0.88378637433E+03  0.88378637435E+03  0.50400001928E-02 0. -1.
    10030    2    1    2    0    0  0.00000000000E+00  0.00000000000E+00 -0.24823148863E+03  0.15193412601E+04  0.14989259463E+04 0.  0.
        5    1    3    3  502    0 -0.42791049534E+03 -0.56258944739E+03 -0.37662387754E+03  0.80092566039E+03  0.46999998093E+01 0. -1.
       -5    1    3    3    0  502  0.42791049534E+03  0.56258944739E+03  0.12839238891E+03  0.71841559968E+03  0.46999998093E+01 0.  1.
</event>
<event>
 5   0  0.2641347E-04  0.1501364E+04  0.7818609E-02  0.8883546E-01
       -2   -1    0    0    0  501  0.00000000000E+00  0.00000000000E+00  0.32292856171E+03  0.32292856172E+03  0.25500000920E-02 0.  1.
        2   -1    0    0  501    0  0.00000000000E+00  0.00000000000E+00 -0.17450412855E+04  0.17450412855E+04  0.25500000920E-02 0. -1.
    10030    2    1    2    0    0  0.00000000000E+00  0.00000000000E+00 -0.14221127238E+04  0.20679698473E+04  0.15013642762E+04 0.  0.
        4    1    3    3  502    0 -0.27925081402E+03  0.28044458629E+03 -0.15896693801E+04  0.16381942907E+04  0.12699999809E+01 0. -1.
       -4    1    3    3    0  502  0.27925081402E+03 -0.28044458629E+03  0.16755665624E+03  0.42977555661E+03  0.12699999809E+01 0.  1.
</event>
<event>
 5   0  0.1443750E-04  0.1492653E+04  0.7818609E-02  0.8889353E-01
       -1   -1    0    0    0  501  0.00000000000E+00  0.00000000000E+00  0.87737305538E+03  0.87737305539E+03  0.50400001928E-02 0. -1.
        1   -1    0    0  501    0  0.00000000000E+00  0.00000000000E+00 -0.63485354209E+03  0.63485354211E+03  0.50400001928E-02 0.  1.
    10030    2    1    2    0    0  0.00000000000E+00  0.00000000000E+00  0.24251951329E+03  0.15122265975E+04  0.14926531975E+04 0.  0.
        2    1    3    3  502    0  0.57739193409E+02  0.41092957313E+03 -0.50720240624E+03  0.65532526995E+03  0.25500000920E-02 0.  1.
       -2    1    3    3    0  502 -0.57739193409E+02 -0.41092957313E+03  0.74972191953E+03  0.85690132755E+03  0.25500000920E-02 0. -1.
</event>
<event>
 5   0  0.2734072E-04  0.1494661E+04  0.7818609E-02  0.8888011E-01
       -2   -1    0    0    0  501  0.00000000000E+00  0.00000000000E+00  0.85508211684E+03  0.85508211684E+03  0.25500000920E-02 0.  1.
        2   -1    0    0  501    0  0.00000000000E+00  0.00000000000E+00 -0.65315739956E+03  0.65315739956E+03  0.25500000920E-02 0. -1.
    10030    2    1    2    0    0  0.00000000000E+00  0.00000000000E+00  0.20192471728E+03  0.15082395164E+04  0.14946614491E+04 0.  0.
        5    1    3    3  502    0  0.29090139395E+03 -0.50973775046E+03 -0.36586861208E+03  0.69161992926E+03  0.46999998093E+01 0. -1.
       -5    1    3    3    0  502 -0.29090139395E+03  0.50973775046E+03  0.56779332936E+03  0.81661958714E+03  0.46999998093E+01 0.  1.
</event>
<event>
 5   0  0.1443750E-04  0.1498725E+04  0.7818609E-02  0.8885302E-01
        1   -1    0    0  501    0  0.00000000000E+00  0.00000000000E+00  0.81752559509E+03  0.81752559510E+03  0.50400001928E-02 0.  1.
       -1   -1    0    0    0  501  0.00000000000E+00  0.00000000000E+00 -0.68688220614E+03  0.68688220616E+03  0.50400001928E-02 0. -1.
    10030    2    1    2    0    0  0.00000000000E+00  0.00000000000E+00  0.13064338895E+03  0.15044078013E+04  0.14987245035E+04 0.  0.
        2    1    3    3  502    0 -0.45513673349E+02  0.64713203407E+03  0.44183395200E+03  0.78490037911E+03  0.25500000920E-02 0. -1.
       -2    1    3    3    0  502  0.45513673349E+02 -0.64713203407E+03 -0.31119056305E+03  0.71950742215E+03  0.25500000920E-02 0.  1.
</event>
<event>
 5   0  0.2646718E-04  0.1500370E+04  0.7818609E-02  0.8884207E-01
        2   -1    0    0  501    0  0.00000000000E+00  0.00000000000E+00  0.14662707488E+04  0.14662707488E+04  0.25500000920E-02 0.  1.
       -2   -1    0    0    0  501  0.00000000000E+00  0.00000000000E+00 -0.38381580746E+03  0.38381580746E+03  0.25500000920E-02 0. -1.
    10030    2    1    2    0    0  0.00000000000E+00  0.00000000000E+00  0.10824549413E+04  0.18500865563E+04  0.15003704761E+04 0.  0.
        3    1    3    3  502    0  0.22564178971E+03  0.44020147510E+03  0.12366776720E+04  0.13319396497E+04  0.10100000352E+00 0.  1.
       -3    1    3    3    0  502 -0.22564178971E+03 -0.44020147510E+03 -0.15422273061E+03  0.51814690656E+03  0.10100000352E+00 0. -1.
</event>
<event>
 5   0  0.1004313E-04  0.1499678E+04  0.7818609E-02  0.8884667E-01
       -4   -1    0    0    0  501  0.00000000000E+00  0.00000000000E+00  0.12071109592E+04  0.12071116272E+04  0.12699999809E+01 0. -1.
        4   -1    0    0  501    0  0.00000000000E+00  0.00000000000E+00 -0.46578723430E+03  0.46578896567E+03  0.12699999809E+01 0.  1.
    10030    2    1    2    0    0  0.00000000000E+00  0.00000000000E+00  0.74132372486E+03  0.16729005929E+04  0.14996784751E+04 0.  0.
        4    1    3    3  502    0 -0.49514844416E+03  0.31638949916E+03 -0.14895687587E+03  0.60618813969E+03  0.12699999809E+01 0.  1.
       -4    1    3    3    0  502  0.49514844416E+03 -0.31638949916E+03  0.89028060073E+03  0.10667124532E+04  0.12699999809E+01 0. -1.
</event>
<event>
 5   0  0.2696040E-04  0.1493702E+04  0.7818609E-02  0.8888652E-01
        2   -1    0    0  501    0  0.00000000000E+00  0.00000000000E+00  0.15445863523E+04  0.15445863523E+04  0.25500000920E-02 0.  1.
       -2   -1    0    0    0  501  0.00000000000E+00  0.00000000000E+00 -0.36112349259E+03  0.36112349260E+03  0.25500000920E-02 0. -1.
    10030    2    1    2    0    0  0.00000000000E+00  0.00000000000E+00  0.11834628597E+04  0.19057098449E+04  0.14937020026E+04 0.  0.
        2    1    3    3  502    0 -0.17693314994E+03 -0.61183786967E+02 -0.33070127732E+03  0.38001596040E+03  0.25500000920E-02 0. -1.
       -2    1    3    3    0  502  0.17693314994E+03  0.61183786967E+02  0.15141641370E+04  0.15256938845E+04  0.25500000920E-02 0.  1.
</event>
<event>
 5   0  0.1004313E-04  0.1503475E+04  0.7818609E-02  0.8882145E-01
       -3   -1    0    0    0  501  0.00000000000E+00  0.00000000000E+00  0.46842218268E+03  0.46842219357E+03  0.10100000352E+00 0.  1.
        3   -1    0    0  501    0  0.00000000000E+00  0.00000000000E+00 -0.12064105438E+04  0.12064105481E+04  0.10100000352E+00 0. -1.
    10030    2    1    2    0    0  0.00000000000E+00  0.00000000000E+00 -0.73798836116E+03  0.16748327416E+04  0.15034752712E+04 0.  0.
        4    1    3    3  502    0 -0.52715758699E+03  0.33429492643E+03 -0.83561463335E+03  0.10430252383E+04  0.12699999809E+01 0. -1.
       -4    1    3    3    0  502  0.52715758699E+03 -0.33429492643E+03  0.97626272185E+02  0.63180750334E+03  0.12699999809E+01 0.  1.
</event>
<event>
 5   0  0.2641347E-04  0.1503459E+04  0.7818609E-02  0.8882156E-01
        2   -1    0    0  501    0  0.00000000000E+00  0.00000000000E+00  0.10202993612E+04  0.10202993612E+04  0.25500000920E-02 0.  1.
       -2   -1    0    0    0  501  0.00000000000E+00  0.00000000000E+00 -0.55385400858E+03  0.55385400858E+03  0.25500000920E-02 0. -1.
    10030    2    1    2    0    0  0.00000000000E+00  0.00000000000E+00  0.46644535267E+03  0.15741533698E+04  0.15034585344E+04 0.  0.
        4    1    3    3  502    0 -0.24901168786E+03  0.64950211183E+03 -0.65197664655E+02  0.69865024321E+03  0.12699999809E+01 0. -1.
       -4    1    3    3    0  502  0.24901168786E+03 -0.64950211183E+03  0.53164301732E+03  0.87550312662E+03  0.12699999809E+01 0.  1.
</event>
<event>
 5   0  0.2734072E-04  0.1509957E+04  0.7818609E-02  0.8877858E-01
        2   -1    0    0  501    0  0.00000000000E+00  0.00000000000E+00  0.93965249644E+03  0.93965249644E+03  0.25500000920E-02 0.  1.
       -2   -1    0    0    0  501  0.00000000000E+00  0.00000000000E+00 -0.60659951654E+03  0.60659951654E+03  0.25500000920E-02 0. -1.
    10030    2    1    2    0    0  0.00000000000E+00  0.00000000000E+00  0.33305297990E+03  0.15462520130E+04  0.15099572842E+04 0.  0.
        5    1    3    3  502    0 -0.28577893026E+02 -0.22647672290E+03 -0.57039758819E+03  0.61439718472E+03  0.46999998093E+01 0. -1.
       -5    1    3    3    0  502  0.28577893026E+02  0.22647672290E+03  0.90345056809E+03  0.93185482827E+03  0.46999998093E+01 0.  1.
</event>
<event>
 5   0  0.1427609E-04  0.1501458E+04  0.7818609E-02  0.8883484E-01
        1   -1    0    0  501    0  0.00000000000E+00  0.00000000000E+00  0.93965850199E+03  0.93965850201E+03  0.50400001928E-02 0.  1.
       -1   -1    0    0    0  501  0.00000000000E+00  0.00000000000E+00 -0.59978579758E+03  0.59978579760E+03  0.50400001928E-02 0. -1.
    10030    2    1    2    0    0  0.00000000000E+00  0.00000000000E+00  0.33987270441E+03  0.15394442996E+04  0.15014577238E+04 0.  0.
        4    1    3    3  502    0 -0.13608577330E+03 -0.48266761690E+03 -0.40286116491E+03  0.64326207504E+03  0.12699999809E+01 0. -1.
       -4    1    3    3    0  502  0.13608577330E+03  0.48266761690E+03  0.74273386932E+03  0.89618222457E+03  0.12699999809E+01 0.  1.
</event>
<event>
 5   0  0.1004313E-04  0.1498137E+04  0.7818609E-02  0.8885693E-01
        4   -1    0    0  501    0  0.00000000000E+00  0.00000000000E+00  0.82768999124E+03  0.82769096558E+03  0.12699999809E+01 0. -1.
       -4   -1    0    0    0  501  0.00000000000E+00  0.00000000000E+00 -0.67791280487E+03  0.67791399447E+03  0.12699999809E+01 0.  1.
    10030    2    1    2    0    0  0.00000000000E+00  0.00000000000E+00  0.14977718638E+03  0.15056049601E+04  0.14981365392E+04 0.  0.
        3    1    3    3  502    0  0.39533911330E+03 -0.57159012289E+03  0.35573650380E+03  0.78074115649E+03  0.10100000352E+00 0. -1.
       -3    1    3    3    0  502 -0.39533911330E+03  0.57159012289E+03 -0.20595931743E+03  0.72486380357E+03  0.10100000352E+00 0.  1.
</event>
<event>
 5   0  0.2734072E-04  0.1493419E+04  0.7818609E-02  0.8888841E-01
       -2   -1    0    0    0  501  0.00000000000E+00  0.00000000000E+00  0.33110600308E+03  0.33110600309E+03  0.25500000920E-02 0.  1.
        2   -1    0    0  501    0  0.00000000000E+00  0.00000000000E+00 -0.16839772439E+04  0.16839772439E+04  0.25500000920E-02 0. -1.
    10030    2    1    2    0    0  0.00000000000E+00  0.00000000000E+00 -0.13528712408E+04  0.20150832470E+04  0.14934188622E+04 0.  0.
        5    1    3    3  502    0  0.72381172589E+03 -0.11115889637E+03 -0.87332918342E+03  0.11397305240E+04  0.46999998093E+01 0. -1.
       -5    1    3    3    0  502 -0.72381172589E+03  0.11115889637E+03 -0.47954205739E+03  0.87535272296E+03  0.46999998093E+01 0.  1.
</event>
<event>
 5   0  0.1474203E-04  0.1501447E+04  0.7818609E-02  0.8883491E-01
        1   -1    0    0  501    0  0.00000000000E+00  0.00000000000E+00  0.29483114319E+03  0.29483114323E+03  0.50400001928E-02 0. -1.
       -1   -1    0    0    0  501  0.00000000000E+00  0.00000000000E+00 -0.19115539619E+04  0.19115539619E+04  0.50400001928E-02 0.  1.
    10030    2    1    2    0    0  0.00000000000E+00  0.00000000000E+00 -0.16167228187E+04  0.22063851052E+04  0.15014468221E+04 0.  0.
        3    1    3    3  502    0  0.16092471753E+02 -0.15752707109E+03  0.27001159623E+03  0.31301760026E+03  0.10100000352E+00 0. -1.
       -3    1    3    3    0  502 -0.16092471753E+02  0.15752707109E+03 -0.18867344150E+04  0.18933675049E+04  0.10100000352E+00 0.  1.
</event>
<event>
 5   0  0.2618901E-04  0.1496041E+04  0.7818609E-02  0.8887090E-01
       -2   -1    0    0    0  501  0.00000000000E+00  0.00000000000E+00  0.39136695617E+03  0.39136695617E+03  0.25500000920E-02 0.  1.
        2   -1    0    0  501    0  0.00000000000E+00  0.00000000000E+00 -0.14296933958E+04  0.14296933958E+04  0.25500000920E-02 0. -1.
    10030    2    1    2    0    0  0.00000000000E+00  0.00000000000E+00 -0.10383264396E+04  0.18210603519E+04  0.14960411125E+04 0.  0.
        1    1    3    3  502    0  0.48356318908E+03 -0.28383352333E+03 -0.11218446853E+04  0.12541651904E+04  0.50400001928E-02 0. -1.
       -1    1    3    3    0  502 -0.48356318908E+03  0.28383352333E+03  0.83518245708E+02  0.56689516155E+03  0.50400001928E-02 0.  1.
</event>
<event>
 5   0  0.1426929E-04  0.1499586E+04  0.7818609E-02  0.8884728E-01
       -1   -1    0    0    0  501  0.00000000000E+00  0.00000000000E+00  0.67173971221E+03  0.67173971223E+03  0.50400001928E-02 0. -1.
        1   -1    0    0  501    0  0.00000000000E+00  0.00000000000E+00 -0.83691559332E+03  0.83691559333E+03  0.50400001928E-02 0.  1.
    10030    2    1    2    0    0  0.00000000000E+00  0.00000000000E+00 -0.16517588111E+03  0.15086553056E+04  0.14995858626E+04 0.  0.
        1    1    3    3  502    0 -0.37548022872E+03  0.44931806000E+03 -0.55373355259E+03  0.80591126589E+03  0.50400001928E-02 0.  1.
       -1    1    3    3    0  502  0.37548022872E+03 -0.44931806000E+03  0.38855767148E+03  0.70274403967E+03  0.50400001928E-02 0. -1.
</event>
<event>
 5   0  0.2618901E-04  0.1511251E+04  0.7818609E-02  0.8877005E-01
       -2   -1    0    0    0  501  0.00000000000E+00  0.00000000000E+00  0.52918710708E+03  0.52918710709E+03  0.25500000920E-02 0.  1.
        2   -1    0    0  501    0  0.00000000000E+00  0.00000000000E+00 -0.10789565309E+04  0.10789565309E+04  0.25500000920E-02 0. -1.
    10030    2    1    2    0    0  0.00000000000E+00  0.00000000000E+00 -0.54976942386E+03  0.16081436380E+04  0.15112509855E+04 0.  0.
        1    1    3    3  502    0 -0.97571346613E+02  0.60848012731E+03  0.19041636780E+03  0.64500126059E+03  0.50400001928E-02 0.  1.
       -1    1    3    3    0  502  0.97571346613E+02 -0.60848012731E+03 -0.74018579166E+03  0.96314237744E+03  0.50400001928E-02 0. -1.
</event>
<event>
 5   0  0.2618901E-04  0.1501729E+04  0.7818609E-02  0.8883304E-01
       -2   -1    0    0    0  501  0.00000000000E+00  0.00000000000E+00  0.73868594095E+03  0.73868594095E+03  0.25500000920E-02 0. -1.
        2   -1    0    0  501    0  0.00000000000E+00  0.00000000000E+00 -0.76324397566E+03  0.76324397567E+03  0.25500000920E-02 0.  1.
    10030    2    1    2    0    0  0.00000000000E+00  0.00000000000E+00 -0.24558034715E+02  0.15019299166E+04  0.15017291292E+04 0.  0.
        1    1    3    3  502    0  0.49674148777E+03 -0.52874507419E+03  0.18132923849E+03  0.74779927247E+03  0.50400001928E-02 0. -1.
       -1    1    3    3    0  502 -0.49674148777E+03  0.52874507419E+03 -0.20588727320E+03  0.75413064415E+03  0.50400001928E-02 0.  1.
</event>
<event>
 5   0  0.2734072E-04  0.1495187E+04  0.7818609E-02  0.8887660E-01
        2   -1    0    0  501    0  0.00000000000E+00  0.00000000000E+00  0.11649198158E+04  0.11649198159E+04  0.25500000920E-02 0. -1.
       -2   -1    0    0    0  501  0.00000000000E+00  0.00000000000E+00 -0.47977184523E+03  0.47977184523E+03  0.25500000920E-02 0.  1.
    10030    2    1    2    0    0  0.00000000000E+00  0.00000000000E+00  0.68514797062E+03  0.16446916611E+04  0.14951865831E+04 0.  0.
        5    1    3    3  502    0  0.52916284220E+03  0.10219743228E+03  0.91246696622E+03  0.10597526519E+04  0.46999998093E+01 0. -1.
       -5    1    3    3    0  502 -0.52916284220E+03 -0.10219743228E+03 -0.22731899560E+03  0.58493900920E+03  0.46999998093E+01 0.  1.
</event>
<event>
 5   0  0.2646718E-04  0.1500963E+04  0.7818609E-02  0.8883813E-01
       -2   -1    0    0    0  501  0.00000000000E+00  0.00000000000E+00  0.67487151905E+03  0.67487151905E+03  0.25500000920E-02 0.  1.
        2   -1    0    0  501    0  0.00000000000E+00  0.00000000000E+00 -0.83456244270E+03  0.83456244271E+03  0.25500000920E-02 0. -1.
    10030    2    1    2    0    0  0.00000000000E+00  0.00000000000E+00 -0.15969092366E+03  0.15094339618E+04  0.15009629222E+04 0.  0.
        3    1    3    3  502    0 -0.63952588867E+03 -0.17646914483E+03 -0.43266405759E+03  0.79204350782E+03  0.10100000352E+00 0. -1.
       -3    1    3    3    0  502  0.63952588867E+03  0.17646914483E+03  0.27297313393E+03  0.71739045394E+03  0.10100000352E+00 0.  1.
</event>
<event>
 5   0  0.1443750E-04  0.1580019E+04  0.7818609E-02  0.8832918E-01
       -1   -1    0    0    0  501  0.00000000000E+00  0.00000000000E+00  0.76243622474E+03  0.76243622476E+03  0.50400001928E-02 0.  1.
        1   -1    0    0  501    0  0.00000000000E+00  0.00000000000E+00 -0.81857999464E+03  0.81857999465E+03  0.50400001928E-02 0. -1.
    10030    2    1    2    0    0  0.00000000000E+00  0.00000000000E+00 -0.56143769897E+02  0.15810162194E+04  0.15800190389E+04 0.  0.
        2    1    3    3  502    0 -0.27989280120E+02  0.78114421786E+03  0.86653655754E+02  0.78643406905E+03  0.25500000920E-02 0.  1.
       -2    1    3    3    0  502  0.27989280120E+02 -0.78114421786E+03 -0.14279742565E+03  0.79458215036E+03  0.25500000920E-02 0. -1.
</event>
<event>
 5   0  0.1474203E-04  0.1502182E+04  0.7818609E-02  0.8883003E-01
       -1   -1    0    0    0  501  0.00000000000E+00  0.00000000000E+00  0.72136246003E+03  0.72136246005E+03  0.50400001928E-02 0.  1.
        1   -1    0    0  501    0  0.00000000000E+00  0.00000000000E+00 -0.78204448196E+03  0.78204448197E+03  0.50400001928E-02 0. -1.
    10030    2    1    2    0    0  0.00000000000E+00  0.00000000000E+00 -0.60682021928E+02  0.15034069420E+04  0.15021817884E+04 0.  0.
        3    1    3    3  502    0 -0.18232385096E+03  0.71330083067E+03 -0.17911439175E+03  0.75770841172E+03  0.10100000352E+00 0. -1.
       -3    1    3    3    0  502  0.18232385096E+03 -0.71330083067E+03  0.11843236983E+03  0.74569853030E+03  0.10100000352E+00 0.  1.
</event>
<event>
 5   0  0.1004313E-04  0.1512344E+04  0.7818609E-02  0.8876285E-01
       -3   -1    0    0    0  501  0.00000000000E+00  0.00000000000E+00  0.35650225448E+03  0.35650226879E+03  0.10100000352E+00 0.  1.
        3   -1    0    0  501    0  0.00000000000E+00  0.00000000000E+00 -0.16039066694E+04  0.16039066725E+04  0.10100000352E+00 0. -1.
    10030    2    1    2    0    0  0.00000000000E+00  0.00000000000E+00 -0.12474044149E+04  0.19604089413E+04  0.15123443533E+04 0.  0.
        1    1    3    3  502    0 -0.59434215598E+03 -0.36248718903E+03 -0.10063917758E+04  0.12237091023E+04  0.50400001928E-02 0. -1.
       -1    1    3    3    0  502  0.59434215598E+03  0.36248718903E+03 -0.24101263902E+03  0.73669983900E+03  0.50400001928E-02 0.  1.
</event>
<event>
 5   0  0.1443750E-04  0.1496795E+04  0.7818609E-02  0.8886587E-01
       -1   -1    0    0    0  501  0.00000000000E+00  0.00000000000E+00  0.44742109590E+03  0.44742109593E+03  0.50400001928E-02 0. -1.
        1   -1    0    0  501    0  0.00000000000E+00  0.00000000000E+00 -0.12518388053E+04  0.12518388053E+04  0.50400001928E-02 0.  1.
    10030    2    1    2    0    0  0.00000000000E+00  0.00000000000E+00 -0.80441770939E+03  0.16992599012E+04  0.14967953637E+04 0.  0.
        2    1    3    3  502    0  0.69747312982E+03  0.88392547669E+00 -0.71026042680E+03  0.99545940250E+03  0.25500000920E-02 0.  1.
       -2    1    3    3    0  502 -0.69747312982E+03 -0.88392547669E+00 -0.94157282582E+02  0.70380049873E+03  0.25500000920E-02 0. -1.
</event>
<event>
 5   0  0.1426929E-04  0.1499830E+04  0.7818609E-02  0.8884566E-01
       -1   -1    0    0    0  501  0.00000000000E+00  0.00000000000E+00  0.10773532195E+04  0.10773532196E+04  0.50400001928E-02 0. -1.
        1   -1    0    0  501    0  0.00000000000E+00  0.00000000000E+00 -0.52199420696E+03  0.52199420699E+03  0.50400001928E-02 0.  1.
    10030    2    1    2    0    0  0.00000000000E+00  0.00000000000E+00  0.55535901258E+03  0.15993474265E+04  0.14998295096E+04 0.  0.
        1    1    3    3  502    0  0.37592749504E+03  0.18892155984E+03 -0.38428369118E+03  0.56981294530E+03  0.50400001928E-02 0.  1.
       -1    1    3    3    0  502 -0.37592749504E+03 -0.18892155984E+03  0.93964270376E+03  0.10295344812E+04  0.50400001928E-02 0. -1.
</event>
<event>
 5   0  0.2618901E-04  0.1501118E+04  0.7818609E-02  0.8883710E-01
       -2   -1    0    0    0  501  0.00000000000E+00  0.00000000000E+00  0.73768993074E+03  0.73768993075E+03  0.25500000920E-02 0. -1.
        2   -1    0    0  501    0  0.00000000000E+00  0.00000000000E+00 -0.76365255583E+03  0.76365255584E+03  0.25500000920E-02 0.  1.
    10030    2    1    2    0    0  0.00000000000E+00  0.00000000000E+00 -0.25962625090E+02  0.15013424866E+04  0.15011179847E+04 0.  0.
        1    1    3    3  502    0 -0.45469706904E+01 -0.28590260949E+03  0.68108055850E+03  0.73866887321E+03  0.50400001928E-02 0. -1.
       -1    1    3    3    0  502  0.45469706904E+01  0.28590260949E+03 -0.70704318359E+03  0.76267361338E+03  0.50400001928E-02 0.  1.
</event>
<event>
 5   0  0.1474203E-04  0.1500916E+04  0.7818609E-02  0.8883844E-01
       -1   -1    0    0    0  501  0.00000000000E+00  0.00000000000E+00  0.95173398730E+03  0.95173398731E+03  0.50400001928E-02 0.  1.
        1   -1    0    0  501    0  0.00000000000E+00  0.00000000000E+00 -0.59174837287E+03  0.59174837289E+03  0.50400001928E-02 0. -1.
    10030    2    1    2    0    0  0.00000000000E+00  0.00000000000E+00  0.35998561443E+03  0.15434823602E+04  0.15009157717E+04 0.  0.
        3    1    3    3  502    0 -0.58238043640E+03  0.38821916217E+03  0.45842210099E+03  0.83667910423E+03  0.10100000352E+00 0.  1.
       -3    1    3    3    0  502  0.58238043640E+03 -0.38821916217E+03 -0.98436486563E+02  0.70680325598E+03  0.10100000352E+00 0. -1.
</event>
<event>
 5   0  0.2696040E-04  0.1498951E+04  0.7818609E-02  0.8885151E-01
        2   -1    0    0  501    0  0.00000000000E+00  0.00000000000E+00  0.11758782387E+04  0.11758782387E+04  0.25500000920E-02 0.  1.
       -2   -1    0    0    0  501  0.00000000000E+00  0.00000000000E+00 -0.47769678404E+03  0.47769678405E+03  0.25500000920E-02 0. -1.
    10030    2    1    2    0    0  0.00000000000E+00  0.00000000000E+00  0.69818145462E+03  0.16535750227E+04  0.14989506370E+04 0.  0.
        2    1    3    3  502    0  0.13341059134E+02 -0.36451014253E+03  0.10713563012E+04  0.11317464168E+04  0.25500000920E-02 0.  1.
       -2    1    3    3    0  502 -0.13341059134E+02  0.36451014253E+03 -0.37317484654E+03  0.52182860593E+03  0.25500000920E-02 0. -1.
</event>
<event>
 5   0  0.1484251E-04  0.1492812E+04  0.7818609E-02  0.8889247E-01
       -1   -1    0    0    0  501  0.00000000000E+00  0.00000000000E+00  0.94214493332E+03  0.94214493333E+03  0.50400001928E-02 0. -1.
        1   -1    0    0  501    0  0.00000000000E+00  0.00000000000E+00 -0.59133334250E+03  0.59133334252E+03  0.50400001928E-02 0.  1.
    10030    2    1    2    0    0  0.00000000000E+00  0.00000000000E+00  0.35081159082E+03  0.15334782758E+04  0.14928117263E+04 0.  0.
        5    1    3    3  502    0 -0.38259156800E+03 -0.16422853894E+03 -0.46094719109E+03  0.62116159240E+03  0.46999998093E+01 0.  1.
       -5    1    3    3    0  502  0.38259156800E+03  0.16422853894E+03  0.81175878191E+03  0.91231668345E+03  0.46999998093E+01 0. -1.
</event>
<event>
 5   0  0.2641347E-04  0.1501110E+04  0.7818609E-02  0.8883715E-01
       -2   -1    0    0    0  501  0.00000000000E+00  0.00000000000E+00  0.37947760470E+03  0.37947760471E+03  0.25500000920E-02 0.  1.
        2   -1    0    0  501    0  0.00000000000E+00  0.00000000000E+00 -0.14844962933E+04  0.14844962933E+04  0.25500000920E-02 0. -1.
    10030    2    1    2    0    0  0.00000000000E+00  0.00000000000E+00 -0.11050186886E+04  0.18639738980E+04  0.15011103858E+04 0.  0.
        4    1    3    3  502    0 -0.48158213504E+03  0.26023802079E+03 -0.11901426351E+04  0.13099947653E+04  0.12699999809E+01 0. -1.
       -4    1    3    3    0  502  0.48158213504E+03 -0.26023802079E+03  0.85123946581E+02  0.55397913267E+03  0.12699999809E+01 0.  1.
</event>
<event>
 5   0  0.2618901E-04  0.1498782E+04  0.7818609E-02  0.8885263E-01
        2   -1    0    0  501    0  0.00000000000E+00  0.00000000000E+00  0.75742825551E+03  0.75742825551E+03  0.25500000920E-02 0.  1.
       -2   -1    0    0    0  501  0.00000000000E+00  0.00000000000E+00 -0.74143884250E+03  0.74143884250E+03  0.25500000920E-02 0. -1.
    10030    2    1    2    0    0  0.00000000000E+00  0.00000000000E+00  0.15989413007E+02  0.14988670980E+04  0.14987818107E+04 0.  0.
        1    1    3    3  502    0 -0.67601387289E+03  0.19295154794E+03  0.26755074938E+03  0.75220240608E+03  0.50400001928E-02 0.  1.
       -1    1    3    3    0  502  0.67601387289E+03 -0.19295154794E+03 -0.25156133637E+03  0.74666469193E+03  0.50400001928E-02 0. -1.
</event>
<event>
 5   0  0.2618901E-04  0.1502658E+04  0.7818609E-02  0.8882687E-01
       -2   -1    0    0    0  501  0.00000000000E+00  0.00000000000E+00  0.13383032075E+04  0.13383032075E+04  0.25500000920E-02 0. -1.
        2   -1    0    0  501    0  0.00000000000E+00  0.00000000000E+00 -0.42179912198E+03  0.42179912199E+03  0.25500000920E-02 0.  1.
    10030    2    1    2    0    0  0.00000000000E+00  0.00000000000E+00  0.91650408554E+03  0.17601023295E+04  0.15026578025E+04 0.  0.
        1    1    3    3  502    0 -0.55374644528E+03 -0.46056198575E+03  0.20773430289E+03  0.74960390141E+03  0.50400001928E-02 0.  1.
       -1    1    3    3    0  502  0.55374644528E+03  0.46056198575E+03  0.70876978265E+03  0.10104984281E+04  0.50400001928E-02 0. -1.
</event>
<event>
 5   0  0.1427609E-04  0.1502047E+04  0.7818609E-02  0.8883093E-01
       -1   -1    0    0    0  501  0.00000000000E+00  0.00000000000E+00  0.12904062121E+04  0.12904062121E+04  0.50400001928E-02 0.  1.
        1   -1    0    0  501    0  0.00000000000E+00  0.00000000000E+00 -0.43709967578E+03  0.43709967581E+03  0.50400001928E-02 0. -1.
    10030    2    1    2    0    0  0.00000000000E+00  0.00000000000E+00  0.85330653629E+03  0.17275058879E+04  0.15020467862E+04 0.  0.
        4    1    3    3  502    0 -0.24889057846E+03  0.40075215479E+03 -0.24542885864E+03  0.53177603102E+03  0.12699999809E+01 0. -1.
       -4    1    3    3    0  502  0.24889057846E+03 -0.40075215479E+03  0.10987353949E+04  0.11957298569E+04  0.12699999809E+01 0.  1.
</event>
<event>
 5   0  0.2641347E-04  0.1479292E+04  0.7818609E-02  0.8898341E-01
        2   -1    0    0  501    0  0.00000000000E+00  0.00000000000E+00  0.14846302143E+04  0.14846302143E+04  0.25500000920E-02 0. -1.
       -2   -1    0    0    0  501  0.00000000000E+00  0.00000000000E+00 -0.36849345005E+03  0.36849345006E+03  0.25500000920E-02 0.  1.
    10030    2    1    2    0    0  0.00000000000E+00  0.00000000000E+00  0.11161367642E+04  0.18531236643E+04  0.14792924116E+04 0.  0.
        4    1    3    3  502    0 -0.56042823402E+03 -0.40108604675E+03  0.22163931619E+03  0.72393053656E+03  0.12699999809E+01 0.  1.
       -4    1    3    3    0  502  0.56042823402E+03  0.40108604675E+03  0.89449744803E+03  0.11291931278E+04  0.12699999809E+01 0. -1.
</event>
<event>
 5   0  0.2641347E-04  0.1496981E+04  0.7818609E-02  0.8886463E-01
        2   -1    0    0  501    0  0.00000000000E+00  0.00000000000E+00  0.17191216347E+04  0.17191216347E+04  0.25500000920E-02 0. -1.
       -2   -1    0    0    0  501  0.00000000000E+00  0.00000000000E+00 -0.32588632525E+03  0.32588632526E+03  0.25500000920E-02 0.  1.
    10030    2    1    2    0    0  0.00000000000E+00  0.00000000000E+00  0.13932353095E+04  0.20450079600E+04  0.14969812720E+04 0.  0.
        4    1    3    3  502    0 -0.38366206061E+03 -0.56332890955E+03  0.27401139501E+03  0.73458824833E+03  0.12699999809E+01 0.  1.
       -4    1    3    3    0  502  0.38366206061E+03  0.56332890955E+03  0.11192239145E+04  0.13104197116E+04  0.12699999809E+01 0. -1.
</event>
<event>
 5   0  0.1004313E-04  0.1503879E+04  0.7818609E-02  0.8881878E-01
        4   -1    0    0  501    0  0.00000000000E+00  0.00000000000E+00  0.67091889024E+03  0.67092009225E+03  0.12699999809E+01 0. -1.
       -4   -1    0    0    0  501  0.00000000000E+00  0.00000000000E+00 -0.84274142599E+03  0.84274238293E+03  0.12699999809E+01 0.  1.
    10030    2    1    2    0    0  0.00000000000E+00  0.00000000000E+00 -0.17182253575E+03  0.15136624752E+04  0.15038786869E+04 0.  0.
        3    1    3    3  502    0  0.53252976887E+03 -0.52834335814E+03 -0.13799837290E+03  0.76274387572E+03  0.10100000352E+00 0.  1.
       -3    1    3    3    0  502 -0.53252976887E+03  0.52834335814E+03 -0.33824162850E+02  0.75091859946E+03  0.10100000352E+00 0. -1.
</event>
<event>
 5   0  0.2618901E-04  0.1497430E+04  0.7818609E-02  0.8886164E-01
       -2   -1    0    0    0  501  0.00000000000E+00  0.00000000000E+00  0.72694491033E+03  0.72694491033E+03  0.25500000920E-02 0. -1.
        2   -1    0    0  501    0  0.00000000000E+00  0.00000000000E+00 -0.77113712503E+03  0.77113712503E+03  0.25500000920E-02 0.  1.
    10030    2    1    2    0    0  0.00000000000E+00  0.00000000000E+00 -0.44192214699E+02  0.14980820354E+04  0.14974300761E+04 0.  0.
        1    1    3    3  502    0  0.72810771384E+03 -0.13816563397E+03 -0.12864892369E+03  0.75218424003E+03  0.50400001928E-02 0.  1.
       -1    1    3    3    0  502 -0.72810771384E+03  0.13816563397E+03  0.84456708992E+02  0.74589779533E+03  0.50400001928E-02 0. -1.
</event>
<event>
 5   0  0.1474203E-04  0.1502138E+04  0.7818609E-02  0.8883032E-01
       -1   -1    0    0    0  501  0.00000000000E+00  0.00000000000E+00  0.26882188275E+03  0.26882188279E+03  0.50400001928E-02 0. -1.
        1   -1    0    0  501    0  0.00000000000E+00  0.00000000000E+00 -0.20984325792E+04  0.20984325792E+04  0.50400001928E-02 0.  1.
    10030    2    1    2    0    0  0.00000000000E+00  0.00000000000E+00 -0.18296106964E+04  0.23672544620E+04  0.15021379388E+04 0.  0.
        3    1    3    3  502    0  0.20696697067E+03  0.35042012636E+02  0.22165438764E+03  0.30527683724E+03  0.10100000352E+00 0. -1.
       -3    1    3    3    0  502 -0.20696697067E+03 -0.35042012636E+02 -0.20512650840E+04  0.20619776247E+04  0.10100000352E+00 0.  1.
</event>
<event>
 5   0  0.1484251E-04  0.1532272E+04  0.7818609E-02  0.8863272E-01
        1   -1    0    0  501    0  0.00000000000E+00  0.00000000000E+00  0.12040460257E+04  0.12040460258E+04  0.50400001928E-02 0.  1.
       -1   -1    0    0    0  501  0.00000000000E+00  0.00000000000E+00 -0.48749299403E+03  0.48749299406E+03  0.50400001928E-02 0. -1.
    10030    2    1    2    0    0  0.00000000000E+00  0.00000000000E+00  0.71655303171E+03  0.16915390198E+04  0.15322715191E+04 0.  0.
        5    1    3    3  502    0  0.69347963499E+03  0.28405520590E+03  0.18254312393E+03  0.77132706827E+03  0.46999998093E+01 0.  1.
       -5    1    3    3    0  502 -0.69347963499E+03 -0.28405520590E+03  0.53400990779E+03  0.92021195154E+03  0.46999998093E+01 0. -1.
</event>
<event>
 5   0  0.1484251E-04  0.1503673E+04  0.7818609E-02  0.8882014E-01
       -1   -1    0    0    0  501  0.00000000000E+00  0.00000000000E+00  0.84540915175E+03  0.84540915176E+03  0.50400001928E-02 0. -1.
        1   -1    0    0  501    0  0.00000000000E+00  0.00000000000E+00 -0.66862034614E+03  0.66862034616E+03  0.50400001928E-02 0.  1.
    10030    2    1    2    0    0  0.00000000000E+00  0.00000000000E+00  0.17678880561E+03  0.15140294979E+04  0.15036725171E+04 0.  0.
        5    1    3    3  502    0  0.90201602850E+01  0.71173443414E+03 -0.15532320106E+03  0.72855655567E+03  0.46999998093E+01 0. -1.
       -5    1    3    3    0  502 -0.90201602850E+01 -0.71173443414E+03  0.33211200667E+03  0.78547294224E+03  0.46999998093E+01 0.  1.
</event>
<event>
 5   0  0.1443750E-04  0.1527931E+04  0.7818609E-02  0.8866089E-01
        1   -1    0    0  501    0  0.00000000000E+00  0.00000000000E+00  0.15591322650E+04  0.15591322650E+04  0.50400001928E-02 0.  1.
       -1   -1    0    0    0  501  0.00000000000E+00  0.00000000000E+00 -0.37433838631E+03  0.37433838634E+03  0.50400001928E-02 0. -1.
    10030    2    1    2    0    0  0.00000000000E+00  0.00000000000E+00  0.11847938787E+04  0.19334706514E+04  0.15279307002E+04 0.  0.
        2    1    3    3  502    0  0.47029154951E+03 -0.37462398482E+03 -0.39972651459E+01  0.60127635051E+03  0.25500000920E-02 0. -1.
       -2    1    3    3    0  502 -0.47029154951E+03  0.37462398482E+03  0.11887911439E+04  0.13321943009E+04  0.25500000920E-02 0.  1.
</event>
<event>
 5   0  0.2646718E-04  0.1503084E+04  0.7818609E-02  0.8882405E-01
       -2   -1    0    0    0  501  0.00000000000E+00  0.00000000000E+00  0.59265501891E+03  0.59265501892E+03  0.25500000920E-02 0.  1.
        2   -1    0    0  501    0  0.00000000000E+00  0.00000000000E+00 -0.95302565316E+03  0.95302565317E+03  0.25500000920E-02 0. -1.
    10030    2    1    2    0    0  0.00000000000E+00  0.00000000000E+00 -0.36037063425E+03  0.15456806721E+04  0.15030840782E+04 0.  0.
        3    1    3    3  502    0 -0.54626204721E+03  0.36052864859E+03 -0.56002041754E+03  0.86139770660E+03  0.10100000352E+00 0. -1.
       -3    1    3    3    0  502  0.54626204721E+03 -0.36052864859E+03  0.19964978329E+03  0.68428296548E+03  0.10100000352E+00 0.  1.
</event>
<event>
 5   0  0.2734072E-04  0.1499356E+04  0.7818609E-02  0.8884882E-01
       -2   -1    0    0    0  501  0.00000000000E+00  0.00000000000E+00  0.81459510970E+03  0.81459510970E+03  0.25500000920E-02 0.  1.
        2   -1    0    0  501    0  0.00000000000E+00  0.00000000000E+00 -0.68993385809E+03  0.68993385810E+03  0.25500000920E-02 0. -1.
    10030    2    1    2    0    0  0.00000000000E+00  0.00000000000E+00  0.12466125161E+03  0.15045289678E+04  0.14993555240E+04 0.  0.
        5    1    3    3  502    0  0.61059232458E+03  0.36828592409E+03  0.29450995191E+03  0.77150224270E+03  0.46999998093E+01 0.  1.
       -5    1    3    3    0  502 -0.61059232458E+03 -0.36828592409E+03 -0.16984870030E+03  0.73302672510E+03  0.46999998093E+01 0. -1.
</event>
<event>
 5   0  0.2696040E-04  0.1499949E+04  0.7818609E-02  0.8884487E-01
       -2   -1    0    0    0  501  0.00000000000E+00  0.00000000000E+00  0.28471002066E+03  0.28471002067E+03  0.25500000920E-02 0.  1.
        2   -1    0    0  501    0  0.00000000000E+00  0.00000000000E+00 -0.19755610035E+04  0.19755610035E+04  0.25500000920E-02 0. -1.
    10030    2    1    2    0    0  0.00000000000E+00  0.00000000000E+00 -0.16908509828E+04  0.22602710241E+04  0.14999493513E+04 0.  0.
        2    1    3    3  502    0  0.11844031713E+03 -0.19059430612E+03 -0.19237875093E+04  0.19368305758E+04  0.25500000920E-02 0. -1.
       -2    1    3    3    0  502 -0.11844031713E+03  0.19059430612E+03  0.23293652651E+03  0.32344044836E+03  0.25500000920E-02 0.  1.
</event>
<event>
 5   0  0.1443750E-04  0.1505217E+04  0.7818609E-02  0.8880991E-01
        1   -1    0    0  501    0  0.00000000000E+00  0.00000000000E+00  0.11043162225E+04  0.11043162225E+04  0.50400001928E-02 0. -1.
       -1   -1    0    0    0  501  0.00000000000E+00  0.00000000000E+00 -0.51291409012E+03  0.51291409015E+03  0.50400001928E-02 0.  1.
    10030    2    1    2    0    0  0.00000000000E+00  0.00000000000E+00  0.59140213237E+03  0.16172303127E+04  0.15052167292E+04 0.  0.
        2    1    3    3  502    0  0.36301347815E+03  0.65041976419E+03  0.41139284820E+03  0.85092228231E+03  0.25500000920E-02 0.  1.
       -2    1    3    3    0  502 -0.36301347815E+03 -0.65041976419E+03  0.18000928417E+03  0.76630803034E+03  0.25500000920E-02 0. -1.
</event>
<event>
 5   0  0.2618901E-04  0.1502040E+04  0.7818609E-02  0.8883098E-01
       -2   -1    0    0    0  501  0.00000000000E+00  0.00000000000E+00  0.43620156487E+03  0.43620156487E+03  0.25500000920E-02 0. -1.
        2   -1    0    0  501    0  0.00000000000E+00  0.00000000000E+00 -0.12930513046E+04  0.12930513046E+04  0.25500000920E-02 0.  1.
    10030    2    1    2    0    0  0.00000000000E+00  0.00000000000E+00 -0.85684973978E+03  0.17292528695E+04  0.15020399496E+04 0.  0.
        1    1    3    3  502    0  0.17223164494E+03  0.70472208364E+03 -0.20478783828E+03  0.75381364635E+03  0.50400001928E-02 0. -1.
       -1    1    3    3    0  502 -0.17223164494E+03 -0.70472208364E+03 -0.65206190150E+03  0.97543922317E+03  0.50400001928E-02 0.  1.
</event>
<event>
 5   0  0.1004313E-04  0.1501381E+04  0.7818609E-02  0.8883535E-01
        3   -1    0    0  501    0  0.00000000000E+00  0.00000000000E+00  0.98703346804E+03  0.98703347321E+03  0.10100000352E+00 0. -1.
       -3   -1    0    0    0  501  0.00000000000E+00  0.00000000000E+00 -0.57093959598E+03  0.57093960492E+03  0.10100000352E+00 0.  1.
    10030    2    1    2    0    0  0.00000000000E+00  0.00000000000E+00  0.41609387206E+03  0.15579730781E+04  0.15013813645E+04 0.  0.
        1    1    3    3  502    0 -0.10998167656E+03  0.53279703117E+03  0.74481404509E+03  0.92234299877E+03  0.50400001928E-02 0. -1.
       -1    1    3    3    0  502  0.10998167656E+03 -0.53279703117E+03 -0.32872017303E+03  0.63563007936E+03  0.50400001928E-02 0.  1.
</event>
<event>
 5   0  0.1004313E-04  0.1503762E+04  0.7818609E-02  0.8881955E-01
        4   -1    0    0  501    0  0.00000000000E+00  0.00000000000E+00  0.64141284843E+03  0.64141410573E+03  0.12699999809E+01 0. -1.
       -4   -1    0    0    0  501  0.00000000000E+00  0.00000000000E+00 -0.88137176810E+03  0.88137268309E+03  0.12699999809E+01 0.  1.
    10030    2    1    2    0    0  0.00000000000E+00  0.00000000000E+00 -0.23995891966E+03  0.15227867888E+04  0.15037617235E+04 0.  0.
        1    1    3    3  502    0  0.21815312229E+03  0.25486568657E+03 -0.80138005079E+03  0.86876768401E+03  0.50400001928E-02 0.  1.
       -1    1    3    3    0  502 -0.21815312229E+03 -0.25486568657E+03  0.56142113113E+03  0.65401910481E+03  0.50400001928E-02 0. -1.
</event>
<event>
 5   0  0.1426929E-04  0.1500377E+04  0.7818609E-02  0.8884202E-01
       -1   -1    0    0    0  501  0.00000000000E+00  0.00000000000E+00  0.37941997013E+03  0.37941997016E+03  0.50400001928E-02 0. -1.
        1   -1    0    0  501    0  0.00000000000E+00  0.00000000000E+00 -0.14832710283E+04  0.14832710283E+04  0.50400001928E-02 0.  1.
    10030    2    1    2    0    0  0.00000000000E+00  0.00000000000E+00 -0.11038510581E+04  0.18626909984E+04  0.15003768184E+04 0.  0.
        1    1    3    3  502    0 -0.56780861651E+03 -0.37767541159E+03 -0.16380138809E+03  0.70133888831E+03  0.50400001928E-02 0. -1.
       -1    1    3    3    0  502  0.56780861651E+03  0.37767541159E+03 -0.94004967003E+03  0.11613521101E+04  0.50400001928E-02 0.  1.
</event>
<event>
 5   0  0.1474203E-04  0.1525967E+04  0.7818609E-02  0.8867366E-01
       -1   -1    0    0    0  501  0.00000000000E+00  0.00000000000E+00  0.14381612758E+04  0.14381612758E+04  0.50400001928E-02 0. -1.
        1   -1    0    0  501    0  0.00000000000E+00  0.00000000000E+00 -0.40478350083E+03  0.40478350086E+03  0.50400001928E-02 0.  1.
    10030    2    1    2    0    0  0.00000000000E+00  0.00000000000E+00  0.10333777750E+04  0.18429447767E+04  0.15259671766E+04 0.  0.
        3    1    3    3  502    0 -0.30275367660E+03  0.37455032045E+03 -0.19800958428E+03  0.52072597103E+03  0.10100000352E+00 0.  1.
       -3    1    3    3    0  502  0.30275367660E+03 -0.37455032045E+03  0.12313873592E+04  0.13222188056E+04  0.10100000352E+00 0. -1.
</event>
<event>
 5   0  0.1443750E-04  0.1442764E+04  0.7818609E-02  0.8923433E-01
       -1   -1    0    0    0  501  0.00000000000E+00  0.00000000000E+00  0.38117667612E+03  0.38117667615E+03  0.50400001928E-02 0. -1.
        1   -1    0    0  501    0  0.00000000000E+00  0.00000000000E+00 -0.13652250225E+04  0.13652250225E+04  0.50400001928E-02 0.  1.
    10030    2    1    2    0    0  0.00000000000E+00  0.00000000000E+00 -0.98404834636E+03  0.17464016986E+04  0.14427639256E+04 0.  0.
        2    1    3    3  502    0 -0.99431100485E+02  0.15913925827E+03  0.35111711151E+03  0.39811439722E+03  0.25500000920E-02 0. -1.
       -2    1    3    3    0  502  0.99431100485E+02 -0.15913925827E+03 -0.13351654579E+04  0.13482873014E+04  0.25500000920E-02 0.  1.
</event>
<event>
 5   0  0.1474203E-04  0.1486939E+04  0.7818609E-02  0.8893185E-01
        1   -1    0    0  501    0  0.00000000000E+00  0.00000000000E+00  0.15752952058E+04  0.15752952058E+04  0.50400001928E-02 0.  1.
       -1   -1    0    0    0  501  0.00000000000E+00  0.00000000000E+00 -0.35088452025E+03  0.35088452029E+03  0.50400001928E-02 0. -1.
    10030    2    1    2    0    0  0.00000000000E+00  0.00000000000E+00  0.12244106855E+04  0.19261797261E+04  0.14869387379E+04 0.  0.
        3    1    3    3  502    0  0.21051418911E+03  0.62359238377E+03  0.10601270882E+04  0.12478193532E+04  0.10100000352E+00 0.  1.
       -3    1    3    3    0  502 -0.21051418911E+03 -0.62359238377E+03  0.16428359733E+03  0.67836037286E+03  0.10100000352E+00 0. -1.
</event>
<event>
 5   0  0.1427609E-04  0.1499453E+04  0.7818609E-02  0.8884817E-01
       -1   -1    0    0    0  501  0.00000000000E+00  0.00000000000E+00  0.36644257203E+03  0.36644257206E+03  0.50400001928E-02 0.  1.
        1   -1    0    0  501    0  0.00000000000E+00  0.00000000000E+00 -0.15339089959E+04  0.15339089959E+04  0.50400001928E-02 0. -1.
    10030    2    1    2    0    0  0.00000000000E+00  0.00000000000E+00 -0.11674664239E+04  0.19003515680E+04  0.14994526438E+04 0.  0.
        4    1    3    3  502    0 -0.40159640508E+03  0.60618325663E+03 -0.81517936981E+03  0.10923629576E+04  0.12699999809E+01 0.  1.
       -4    1    3    3    0  502  0.40159640508E+03 -0.60618325663E+03 -0.35228705405E+03  0.80798861040E+03  0.12699999809E+01 0. -1.
</event>
<event>
 5   0  0.1443750E-04  0.1505487E+04  0.7818609E-02  0.8880812E-01
       -1   -1    0    0    0  501  0.00000000000E+00  0.00000000000E+00  0.11206297409E+04  0.11206297409E+04  0.50400001928E-02 0. -1.
        1   -1    0    0  501    0  0.00000000000E+00  0.00000000000E+00 -0.50562909811E+03  0.50562909813E+03  0.50400001928E-02 0.  1.
    10030    2    1    2    0    0  0.00000000000E+00  0.00000000000E+00  0.61500064275E+03  0.16262588390E+04  0.15054873034E+04 0.  0.
        2    1    3    3  502    0  0.62205945748E+03  0.34169848425E+03  0.57843381036E+03  0.91558806007E+03  0.25500000920E-02 0.  1.
       -2    1    3    3    0  502 -0.62205945748E+03 -0.34169848425E+03  0.36566832389E+02  0.71067077892E+03  0.25500000920E-02 0. -1.
</event>
<event>
 5   0  0.2696040E-04  0.1496064E+04  0.7818609E-02  0.8887075E-01
       -2   -1    0    0    0  501  0.00000000000E+00  0.00000000000E+00  0.44954424840E+03  0.44954424841E+03  0.25500000920E-02 0.  1.
        2   -1    0    0  501    0  0.00000000000E+00  0.00000000000E+00 -0.12447089436E+04  0.12447089436E+04  0.25500000920E-02 0. -1.
    10030    2    1    2    0    0  0.00000000000E+00  0.00000000000E+00 -0.79516469517E+03  0.16942531920E+04  0.14960638309E+04 0.  0.
        2    1    3    3  502    0  0.22039350811E+03 -0.32467544124E+03 -0.11187862230E+04  0.11856095703E+04  0.25500000920E-02 0. -1.
       -2    1    3    3    0  502 -0.22039350811E+03  0.32467544124E+03  0.32362152781E+03  0.50864362164E+03  0.25500000920E-02 0.  1.
</event>
<event>
 5   0  0.1443750E-04  0.1499691E+04  0.7818609E-02  0.8884659E-01
        1   -1    0    0  501    0  0.00000000000E+00  0.00000000000E+00  0.87864469368E+03  0.87864469369E+03  0.50400001928E-02 0. -1.
       -1   -1    0    0    0  501  0.00000000000E+00  0.00000000000E+00 -0.63992661394E+03  0.63992661396E+03  0.50400001928E-02 0.  1.
    10030    2    1    2    0    0  0.00000000000E+00  0.00000000000E+00  0.23871807974E+03  0.15185713076E+04  0.14996907997E+04 0.  0.
        2    1    3    3  502    0 -0.50361082376E+03  0.62175847941E+02  0.67837675855E+03  0.84716274966E+03  0.25500000920E-02 0. -1.
       -2    1    3    3    0  502  0.50361082376E+03 -0.62175847941E+02 -0.43965867881E+03  0.67140855798E+03  0.25500000920E-02 0.  1.
</event>
<event>
 5   0  0.1484251E-04  0.1497266E+04  0.7818609E-02  0.8886273E-01
       -1   -1    0    0    0  501  0.00000000000E+00  0.00000000000E+00  0.50494477471E+03  0.50494477474E+03  0.50400001928E-02 0. -1.
        1   -1    0    0  501    0  0.00000000000E+00  0.00000000000E+00 -0.11099265019E+04  0.11099265020E+04  0.50400001928E-02 0.  1.
    10030    2    1    2    0    0  0.00000000000E+00  0.00000000000E+00 -0.60498172723E+03  0.16148712767E+04  0.14972662923E+04 0.  0.
        5    1    3    3  502    0  0.71585841333E+02 -0.74267589020E+03 -0.36842779082E+03  0.83213769150E+03  0.46999998093E+01 0. -1.
       -5    1    3    3    0  502 -0.71585841333E+02  0.74267589020E+03 -0.23655393641E+03  0.78273358520E+03  0.46999998093E+01 0.  1.
</event>
<event>
 5   0  0.1004313E-04  0.1505858E+04  0.7818609E-02  0.8880567E-01
       -3   -1    0    0    0  501  0.00000000000E+00  0.00000000000E+00  0.26519805394E+03  0.26519807317E+03  0.10100000352E+00 0. -1.
        3   -1    0    0  501    0  0.00000000000E+00  0.00000000000E+00 -0.21376544971E+04  0.21376544995E+04  0.10100000352E+00 0.  1.
    10030    2    1    2    0    0  0.00000000000E+00  0.00000000000E+00 -0.18724564432E+04  0.24028525727E+04  0.15058576807E+04 0.  0.
        4    1    3    3  502    0  0.53125301417E+03  0.33899789745E+03 -0.15936577736E+04  0.17137374512E+04  0.12699999809E+01 0.  1.
       -4    1    3    3    0  502 -0.53125301417E+03 -0.33899789745E+03 -0.27879866957E+03  0.68911512143E+03  0.12699999809E+01 0. -1.
</event>
<event>
 5   0  0.2646718E-04  0.1505108E+04  0.7818609E-02  0.8881063E-01
        2   -1    0    0  501    0  0.00000000000E+00  0.00000000000E+00  0.81087311348E+03  0.81087311348E+03  0.25500000920E-02 0.  1.
       -2   -1    0    0    0  501  0.00000000000E+00  0.00000000000E+00 -0.69842935669E+03  0.69842935670E+03  0.25500000920E-02 0. -1.
    10030    2    1    2    0    0  0.00000000000E+00  0.00000000000E+00  0.11244375678E+03  0.15093024702E+04  0.15051080852E+04 0.  0.
        3    1    3    3  502    0 -0.39424398993E+03  0.45593980158E+03  0.50806400949E+03  0.78831369023E+03  0.10100000352E+00 0.  1.
       -3    1    3    3    0  502  0.39424398993E+03 -0.45593980158E+03 -0.39562025270E+03  0.72098877995E+03  0.10100000352E+00 0. -1.
</event>
<event>
 5   0  0.2646718E-04  0.1499415E+04  0.7818609E-02  0.8884842E-01
        2   -1    0    0  501    0  0.00000000000E+00  0.00000000000E+00  0.94060124496E+03  0.94060124497E+03  0.25500000920E-02 0.  1.
       -2   -1    0    0    0  501  0.00000000000E+00  0.00000000000E+00 -0.59755549931E+03  0.59755549931E+03  0.25500000920E-02 0. -1.
    10030    2    1    2    0    0  0.00000000000E+00  0.00000000000E+00  0.34304574566E+03  0.15381567443E+04  0.14994151481E+04 0.  0.
        3    1    3    3  502    0 -0.23561914604E+03 -0.56701109360E+03 -0.26975849106E+03  0.67066207284E+03  0.10100000352E+00 0. -1.
       -3    1    3    3    0  502  0.23561914604E+03  0.56701109360E+03  0.61280423672E+03  0.86749467144E+03  0.10100000352E+00 0.  1.
</event>
<event>
 5   0  0.2641347E-04  0.1499519E+04  0.7818609E-02  0.8884773E-01
        2   -1    0    0  501    0  0.00000000000E+00  0.00000000000E+00  0.16750266479E+04  0.16750266479E+04  0.25500000920E-02 0. -1.
       -2   -1    0    0    0  501  0.00000000000E+00  0.00000000000E+00 -0.33560015335E+03  0.33560015336E+03  0.25500000920E-02 0.  1.
    10030    2    1    2    0    0  0.00000000000E+00  0.00000000000E+00  0.13394264945E+04  0.20106268013E+04  0.14995188560E+04 0.  0.
        4    1    3    3  502    0  0.32236958060E+03  0.56015662429E+03  0.11793060330E+04  0.13447906612E+04  0.12699999809E+01 0. -1.
       -4    1    3    3    0  502 -0.32236958060E+03 -0.56015662429E+03  0.16012046156E+03  0.66583614001E+03  0.12699999809E+01 0.  1.
</event>
<event>
 5   0  0.2646718E-04  0.1503549E+04  0.7818609E-02  0.8882096E-01
       -2   -1    0    0    0  501  0.00000000000E+00  0.00000000000E+00  0.65512411009E+03  0.65512411010E+03  0.25500000920E-02 0.  1.
        2   -1    0    0  501    0  0.00000000000E+00  0.00000000000E+00 -0.86268348298E+03  0.86268348299E+03  0.25500000920E-02 0. -1.
    10030    2    1    2    0    0  0.00000000000E+00  0.00000000000E+00 -0.20755937289E+03  0.15178075931E+04  0.15035488008E+04 0.  0.
        3    1    3    3  502    0 -0.33596909755E+03 -0.50147379682E+03 -0.55615165277E+03  0.82076541989E+03  0.10100000352E+00 0. -1.
       -3    1    3    3    0  502  0.33596909755E+03  0.50147379682E+03  0.34859227988E+03  0.69704217319E+03  0.10100000352E+00 0.  1.
</event>
<event>
 5   0  0.2618901E-04  0.1490670E+04  0.7818609E-02  0.8890681E-01
       -2   -1    0    0    0  501  0.00000000000E+00  0.00000000000E+00  0.31532042778E+03  0.31532042779E+03  0.25500000920E-02 0. -1.
        2   -1    0    0  501    0  0.00000000000E+00  0.00000000000E+00 -0.17617770685E+04  0.17617770685E+04  0.25500000920E-02 0.  1.
    10030    2    1    2    0    0  0.00000000000E+00  0.00000000000E+00 -0.14464566407E+04  0.20770974963E+04  0.14906700492E+04 0.  0.
        1    1    3    3  502    0 -0.63376922110E+03  0.94218000053E+02 -0.12537891190E+04  0.14080225893E+04  0.50400001928E-02 0.  1.
       -1    1    3    3    0  502  0.63376922110E+03 -0.94218000053E+02 -0.19266752173E+03  0.66907490695E+03  0.50400001928E-02 0. -1.
</event>
<event>
 5   0  0.2646718E-04  0.1501680E+04  0.7818609E-02  0.8883337E-01
       -2   -1    0    0    0  501  0.00000000000E+00  0.00000000000E+00  0.52105762556E+03  0.52105762557E+03  0.25500000920E-02 0.  1.
        2   -1    0    0  501    0  0.00000000000E+00  0.00000000000E+00 -0.10819546343E+04  0.10819546343E+04  0.25500000920E-02 0. -1.
    10030    2    1    2    0    0  0.00000000000E+00  0.00000000000E+00 -0.56089700877E+03  0.16030122599E+04  0.15016800095E+04 0.  0.
        3    1    3    3  502    0  0.44269871624E+02 -0.64576009419E+03  0.12574773632E+03  0.65937730032E+03  0.10100000352E+00 0.  1.
       -3    1    3    3    0  502 -0.44269871624E+02  0.64576009419E+03 -0.68664474510E+03  0.94363495959E+03  0.10100000352E+00 0. -1.
</event>
<event>
 5   0  0.2734072E-04  0.1487131E+04  0.7818609E-02  0.8893056E-01
        2   -1    0    0  501    0  0.00000000000E+00  0.00000000000E+00  0.72257998978E+03  0.72257998979E+03  0.25500000920E-02 0. -1.
       -2   -1    0    0    0  501  0.00000000000E+00  0.00000000000E+00 -0.76516009092E+03  0.76516009093E+03  0.25500000920E-02 0.  1.
    10030    2    1    2    0    0  0.00000000000E+00  0.00000000000E+00 -0.42580101138E+02  0.14877400807E+04  0.14871306206E+04 0.  0.
        5    1    3    3  502    0  0.10415312309E+03 -0.39097477616E+03  0.60279100923E+03  0.72600842932E+03  0.46999998093E+01 0. -1.
       -5    1    3    3    0  502 -0.10415312309E+03  0.39097477616E+03 -0.64537111037E+03  0.76173165139E+03  0.46999998093E+01 0.  1.
</event>
<event>
 5   0  0.1474203E-04  0.1502300E+04  0.7818609E-02  0.8882925E-01
        1   -1    0    0  501    0  0.00000000000E+00  0.00000000000E+00  0.83084235135E+03  0.83084235137E+03  0.50400001928E-02 0.  1.
       -1   -1    0    0    0  501  0.00000000000E+00  0.00000000000E+00 -0.67910186683E+03  0.67910186685E+03  0.50400001928E-02 0. -1.
    10030    2    1    2    0    0  0.00000000000E+00  0.00000000000E+00  0.15174048452E+03  0.15099442182E+04  0.15023003586E+04 0.  0.
        3    1    3    3  502    0  0.50738500896E+03 -0.15836878069E+03 -0.45759049567E+03  0.70136245262E+03  0.10100000352E+00 0. -1.
       -3    1    3    3    0  502 -0.50738500896E+03  0.15836878069E+03  0.60933098020E+03  0.80858176559E+03  0.10100000352E+00 0.  1.
</event>
<event>
 5   0  0.1426929E-04  0.1494396E+04  0.7818609E-02  0.8888188E-01
        1   -1    0    0  501    0  0.00000000000E+00  0.00000000000E+00  0.53682279631E+03  0.53682279633E+03  0.50400001928E-02 0. -1.
       -1   -1    0    0    0  501  0.00000000000E+00  0.00000000000E+00 -0.10400171979E+04  0.10400171979E+04  0.50400001928E-02 0.  1.
    10030    2    1    2    0    0  0.00000000000E+00  0.00000000000E+00 -0.50319440158E+03  0.15768399942E+04  0.14943961194E+04 0.  0.
        1    1    3    3  502    0 -0.28273820203E+03 -0.34912104108E+03 -0.88159436668E+03  0.98946198492E+03  0.50400001928E-02 0.  1.
       -1    1    3    3    0  502  0.28273820203E+03  0.34912104108E+03  0.37839996510E+03  0.58737800931E+03  0.50400001928E-02 0. -1.
</event>
<event>
 5   0  0.1474203E-04  0.1501208E+04  0.7818609E-02  0.8883650E-01
        1   -1    0    0  501    0  0.00000000000E+00  0.00000000000E+00  0.14215902193E+04  0.14215902193E+04  0.50400001928E-02 0.  1.
       -1   -1    0    0    0  501  0.00000000000E+00  0.00000000000E+00 -0.39632097159E+03  0.39632097163E+03  0.50400001928E-02 0. -1.
    10030    2    1    2    0    0  0.00000000000E+00  0.00000000000E+00  0.10252692477E+04  0.18179111909E+04  0.15012075365E+04 0.  0.
        3    1    3    3  502    0 -0.58846632506E+03 -0.46227393348E+03  0.58341349992E+03  0.94887360982E+03  0.10100000352E+00 0. -1.
       -3    1    3    3    0  502  0.58846632506E+03  0.46227393348E+03  0.44185574774E+03  0.86903758108E+03  0.10100000352E+00 0.  1.
</event>
<event>
 5   0  0.1426929E-04  0.1491088E+04  0.7818609E-02  0.8890401E-01
       -1   -1    0    0    0  501  0.00000000000E+00  0.00000000000E+00  0.11739787958E+04  0.11739787958E+04  0.50400001928E-02 0.  1.
        1   -1    0    0  501    0  0.00000000000E+00  0.00000000000E+00 -0.47346316393E+03  0.47346316396E+03  0.50400001928E-02 0. -1.
    10030    2    1    2    0    0  0.00000000000E+00  0.00000000000E+00  0.70051563187E+03  0.16474419598E+04  0.14910878111E+04 0.  0.
        1    1    3    3  502    0 -0.41233804245E+03  0.34804285487E+02 -0.33493454361E+03  0.53236749343E+03  0.50400001928E-02 0. -1.
       -1    1    3    3    0  502  0.41233804245E+03 -0.34804285487E+02  0.10354501755E+04  0.11150744663E+04  0.50400001928E-02 0.  1.
</event>
<event>
 5   0  0.1427609E-04  0.1499955E+04  0.7818609E-02  0.8884483E-01
        1   -1    0    0  501    0  0.00000000000E+00  0.00000000000E+00  0.87638517765E+03  0.87638517767E+03  0.50400001928E-02 0. -1.
       -1   -1    0    0    0  501  0.00000000000E+00  0.00000000000E+00 -0.64180219231E+03  0.64180219233E+03  0.50400001928E-02 0.  1.
    10030    2    1    2    0    0  0.00000000000E+00  0.00000000000E+00  0.23458298534E+03  0.15181873700E+04  0.14999545705E+04 0.  0.
        4    1    3    3  502    0  0.14208402130E+03 -0.45752740320E+03  0.70131939521E+03  0.84933485787E+03  0.12699999809E+01 0. -1.
       -4    1    3    3    0  502 -0.14208402130E+03  0.45752740320E+03 -0.46673640987E+03  0.66885251214E+03  0.12699999809E+01 0.  1.
</event>
<event>
 5   0  0.2641347E-04  0.1501380E+04  0.7818609E-02  0.8883536E-01
        2   -1    0    0  501    0  0.00000000000E+00  0.00000000000E+00  0.10752085282E+04  0.10752085282E+04  0.25500000920E-02 0.  1.
       -2   -1    0    0    0  501  0.00000000000E+00  0.00000000000E+00 -0.52411744562E+03  0.52411744562E+03  0.25500000920E-02 0. -1.
    10030    2    1    2    0    0  0.00000000000E+00  0.00000000000E+00  0.55109108260E+03  0.15993259738E+04  0.15013800949E+04 0.  0.
        4    1    3    3  502    0  0.67903901745E+03 -0.10602985474E+03  0.59723592752E+03  0.91051012259E+03  0.12699999809E+01 0.  1.
       -4    1    3    3    0  502 -0.67903901745E+03  0.10602985474E+03 -0.46144844925E+02  0.68881585125E+03  0.12699999809E+01 0. -1.
</event>
<event>
 5   0  0.2734072E-04  0.1498262E+04  0.7818609E-02  0.8885610E-01
       -2   -1    0    0    0  501  0.00000000000E+00  0.00000000000E+00  0.85315484978E+03  0.85315484978E+03  0.25500000920E-02 0. -1.
        2   -1    0    0  501    0  0.00000000000E+00  0.00000000000E+00 -0.65779022377E+03  0.65779022378E+03  0.25500000920E-02 0.  1.
    10030    2    1    2    0    0  0.00000000000E+00  0.00000000000E+00  0.19536462601E+03  0.15109450736E+04  0.14982615520E+04 0.  0.
        5    1    3    3  502    0 -0.38037042295E+03  0.60969960649E+02  0.74559752154E+03  0.83924772796E+03  0.46999998093E+01 0. -1.
       -5    1    3    3    0  502  0.38037042295E+03 -0.60969960649E+02 -0.55023289553E+03  0.67169734560E+03  0.46999998093E+01 0.  1.
</event>
<event>
 5   0  0.1427609E-04  0.1499904E+04  0.7818609E-02  0.8884517E-01
        1   -1    0    0  501    0  0.00000000000E+00  0.00000000000E+00  0.71406950093E+03  0.71406950095E+03  0.50400001928E-02 0. -1.
       -1   -1    0    0    0  501  0.00000000000E+00  0.00000000000E+00 -0.78763728493E+03  0.78763728494E+03  0.50400001928E-02 0.  1.
    10030    2    1    2    0    0  0.00000000000E+00  0.00000000000E+00 -0.73567783999E+02  0.15017067859E+04  0.14999036809E+04 0.  0.
        4    1    3    3  502    0 -0.54945254388E+03  0.23339959397E+03 -0.49125984377E+03  0.77311791820E+03  0.12699999809E+01 0.  1.
       -4    1    3    3    0  502  0.54945254388E+03 -0.23339959397E+03  0.41769205977E+03  0.72858886770E+03  0.12699999809E+01 0. -1.
</event>
<event>
 5   0  0.2646718E-04  0.1503285E+04  0.7818609E-02  0.8882271E-01
        2   -1    0    0  501    0  0.00000000000E+00  0.00000000000E+00  0.64749195784E+03  0.64749195785E+03  0.25500000920E-02 0. -1.
       -2   -1    0    0    0  501  0.00000000000E+00  0.00000000000E+00 -0.87254643405E+03  0.87254643405E+03  0.25500000920E-02 0.  1.
    10030    2    1    2    0    0  0.00000000000E+00  0.00000000000E+00 -0.22505447621E+03  0.15200383919E+04  0.15032854671E+04 0.  0.
        3    1    3    3  502    0 -0.96078586497E+02  0.53737032291E+03 -0.63497560652E+03  0.83737207370E+03  0.10100000352E+00 0.  1.
       -3    1    3    3    0  502  0.96078586497E+02 -0.53737032291E+03  0.40992113031E+03  0.68266631820E+03  0.10100000352E+00 0. -1.
</event>
<event>
 5   0  0.2618901E-04  0.1498680E+04  0.7818609E-02  0.8885331E-01
        2   -1    0    0  501    0  0.00000000000E+00  0.00000000000E+00  0.17038190693E+04  0.17038190693E+04  0.25500000920E-02 0.  1.
       -2   -1    0    0    0  501  0.00000000000E+00  0.00000000000E+00 -0.32955988798E+03  0.32955988799E+03  0.25500000920E-02 0. -1.
    10030    2    1    2    0    0  0.00000000000E+00  0.00000000000E+00  0.13742591813E+04  0.20333789573E+04  0.14986799814E+04 0.  0.
        1    1    3    3  502    0  0.72177562833E+03  0.14337287155E+03  0.87898126833E+03  0.11463524362E+04  0.50400001928E-02 0. -1.
       -1    1    3    3    0  502 -0.72177562833E+03 -0.14337287155E+03  0.49527791298E+03  0.88702652106E+03  0.50400001928E-02 0.  1.
</event>
<event>
 5   0  0.2696040E-04  0.1505603E+04  0.7818609E-02  0.8880735E-01
       -2   -1    0    0    0  501  0.00000000000E+00  0.00000000000E+00  0.49640862329E+03  0.49640862330E+03  0.25500000920E-02 0.  1.
        2   -1    0    0  501    0  0.00000000000E+00  0.00000000000E+00 -0.11416205560E+04  0.11416205560E+04  0.25500000920E-02 0. -1.
    10030    2    1    2    0    0  0.00000000000E+00  0.00000000000E+00 -0.64521193268E+03  0.16380291793E+04  0.15056032526E+04 0.  0.
        2    1    3    3  502    0 -0.22734535534E+03  0.15089918661E+03 -0.10859241957E+04  0.11196820235E+04  0.25500000920E-02 0. -1.
       -2    1    3    3    0  502  0.22734535534E+03 -0.15089918661E+03  0.44071226298E+03  0.51834715574E+03  0.25500000920E-02 0.  1.
</event>
<event>
 5   0  0.1004313E-04  0.1502177E+04  0.7818609E-02  0.8883007E-01
       -4   -1    0    0    0  501  0.00000000000E+00  0.00000000000E+00  0.72938580977E+03  0.72938691542E+03  0.12699999809E+01 0. -1.
        4   -1    0    0  501    0  0.00000000000E+00  0.00000000000E+00 -0.77343422121E+03  0.77343526389E+03  0.12699999809E+01 0.  1.
    10030    2    1    2    0    0  0.00000000000E+00  0.00000000000E+00 -0.44048411440E+02  0.15028221793E+04  0.15021765010E+04 0.  0.
        3    1    3    3  502    0 -0.10178746428E+03  0.73389870753E+03 -0.14522562210E+03  0.75502218001E+03  0.10100000352E+00 0.  1.
       -3    1    3    3    0  502  0.10178746428E+03 -0.73389870753E+03  0.10117721066E+03  0.74779999930E+03  0.10100000352E+00 0. -1.
</event>
<event>
 5   0  0.1427609E-04  0.1468090E+04  0.7818609E-02  0.8905955E-01
       -1   -1    0    0    0  501  0.00000000000E+00  0.00000000000E+00  0.85043083782E+03  0.85043083784E+03  0.50400001928E-02 0. -1.
        1   -1    0    0  501    0  0.00000000000E+00  0.00000000000E+00 -0.63358677929E+03  0.63358677931E+03  0.50400001928E-02 0.  1.
    10030    2    1    2    0    0  0.00000000000E+00  0.00000000000E+00  0.21684405854E+03  0.14840176171E+04  0.14680895553E+04 0.  0.
        4    1    3    3  502    0 -0.29584433445E+02 -0.21132556824E+03 -0.60154155539E+03  0.63826921456E+03  0.12699999809E+01 0.  1.
       -4    1    3    3    0  502  0.29584433445E+02  0.21132556824E+03  0.81838561392E+03  0.84574840258E+03  0.12699999809E+01 0. -1.
</event>
<event>
 5   0  0.2734072E-04  0.1499646E+04  0.7818609E-02  0.8884688E-01
       -2   -1    0    0    0  501  0.00000000000E+00  0.00000000000E+00  0.72347600052E+03  0.72347600053E+03  0.25500000920E-02 0. -1.
        2   -1    0    0  501    0  0.00000000000E+00  0.00000000000E+00 -0.77712996058E+03  0.77712996058E+03  0.25500000920E-02 0.  1.
    10030    2    1    2    0    0  0.00000000000E+00  0.00000000000E+00 -0.53653960056E+02  0.15006059611E+04  0.14996464594E+04 0.  0.
        5    1    3    3  502    0 -0.61473635027E+02 -0.18842022447E+03 -0.75042975352E+03  0.77617529835E+03  0.46999998093E+01 0.  1.
       -5    1    3    3    0  502  0.61473635027E+02  0.18842022447E+03  0.69677579347E+03  0.72443066276E+03  0.46999998093E+01 0. -1.
</event>
<event>
 5   0  0.1004313E-04  0.1502810E+04  0.7818609E-02  0.8882586E-01
       -4   -1    0    0    0  501  0.00000000000E+00  0.00000000000E+00  0.73671774465E+03  0.73671883930E+03  0.12699999809E+01 0.  1.
        4   -1    0    0  501    0  0.00000000000E+00  0.00000000000E+00 -0.76638314595E+03  0.76638419823E+03  0.12699999809E+01 0. -1.
    10030    2    1    2    0    0  0.00000000000E+00  0.00000000000E+00 -0.29665401302E+02  0.15031030375E+04  0.15028102693E+04 0.  0.
        4    1    3    3  502    0  0.10302729922E+02  0.20672991802E+03  0.70764080888E+03  0.73729270480E+03  0.12699999809E+01 0.  1.
       -4    1    3    3    0  502 -0.10302729922E+02 -0.20672991802E+03 -0.73730621019E+03  0.76581033274E+03  0.12699999809E+01 0. -1.
</event>
<event>
 5   0  0.1484251E-04  0.1485636E+04  0.7818609E-02  0.8894061E-01
        1   -1    0    0  501    0  0.00000000000E+00  0.00000000000E+00  0.10079563263E+04  0.10079563263E+04  0.50400001928E-02 0. -1.
       -1   -1    0    0    0  501  0.00000000000E+00  0.00000000000E+00 -0.54742312655E+03  0.54742312657E+03  0.50400001928E-02 0.  1.
    10030    2    1    2    0    0  0.00000000000E+00  0.00000000000E+00  0.46053319978E+03  0.15553794529E+04  0.14856360303E+04 0.  0.
        5    1    3    3  502    0 -0.55597305298E+03 -0.23908067891E+03  0.68117180248E+03  0.91119850810E+03  0.46999998093E+01 0. -1.
       -5    1    3    3    0  502  0.55597305298E+03  0.23908067891E+03 -0.22063860269E+03  0.64418094482E+03  0.46999998093E+01 0.  1.
</event>
<event>
 5   0  0.1427609E-04  0.1498437E+04  0.7818609E-02  0.8885493E-01
       -1   -1    0    0    0  501  0.00000000000E+00  0.00000000000E+00  0.17493663900E+03  0.17493663907E+03  0.50400001928E-02 0.  1.
        1   -1    0    0  501    0  0.00000000000E+00  0.00000000000E+00 -0.32087545317E+04  0.32087545317E+04  0.50400001928E-02 0. -1.
    10030    2    1    2    0    0  0.00000000000E+00  0.00000000000E+00 -0.30338178927E+04  0.33836911708E+04  0.14984374972E+04 0.  0.
        4    1    3    3  502    0  0.63922414150E+03 -0.10573828665E+03 -0.66735649691E+03  0.93013676156E+03  0.12699999809E+01 0.  1.
       -4    1    3    3    0  502 -0.63922414150E+03  0.10573828665E+03 -0.23664613958E+04  0.24535544092E+04  0.12699999809E+01 0. -1.
</event>
<event>
 5   0  0.1474203E-04  0.1513397E+04  0.7818609E-02  0.8875593E-01
       -1   -1    0    0    0  501  0.00000000000E+00  0.00000000000E+00  0.21037579380E+03  0.21037579386E+03  0.50400001928E-02 0. -1.
        1   -1    0    0  501    0  0.00000000000E+00  0.00000000000E+00 -0.27217599713E+04  0.27217599713E+04  0.50400001928E-02 0.  1.
    10030    2    1    2    0    0  0.00000000000E+00  0.00000000000E+00 -0.25113841775E+04  0.29321357651E+04  0.15133967287E+04 0.  0.
        3    1    3    3  502    0  0.54552004736E+03 -0.40513872736E+03 -0.19007881496E+04  0.20185948356E+04  0.10100000352E+00 0.  1.
       -3    1    3    3    0  502 -0.54552004736E+03  0.40513872736E+03 -0.61059602788E+03  0.91354092954E+03  0.10100000352E+00 0. -1.
</event>
<event>
 5   0  0.1484251E-04  0.1502148E+04  0.7818609E-02  0.8883026E-01
       -1   -1    0    0    0  501  0.00000000000E+00  0.00000000000E+00  0.13926868292E+04  0.13926868292E+04  0.50400001928E-02 0. -1.
        1   -1    0    0  501    0  0.00000000000E+00  0.00000000000E+00 -0.40505311659E+03  0.40505311662E+03  0.50400001928E-02 0.  1.
    10030    2    1    2    0    0  0.00000000000E+00  0.00000000000E+00  0.98763371258E+03  0.17977399458E+04  0.15021479829E+04 0.  0.
        5    1    3    3  502    0  0.43251200175E+03 -0.54339708289E+03  0.83598495263E+03  0.10868486336E+04  0.46999998093E+01 0. -1.
       -5    1    3    3    0  502 -0.43251200175E+03  0.54339708289E+03  0.15164875994E+03  0.71089131219E+03  0.46999998093E+01 0.  1.
</event>
<event>
 5   0  0.1426929E-04  0.1498750E+04  0.7818609E-02  0.8885284E-01
       -1   -1    0    0    0  501  0.00000000000E+00  0.00000000000E+00  0.92261331112E+03  0.92261331113E+03  0.50400001928E-02 0.  1.
        1   -1    0    0  501    0  0.00000000000E+00  0.00000000000E+00 -0.60866564417E+03  0.60866564419E+03  0.50400001928E-02 0. -1.
    10030    2    1    2    0    0  0.00000000000E+00  0.00000000000E+00  0.31394766695E+03  0.15312789553E+04  0.14987501798E+04 0.  0.
        1    1    3    3  502    0 -0.69356464241E+03  0.27925630929E+03  0.10541041030E+03  0.75506778114E+03  0.50400001928E-02 0. -1.
       -1    1    3    3    0  502  0.69356464241E+03 -0.27925630929E+03  0.20853725665E+03  0.77621117418E+03  0.50400001928E-02 0.  1.
</event>
<event>
 5   0  0.1004313E-04  0.1497457E+04  0.7818609E-02  0.8886146E-01
       -3   -1    0    0    0  501  0.00000000000E+00  0.00000000000E+00  0.23535909648E+03  0.23535911815E+03  0.10100000352E+00 0.  1.
        3   -1    0    0  501    0  0.00000000000E+00  0.00000000000E+00 -0.23818687811E+04  0.23818687832E+04  0.10100000352E+00 0. -1.
    10030    2    1    2    0    0  0.00000000000E+00  0.00000000000E+00 -0.21465096846E+04  0.26172279014E+04  0.14974571986E+04 0.  0.
        4    1    3    3  502    0 -0.32090655039E+03 -0.66057487765E+03 -0.13280518821E+04  0.15175847909E+04  0.12699999809E+01 0. -1.
       -4    1    3    3    0  502  0.32090655039E+03  0.66057487765E+03 -0.81845780245E+03  0.10996431105E+04  0.12699999809E+01 0.  1.
</event>
<event>
 5   0  0.2618901E-04  0.1499040E+04  0.7818609E-02  0.8885091E-01
        2   -1    0    0  501    0  0.00000000000E+00  0.00000000000E+00  0.13093028325E+04  0.13093028325E+04  0.25500000920E-02 0. -1.
       -2   -1    0    0    0  501  0.00000000000E+00  0.00000000000E+00 -0.42906838173E+03  0.42906838174E+03  0.25500000920E-02 0.  1.
    10030    2    1    2    0    0  0.00000000000E+00  0.00000000000E+00  0.88023445076E+03  0.17383712142E+04  0.14990402897E+04 0.  0.
        1    1    3    3  502    0 -0.40087981719E+03 -0.63741130860E+01  0.11744965778E+04  0.12410428955E+04  0.50400001928E-02 0. -1.
       -1    1    3    3    0  502  0.40087981719E+03  0.63741130860E+01 -0.29426212707E+03  0.49732831872E+03  0.50400001928E-02 0.  1.
</event>
<event>
 5   0  0.1426929E-04  0.1500745E+04  0.7818609E-02  0.8883958E-01
       -1   -1    0    0    0  501  0.00000000000E+00  0.00000000000E+00  0.11595877445E+04  0.11595877445E+04  0.50400001928E-02 0.  1.
        1   -1    0    0  501    0  0.00000000000E+00  0.00000000000E+00 -0.48556801958E+03  0.48556801961E+03  0.50400001928E-02 0. -1.
    10030    2    1    2    0    0  0.00000000000E+00  0.00000000000E+00  0.67401972494E+03  0.16451557641E+04  0.15007447813E+04 0.  0.
        1    1    3    3  502    0  0.21539586859E+03 -0.38442746984E+03 -0.32878749637E+03  0.54980094358E+03  0.50400001928E-02 0. -1.
       -1    1    3    3    0  502 -0.21539586859E+03  0.38442746984E+03  0.10028072213E+04  0.10953548206E+04  0.50400001928E-02 0.  1.
</event>
<event>
 5   0  0.2641347E-04  0.1498686E+04  0.7818609E-02  0.8885327E-01
        2   -1    0    0  501    0  0.00000000000E+00  0.00000000000E+00  0.10076371055E+04  0.10076371055E+04  0.25500000920E-02 0.  1.
       -2   -1    0    0    0  501  0.00000000000E+00  0.00000000000E+00 -0.55725939250E+03  0.55725939250E+03  0.25500000920E-02 0. -1.
    10030    2    1    2    0    0  0.00000000000E+00  0.00000000000E+00  0.45037771303E+03  0.15648964980E+04  0.14986864132E+04 0.  0.
        4    1    3    3  502    0  0.29404377766E+02  0.41858455047E+02 -0.55543297229E+03  0.55778503682E+03  0.12699999809E+01 0. -1.
       -4    1    3    3    0  502 -0.29404377766E+02 -0.41858455047E+02  0.10058106853E+04  0.10071114612E+04  0.12699999809E+01 0.  1.
</event>
<event>
 5   0  0.2734072E-04  0.1489407E+04  0.7818609E-02  0.8891528E-01
       -2   -1    0    0    0  501  0.00000000000E+00  0.00000000000E+00  0.12922396355E+04  0.12922396356E+04  0.25500000920E-02 0. -1.
        2   -1    0    0  501    0  0.00000000000E+00  0.00000000000E+00 -0.42916458440E+03  0.42916458441E+03  0.25500000920E-02 0.  1.
    10030    2    1    2    0    0  0.00000000000E+00  0.00000000000E+00  0.86307505115E+03  0.17214042200E+04  0.14894072460E+04 0.  0.
        5    1    3    3  502    0  0.21797474803E+03  0.37086068282E+03 -0.27102170672E+03  0.50845402187E+03  0.46999998093E+01 0.  1.
       -5    1    3    3    0  502 -0.21797474803E+03 -0.37086068282E+03  0.11340967579E+04  0.12129501981E+04  0.46999998093E+01 0. -1.
</event>
<event>
 5   0  0.1443750E-04  0.1496255E+04  0.7818609E-02  0.8886947E-01
       -1   -1    0    0    0  501  0.00000000000E+00  0.00000000000E+00  0.22580902869E+04  0.22580902870E+04  0.50400001928E-02 0.  1.
        1   -1    0    0  501    0  0.00000000000E+00  0.00000000000E+00 -0.24786202603E+03  0.24786202609E+03  0.50400001928E-02 0. -1.
    10030    2    1    2    0    0  0.00000000000E+00  0.00000000000E+00  0.20102282609E+04  0.25059523130E+04  0.14962551033E+04 0.  0.
        2    1    3    3  502    0 -0.21412812100E+03 -0.71490757509E+03  0.91726781764E+03  0.11825074809E+04  0.25500000920E-02 0. -1.
       -2    1    3    3    0  502  0.21412812100E+03  0.71490757509E+03  0.10929604433E+04  0.13234448321E+04  0.25500000920E-02 0.  1.
</event>
<event>
 5   0  0.1426929E-04  0.1501435E+04  0.7818609E-02  0.8883499E-01
        1   -1    0    0  501    0  0.00000000000E+00  0.00000000000E+00  0.10535109507E+04  0.10535109508E+04  0.50400001928E-02 0.  1.
       -1   -1    0    0    0  501  0.00000000000E+00  0.00000000000E+00 -0.53495135891E+03  0.53495135893E+03  0.50400001928E-02 0. -1.
    10030    2    1    2    0    0  0.00000000000E+00  0.00000000000E+00  0.51855959183E+03  0.15884623097E+04  0.15014354661E+04 0.  0.
        1    1    3    3  502    0 -0.15234860201E+03 -0.46771926434E+03  0.85925336451E+03  0.99009481931E+03  0.50400001928E-02 0.  1.
       -1    1    3    3    0  502  0.15234860201E+03  0.46771926434E+03 -0.34069377268E+03  0.59836749038E+03  0.50400001928E-02 0. -1.
</event>
<event>
 5   0  0.2696040E-04  0.1496013E+04  0.7818609E-02  0.8887109E-01
       -2   -1    0    0    0  501  0.00000000000E+00  0.00000000000E+00  0.42753070543E+03  0.42753070544E+03  0.25500000920E-02 0.  1.
        2   -1    0    0  501    0  0.00000000000E+00  0.00000000000E+00 -0.13087091633E+04  0.13087091633E+04  0.25500000920E-02 0. -1.
    10030    2    1    2    0    0  0.00000000000E+00  0.00000000000E+00 -0.88117845782E+03  0.17362398687E+04  0.14960125023E+04 0.  0.
        2    1    3    3  502    0 -0.60044116928E+03 -0.41974421174E+03 -0.26535129603E+03  0.77918297683E+03  0.25500000920E-02 0.  1.
       -2    1    3    3    0  502  0.60044116928E+03  0.41974421174E+03 -0.61582716179E+03  0.95705689186E+03  0.25500000920E-02 0. -1.
</event>
<event>
 5   0  0.1474203E-04  0.1499567E+04  0.7818609E-02  0.8884741E-01
        1   -1    0    0  501    0  0.00000000000E+00  0.00000000000E+00  0.89267067865E+03  0.89267067866E+03  0.50400001928E-02 0. -1.
       -1   -1    0    0    0  501  0.00000000000E+00  0.00000000000E+00 -0.62976755206E+03  0.62976755208E+03  0.50400001928E-02 0.  1.
    10030    2    1    2    0    0  0.00000000000E+00  0.00000000000E+00  0.26290312658E+03  0.15224382307E+04  0.14995666416E+04 0.  0.
        3    1    3    3  502    0 -0.51159044659E+03  0.54806090359E+03  0.14050262716E+03  0.76278210357E+03  0.10100000352E+00 0. -1.
       -3    1    3    3    0  502  0.51159044659E+03 -0.54806090359E+03  0.12240049943E+03  0.75965612717E+03  0.10100000352E+00 0.  1.
</event>
<event>
 5   0  0.1474203E-04  0.1502660E+04  0.7818609E-02  0.8882686E-01
        1   -1    0    0  501    0  0.00000000000E+00  0.00000000000E+00  0.67274488397E+03  0.67274488399E+03  0.50400001928E-02 0.  1.
       -1   -1    0    0    0  501  0.00000000000E+00  0.00000000000E+00 -0.83909485451E+03  0.83909485452E+03  0.50400001928E-02 0. -1.
    10030    2    1    2    0    0  0.00000000000E+00  0.00000000000E+00 -0.16634997054E+03  0.15118397385E+04  0.15026600022E+04 0.  0.
        3    1    3    3  502    0 -0.34913971814E+03  0.44474912759E+03  0.41461662292E+03  0.70114711971E+03  0.10100000352E+00 0.  1.
       -3    1    3    3    0  502  0.34913971814E+03 -0.44474912759E+03 -0.58096659345E+03  0.81069261880E+03  0.10100000352E+00 0. -1.
</event>
<event>
 5   0  0.2696040E-04  0.1479201E+04  0.7818609E-02  0.8898403E-01
       -2   -1    0    0    0  501  0.00000000000E+00  0.00000000000E+00  0.28989333280E+03  0.28989333281E+03  0.25500000920E-02 0.  1.
        2   -1    0    0  501    0  0.00000000000E+00  0.00000000000E+00 -0.18869323635E+04  0.18869323635E+04  0.25500000920E-02 0. -1.
    10030    2    1    2    0    0  0.00000000000E+00  0.00000000000E+00 -0.15970390307E+04  0.21768256963E+04  0.14792012867E+04 0.  0.
        2    1    3    3  502    0  0.98023392422E+02  0.61067224818E+03 -0.13953525285E+04  0.15262823654E+04  0.25500000920E-02 0. -1.
       -2    1    3    3    0  502 -0.98023392422E+02 -0.61067224818E+03 -0.20168650215E+03  0.65054333085E+03  0.25500000920E-02 0.  1.
</event>
<event>
 5   0  0.1484251E-04  0.1506168E+04  0.7818609E-02  0.8880362E-01
       -1   -1    0    0    0  501  0.00000000000E+00  0.00000000000E+00  0.57925208512E+03  0.57925208514E+03  0.50400001928E-02 0. -1.
        1   -1    0    0  501    0  0.00000000000E+00  0.00000000000E+00 -0.97908210913E+03  0.97908210914E+03  0.50400001928E-02 0.  1.
    10030    2    1    2    0    0  0.00000000000E+00  0.00000000000E+00 -0.39983002401E+03  0.15583341943E+04  0.15061677904E+04 0.  0.
        5    1    3    3  502    0  0.31422457274E+03  0.68408514298E+03 -0.22070315508E+03  0.78450082066E+03  0.46999998093E+01 0.  1.
       -5    1    3    3    0  502 -0.31422457274E+03 -0.68408514298E+03 -0.17912686893E+03  0.77383337362E+03  0.46999998093E+01 0. -1.
</event>
<event>
 5   0  0.2646718E-04  0.1493498E+04  0.7818609E-02  0.8888788E-01
       -2   -1    0    0    0  501  0.00000000000E+00  0.00000000000E+00  0.18768623167E+04  0.18768623167E+04  0.25500000920E-02 0.  1.
        2   -1    0    0  501    0  0.00000000000E+00  0.00000000000E+00 -0.29710967296E+03  0.29710967297E+03  0.25500000920E-02 0. -1.
    10030    2    1    2    0    0  0.00000000000E+00  0.00000000000E+00  0.15797526437E+04  0.21739719896E+04  0.14934978394E+04 0.  0.
        3    1    3    3  502    0 -0.69188101422E+03 -0.37212792840E+01  0.38095010374E+03  0.78983300608E+03  0.10100000352E+00 0.  1.
       -3    1    3    3    0  502  0.69188101422E+03  0.37212792840E+01  0.11988025400E+04  0.13841389835E+04  0.10100000352E+00 0. -1.
</event>
<event>
 5   0  0.2646718E-04  0.1493951E+04  0.7818609E-02  0.8888486E-01
        2   -1    0    0  501    0  0.00000000000E+00  0.00000000000E+00  0.21619642126E+04  0.21619642126E+04  0.25500000920E-02 0. -1.
       -2   -1    0    0    0  501  0.00000000000E+00  0.00000000000E+00 -0.25808569618E+03  0.25808569620E+03  0.25500000920E-02 0.  1.
    10030    2    1    2    0    0  0.00000000000E+00  0.00000000000E+00  0.19038785164E+04  0.24200499088E+04  0.14939505199E+04 0.  0.
        3    1    3    3  502    0 -0.41549261461E+03 -0.44683985672E+03  0.25392967559E+03  0.66089353204E+03  0.10100000352E+00 0.  1.
       -3    1    3    3    0  502  0.41549261461E+03  0.44683985672E+03  0.16499488409E+04  0.17591563768E+04  0.10100000352E+00 0. -1.
</event>
<event>
 5   0  0.2696040E-04  0.1500390E+04  0.7818609E-02  0.8884194E-01
       -2   -1    0    0    0  501  0.00000000000E+00  0.00000000000E+00  0.43499341382E+03  0.43499341383E+03  0.25500000920E-02 0.  1.
        2   -1    0    0  501    0  0.00000000000E+00  0.00000000000E+00 -0.12937948417E+04  0.12937948417E+04  0.25500000920E-02 0. -1.
    10030    2    1    2    0    0  0.00000000000E+00  0.00000000000E+00 -0.85880142792E+03  0.17287882556E+04  0.15003895961E+04 0.  0.
        2    1    3    3  502    0  0.30073700279E+03 -0.46366225217E+02  0.36069356374E+03  0.47190297585E+03  0.25500000920E-02 0.  1.
       -2    1    3    3    0  502 -0.30073700279E+03  0.46366225217E+02 -0.12194949917E+04  0.12568852797E+04  0.25500000920E-02 0. -1.
</event>
<event>
 5   0  0.1427609E-04  0.1497947E+04  0.7818609E-02  0.8885819E-01
       -1   -1    0    0    0  501  0.00000000000E+00  0.00000000000E+00  0.75380090392E+03  0.75380090394E+03  0.50400001928E-02 0. -1.
        1   -1    0    0  501    0  0.00000000000E+00  0.00000000000E+00 -0.74417701292E+03  0.74417701294E+03  0.50400001928E-02 0.  1.
    10030    2    1    2    0    0  0.00000000000E+00  0.00000000000E+00  0.96238910017E+01  0.14979779169E+04  0.14979470018E+04 0.  0.
        4    1    3    3  502    0 -0.10002811813E+03  0.68665600399E+03  0.28670000785E+03  0.75079997311E+03  0.12699999809E+01 0. -1.
       -4    1    3    3    0  502  0.10002811813E+03 -0.68665600399E+03 -0.27707611684E+03  0.74717794377E+03  0.12699999809E+01 0.  1.
</event>
<event>
 5   0  0.2618901E-04  0.1499159E+04  0.7818609E-02  0.8885012E-01
       -2   -1    0    0    0  501  0.00000000000E+00  0.00000000000E+00  0.42237311642E+03  0.42237311643E+03  0.25500000920E-02 0. -1.
        2   -1    0    0  501    0  0.00000000000E+00  0.00000000000E+00 -0.13302683653E+04  0.13302683653E+04  0.25500000920E-02 0.  1.
    10030    2    1    2    0    0  0.00000000000E+00  0.00000000000E+00 -0.90789524885E+03  0.17526414817E+04  0.14991592245E+04 0.  0.
        1    1    3    3  502    0 -0.45308627148E+03  0.35045373514E+03 -0.10191899860E+04  0.11691249794E+04  0.50400001928E-02 0.  1.
       -1    1    3    3    0  502  0.45308627148E+03 -0.35045373514E+03  0.11129473718E+03  0.58351650227E+03  0.50400001928E-02 0. -1.
</event>
<event>
 5   0  0.2696040E-04  0.1509441E+04  0.7818609E-02  0.8878199E-01
       -2   -1    0    0    0  501  0.00000000000E+00  0.00000000000E+00  0.66782835238E+03  0.66782835238E+03  0.25500000920E-02 0.  1.
        2   -1    0    0  501    0  0.00000000000E+00  0.00000000000E+00 -0.85291818030E+03  0.85291818031E+03  0.25500000920E-02 0. -1.
    10030    2    1    2    0    0  0.00000000000E+00  0.00000000000E+00 -0.18508982793E+03  0.15207465327E+04  0.15094408807E+04 0.  0.
        2    1    3    3  502    0  0.65479074216E+03 -0.33736320262E+03  0.73119330574E+02  0.74021029648E+03  0.25500000920E-02 0.  1.
       -2    1    3    3    0  502 -0.65479074216E+03  0.33736320262E+03 -0.25820915850E+03  0.78053623621E+03  0.25500000920E-02 0. -1.
</event>
<event>
 5   0  0.2618901E-04  0.1509097E+04  0.7818609E-02  0.8878426E-01
       -2   -1    0    0    0  501  0.00000000000E+00  0.00000000000E+00  0.33659684553E+03  0.33659684554E+03  0.25500000920E-02 0.  1.
        2   -1    0    0  501    0  0.00000000000E+00  0.00000000000E+00 -0.16914696550E+04  0.16914696550E+04  0.25500000920E-02 0. -1.
    10030    2    1    2    0    0  0.00000000000E+00  0.00000000000E+00 -0.13548728094E+04  0.20280665005E+04  0.15090968825E+04 0.  0.
        1    1    3    3  502    0  0.33206581410E+03 -0.43127065876E+03 -0.13797175712E+04  0.14832001424E+04  0.50400001928E-02 0. -1.
       -1    1    3    3    0  502 -0.33206581410E+03  0.43127065876E+03  0.24844761794E+02  0.54486635812E+03  0.50400001928E-02 0.  1.
</event>
<event>
 5   0  0.2646718E-04  0.1502619E+04  0.7818609E-02  0.8882713E-01
        2   -1    0    0  501    0  0.00000000000E+00  0.00000000000E+00  0.94282733972E+03  0.94282733972E+03  0.25500000920E-02 0.  1.
       -2   -1    0    0    0  501  0.00000000000E+00  0.00000000000E+00 -0.59869520231E+03  0.59869520231E+03  0.25500000920E-02 0. -1.
    10030    2    1    2    0    0  0.00000000000E+00  0.00000000000E+00  0.34413213741E+03  0.15415225420E+04  0.15026193196E+04 0.  0.
        3    1    3    3  502    0 -0.33538184089E+03 -0.25397295722E+03 -0.46653142781E+03  0.62819967011E+03  0.10100000352E+00 0. -1.
       -3    1    3    3    0  502  0.33538184089E+03  0.25397295722E+03  0.81066356522E+03  0.91332287192E+03  0.10100000352E+00 0.  1.
</event>
<event>
 5   0  0.1443750E-04  0.1505101E+04  0.7818609E-02  0.8881068E-01
       -1   -1    0    0    0  501  0.00000000000E+00  0.00000000000E+00  0.78294472677E+03  0.78294472679E+03  0.50400001928E-02 0.  1.
        1   -1    0    0  501    0  0.00000000000E+00  0.00000000000E+00 -0.72333652987E+03  0.72333652988E+03  0.50400001928E-02 0. -1.
    10030    2    1    2    0    0  0.00000000000E+00  0.00000000000E+00  0.59608196909E+02  0.15062812567E+04  0.15051013544E+04 0.  0.
        2    1    3    3  502    0 -0.54495803229E+03 -0.46962982085E+02  0.54707265583E+03  0.77361054117E+03  0.25500000920E-02 0.  1.
       -2    1    3    3    0  502  0.54495803229E+03  0.46962982085E+02 -0.48746445892E+03  0.73267071551E+03  0.25500000920E-02 0. -1.
</event>
<event>
 5   0  0.2618901E-04  0.1494105E+04  0.7818609E-02  0.8888383E-01
       -2   -1    0    0    0  501  0.00000000000E+00  0.00000000000E+00  0.75485583590E+03  0.75485583590E+03  0.25500000920E-02 0.  1.
        2   -1    0    0  501    0  0.00000000000E+00  0.00000000000E+00 -0.73932942598E+03  0.73932942598E+03  0.25500000920E-02 0. -1.
    10030    2    1    2    0    0  0.00000000000E+00  0.00000000000E+00  0.15526409919E+02  0.14941852619E+04  0.14941045905E+04 0.  0.
        1    1    3    3  502    0  0.74516218101E+03 -0.10262757143E+02 -0.44346533457E+02  0.74655114711E+03  0.50400001928E-02 0.  1.
       -1    1    3    3    0  502 -0.74516218101E+03  0.10262757143E+02  0.59872943376E+02  0.74763411477E+03  0.50400001928E-02 0. -1.
</event>
<event>
 5   0  0.2641347E-04  0.1495299E+04  0.7818609E-02  0.8887585E-01
       -2   -1    0    0    0  501  0.00000000000E+00  0.00000000000E+00  0.66551065206E+03  0.66551065207E+03  0.25500000920E-02 0.  1.
        2   -1    0    0  501    0  0.00000000000E+00  0.00000000000E+00 -0.83992571157E+03  0.83992571158E+03  0.25500000920E-02 0. -1.
    10030    2    1    2    0    0  0.00000000000E+00  0.00000000000E+00 -0.17441505951E+03  0.15054363636E+04  0.14952986431E+04 0.  0.
        4    1    3    3  502    0 -0.59580617481E+02 -0.36565419411E+03  0.56659886641E+03  0.67697025634E+03  0.12699999809E+01 0.  1.
       -4    1    3    3    0  502  0.59580617481E+02  0.36565419411E+03 -0.74101392592E+03  0.82846610731E+03  0.12699999809E+01 0. -1.
</event>
<event>
 5   0  0.1426929E-04  0.1498660E+04  0.7818609E-02  0.8885345E-01
       -1   -1    0    0    0  501  0.00000000000E+00  0.00000000000E+00  0.28010064578E+03  0.28010064583E+03  0.50400001928E-02 0. -1.
        1   -1    0    0  501    0  0.00000000000E+00  0.00000000000E+00 -0.20046202236E+04  0.20046202236E+04  0.50400001928E-02 0.  1.
    10030    2    1    2    0    0  0.00000000000E+00  0.00000000000E+00 -0.17245195778E+04  0.22847208695E+04  0.14986599604E+04 0.  0.
        1    1    3    3  502    0  0.33463765466E+03  0.25676524670E+03 -0.18064525444E+04  0.18550421955E+04  0.50400001928E-02 0.  1.
       -1    1    3    3    0  502 -0.33463765466E+03 -0.25676524670E+03  0.81932966560E+02  0.42967867397E+03  0.50400001928E-02 0. -1.
</event>
<event>
 5   0  0.1443750E-04  0.1497877E+04  0.7818609E-02  0.8885866E-01
       -1   -1    0    0    0  501  0.00000000000E+00  0.00000000000E+00  0.69724027757E+03  0.69724027759E+03  0.50400001928E-02 0.  1.
        1   -1    0    0  501    0  0.00000000000E+00  0.00000000000E+00 -0.80447046878E+03  0.80447046880E+03  0.50400001928E-02 0. -1.
    10030    2    1    2    0    0  0.00000000000E+00  0.00000000000E+00 -0.10723019121E+03  0.15017107464E+04  0.14978774489E+04 0.  0.
        2    1    3    3  502    0  0.24397299361E+03 -0.27280011330E+03 -0.70871404307E+03  0.79763294708E+03  0.25500000920E-02 0. -1.
       -2    1    3    3    0  502 -0.24397299361E+03  0.27280011330E+03  0.60148385186E+03  0.70407779931E+03  0.25500000920E-02 0.  1.
</event>
<event>
 5   0  0.1484251E-04  0.1424681E+04  0.7818609E-02  0.8936144E-01
        1   -1    0    0  501    0  0.00000000000E+00  0.00000000000E+00  0.10175966331E+04  0.10175966331E+04  0.50400001928E-02 0. -1.
       -1   -1    0    0    0  501  0.00000000000E+00  0.00000000000E+00 -0.49865448515E+03  0.49865448518E+03  0.50400001928E-02 0.  1.
    10030    2    1    2    0    0  0.00000000000E+00  0.00000000000E+00  0.51894214791E+03  0.15162511183E+04  0.14246811927E+04 0.  0.
        5    1    3    3  502    0  0.30361564999E+03 -0.45386043938E+03  0.74629385594E+03  0.92474232669E+03  0.46999998093E+01 0. -1.
       -5    1    3    3    0  502 -0.30361564999E+03  0.45386043938E+03 -0.22735170803E+03  0.59150879157E+03  0.46999998093E+01 0.  1.
</event>
<event>
 5   0  0.1004313E-04  0.1502592E+04  0.7818609E-02  0.8882731E-01
       -3   -1    0    0    0  501  0.00000000000E+00  0.00000000000E+00  0.23917392222E+04  0.23917392244E+04  0.10100000352E+00 0.  1.
        3   -1    0    0  501    0  0.00000000000E+00  0.00000000000E+00 -0.23599786951E+03  0.23599789113E+03  0.10100000352E+00 0. -1.
    10030    2    1    2    0    0  0.00000000000E+00  0.00000000000E+00  0.21557413527E+04  0.26277371155E+04  0.15025916173E+04 0.  0.
        4    1    3    3  502    0 -0.97593988362E+02  0.17384625344E+03  0.23446329147E+04  0.23530941809E+04  0.12699999809E+01 0.  1.
       -4    1    3    3    0  502  0.97593988362E+02 -0.17384625344E+03 -0.18889156204E+03  0.27464293457E+03  0.12699999809E+01 0. -1.
</event>
<event>
 5   0  0.1474203E-04  0.1504901E+04  0.7818609E-02  0.8881201E-01
       -1   -1    0    0    0  501  0.00000000000E+00  0.00000000000E+00  0.33185011775E+03  0.33185011778E+03  0.50400001928E-02 0. -1.
        1   -1    0    0  501    0  0.00000000000E+00  0.00000000000E+00 -0.17061360432E+04  0.17061360432E+04  0.50400001928E-02 0.  1.
    10030    2    1    2    0    0  0.00000000000E+00  0.00000000000E+00 -0.13742859255E+04  0.20379861610E+04  0.15049005906E+04 0.  0.
        3    1    3    3  502    0 -0.51662854033E+03  0.58329348873E+02  0.49482750490E+02  0.52226038948E+03  0.10100000352E+00 0. -1.
       -3    1    3    3    0  502  0.51662854033E+03 -0.58329348873E+02 -0.14237686760E+04  0.15157257715E+04  0.10100000352E+00 0.  1.
</event>
<event>
 5   0  0.2641347E-04  0.1501078E+04  0.7818609E-02  0.8883736E-01
       -2   -1    0    0    0  501  0.00000000000E+00  0.00000000000E+00  0.34845879257E+03  0.34845879258E+03  0.25500000920E-02 0. -1.
        2   -1    0    0  501    0  0.00000000000E+00  0.00000000000E+00 -0.16165726170E+04  0.16165726170E+04  0.25500000920E-02 0.  1.
    10030    2    1    2    0    0  0.00000000000E+00  0.00000000000E+00 -0.12681138244E+04  0.19650314096E+04  0.15010782021E+04 0.  0.
        4    1    3    3  502    0  0.30707075626E+03 -0.30743946749E+03 -0.14351623601E+04  0.14995012798E+04  0.12699999809E+01 0.  1.
       -4    1    3    3    0  502 -0.30707075626E+03  0.30743946749E+03  0.16704853568E+03  0.46553012974E+03  0.12699999809E+01 0. -1.
</event>
<event>
 5   0  0.1426929E-04  0.1500646E+04  0.7818609E-02  0.8884024E-01
       -1   -1    0    0    0  501  0.00000000000E+00  0.00000000000E+00  0.62691924385E+03  0.62691924387E+03  0.50400001928E-02 0.  1.
        1   -1    0    0  501    0  0.00000000000E+00  0.00000000000E+00 -0.89801725405E+03  0.89801725406E+03  0.50400001928E-02 0. -1.
    10030    2    1    2    0    0  0.00000000000E+00  0.00000000000E+00 -0.27109801019E+03  0.15249364979E+04  0.15006455916E+04 0.  0.
        1    1    3    3  502    0 -0.21710557432E+03 -0.31987026567E+03  0.51792517950E+03  0.64629583694E+03  0.50400001928E-02 0.  1.
       -1    1    3    3    0  502  0.21710557432E+03  0.31987026567E+03 -0.78902318969E+03  0.87864066100E+03  0.50400001928E-02 0. -1.
</event>
<event>
 5   0  0.2734072E-04  0.1497605E+04  0.7818609E-02  0.8886047E-01
        2   -1    0    0  501    0  0.00000000000E+00  0.00000000000E+00  0.15260023241E+04  0.15260023241E+04  0.25500000920E-02 0. -1.
       -2   -1    0    0    0  501  0.00000000000E+00  0.00000000000E+00 -0.36743395707E+03  0.36743395708E+03  0.25500000920E-02 0.  1.
    10030    2    1    2    0    0  0.00000000000E+00  0.00000000000E+00  0.11585683671E+04  0.18934362812E+04  0.14976048510E+04 0.  0.
        5    1    3    3  502    0  0.55014403161E+03  0.46473657530E+03  0.32004075543E+03  0.78809055004E+03  0.46999998093E+01 0. -1.
       -5    1    3    3    0  502 -0.55014403161E+03 -0.46473657530E+03  0.83852761164E+03  0.11053457312E+04  0.46999998093E+01 0.  1.
</event>
<event>
 5   0  0.2734072E-04  0.1500066E+04  0.7818609E-02  0.8884409E-01
        2   -1    0    0  501    0  0.00000000000E+00  0.00000000000E+00  0.70837199597E+03  0.70837199597E+03  0.25500000920E-02 0.  1.
       -2   -1    0    0    0  501  0.00000000000E+00  0.00000000000E+00 -0.79414429871E+03  0.79414429872E+03  0.25500000920E-02 0. -1.
    10030    2    1    2    0    0  0.00000000000E+00  0.00000000000E+00 -0.85772302746E+02  0.15025162947E+04  0.15000661078E+04 0.  0.
        5    1    3    3  502    0  0.53085366556E+03  0.21602124858E+03 -0.52747043938E+03  0.77892101556E+03  0.46999998093E+01 0.  1.
       -5    1    3    3    0  502 -0.53085366556E+03 -0.21602124858E+03  0.44169813663E+03  0.72359527912E+03  0.46999998093E+01 0. -1.
</event>
<event>
 5   0  0.2734072E-04  0.1501891E+04  0.7818609E-02  0.8883197E-01
        2   -1    0    0  501    0  0.00000000000E+00  0.00000000000E+00  0.59868591356E+03  0.59868591356E+03  0.25500000920E-02 0.  1.
       -2   -1    0    0    0  501  0.00000000000E+00  0.00000000000E+00 -0.94192769290E+03  0.94192769291E+03  0.25500000920E-02 0. -1.
    10030    2    1    2    0    0  0.00000000000E+00  0.00000000000E+00 -0.34324177935E+03  0.15406136065E+04  0.15018905970E+04 0.  0.
        5    1    3    3  502    0  0.27340862322E+03 -0.11052957416E+03  0.53678424361E+03  0.61247732709E+03  0.46999998093E+01 0.  1.
       -5    1    3    3    0  502 -0.27340862322E+03  0.11052957416E+03 -0.88002602296E+03  0.92813627938E+03  0.46999998093E+01 0. -1.
</event>
<event>
 5   0  0.2696040E-04  0.1508169E+04  0.7818609E-02  0.8879039E-01
       -2   -1    0    0    0  501  0.00000000000E+00  0.00000000000E+00  0.10220226934E+04  0.10220226935E+04  0.25500000920E-02 0.  1.
        2   -1    0    0  501    0  0.00000000000E+00  0.00000000000E+00 -0.55639048033E+03  0.55639048034E+03  0.25500000920E-02 0. -1.
    10030    2    1    2    0    0  0.00000000000E+00  0.00000000000E+00  0.46563221311E+03  0.15784131738E+04  0.15081693503E+04 0.  0.
        2    1    3    3  502    0  0.44278929928E+02  0.29459443336E+03 -0.49219505305E+03  0.57532814468E+03  0.25500000920E-02 0. -1.
       -2    1    3    3    0  502 -0.44278929928E+02 -0.29459443336E+03  0.95782726617E+03  0.10030850291E+04  0.25500000920E-02 0.  1.
</event>
<event>
 5   0  0.1427609E-04  0.1501801E+04  0.7818609E-02  0.8883256E-01
        1   -1    0    0  501    0  0.00000000000E+00  0.00000000000E+00  0.10709468844E+04  0.10709468845E+04  0.50400001928E-02 0. -1.
       -1   -1    0    0    0  501  0.00000000000E+00  0.00000000000E+00 -0.52649805124E+03  0.52649805127E+03  0.50400001928E-02 0.  1.
    10030    2    1    2    0    0  0.00000000000E+00  0.00000000000E+00  0.54444883320E+03  0.15974449357E+04  0.15018008492E+04 0.  0.
        4    1    3    3  502    0 -0.64464508509E+03 -0.25853356885E+03  0.57578143625E+03  0.90218222504E+03  0.12699999809E+01 0. -1.
       -4    1    3    3    0  502  0.64464508509E+03  0.25853356885E+03 -0.31332603046E+02  0.69526271068E+03  0.12699999809E+01 0.  1.
</event>
<event>
 5   0  0.2618901E-04  0.1504259E+04  0.7818609E-02  0.8881626E-01
        2   -1    0    0  501    0  0.00000000000E+00  0.00000000000E+00  0.14110413299E+04  0.14110413299E+04  0.25500000920E-02 0.  1.
       -2   -1    0    0    0  501  0.00000000000E+00  0.00000000000E+00 -0.40090873403E+03  0.40090873403E+03  0.25500000920E-02 0. -1.
    10030    2    1    2    0    0  0.00000000000E+00  0.00000000000E+00  0.10101325959E+04  0.18119500639E+04  0.15042590113E+04 0.  0.
        1    1    3    3  502    0  0.11110217940E+03 -0.11514251547E+03 -0.38017080043E+03  0.41246979364E+03  0.50400001928E-02 0. -1.
       -1    1    3    3    0  502 -0.11110217940E+03  0.11514251547E+03  0.13903033963E+04  0.13994802703E+04  0.50400001928E-02 0.  1.
</event>
<event>
 5   0  0.2734072E-04  0.1500941E+04  0.7818609E-02  0.8883827E-01
       -2   -1    0    0    0  501  0.00000000000E+00  0.00000000000E+00  0.34332708637E+03  0.34332708638E+03  0.25500000920E-02 0. -1.
        2   -1    0    0  501    0  0.00000000000E+00  0.00000000000E+00 -0.16404357601E+04  0.16404357601E+04  0.25500000920E-02 0.  1.
    10030    2    1    2    0    0  0.00000000000E+00  0.00000000000E+00 -0.12971086737E+04  0.19837628465E+04  0.15009410780E+04 0.  0.
        5    1    3    3  502    0 -0.76402991543E+02  0.74327305530E+03 -0.74099338948E+03  0.10523238784E+04  0.46999998093E+01 0. -1.
       -5    1    3    3    0  502  0.76402991543E+02 -0.74327305530E+03 -0.55611528424E+03  0.93143896805E+03  0.46999998093E+01 0.  1.
</event>
<event>
 5   0  0.2641347E-04  0.1498807E+04  0.7818609E-02  0.8885247E-01
       -2   -1    0    0    0  501  0.00000000000E+00  0.00000000000E+00  0.42387831160E+03  0.42387831161E+03  0.25500000920E-02 0.  1.
        2   -1    0    0  501    0  0.00000000000E+00  0.00000000000E+00 -0.13249210119E+04  0.13249210119E+04  0.25500000920E-02 0. -1.
    10030    2    1    2    0    0  0.00000000000E+00  0.00000000000E+00 -0.90104270032E+03  0.17487993235E+04  0.14988065673E+04 0.  0.
        4    1    3    3  502    0 -0.61540319786E+03 -0.39398018629E+03 -0.25646063208E+03  0.77441277872E+03  0.12699999809E+01 0.  1.
       -4    1    3    3    0  502  0.61540319786E+03  0.39398018629E+03 -0.64458206823E+03  0.97438654482E+03  0.12699999809E+01 0. -1.
</event>
<event>
 5   0  0.2646718E-04  0.1503471E+04  0.7818609E-02  0.8882148E-01
        2   -1    0    0  501    0  0.00000000000E+00  0.00000000000E+00  0.93902236368E+03  0.93902236368E+03  0.25500000920E-02 0.  1.
       -2   -1    0    0    0  501  0.00000000000E+00  0.00000000000E+00 -0.60180314413E+03  0.60180314413E+03  0.25500000920E-02 0. -1.
    10030    2    1    2    0    0  0.00000000000E+00  0.00000000000E+00  0.33721921955E+03  0.15408255078E+04  0.15034714641E+04 0.  0.
        3    1    3    3  502    0  0.71519413669E+03  0.20497865728E+03  0.58288951130E+02  0.74626839349E+03  0.10100000352E+00 0. -1.
       -3    1    3    3    0  502 -0.71519413669E+03 -0.20497865728E+03  0.27893026842E+03  0.79455711433E+03  0.10100000352E+00 0.  1.
</event>
<event>
 5   0  0.2734072E-04  0.1504860E+04  0.7818609E-02  0.8881228E-01
       -2   -1    0    0    0  501  0.00000000000E+00  0.00000000000E+00  0.55864840354E+03  0.55864840355E+03  0.25500000920E-02 0.  1.
        2   -1    0    0  501    0  0.00000000000E+00  0.00000000000E+00 -0.10134291614E+04  0.10134291614E+04  0.25500000920E-02 0. -1.
    10030    2    1    2    0    0  0.00000000000E+00  0.00000000000E+00 -0.45478075787E+03  0.15720775650E+04  0.15048595724E+04 0.  0.
        5    1    3    3  502    0  0.55485447415E+03  0.49736945731E+03 -0.33639993900E+03  0.81757377251E+03  0.46999998093E+01 0.  1.
       -5    1    3    3    0  502 -0.55485447415E+03 -0.49736945731E+03 -0.11838081887E+03  0.75450379245E+03  0.46999998093E+01 0. -1.
</event>
<event>
 5   0  0.1427609E-04  0.1501928E+04  0.7818609E-02  0.8883172E-01
        1   -1    0    0  501    0  0.00000000000E+00  0.00000000000E+00  0.67952321623E+03  0.67952321625E+03  0.50400001928E-02 0.  1.
       -1   -1    0    0    0  501  0.00000000000E+00  0.00000000000E+00 -0.82991585422E+03  0.82991585423E+03  0.50400001928E-02 0. -1.
    10030    2    1    2    0    0  0.00000000000E+00  0.00000000000E+00 -0.15039263799E+03  0.15094390705E+04  0.15019282146E+04 0.  0.
        4    1    3    3  502    0  0.41723158072E+03 -0.22512011971E+03 -0.66050400776E+03  0.81303654125E+03  0.12699999809E+01 0. -1.
       -4    1    3    3    0  502 -0.41723158072E+03  0.22512011971E+03  0.51011136977E+03  0.69640252923E+03  0.12699999809E+01 0.  1.
</event>
<event>
 5   0  0.1474203E-04  0.1501368E+04  0.7818609E-02  0.8883544E-01
        1   -1    0    0  501    0  0.00000000000E+00  0.00000000000E+00  0.16483963376E+04  0.16483963377E+04  0.50400001928E-02 0. -1.
       -1   -1    0    0    0  501  0.00000000000E+00  0.00000000000E+00 -0.34186331255E+03  0.34186331259E+03  0.50400001928E-02 0.  1.
    10030    2    1    2    0    0  0.00000000000E+00  0.00000000000E+00  0.13065330251E+04  0.19902596502E+04  0.15013676864E+04 0.  0.
        3    1    3    3  502    0 -0.49569951467E+03 -0.51140422868E+03  0.33879863441E+03  0.78869310815E+03  0.10100000352E+00 0. -1.
       -3    1    3    3    0  502  0.49569951467E+03  0.51140422868E+03  0.96773439069E+03  0.12015665421E+04  0.10100000352E+00 0.  1.
</event>
<event>
 5   0  0.1484251E-04  0.1499536E+04  0.7818609E-02  0.8884761E-01
        1   -1    0    0  501    0  0.00000000000E+00  0.00000000000E+00  0.50291002035E+03  0.50291002037E+03  0.50400001928E-02 0. -1.
       -1   -1    0    0    0  501  0.00000000000E+00  0.00000000000E+00 -0.11177986395E+04  0.11177986395E+04  0.50400001928E-02 0.  1.
    10030    2    1    2    0    0  0.00000000000E+00  0.00000000000E+00 -0.61488861912E+03  0.16207086599E+04  0.14995361103E+04 0.  0.
        5    1    3    3  502    0 -0.45857872942E+03 -0.25222885192E+03  0.27279509591E+03  0.59021445185E+03  0.46999998093E+01 0. -1.
       -5    1    3    3    0  502  0.45857872942E+03  0.25222885192E+03 -0.88768371503E+03  0.10304942080E+04  0.46999998093E+01 0.  1.
</event>
<event>
 5   0  0.2618901E-04  0.1496489E+04  0.7818609E-02  0.8886791E-01
        2   -1    0    0  501    0  0.00000000000E+00  0.00000000000E+00  0.13138343229E+04  0.13138343229E+04  0.25500000920E-02 0.  1.
       -2   -1    0    0    0  501  0.00000000000E+00  0.00000000000E+00 -0.42613410932E+03  0.42613410933E+03  0.25500000920E-02 0. -1.
    10030    2    1    2    0    0  0.00000000000E+00  0.00000000000E+00  0.88770021359E+03  0.17399684322E+04  0.14964887156E+04 0.  0.
        1    1    3    3  502    0  0.44787553591E+03  0.19449982824E+03 -0.21535804728E+03  0.53366821847E+03  0.50400001928E-02 0. -1.
       -1    1    3    3    0  502 -0.44787553591E+03 -0.19449982824E+03  0.11030582609E+04  0.12063002138E+04  0.50400001928E-02 0.  1.
</event>
<event>
 5   0  0.2734072E-04  0.1500598E+04  0.7818609E-02  0.8884055E-01
        2   -1    0    0  501    0  0.00000000000E+00  0.00000000000E+00  0.73163583083E+03  0.73163583083E+03  0.25500000920E-02 0.  1.
       -2   -1    0    0    0  501  0.00000000000E+00  0.00000000000E+00 -0.76943868841E+03  0.76943868841E+03  0.25500000920E-02 0. -1.
    10030    2    1    2    0    0  0.00000000000E+00  0.00000000000E+00 -0.37802857579E+02  0.15010745192E+04  0.15005984327E+04 0.  0.
        5    1    3    3  502    0  0.13705432938E+03 -0.70911637132E+03 -0.22218230598E+03  0.75565665773E+03  0.46999998093E+01 0. -1.
       -5    1    3    3    0  502 -0.13705432938E+03  0.70911637132E+03  0.18437944840E+03  0.74541786152E+03  0.46999998093E+01 0.  1.
</event>
<event>
 5   0  0.1484251E-04  0.1535998E+04  0.7818609E-02  0.8860862E-01
        1   -1    0    0  501    0  0.00000000000E+00  0.00000000000E+00  0.79660003168E+03  0.79660003170E+03  0.50400001928E-02 0. -1.
       -1   -1    0    0    0  501  0.00000000000E+00  0.00000000000E+00 -0.74042437665E+03  0.74042437667E+03  0.50400001928E-02 0.  1.
    10030    2    1    2    0    0  0.00000000000E+00  0.00000000000E+00  0.56175655031E+02  0.15370244084E+04  0.15359975025E+04 0.  0.
        5    1    3    3  502    0  0.30495367438E+02 -0.73078426627E+03 -0.20621478001E+03  0.75994883825E+03  0.46999998093E+01 0.  1.
       -5    1    3    3    0  502 -0.30495367438E+02  0.73078426627E+03  0.26239043504E+03  0.77707557011E+03  0.46999998093E+01 0. -1.
</event>
<event>
 5   0  0.1426929E-04  0.1500842E+04  0.7818609E-02  0.8883893E-01
        1   -1    0    0  501    0  0.00000000000E+00  0.00000000000E+00  0.12447462846E+04  0.12447462846E+04  0.50400001928E-02 0. -1.
       -1   -1    0    0    0  501  0.00000000000E+00  0.00000000000E+00 -0.45240700716E+03  0.45240700718E+03  0.50400001928E-02 0.  1.
    10030    2    1    2    0    0  0.00000000000E+00  0.00000000000E+00  0.79233927740E+03  0.16971532918E+04  0.15008423519E+04 0.  0.
        1    1    3    3  502    0 -0.45783000006E+02  0.49728091052E+03  0.10295668820E+04  0.11442868310E+04  0.50400001928E-02 0. -1.
       -1    1    3    3    0  502  0.45783000006E+02 -0.49728091052E+03 -0.23722760457E+03  0.55286646078E+03  0.50400001928E-02 0.  1.
</event>
<event>
 5   0  0.2641347E-04  0.1499762E+04  0.7818609E-02  0.8884611E-01
        2   -1    0    0  501    0  0.00000000000E+00  0.00000000000E+00  0.19461409560E+04  0.19461409560E+04  0.25500000920E-02 0. -1.
       -2   -1    0    0    0  501  0.00000000000E+00  0.00000000000E+00 -0.28894179375E+03  0.28894179376E+03  0.25500000920E-02 0.  1.
    10030    2    1    2    0    0  0.00000000000E+00  0.00000000000E+00  0.16571991623E+04  0.22350827498E+04  0.14997619261E+04 0.  0.
        4    1    3    3  502    0 -0.40985109100E+03  0.42715004836E+03  0.14260426829E+03  0.60891105331E+03  0.12699999809E+01 0.  1.
       -4    1    3    3    0  502  0.40985109100E+03 -0.42715004836E+03  0.15145948940E+04  0.16261716965E+04  0.12699999809E+01 0. -1.
</event>
<event>
 5   0  0.1426929E-04  0.1486925E+04  0.7818609E-02  0.8893195E-01
       -1   -1    0    0    0  501  0.00000000000E+00  0.00000000000E+00  0.68480225790E+03  0.68480225792E+03  0.50400001928E-02 0.  1.
        1   -1    0    0  501    0  0.00000000000E+00  0.00000000000E+00 -0.80714745581E+03  0.80714745583E+03  0.50400001928E-02 0. -1.
    10030    2    1    2    0    0  0.00000000000E+00  0.00000000000E+00 -0.12234519791E+03  0.14919497137E+04  0.14869248807E+04 0.  0.
        1    1    3    3  502    0  0.57858558558E+03 -0.75998529819E+02 -0.52338029790E+03  0.78387753676E+03  0.50400001928E-02 0. -1.
       -1    1    3    3    0  502 -0.57858558558E+03  0.75998529819E+02  0.40103509999E+03  0.70807217699E+03  0.50400001928E-02 0.  1.
</event>
<event>
 5   0  0.2641347E-04  0.1498654E+04  0.7818609E-02  0.8885348E-01
        2   -1    0    0  501    0  0.00000000000E+00  0.00000000000E+00  0.83515624021E+03  0.83515624021E+03  0.25500000920E-02 0.  1.
       -2   -1    0    0    0  501  0.00000000000E+00  0.00000000000E+00 -0.67231854261E+03  0.67231854261E+03  0.25500000920E-02 0. -1.
    10030    2    1    2    0    0  0.00000000000E+00  0.00000000000E+00  0.16283769760E+03  0.15074747828E+04  0.14986540979E+04 0.  0.
        4    1    3    3  502    0 -0.54120726898E+03 -0.71767471102E+02  0.59769751647E+03  0.80950590610E+03  0.12699999809E+01 0.  1.
       -4    1    3    3    0  502  0.54120726898E+03  0.71767471102E+02 -0.43485981887E+03  0.69796887673E+03  0.12699999809E+01 0. -1.
</event>
<event>
 5   0  0.2618901E-04  0.1489269E+04  0.7818609E-02  0.8891620E-01
        2   -1    0    0  501    0  0.00000000000E+00  0.00000000000E+00  0.13373339081E+04  0.13373339081E+04  0.25500000920E-02 0. -1.
       -2   -1    0    0    0  501  0.00000000000E+00  0.00000000000E+00 -0.41461635083E+03  0.41461635084E+03  0.25500000920E-02 0.  1.
    10030    2    1    2    0    0  0.00000000000E+00  0.00000000000E+00  0.92271755722E+03  0.17519502589E+04  0.14892689546E+04 0.  0.
        1    1    3    3  502    0 -0.46301170120E+03  0.53942034891E+03  0.20061982811E+03  0.73864908023E+03  0.50400001928E-02 0.  1.
       -1    1    3    3    0  502  0.46301170120E+03 -0.53942034891E+03  0.72209772911E+03  0.10133011787E+04  0.50400001928E-02 0. -1.
</event>
<event>
 5   0  0.1004313E-04  0.1499578E+04  0.7818609E-02  0.8884734E-01
        4   -1    0    0  501    0  0.00000000000E+00  0.00000000000E+00  0.87122237486E+03  0.87122330052E+03  0.12699999809E+01 0. -1.
       -4   -1    0    0    0  501  0.00000000000E+00  0.00000000000E+00 -0.64527950826E+03  0.64528075803E+03  0.12699999809E+01 0.  1.
    10030    2    1    2    0    0  0.00000000000E+00  0.00000000000E+00  0.22594286660E+03  0.15165040585E+04  0.14995780675E+04 0.  0.
        2    1    3    3  502    0 -0.60704431761E+03  0.24656620538E+03  0.48162118418E+03  0.81317689480E+03  0.25500000920E-02 0. -1.
       -2    1    3    3    0  502  0.60704431761E+03 -0.24656620538E+03 -0.25567831758E+03  0.70332716375E+03  0.25500000920E-02 0.  1.
</event>
<event>
 5   0  0.1426929E-04  0.1502181E+04  0.7818609E-02  0.8883004E-01
       -1   -1    0    0    0  501  0.00000000000E+00  0.00000000000E+00  0.52401922584E+03  0.52401922586E+03  0.50400001928E-02 0. -1.
        1   -1    0    0  501    0  0.00000000000E+00  0.00000000000E+00 -0.10765570075E+04  0.10765570075E+04  0.50400001928E-02 0.  1.
    10030    2    1    2    0    0  0.00000000000E+00  0.00000000000E+00 -0.55253778165E+03  0.16005762334E+04  0.15021805080E+04 0.  0.
        1    1    3    3  502    0 -0.53866447677E+03 -0.46421987097E+03 -0.18608882951E+02  0.71134084494E+03  0.50400001928E-02 0. -1.
       -1    1    3    3    0  502  0.53866447677E+03  0.46421987097E+03 -0.53392889870E+03  0.88923538843E+03  0.50400001928E-02 0.  1.
</event>
<event>
 5   0  0.1004313E-04  0.1497356E+04  0.7818609E-02  0.8886213E-01
        3   -1    0    0  501    0  0.00000000000E+00  0.00000000000E+00  0.13248495109E+04  0.13248495148E+04  0.10100000352E+00 0. -1.
       -3   -1    0    0    0  501  0.00000000000E+00  0.00000000000E+00 -0.42308079498E+03  0.42308080704E+03  0.10100000352E+00 0.  1.
    10030    2    1    2    0    0  0.00000000000E+00  0.00000000000E+00  0.90176871595E+03  0.17479303218E+04  0.14973555332E+04 0.  0.
        2    1    3    3  502    0  0.37479765383E+03  0.64120687144E+03  0.56100443117E+03  0.93077682884E+03  0.25500000920E-02 0. -1.
       -2    1    3    3    0  502 -0.37479765383E+03 -0.64120687144E+03  0.34076428478E+03  0.81715349298E+03  0.25500000920E-02 0.  1.
</event>
<event>
 5   0  0.2641347E-04  0.1585000E+04  0.7818609E-02  0.8829817E-01
        2   -1    0    0  501    0  0.00000000000E+00  0.00000000000E+00  0.10689035431E+04  0.10689035431E+04  0.25500000920E-02 0. -1.
       -2   -1    0    0    0  501  0.00000000000E+00  0.00000000000E+00 -0.58757043631E+03  0.58757043632E+03  0.25500000920E-02 0.  1.
    10030    2    1    2    0    0  0.00000000000E+00  0.00000000000E+00  0.48133310680E+03  0.16564739794E+04  0.15849998375E+04 0.  0.
        4    1    3    3  502    0  0.18932247075E+03 -0.44401911892E+01 -0.56357514947E+03  0.59454291286E+03  0.12699999809E+01 0.  1.
       -4    1    3    3    0  502 -0.18932247075E+03  0.44401911892E+01  0.10449082563E+04  0.10619310666E+04  0.12699999809E+01 0. -1.
</event>
<event>
 5   0  0.1427609E-04  0.1500283E+04  0.7818609E-02  0.8884265E-01
        1   -1    0    0  501    0  0.00000000000E+00  0.00000000000E+00  0.76135640244E+03  0.76135640246E+03  0.50400001928E-02 0.  1.
       -1   -1    0    0    0  501  0.00000000000E+00  0.00000000000E+00 -0.73909150794E+03  0.73909150796E+03  0.50400001928E-02 0. -1.
    10030    2    1    2    0    0  0.00000000000E+00  0.00000000000E+00  0.22264894501E+02  0.15004479104E+04  0.15002827088E+04 0.  0.
        4    1    3    3  502    0 -0.86913600249E+02  0.74372937274E+03 -0.33851221667E+02  0.74955645010E+03  0.12699999809E+01 0. -1.
       -4    1    3    3    0  502  0.86913600249E+02 -0.74372937274E+03  0.56116116167E+02  0.75089146032E+03  0.12699999809E+01 0.  1.
</event>
<event>
 5   0  0.2641347E-04  0.1500048E+04  0.7818609E-02  0.8884421E-01
       -2   -1    0    0    0  501  0.00000000000E+00  0.00000000000E+00  0.28497666013E+03  0.28497666014E+03  0.25500000920E-02 0.  1.
        2   -1    0    0  501    0  0.00000000000E+00  0.00000000000E+00 -0.19739734717E+04  0.19739734717E+04  0.25500000920E-02 0. -1.
    10030    2    1    2    0    0  0.00000000000E+00  0.00000000000E+00 -0.16889968116E+04  0.22589501318E+04  0.15000484888E+04 0.  0.
        4    1    3    3  502    0  0.50829981740E+03 -0.43005430153E+03 -0.13644641302E+04  0.15182487880E+04  0.12699999809E+01 0. -1.
       -4    1    3    3    0  502 -0.50829981740E+03  0.43005430153E+03 -0.32453268136E+03  0.74070134387E+03  0.12699999809E+01 0.  1.
</event>
<event>
 5   0  0.1443750E-04  0.1502841E+04  0.7818609E-02  0.8882566E-01
        1   -1    0    0  501    0  0.00000000000E+00  0.00000000000E+00  0.14418518826E+04  0.14418518826E+04  0.50400001928E-02 0.  1.
       -1   -1    0    0    0  501  0.00000000000E+00  0.00000000000E+00 -0.39160259860E+03  0.39160259864E+03  0.50400001928E-02 0. -1.
    10030    2    1    2    0    0  0.00000000000E+00  0.00000000000E+00  0.10502492840E+04  0.18334544812E+04  0.15028412345E+04 0.  0.
        2    1    3    3  502    0  0.13830671553E+03  0.67996354186E+03  0.87692641443E+03  0.11182482292E+04  0.25500000920E-02 0.  1.
       -2    1    3    3    0  502 -0.13830671553E+03 -0.67996354186E+03  0.17332286956E+03  0.71520625202E+03  0.25500000920E-02 0. -1.
</event>
<event>
 5   0  0.2618901E-04  0.1503428E+04  0.7818609E-02  0.8882177E-01
       -2   -1    0    0    0  501  0.00000000000E+00  0.00000000000E+00  0.64784098854E+03  0.64784098855E+03  0.25500000920E-02 0. -1.
        2   -1    0    0  501    0  0.00000000000E+00  0.00000000000E+00 -0.87224134200E+03  0.87224134200E+03  0.25500000920E-02 0.  1.
    10030    2    1    2    0    0  0.00000000000E+00  0.00000000000E+00 -0.22440035346E+03  0.15200823305E+04  0.15034276747E+04 0.  0.
        1    1    3    3  502    0 -0.54945637637E+03  0.40417649960E+03  0.20723119112E+03  0.71288548797E+03  0.50400001928E-02 0. -1.
       -1    1    3    3    0  502  0.54945637637E+03 -0.40417649960E+03 -0.43163154457E+03  0.80719684257E+03  0.50400001928E-02 0.  1.
</event>
<event>
 5   0  0.1426929E-04  0.1501080E+04  0.7818609E-02  0.8883735E-01
        1   -1    0    0  501    0  0.00000000000E+00  0.00000000000E+00  0.11707661539E+04  0.11707661539E+04  0.50400001928E-02 0.  1.
       -1   -1    0    0    0  501  0.00000000000E+00  0.00000000000E+00 -0.48114675063E+03  0.48114675066E+03  0.50400001928E-02 0. -1.
    10030    2    1    2    0    0  0.00000000000E+00  0.00000000000E+00  0.68961940329E+03  0.16519129046E+04  0.15010800521E+04 0.  0.
        1    1    3    3  502    0 -0.75573755337E+02 -0.66872290264E+03  0.71047586789E+03  0.97861007142E+03  0.50400001928E-02 0.  1.
       -1    1    3    3    0  502  0.75573755337E+02  0.66872290264E+03 -0.20856464598E+02  0.67330283317E+03  0.50400001928E-02 0. -1.
</event>
<event>
 5   0  0.1426929E-04  0.1512772E+04  0.7818609E-02  0.8876004E-01
        1   -1    0    0  501    0  0.00000000000E+00  0.00000000000E+00  0.82965133786E+03  0.82965133788E+03  0.50400001928E-02 0.  1.
       -1   -1    0    0    0  501  0.00000000000E+00  0.00000000000E+00 -0.68959052201E+03  0.68959052203E+03  0.50400001928E-02 0. -1.
    10030    2    1    2    0    0  0.00000000000E+00  0.00000000000E+00  0.14006081585E+03  0.15192418599E+04  0.15127718919E+04 0.  0.
        1    1    3    3  502    0  0.34272157535E+03 -0.14056473091E+03 -0.59226197757E+03  0.69856336283E+03  0.50400001928E-02 0. -1.
       -1    1    3    3    0  502 -0.34272157535E+03  0.14056473091E+03  0.73232279342E+03  0.82067849708E+03  0.50400001928E-02 0.  1.
</event>
<event>
 5   0  0.1474203E-04  0.1500012E+04  0.7818609E-02  0.8884445E-01
       -1   -1    0    0    0  501  0.00000000000E+00  0.00000000000E+00  0.75701893433E+03  0.75701893435E+03  0.50400001928E-02 0. -1.
        1   -1    0    0  501    0  0.00000000000E+00  0.00000000000E+00 -0.74305841158E+03  0.74305841160E+03  0.50400001928E-02 0.  1.
    10030    2    1    2    0    0  0.00000000000E+00  0.00000000000E+00  0.13960522754E+02  0.15000773459E+04  0.15000123825E+04 0.  0.
        3    1    3    3  502    0 -0.30430733974E+03  0.68462340864E+03 -0.27620485952E+02  0.74971665990E+03  0.10100000352E+00 0.  1.
       -3    1    3    3    0  502  0.30430733974E+03 -0.68462340864E+03  0.41581008705E+02  0.75036068605E+03  0.10100000352E+00 0. -1.
</event>
<event>
 5   0  0.2646718E-04  0.1499508E+04  0.7818609E-02  0.8884780E-01
        2   -1    0    0  501    0  0.00000000000E+00  0.00000000000E+00  0.17499478015E+04  0.17499478015E+04  0.25500000920E-02 0.  1.
       -2   -1    0    0    0  501  0.00000000000E+00  0.00000000000E+00 -0.32122750514E+03  0.32122750515E+03  0.25500000920E-02 0. -1.
    10030    2    1    2    0    0  0.00000000000E+00  0.00000000000E+00  0.14287202963E+04  0.20711753066E+04  0.14995084080E+04 0.  0.
        3    1    3    3  502    0 -0.23814302735E+03 -0.20493758149E+03  0.16546359659E+04  0.16842006127E+04  0.10100000352E+00 0.  1.
       -3    1    3    3    0  502  0.23814302735E+03  0.20493758149E+03 -0.22591566960E+03  0.38697469395E+03  0.10100000352E+00 0. -1.
</event>
<event>
 5   0  0.2696040E-04  0.1518092E+04  0.7818609E-02  0.8872510E-01
        2   -1    0    0  501    0  0.00000000000E+00  0.00000000000E+00  0.22670867982E+03  0.22670867984E+03  0.25500000920E-02 0.  1.
       -2   -1    0    0    0  501  0.00000000000E+00  0.00000000000E+00 -0.25413719383E+04  0.25413719383E+04  0.25500000920E-02 0. -1.
    10030    2    1    2    0    0  0.00000000000E+00  0.00000000000E+00 -0.23146632585E+04  0.27680806182E+04  0.15180923254E+04 0.  0.
        2    1    3    3  502    0  0.39153248244E+03  0.43901934820E+03 -0.28264317159E+03  0.65262763913E+03  0.25500000920E-02 0.  1.
       -2    1    3    3    0  502 -0.39153248244E+03 -0.43901934820E+03 -0.20320200869E+04  0.21154529790E+04  0.25500000920E-02 0. -1.
</event>
<event>
 5   0  0.1443750E-04  0.1514067E+04  0.7818609E-02  0.8875152E-01
        1   -1    0    0  501    0  0.00000000000E+00  0.00000000000E+00  0.12060782910E+04  0.12060782910E+04  0.50400001928E-02 0.  1.
       -1   -1    0    0    0  501  0.00000000000E+00  0.00000000000E+00 -0.47517612624E+03  0.47517612626E+03  0.50400001928E-02 0. -1.
    10030    2    1    2    0    0  0.00000000000E+00  0.00000000000E+00  0.73090216475E+03  0.16812544173E+04  0.15140668549E+04 0.  0.
        2    1    3    3  502    0  0.91546607548E+02 -0.20425295603E+03 -0.43759237374E+03  0.49151514419E+03  0.25500000920E-02 0. -1.
       -2    1    3    3    0  502 -0.91546607548E+02  0.20425295603E+03  0.11684945385E+04  0.11897392731E+04  0.25500000920E-02 0.  1.
</event>
<event>
 5   0  0.2618901E-04  0.1509702E+04  0.7818609E-02  0.8878027E-01
        2   -1    0    0  501    0  0.00000000000E+00  0.00000000000E+00  0.15360531261E+04  0.15360531261E+04  0.25500000920E-02 0. -1.
       -2   -1    0    0    0  501  0.00000000000E+00  0.00000000000E+00 -0.37095053478E+03  0.37095053479E+03  0.25500000920E-02 0.  1.
    10030    2    1    2    0    0  0.00000000000E+00  0.00000000000E+00  0.11651025914E+04  0.19070036609E+04  0.15097015978E+04 0.  0.
        1    1    3    3  502    0 -0.96005465208E+02  0.73525086841E+03  0.76114008987E+03  0.10626124060E+04  0.50400001928E-02 0. -1.
       -1    1    3    3    0  502  0.96005465208E+02 -0.73525086841E+03  0.40396250149E+03  0.84439125498E+03  0.50400001928E-02 0.  1.
</event>
<event>
 5   0  0.2734072E-04  0.1514290E+04  0.7818609E-02  0.8875006E-01
       -2   -1    0    0    0  501  0.00000000000E+00  0.00000000000E+00  0.10468153482E+04  0.10468153482E+04  0.25500000920E-02 0.  1.
        2   -1    0    0  501    0  0.00000000000E+00  0.00000000000E+00 -0.54763085393E+03  0.54763085394E+03  0.25500000920E-02 0. -1.
    10030    2    1    2    0    0  0.00000000000E+00  0.00000000000E+00  0.49918449425E+03  0.15944462021E+04  0.15142897781E+04 0.  0.
        5    1    3    3  502    0 -0.18793801341E+03  0.11990609831E+03 -0.51227478925E+03  0.55870002595E+03  0.46999998093E+01 0. -1.
       -5    1    3    3    0  502  0.18793801341E+03 -0.11990609831E+03  0.10114592835E+04  0.10357461762E+04  0.46999998093E+01 0.  1.
</event>
<event>
 5   0  0.1427609E-04  0.1498839E+04  0.7818609E-02  0.8885226E-01
        1   -1    0    0  501    0  0.00000000000E+00  0.00000000000E+00  0.99621743761E+03  0.99621743762E+03  0.50400001928E-02 0. -1.
       -1   -1    0    0    0  501  0.00000000000E+00  0.00000000000E+00 -0.56376175202E+03  0.56376175205E+03  0.50400001928E-02 0.  1.
    10030    2    1    2    0    0  0.00000000000E+00  0.00000000000E+00  0.43245568558E+03  0.15599791897E+04  0.14988386011E+04 0.  0.
        4    1    3    3  502    0 -0.37151025725E+03 -0.74228967282E+02  0.88920900842E+03  0.96655268061E+03  0.12699999809E+01 0. -1.
       -4    1    3    3    0  502  0.37151025725E+03  0.74228967282E+02 -0.45675332284E+03  0.59342650906E+03  0.12699999809E+01 0.  1.
</event>
<event>
 5   0  0.2618901E-04  0.1506231E+04  0.7818609E-02  0.8880320E-01
       -2   -1    0    0    0  501  0.00000000000E+00  0.00000000000E+00  0.53369882780E+03  0.53369882781E+03  0.25500000920E-02 0. -1.
        2   -1    0    0  501    0  0.00000000000E+00  0.00000000000E+00 -0.10627397100E+04  0.10627397100E+04  0.25500000920E-02 0.  1.
    10030    2    1    2    0    0  0.00000000000E+00  0.00000000000E+00 -0.52904088220E+03  0.15964385378E+04  0.15062309750E+04 0.  0.
        1    1    3    3  502    0 -0.12640770745E+03  0.25550943529E+03 -0.10033470871E+04  0.10430576960E+04  0.50400001928E-02 0.  1.
       -1    1    3    3    0  502  0.12640770745E+03 -0.25550943529E+03  0.47430620490E+03  0.55338084179E+03  0.50400001928E-02 0. -1.
</event>
<event>
 5   0  0.1426929E-04  0.1555088E+04  0.7818609E-02  0.8848624E-01
       -1   -1    0    0    0  501  0.00000000000E+00  0.00000000000E+00  0.26600823312E+03  0.26600823316E+03  0.50400001928E-02 0. -1.
        1   -1    0    0  501    0  0.00000000000E+00  0.00000000000E+00 -0.22727673320E+04  0.22727673320E+04  0.50400001928E-02 0.  1.
    10030    2    1    2    0    0  0.00000000000E+00  0.00000000000E+00 -0.20067590989E+04  0.25387755652E+04  0.15550881934E+04 0.  0.
        1    1    3    3  502    0 -0.49434308929E+03  0.23672593923E+03 -0.10301012867E+03  0.55769646481E+03  0.50400001928E-02 0. -1.
       -1    1    3    3    0  502  0.49434308929E+03 -0.23672593923E+03 -0.19037489702E+04  0.19810791003E+04  0.50400001928E-02 0.  1.
</event>
<event>
 5   0  0.2618901E-04  0.1492288E+04  0.7818609E-02  0.8889597E-01
        2   -1    0    0  501    0  0.00000000000E+00  0.00000000000E+00  0.82488763631E+03  0.82488763632E+03  0.25500000920E-02 0. -1.
       -2   -1    0    0    0  501  0.00000000000E+00  0.00000000000E+00 -0.67491732401E+03  0.67491732401E+03  0.25500000920E-02 0.  1.
    10030    2    1    2    0    0  0.00000000000E+00  0.00000000000E+00  0.14997031231E+03  0.14998049603E+04  0.14922881171E+04 0.  0.
        1    1    3    3  502    0  0.31380886948E+03 -0.65549242627E+03 -0.94936362919E+02  0.73291148203E+03  0.50400001928E-02 0.  1.
       -1    1    3    3    0  502 -0.31380886948E+03  0.65549242627E+03  0.24490667522E+03  0.76689347830E+03  0.50400001928E-02 0. -1.
</event>
<event>
 5   0  0.1427609E-04  0.1500123E+04  0.7818609E-02  0.8884371E-01
        1   -1    0    0  501    0  0.00000000000E+00  0.00000000000E+00  0.56752317698E+03  0.56752317700E+03  0.50400001928E-02 0.  1.
       -1   -1    0    0    0  501  0.00000000000E+00  0.00000000000E+00 -0.99131110915E+03  0.99131110916E+03  0.50400001928E-02 0. -1.
    10030    2    1    2    0    0  0.00000000000E+00  0.00000000000E+00 -0.42378793217E+03  0.15588342862E+04  0.15001227017E+04 0.  0.
        4    1    3    3  502    0 -0.73036256707E+02 -0.35754232138E+03 -0.89284220811E+03  0.96454114886E+03  0.12699999809E+01 0. -1.
       -4    1    3    3    0  502  0.73036256707E+02  0.35754232138E+03  0.46905427594E+03  0.59429313730E+03  0.12699999809E+01 0.  1.
</event>
<event>
 5   0  0.2696040E-04  0.1500053E+04  0.7818609E-02  0.8884418E-01
        2   -1    0    0  501    0  0.00000000000E+00  0.00000000000E+00  0.10665532966E+04  0.10665532966E+04  0.25500000920E-02 0.  1.
       -2   -1    0    0    0  501  0.00000000000E+00  0.00000000000E+00 -0.52743717439E+03  0.52743717440E+03  0.25500000920E-02 0. -1.
    10030    2    1    2    0    0  0.00000000000E+00  0.00000000000E+00  0.53911612221E+03  0.15939904710E+04  0.15000531419E+04 0.  0.
        2    1    3    3  502    0 -0.29069631652E+03 -0.34211638543E+03 -0.36889327032E+03  0.58105956193E+03  0.25500000920E-02 0. -1.
       -2    1    3    3    0  502  0.29069631652E+03  0.34211638543E+03  0.90800939253E+03  0.10129309091E+04  0.25500000920E-02 0.  1.
</event>
<event>
 5   0  0.2696040E-04  0.1481301E+04  0.7818609E-02  0.8896984E-01
       -2   -1    0    0    0  501  0.00000000000E+00  0.00000000000E+00  0.11883462072E+04  0.11883462072E+04  0.25500000920E-02 0.  1.
        2   -1    0    0  501    0  0.00000000000E+00  0.00000000000E+00 -0.46161867625E+03  0.46161867626E+03  0.25500000920E-02 0. -1.
    10030    2    1    2    0    0  0.00000000000E+00  0.00000000000E+00  0.72672753093E+03  0.16499648834E+04  0.14813005139E+04 0.  0.
        2    1    3    3  502    0  0.67449429407E+03  0.16832158070E+03  0.64797269956E+03  0.95033853265E+03  0.25500000920E-02 0.  1.
       -2    1    3    3    0  502 -0.67449429407E+03 -0.16832158070E+03  0.78754831368E+02  0.69962635080E+03  0.25500000920E-02 0. -1.
</event>
<event>
 5   0  0.1427609E-04  0.1499225E+04  0.7818609E-02  0.8884968E-01
        1   -1    0    0  501    0  0.00000000000E+00  0.00000000000E+00  0.75093035356E+03  0.75093035357E+03  0.50400001928E-02 0.  1.
       -1   -1    0    0    0  501  0.00000000000E+00  0.00000000000E+00 -0.74829716159E+03  0.74829716160E+03  0.50400001928E-02 0. -1.
    10030    2    1    2    0    0  0.00000000000E+00  0.00000000000E+00  0.26331919711E+01  0.14992275152E+04  0.14992252028E+04 0.  0.
        4    1    3    3  502    0 -0.31574234068E+03  0.56417242592E+02  0.67884351379E+03  0.75080374271E+03  0.12699999809E+01 0.  1.
       -4    1    3    3    0  502  0.31574234068E+03 -0.56417242592E+02 -0.67621032182E+03  0.74842377246E+03  0.12699999809E+01 0. -1.
</event>
<event>
 5   0  0.1484251E-04  0.1495140E+04  0.7818609E-02  0.8887691E-01
        1   -1    0    0  501    0  0.00000000000E+00  0.00000000000E+00  0.15382939431E+04  0.15382939431E+04  0.50400001928E-02 0.  1.
       -1   -1    0    0    0  501  0.00000000000E+00  0.00000000000E+00 -0.36329918626E+03  0.36329918630E+03  0.50400001928E-02 0. -1.
    10030    2    1    2    0    0  0.00000000000E+00  0.00000000000E+00  0.11749947568E+04  0.19015931294E+04  0.14951400440E+04 0.  0.
        5    1    3    3  502    0  0.27321331187E+03  0.54633818264E+03  0.11355861993E+04  0.12894607515E+04  0.46999998093E+01 0.  1.
       -5    1    3    3    0  502 -0.27321331187E+03 -0.54633818264E+03  0.39408557449E+02  0.61213237783E+03  0.46999998093E+01 0. -1.
</event>
<event>
 5   0  0.1443750E-04  0.1500183E+04  0.7818609E-02  0.8884331E-01
        1   -1    0    0  501    0  0.00000000000E+00  0.00000000000E+00  0.66388550808E+03  0.66388550810E+03  0.50400001928E-02 0.  1.
       -1   -1    0    0    0  501  0.00000000000E+00  0.00000000000E+00 -0.84749184237E+03  0.84749184239E+03  0.50400001928E-02 0. -1.
    10030    2    1    2    0    0  0.00000000000E+00  0.00000000000E+00 -0.18360633429E+03  0.15113773505E+04  0.15001833920E+04 0.  0.
        2    1    3    3  502    0 -0.30730149901E+03  0.40804448874E+03  0.46157038260E+03  0.68846331361E+03  0.25500000920E-02 0.  1.
       -2    1    3    3    0  502  0.30730149901E+03 -0.40804448874E+03 -0.64517671689E+03  0.82291403688E+03  0.25500000920E-02 0. -1.
</event>
<event>
 5   0  0.2646718E-04  0.1497955E+04  0.7818609E-02  0.8885814E-01
        2   -1    0    0  501    0  0.00000000000E+00  0.00000000000E+00  0.10862949467E+04  0.10862949467E+04  0.25500000920E-02 0.  1.
       -2   -1    0    0    0  501  0.00000000000E+00  0.00000000000E+00 -0.51640397957E+03  0.51640397957E+03  0.25500000920E-02 0. -1.
    10030    2    1    2    0    0  0.00000000000E+00  0.00000000000E+00  0.56989096713E+03  0.16026989263E+04  0.14979546501E+04 0.  0.
        3    1    3    3  502    0 -0.54645134344E+03  0.95496473600E+02 -0.25347061950E+03  0.60989836233E+03  0.10100000352E+00 0. -1.
       -3    1    3    3    0  502  0.54645134344E+03 -0.95496473600E+02  0.82336158664E+03  0.99280056394E+03  0.10100000352E+00 0.  1.
</event>
<event>
 5   0  0.1443750E-04  0.1506277E+04  0.7818609E-02  0.8880290E-01
        1   -1    0    0  501    0  0.00000000000E+00  0.00000000000E+00  0.40840159023E+03  0.40840159026E+03  0.50400001928E-02 0. -1.
       -1   -1    0    0    0  501  0.00000000000E+00  0.00000000000E+00 -0.13888718973E+04  0.13888718973E+04  0.50400001928E-02 0.  1.
    10030    2    1    2    0    0  0.00000000000E+00  0.00000000000E+00 -0.98047030711E+03  0.17972734876E+04  0.15062768557E+04 0.  0.
        2    1    3    3  502    0  0.65953935972E+03  0.32200541695E+03 -0.28866794413E+03  0.78867536892E+03  0.25500000920E-02 0. -1.
       -2    1    3    3    0  502 -0.65953935972E+03 -0.32200541695E+03 -0.69180236298E+03  0.10085981187E+04  0.25500000920E-02 0.  1.
</event>
<event>
 5   0  0.1426929E-04  0.1502533E+04  0.7818609E-02  0.8882770E-01
        1   -1    0    0  501    0  0.00000000000E+00  0.00000000000E+00  0.17620196742E+04  0.17620196743E+04  0.50400001928E-02 0.  1.
       -1   -1    0    0    0  501  0.00000000000E+00  0.00000000000E+00 -0.32031490087E+03  0.32031490091E+03  0.50400001928E-02 0. -1.
    10030    2    1    2    0    0  0.00000000000E+00  0.00000000000E+00  0.14417047734E+04  0.20823345752E+04  0.15025327382E+04 0.  0.
        1    1    3    3  502    0 -0.62411663468E+01 -0.40152998945E+03 -0.15908605158E+03  0.43194172804E+03  0.50400001928E-02 0. -1.
       -1    1    3    3    0  502  0.62411663468E+01  0.40152998945E+03  0.16007908250E+04  0.16503928471E+04  0.50400001928E-02 0.  1.
</event>
<event>
 5   0  0.2618901E-04  0.1501020E+04  0.7818609E-02  0.8883775E-01
       -2   -1    0    0    0  501  0.00000000000E+00  0.00000000000E+00  0.13666912370E+04  0.13666912370E+04  0.25500000920E-02 0. -1.
        2   -1    0    0  501    0  0.00000000000E+00  0.00000000000E+00 -0.41213769496E+03  0.41213769497E+03  0.25500000920E-02 0.  1.
    10030    2    1    2    0    0  0.00000000000E+00  0.00000000000E+00  0.95455354206E+03  0.17788289320E+04  0.15010196217E+04 0.  0.
        1    1    3    3  502    0  0.23407546551E+03  0.70470248908E+03  0.34817340058E+03  0.82013513433E+03  0.50400001928E-02 0.  1.
       -1    1    3    3    0  502 -0.23407546551E+03 -0.70470248908E+03  0.60638014148E+03  0.95869379766E+03  0.50400001928E-02 0. -1.
</event>
<event>
 5   0  0.1484251E-04  0.1498756E+04  0.7818609E-02  0.8885280E-01
       -1   -1    0    0    0  501  0.00000000000E+00  0.00000000000E+00  0.17713245795E+04  0.17713245795E+04  0.50400001928E-02 0.  1.
        1   -1    0    0  501    0  0.00000000000E+00  0.00000000000E+00 -0.31703257316E+03  0.31703257320E+03  0.50400001928E-02 0. -1.
    10030    2    1    2    0    0  0.00000000000E+00  0.00000000000E+00  0.14542920064E+04  0.20883571527E+04  0.14987562702E+04 0.  0.
        5    1    3    3  502    0 -0.25270280940E+03 -0.78435663986E+02  0.17040476103E+04  0.17244741840E+04  0.46999998093E+01 0.  1.
       -5    1    3    3    0  502  0.25270280940E+03  0.78435663986E+02 -0.24975560389E+03  0.36388296874E+03  0.46999998093E+01 0. -1.
</event>
<event>
 5   0  0.1484251E-04  0.1498957E+04  0.7818609E-02  0.8885146E-01
       -1   -1    0    0    0  501  0.00000000000E+00  0.00000000000E+00  0.87597045852E+03  0.87597045853E+03  0.50400001928E-02 0.  1.
        1   -1    0    0  501    0  0.00000000000E+00  0.00000000000E+00 -0.64125266272E+03  0.64125266274E+03  0.50400001928E-02 0. -1.
    10030    2    1    2    0    0  0.00000000000E+00  0.00000000000E+00  0.23471779580E+03  0.15172231213E+04  0.14989574897E+04 0.  0.
        5    1    3    3  502    0 -0.21443739019E+03 -0.29753520381E+03  0.77891776180E+03  0.86095619021E+03  0.46999998093E+01 0.  1.
       -5    1    3    3    0  502  0.21443739019E+03  0.29753520381E+03 -0.54419996600E+03  0.65626693106E+03  0.46999998093E+01 0. -1.
</event>
<event>
 5   0  0.2696040E-04  0.1501113E+04  0.7818609E-02  0.8883713E-01
       -2   -1    0    0    0  501  0.00000000000E+00  0.00000000000E+00  0.80089357544E+03  0.80089357545E+03  0.25500000920E-02 0. -1.
        2   -1    0    0  501    0  0.00000000000E+00  0.00000000000E+00 -0.70338288840E+03  0.70338288840E+03  0.25500000920E-02 0.  1.
    10030    2    1    2    0    0  0.00000000000E+00  0.00000000000E+00  0.97510687046E+02  0.15042764638E+04  0.15011127025E+04 0.  0.
        2    1    3    3  502    0 -0.32285960858E+03  0.12945121026E+03 -0.61773202699E+03  0.70893497576E+03  0.25500000920E-02 0.  1.
       -2    1    3    3    0  502  0.32285960858E+03 -0.12945121026E+03  0.71524271403E+03  0.79534148809E+03  0.25500000920E-02 0. -1.
</event>
<event>
 5   0  0.2696040E-04  0.1487818E+04  0.7818609E-02  0.8892594E-01
        2   -1    0    0  501    0  0.00000000000E+00  0.00000000000E+00  0.11480168813E+04  0.11480168813E+04  0.25500000920E-02 0.  1.
       -2   -1    0    0    0  501  0.00000000000E+00  0.00000000000E+00 -0.48204916877E+03  0.48204916878E+03  0.25500000920E-02 0. -1.
    10030    2    1    2    0    0  0.00000000000E+00  0.00000000000E+00  0.66596771248E+03  0.16300660500E+04  0.14878179772E+04 0.  0.
        2    1    3    3  502    0 -0.26481371359E+02  0.74343089883E+03  0.32955073848E+03  0.81363041585E+03  0.25500000920E-02 0. -1.
       -2    1    3    3    0  502  0.26481371359E+02 -0.74343089883E+03  0.33641697401E+03  0.81643563419E+03  0.25500000920E-02 0.  1.
</event>
<event>
 5   0  0.1474203E-04  0.1498744E+04  0.7818609E-02  0.8885288E-01
        1   -1    0    0  501    0  0.00000000000E+00  0.00000000000E+00  0.16051861707E+04  0.16051861707E+04  0.50400001928E-02 0.  1.
       -1   -1    0    0    0  501  0.00000000000E+00  0.00000000000E+00 -0.34984024016E+03  0.34984024019E+03  0.50400001928E-02 0. -1.
    10030    2    1    2    0    0  0.00000000000E+00  0.00000000000E+00  0.12553459305E+04  0.19550264109E+04  0.14987444285E+04 0.  0.
        3    1    3    3  502    0 -0.38668407648E+03 -0.63998951569E+03  0.69220730072E+03  0.10189514770E+04  0.10100000352E+00 0. -1.
       -3    1    3    3    0  502  0.38668407648E+03  0.63998951569E+03  0.56313862982E+03  0.93607493386E+03  0.10100000352E+00 0.  1.
</event>
<event>
 5   0  0.2734072E-04  0.1499028E+04  0.7818609E-02  0.8885099E-01
       -2   -1    0    0    0  501  0.00000000000E+00  0.00000000000E+00  0.54117072767E+03  0.54117072767E+03  0.25500000920E-02 0. -1.
        2   -1    0    0  501    0  0.00000000000E+00  0.00000000000E+00 -0.10380671958E+04  0.10380671958E+04  0.25500000920E-02 0.  1.
    10030    2    1    2    0    0  0.00000000000E+00  0.00000000000E+00 -0.49689646809E+03  0.15792379234E+04  0.14990284583E+04 0.  0.
        5    1    3    3  502    0 -0.67371749567E+03  0.65471742772E+02 -0.58748734733E+03  0.89629531202E+03  0.46999998093E+01 0.  1.
       -5    1    3    3    0  502  0.67371749567E+03 -0.65471742772E+02  0.90590879244E+02  0.68294261141E+03  0.46999998093E+01 0. -1.
</event>
<event>
 5   0  0.1427609E-04  0.1493604E+04  0.7818609E-02  0.8888717E-01
        1   -1    0    0  501    0  0.00000000000E+00  0.00000000000E+00  0.21583074332E+04  0.21583074332E+04  0.50400001928E-02 0. -1.
       -1   -1    0    0    0  501  0.00000000000E+00  0.00000000000E+00 -0.25840308376E+03  0.25840308381E+03  0.50400001928E-02 0.  1.
    10030    2    1    2    0    0  0.00000000000E+00  0.00000000000E+00  0.18999043495E+04  0.24167105170E+04  0.14936040928E+04 0.  0.
        4    1    3    3  502    0 -0.33337739521E+03 -0.66736510499E+03  0.89401823852E+03  0.11643826238E+04  0.12699999809E+01 0.  1.
       -4    1    3    3    0  502  0.33337739521E+03  0.66736510499E+03  0.10058861109E+04  0.12523278932E+04  0.12699999809E+01 0. -1.
</event>
<event>
 5   0  0.2696040E-04  0.1501404E+04  0.7818609E-02  0.8883520E-01
        2   -1    0    0  501    0  0.00000000000E+00  0.00000000000E+00  0.12990781080E+04  0.12990781080E+04  0.25500000920E-02 0. -1.
       -2   -1    0    0    0  501  0.00000000000E+00  0.00000000000E+00 -0.43381026159E+03  0.43381026160E+03  0.25500000920E-02 0.  1.
    10030    2    1    2    0    0  0.00000000000E+00  0.00000000000E+00  0.86526784639E+03  0.17328883696E+04  0.15014038948E+04 0.  0.
        2    1    3    3  502    0  0.15969675241E+03 -0.23399989867E+03 -0.36974393198E+03  0.46579993619E+03  0.25500000920E-02 0.  1.
       -2    1    3    3    0  502 -0.15969675241E+03  0.23399989867E+03  0.12350117784E+04  0.12670884334E+04  0.25500000920E-02 0. -1.
</event>
<event>
 5   0  0.1474203E-04  0.1494766E+04  0.7818609E-02  0.8887941E-01
        1   -1    0    0  501    0  0.00000000000E+00  0.00000000000E+00  0.54526503712E+03  0.54526503714E+03  0.50400001928E-02 0. -1.
       -1   -1    0    0    0  501  0.00000000000E+00  0.00000000000E+00 -0.10244212401E+04  0.10244212401E+04  0.50400001928E-02 0.  1.
    10030    2    1    2    0    0  0.00000000000E+00  0.00000000000E+00 -0.47915620301E+03  0.15696862773E+04  0.14947656479E+04 0.  0.
        3    1    3    3  502    0  0.42952473369E+03 -0.46641321927E+03 -0.65507129479E+03  0.91167494175E+03  0.10100000352E+00 0.  1.
       -3    1    3    3    0  502 -0.42952473369E+03  0.46641321927E+03  0.17591509179E+03  0.65801133552E+03  0.10100000352E+00 0. -1.
</event>
<event>
 5   0  0.1484251E-04  0.1500482E+04  0.7818609E-02  0.8884133E-01
       -1   -1    0    0    0  501  0.00000000000E+00  0.00000000000E+00  0.44060305905E+03  0.44060305908E+03  0.50400001928E-02 0.  1.
        1   -1    0    0  501    0  0.00000000000E+00  0.00000000000E+00 -0.12774794847E+04  0.12774794847E+04  0.50400001928E-02 0. -1.
    10030    2    1    2    0    0  0.00000000000E+00  0.00000000000E+00 -0.83687642563E+03  0.17180825438E+04  0.15004817478E+04 0.  0.
        5    1    3    3  502    0 -0.23464004200E+03 -0.33771060535E+03 -0.11369191523E+04  0.12090126762E+04  0.46999998093E+01 0. -1.
       -5    1    3    3    0  502  0.23464004200E+03  0.33771060535E+03  0.30004272666E+03  0.50906986760E+03  0.46999998093E+01 0.  1.
</event>
<event>
 5   0  0.1443750E-04  0.1491704E+04  0.7818609E-02  0.8889989E-01
       -1   -1    0    0    0  501  0.00000000000E+00  0.00000000000E+00  0.71210482702E+03  0.71210482703E+03  0.50400001928E-02 0. -1.
        1   -1    0    0  501    0  0.00000000000E+00  0.00000000000E+00 -0.78119836510E+03  0.78119836512E+03  0.50400001928E-02 0.  1.
    10030    2    1    2    0    0  0.00000000000E+00  0.00000000000E+00 -0.69093538086E+02  0.14933031922E+04  0.14917038938E+04 0.  0.
        2    1    3    3  502    0 -0.47382590600E+03  0.13809839437E+03 -0.59435376027E+03  0.77255326552E+03  0.25500000920E-02 0.  1.
       -2    1    3    3    0  502  0.47382590600E+03 -0.13809839437E+03  0.52526022218E+03  0.72074992663E+03  0.25500000920E-02 0. -1.
</event>
<event>
 5   0  0.1484251E-04  0.1488277E+04  0.7818609E-02  0.8892286E-01
       -1   -1    0    0    0  501  0.00000000000E+00  0.00000000000E+00  0.76143706040E+03  0.76143706042E+03  0.50400001928E-02 0.  1.
        1   -1    0    0  501    0  0.00000000000E+00  0.00000000000E+00 -0.72723254981E+03  0.72723254983E+03  0.50400001928E-02 0. -1.
    10030    2    1    2    0    0  0.00000000000E+00  0.00000000000E+00  0.34204510593E+02  0.14886696102E+04  0.14882766073E+04 0.  0.
        5    1    3    3  502    0 -0.31060562763E+03  0.63878236702E+02 -0.65624965972E+03  0.72886349265E+03  0.46999998093E+01 0. -1.
       -5    1    3    3    0  502  0.31060562763E+03 -0.63878236702E+02  0.69045417031E+03  0.75980611760E+03  0.46999998093E+01 0.  1.
</event>
<event>
 5   0  0.2696040E-04  0.1502968E+04  0.7818609E-02  0.8882481E-01
       -2   -1    0    0    0  501  0.00000000000E+00  0.00000000000E+00  0.30538332908E+03  0.30538332909E+03  0.25500000920E-02 0.  1.
        2   -1    0    0  501    0  0.00000000000E+00  0.00000000000E+00 -0.18492449420E+04  0.18492449420E+04  0.25500000920E-02 0. -1.
    10030    2    1    2    0    0  0.00000000000E+00  0.00000000000E+00 -0.15438616129E+04  0.21546282711E+04  0.15029684983E+04 0.  0.
        2    1    3    3  502    0  0.13354658418E+03  0.34997086311E+03  0.16200595570E+03  0.40811790558E+03  0.25500000920E-02 0.  1.
       -2    1    3    3    0  502 -0.13354658418E+03 -0.34997086311E+03 -0.17058675686E+04  0.17465103655E+04  0.25500000920E-02 0. -1.
</event>
<event>
 5   0  0.2696040E-04  0.1501879E+04  0.7818609E-02  0.8883204E-01
        2   -1    0    0  501    0  0.00000000000E+00  0.00000000000E+00  0.74360892866E+03  0.74360892866E+03  0.25500000920E-02 0.  1.
       -2   -1    0    0    0  501  0.00000000000E+00  0.00000000000E+00 -0.75834228495E+03  0.75834228496E+03  0.25500000920E-02 0. -1.
    10030    2    1    2    0    0  0.00000000000E+00  0.00000000000E+00 -0.14733356297E+02  0.15019512136E+04  0.15018789486E+04 0.  0.
        2    1    3    3  502    0  0.21066455500E+03  0.24204917410E+03  0.67159362668E+03  0.74431536113E+03  0.25500000920E-02 0.  1.
       -2    1    3    3    0  502 -0.21066455500E+03 -0.24204917410E+03 -0.68632698297E+03  0.75763585249E+03  0.25500000920E-02 0. -1.
</event>
<event>
 5   0  0.1427609E-04  0.1500740E+04  0.7818609E-02  0.8883961E-01
       -1   -1    0    0    0  501  0.00000000000E+00  0.00000000000E+00  0.10855048326E+04  0.10855048326E+04  0.50400001928E-02 0.  1.
        1   -1    0    0  501    0  0.00000000000E+00  0.00000000000E+00 -0.51870314571E+03  0.51870314573E+03  0.50400001928E-02 0. -1.
    10030    2    1    2    0    0  0.00000000000E+00  0.00000000000E+00  0.56680168685E+03  0.16042079783E+04  0.15007395129E+04 0.  0.
        4    1    3    3  502    0 -0.67261813875E+02  0.10491850966E+03  0.10743631546E+04  0.10815682346E+04  0.12699999809E+01 0.  1.
       -4    1    3    3    0  502  0.67261813875E+02 -0.10491850966E+03 -0.50756146773E+03  0.52263974370E+03  0.12699999809E+01 0. -1.
</event>
<event>
 5   0  0.2641347E-04  0.1493813E+04  0.7818609E-02  0.8888578E-01
       -2   -1    0    0    0  501  0.00000000000E+00  0.00000000000E+00  0.52281031788E+03  0.52281031788E+03  0.25500000920E-02 0.  1.
        2   -1    0    0  501    0  0.00000000000E+00  0.00000000000E+00 -0.10670582113E+04  0.10670582113E+04  0.25500000920E-02 0. -1.
    10030    2    1    2    0    0  0.00000000000E+00  0.00000000000E+00 -0.54424789346E+03  0.15898685292E+04  0.14938126290E+04 0.  0.
        4    1    3    3  502    0 -0.85387899719E+02 -0.50834437472E+03  0.30315330097E+03  0.59800387417E+03  0.12699999809E+01 0.  1.
       -4    1    3    3    0  502  0.85387899719E+02  0.50834437472E+03 -0.84740119443E+03  0.99186465506E+03  0.12699999809E+01 0. -1.
</event>
<event>
 5   0  0.1004313E-04  0.1499755E+04  0.7818609E-02  0.8884616E-01
        3   -1    0    0  501    0  0.00000000000E+00  0.00000000000E+00  0.53170743156E+03  0.53170744115E+03  0.10100000352E+00 0.  1.
       -3   -1    0    0    0  501  0.00000000000E+00  0.00000000000E+00 -0.10575671288E+04  0.10575671336E+04  0.10100000352E+00 0. -1.
    10030    2    1    2    0    0  0.00000000000E+00  0.00000000000E+00 -0.52585969725E+03  0.15892745748E+04  0.14997550643E+04 0.  0.
        2    1    3    3  502    0 -0.73144237397E+03  0.28226481769E+02 -0.43547264566E+03  0.85172830518E+03  0.25500000920E-02 0. -1.
       -2    1    3    3    0  502  0.73144237397E+03 -0.28226481769E+02 -0.90387051591E+02  0.73754626961E+03  0.25500000920E-02 0.  1.
</event>
<event>
 5   0  0.1484251E-04  0.1500064E+04  0.7818609E-02  0.8884410E-01
       -1   -1    0    0    0  501  0.00000000000E+00  0.00000000000E+00  0.44701564771E+03  0.44701564774E+03  0.50400001928E-02 0.  1.
        1   -1    0    0  501    0  0.00000000000E+00  0.00000000000E+00 -0.12584529984E+04  0.12584529984E+04  0.50400001928E-02 0. -1.
    10030    2    1    2    0    0  0.00000000000E+00  0.00000000000E+00 -0.81143735067E+03  0.17054686461E+04  0.15000642416E+04 0.  0.
        5    1    3    3  502    0  0.70364304439E+03  0.18590622205E+03 -0.19965043960E+03  0.75469003263E+03  0.46999998093E+01 0.  1.
       -5    1    3    3    0  502 -0.70364304439E+03 -0.18590622205E+03 -0.61178691107E+03  0.95077861349E+03  0.46999998093E+01 0. -1.
</event>
<event>
 5   0  0.1474203E-04  0.1497060E+04  0.7818609E-02  0.8886410E-01
       -1   -1    0    0    0  501  0.00000000000E+00  0.00000000000E+00  0.76214887708E+03  0.76214887710E+03  0.50400001928E-02 0. -1.
        1   -1    0    0  501    0  0.00000000000E+00  0.00000000000E+00 -0.73515473201E+03  0.73515473202E+03  0.50400001928E-02 0.  1.
    10030    2    1    2    0    0  0.00000000000E+00  0.00000000000E+00  0.26994145077E+02  0.14973036091E+04  0.14970602573E+04 0.  0.
        3    1    3    3  502    0  0.24526527005E+03  0.19051245601E+02 -0.69356857875E+03  0.73590446818E+03  0.10100000352E+00 0.  1.
       -3    1    3    3    0  502 -0.24526527005E+03 -0.19051245601E+02  0.72056272383E+03  0.76139914094E+03  0.10100000352E+00 0. -1.
</event>
<event>
 5   0  0.2696040E-04  0.1501356E+04  0.7818609E-02  0.8883551E-01
        2   -1    0    0  501    0  0.00000000000E+00  0.00000000000E+00  0.97867615713E+03  0.97867615713E+03  0.25500000920E-02 0.  1.
       -2   -1    0    0    0  501  0.00000000000E+00  0.00000000000E+00 -0.57579596234E+03  0.57579596235E+03  0.25500000920E-02 0. -1.
    10030    2    1    2    0    0  0.00000000000E+00  0.00000000000E+00  0.40288019479E+03  0.15544721195E+04  0.15013564263E+04 0.  0.
        2    1    3    3  502    0 -0.17450882688E+03  0.30282225029E+03 -0.48641531221E+03  0.59896118563E+03  0.25500000920E-02 0. -1.
       -2    1    3    3    0  502  0.17450882688E+03 -0.30282225029E+03  0.88929550700E+03  0.95551093385E+03  0.25500000920E-02 0.  1.
</event>
<event>
 5   0  0.1426929E-04  0.1499152E+04  0.7818609E-02  0.8885017E-01
       -1   -1    0    0    0  501  0.00000000000E+00  0.00000000000E+00  0.45474543447E+03  0.45474543449E+03  0.50400001928E-02 0. -1.
        1   -1    0    0  501    0  0.00000000000E+00  0.00000000000E+00 -0.12355577422E+04  0.12355577422E+04  0.50400001928E-02 0.  1.
    10030    2    1    2    0    0  0.00000000000E+00  0.00000000000E+00 -0.78081230776E+03  0.16903031767E+04  0.14991520834E+04 0.  0.
        1    1    3    3  502    0  0.47411652894E+03 -0.19450357164E+03 -0.10071902673E+04  0.11300665276E+04  0.50400001928E-02 0.  1.
       -1    1    3    3    0  502 -0.47411652894E+03  0.19450357164E+03  0.22637795952E+03  0.56023664908E+03  0.50400001928E-02 0. -1.
</event>
<event>
 5   0  0.2696040E-04  0.1490408E+04  0.7818609E-02  0.8890857E-01
       -2   -1    0    0    0  501  0.00000000000E+00  0.00000000000E+00  0.33486726838E+03  0.33486726839E+03  0.25500000920E-02 0. -1.
        2   -1    0    0  501    0  0.00000000000E+00  0.00000000000E+00 -0.16583551194E+04  0.16583551195E+04  0.25500000920E-02 0.  1.
    10030    2    1    2    0    0  0.00000000000E+00  0.00000000000E+00 -0.13234878511E+04  0.19932223878E+04  0.14904077950E+04 0.  0.
        2    1    3    3  502    0  0.22455915420E+03  0.22685057386E+03  0.23881257534E+03  0.39864701522E+03  0.25500000920E-02 0. -1.
       -2    1    3    3    0  502 -0.22455915420E+03 -0.22685057386E+03 -0.15623004264E+04  0.15945753726E+04  0.25500000920E-02 0.  1.
</event>
<event>
 5   0  0.2696040E-04  0.1496291E+04  0.7818609E-02  0.8886923E-01
       -2   -1    0    0    0  501  0.00000000000E+00  0.00000000000E+00  0.34305102533E+03  0.34305102534E+03  0.25500000920E-02 0.  1.
        2   -1    0    0  501    0  0.00000000000E+00  0.00000000000E+00 -0.16315984987E+04  0.16315984987E+04  0.25500000920E-02 0. -1.
    10030    2    1    2    0    0  0.00000000000E+00  0.00000000000E+00 -0.12885474734E+04  0.19746495241E+04  0.14962907978E+04 0.  0.
        2    1    3    3  502    0  0.33874913534E+03  0.53340377057E+02  0.23322547648E+03  0.41471712697E+03  0.25500000920E-02 0.  1.
       -2    1    3    3    0  502 -0.33874913534E+03 -0.53340377057E+02 -0.15217729499E+04  0.15599323971E+04  0.25500000920E-02 0. -1.
</event>
<event>
 5   0  0.1474203E-04  0.1507497E+04  0.7818609E-02  0.8879483E-01
        1   -1    0    0  501    0  0.00000000000E+00  0.00000000000E+00  0.47136746889E+03  0.47136746892E+03  0.50400001928E-02 0.  1.
       -1   -1    0    0    0  501  0.00000000000E+00  0.00000000000E+00 -0.12052951725E+04  0.12052951725E+04  0.50400001928E-02 0. -1.
    10030    2    1    2    0    0  0.00000000000E+00  0.00000000000E+00 -0.73392770357E+03  0.16766626414E+04  0.15074971771E+04 0.  0.
        3    1    3    3  502    0 -0.65281100080E+03  0.30020084679E+03 -0.11369543371E+03  0.72746780893E+03  0.10100000352E+00 0.  1.
       -3    1    3    3    0  502  0.65281100080E+03 -0.30020084679E+03 -0.62023226986E+03  0.94919483246E+03  0.10100000352E+00 0. -1.
</event>
<event>
 5   0  0.1426929E-04  0.1492161E+04  0.7818609E-02  0.8889682E-01
       -1   -1    0    0    0  501  0.00000000000E+00  0.00000000000E+00  0.51665044172E+03  0.51665044174E+03  0.50400001928E-02 0.  1.
        1   -1    0    0  501    0  0.00000000000E+00  0.00000000000E+00 -0.10773945864E+04  0.10773945864E+04  0.50400001928E-02 0. -1.
    10030    2    1    2    0    0  0.00000000000E+00  0.00000000000E+00 -0.56074414472E+03  0.15940450282E+04  0.14921613707E+04 0.  0.
        1    1    3    3  502    0  0.46117663254E+03 -0.35118351978E+03 -0.78214800750E+03  0.97353441471E+03  0.50400001928E-02 0. -1.
       -1    1    3    3    0  502 -0.46117663254E+03  0.35118351978E+03  0.22140386279E+03  0.62051061348E+03  0.50400001928E-02 0.  1.
</event>
<event>
 5   0  0.1474203E-04  0.1518141E+04  0.7818609E-02  0.8872478E-01
       -1   -1    0    0    0  501  0.00000000000E+00  0.00000000000E+00  0.41882845510E+03  0.41882845513E+03  0.50400001928E-02 0.  1.
        1   -1    0    0  501    0  0.00000000000E+00  0.00000000000E+00 -0.13757132697E+04  0.13757132697E+04  0.50400001928E-02 0. -1.
    10030    2    1    2    0    0  0.00000000000E+00  0.00000000000E+00 -0.95688481457E+03  0.17945417248E+04  0.15181407885E+04 0.  0.
        3    1    3    3  502    0 -0.26726519478E+03  0.30961963057E+03 -0.12343109503E+04  0.13003147820E+04  0.10100000352E+00 0. -1.
       -3    1    3    3    0  502  0.26726519478E+03 -0.30961963057E+03  0.27742613578E+03  0.49422694280E+03  0.10100000352E+00 0.  1.
</event>
<event>
 5   0  0.1004313E-04  0.1463495E+04  0.7818609E-02  0.8909098E-01
       -3   -1    0    0    0  501  0.00000000000E+00  0.00000000000E+00  0.95852976008E+03  0.95852976541E+03  0.10100000352E+00 0.  1.
        3   -1    0    0  501    0  0.00000000000E+00  0.00000000000E+00 -0.55862045813E+03  0.55862046726E+03  0.10100000352E+00 0. -1.
    10030    2    1    2    0    0  0.00000000000E+00  0.00000000000E+00  0.39990930196E+03  0.15171502327E+04  0.14634949193E+04 0.  0.
        2    1    3    3  502    0  0.43589083277E+03 -0.15364874532E+03 -0.38815885097E+03  0.60355285488E+03  0.25500000920E-02 0. -1.
       -2    1    3    3    0  502 -0.43589083277E+03  0.15364874532E+03  0.78806815293E+03  0.91359737779E+03  0.25500000920E-02 0.  1.
</event>
<event>
 5   0  0.1427609E-04  0.1488261E+04  0.7818609E-02  0.8892297E-01
        1   -1    0    0  501    0  0.00000000000E+00  0.00000000000E+00  0.68930999867E+03  0.68930999869E+03  0.50400001928E-02 0.  1.
       -1   -1    0    0    0  501  0.00000000000E+00  0.00000000000E+00 -0.80331117826E+03  0.80331117828E+03  0.50400001928E-02 0. -1.
    10030    2    1    2    0    0  0.00000000000E+00  0.00000000000E+00 -0.11400117959E+03  0.14926211770E+04  0.14882613040E+04 0.  0.
        4    1    3    3  502    0 -0.34411546388E+03 -0.60252294108E+03 -0.32663659287E+03  0.76690444236E+03  0.12699999809E+01 0. -1.
       -4    1    3    3    0  502  0.34411546388E+03  0.60252294108E+03  0.21263541328E+03  0.72571673461E+03  0.12699999809E+01 0.  1.
</event>
<event>
 5   0  0.1427609E-04  0.1499164E+04  0.7818609E-02  0.8885009E-01
       -1   -1    0    0    0  501  0.00000000000E+00  0.00000000000E+00  0.18552254845E+04  0.18552254845E+04  0.50400001928E-02 0.  1.
        1   -1    0    0  501    0  0.00000000000E+00  0.00000000000E+00 -0.30285990543E+03  0.30285990547E+03  0.50400001928E-02 0. -1.
    10030    2    1    2    0    0  0.00000000000E+00  0.00000000000E+00  0.15523655791E+04  0.21580853900E+04  0.14991643203E+04 0.  0.
        4    1    3    3  502    0 -0.37956577857E+03 -0.83439536124E+02 -0.14650646896E+03  0.41532889954E+03  0.12699999809E+01 0. -1.
       -4    1    3    3    0  502  0.37956577857E+03  0.83439536124E+02  0.16988720480E+04  0.17427564904E+04  0.12699999809E+01 0.  1.
</event>
<event>
 5   0  0.2618901E-04  0.1497467E+04  0.7818609E-02  0.8886139E-01
        2   -1    0    0  501    0  0.00000000000E+00  0.00000000000E+00  0.87060699626E+03  0.87060699626E+03  0.25500000920E-02 0. -1.
       -2   -1    0    0    0  501  0.00000000000E+00  0.00000000000E+00 -0.64392100316E+03  0.64392100316E+03  0.25500000920E-02 0.  1.
    10030    2    1    2    0    0  0.00000000000E+00  0.00000000000E+00  0.22668599310E+03  0.15145279994E+04  0.14974673691E+04 0.  0.
        1    1    3    3  502    0 -0.63755962461E+03 -0.94318441464E+02  0.49876718574E+03  0.81495211451E+03  0.50400001928E-02 0.  1.
       -1    1    3    3    0  502  0.63755962461E+03  0.94318441464E+02 -0.27208119264E+03  0.69957588491E+03  0.50400001928E-02 0. -1.
</event>
<event>
 5   0  0.2646718E-04  0.1497946E+04  0.7818609E-02  0.8885820E-01
        2   -1    0    0  501    0  0.00000000000E+00  0.00000000000E+00  0.10702213278E+04  0.10702213278E+04  0.25500000920E-02 0.  1.
       -2   -1    0    0    0  501  0.00000000000E+00  0.00000000000E+00 -0.52415355056E+03  0.52415355056E+03  0.25500000920E-02 0. -1.
    10030    2    1    2    0    0  0.00000000000E+00  0.00000000000E+00  0.54606777725E+03  0.15943748784E+04  0.14979456717E+04 0.  0.
        3    1    3    3  502    0 -0.19256337238E+03  0.58119560758E+03 -0.18611911461E+03  0.63992915364E+03  0.10100000352E+00 0. -1.
       -3    1    3    3    0  502  0.19256337238E+03 -0.58119560758E+03  0.73218689185E+03  0.95444572473E+03  0.10100000352E+00 0.  1.
</event>
<event>
 5   0  0.1484251E-04  0.1510935E+04  0.7818609E-02  0.8877213E-01
        1   -1    0    0  501    0  0.00000000000E+00  0.00000000000E+00  0.20814000876E+04  0.20814000876E+04  0.50400001928E-02 0. -1.
       -1   -1    0    0    0  501  0.00000000000E+00  0.00000000000E+00 -0.27420555798E+03  0.27420555803E+03  0.50400001928E-02 0.  1.
    10030    2    1    2    0    0  0.00000000000E+00  0.00000000000E+00  0.18071945296E+04  0.23556056456E+04  0.15109354354E+04 0.  0.
        5    1    3    3  502    0 -0.73249395582E+02  0.60993688481E+03  0.21811521032E+03  0.65190859204E+03  0.46999998093E+01 0.  1.
       -5    1    3    3    0  502  0.73249395582E+02 -0.60993688481E+03  0.15890793193E+04  0.17036970536E+04  0.46999998093E+01 0. -1.
</event>
<event>
 5   0  0.2696040E-04  0.1498801E+04  0.7818609E-02  0.8885250E-01
       -2   -1    0    0    0  501  0.00000000000E+00  0.00000000000E+00  0.82748207812E+03  0.82748207812E+03  0.25500000920E-02 0. -1.
        2   -1    0    0  501    0  0.00000000000E+00  0.00000000000E+00 -0.67868698042E+03  0.67868698043E+03  0.25500000920E-02 0.  1.
    10030    2    1    2    0    0  0.00000000000E+00  0.00000000000E+00  0.14879509770E+03  0.15061690586E+04  0.14988012716E+04 0.  0.
        2    1    3    3  502    0 -0.45182737945E+03 -0.26222022220E+03 -0.46554613196E+03  0.69974325773E+03  0.25500000920E-02 0.  1.
       -2    1    3    3    0  502  0.45182737945E+03  0.26222022220E+03  0.61434122966E+03  0.80642580082E+03  0.25500000920E-02 0. -1.
</event>
<event>
 5   0  0.2641347E-04  0.1495427E+04  0.7818609E-02  0.8887499E-01
        2   -1    0    0  501    0  0.00000000000E+00  0.00000000000E+00  0.14278411742E+04  0.14278411742E+04  0.25500000920E-02 0.  1.
       -2   -1    0    0    0  501  0.00000000000E+00  0.00000000000E+00 -0.39155315515E+03  0.39155315516E+03  0.25500000920E-02 0. -1.
    10030    2    1    2    0    0  0.00000000000E+00  0.00000000000E+00  0.10362880190E+04  0.18193943293E+04  0.14954273193E+04 0.  0.
        4    1    3    3  502    0 -0.13204372015E+02  0.46002665074E+03 -0.19882177370E+03  0.50132881966E+03  0.12699999809E+01 0. -1.
       -4    1    3    3    0  502  0.13204372015E+02 -0.46002665074E+03  0.12351097927E+04  0.13180655097E+04  0.12699999809E+01 0.  1.
</event>
<event>
 5   0  0.1427609E-04  0.1500277E+04  0.7818609E-02  0.8884269E-01
       -1   -1    0    0    0  501  0.00000000000E+00  0.00000000000E+00  0.76969941099E+03  0.76969941101E+03  0.50400001928E-02 0.  1.
        1   -1    0    0  501    0  0.00000000000E+00  0.00000000000E+00 -0.73107475547E+03  0.73107475549E+03  0.50400001928E-02 0. -1.
    10030    2    1    2    0    0  0.00000000000E+00  0.00000000000E+00  0.38624655519E+02  0.15007741665E+04  0.15002770527E+04 0.  0.
        4    1    3    3  502    0 -0.74563498859E+03 -0.79234707189E+02  0.40685754252E+02  0.75093716017E+03  0.12699999809E+01 0. -1.
       -4    1    3    3    0  502  0.74563498859E+03  0.79234707189E+02 -0.20610987332E+01  0.74983700633E+03  0.12699999809E+01 0.  1.
</event>
<event>
 5   0  0.2734072E-04  0.1479934E+04  0.7818609E-02  0.8897907E-01
        2   -1    0    0  501    0  0.00000000000E+00  0.00000000000E+00  0.11504306258E+04  0.11504306258E+04  0.25500000920E-02 0. -1.
       -2   -1    0    0    0  501  0.00000000000E+00  0.00000000000E+00 -0.47595334406E+03  0.47595334407E+03  0.25500000920E-02 0.  1.
    10030    2    1    2    0    0  0.00000000000E+00  0.00000000000E+00  0.67447728172E+03  0.16263839698E+04  0.14799341924E+04 0.  0.
        5    1    3    3  502    0 -0.30675714408E+03 -0.67306659257E+03  0.31496936959E+03  0.80395670111E+03  0.46999998093E+01 0.  1.
       -5    1    3    3    0  502  0.30675714408E+03  0.67306659257E+03  0.35950791212E+03  0.82242726873E+03  0.46999998093E+01 0. -1.
</event>
<event>
 5   0  0.2618901E-04  0.1499335E+04  0.7818609E-02  0.8884895E-01
        2   -1    0    0  501    0  0.00000000000E+00  0.00000000000E+00  0.14542538758E+04  0.14542538758E+04  0.25500000920E-02 0. -1.
       -2   -1    0    0    0  501  0.00000000000E+00  0.00000000000E+00 -0.38645346590E+03  0.38645346591E+03  0.25500000920E-02 0.  1.
    10030    2    1    2    0    0  0.00000000000E+00  0.00000000000E+00  0.10678004099E+04  0.18407073417E+04  0.14993351201E+04 0.  0.
        1    1    3    3  502    0  0.89754750853E+02  0.23715373975E+03  0.14000069856E+04  0.14227850756E+04  0.50400001928E-02 0. -1.
       -1    1    3    3    0  502 -0.89754750853E+02 -0.23715373975E+03 -0.33220657568E+03  0.41792226613E+03  0.50400001928E-02 0.  1.
</event>
<event>
 5   0  0.1427609E-04  0.1494774E+04  0.7818609E-02  0.8887936E-01
       -1   -1    0    0    0  501  0.00000000000E+00  0.00000000000E+00  0.33798346861E+03  0.33798346865E+03  0.50400001928E-02 0. -1.
        1   -1    0    0  501    0  0.00000000000E+00  0.00000000000E+00 -0.16527062413E+04  0.16527062413E+04  0.50400001928E-02 0.  1.
    10030    2    1    2    0    0  0.00000000000E+00  0.00000000000E+00 -0.13147227726E+04  0.19906897099E+04  0.14947740807E+04 0.  0.
        4    1    3    3  502    0  0.38794066685E+03 -0.73015294396E+02 -0.15025416279E+04  0.15535321531E+04  0.12699999809E+01 0.  1.
       -4    1    3    3    0  502 -0.38794066685E+03  0.73015294396E+02  0.18781885524E+03  0.43715755683E+03  0.12699999809E+01 0. -1.
</event>
<event>
 5   0  0.1426929E-04  0.1502627E+04  0.7818609E-02  0.8882708E-01
       -1   -1    0    0    0  501  0.00000000000E+00  0.00000000000E+00  0.41578323228E+03  0.41578323231E+03  0.50400001928E-02 0.  1.
        1   -1    0    0  501    0  0.00000000000E+00  0.00000000000E+00 -0.13576114307E+04  0.13576114307E+04  0.50400001928E-02 0. -1.
    10030    2    1    2    0    0  0.00000000000E+00  0.00000000000E+00 -0.94182819838E+03  0.17733946630E+04  0.15026271245E+04 0.  0.
        1    1    3    3  502    0  0.53291432343E+03 -0.43299140646E+03 -0.11101652780E+03  0.69556013662E+03  0.50400001928E-02 0.  1.
       -1    1    3    3    0  502 -0.53291432343E+03  0.43299140646E+03 -0.83081167059E+03  0.10778345264E+04  0.50400001928E-02 0. -1.
</event>
<event>
 5   0  0.2641347E-04  0.1500207E+04  0.7818609E-02  0.8884316E-01
       -2   -1    0    0    0  501  0.00000000000E+00  0.00000000000E+00  0.29215936381E+03  0.29215936382E+03  0.25500000920E-02 0.  1.
        2   -1    0    0  501    0  0.00000000000E+00  0.00000000000E+00 -0.19258494655E+04  0.19258494655E+04  0.25500000920E-02 0. -1.
    10030    2    1    2    0    0  0.00000000000E+00  0.00000000000E+00 -0.16336901017E+04  0.22180088294E+04  0.15002065920E+04 0.  0.
        4    1    3    3  502    0 -0.59898745900E+03 -0.18964136355E+03 -0.21102715212E+03  0.66278495354E+03  0.12699999809E+01 0.  1.
       -4    1    3    3    0  502  0.59898745900E+03  0.18964136355E+03 -0.14226629496E+04  0.15552238758E+04  0.12699999809E+01 0. -1.
</event>
<event>
 5   0  0.2646718E-04  0.1512336E+04  0.7818609E-02  0.8876291E-01
        2   -1    0    0  501    0  0.00000000000E+00  0.00000000000E+00  0.18902492537E+04  0.18902492537E+04  0.25500000920E-02 0. -1.
       -2   -1    0    0    0  501  0.00000000000E+00  0.00000000000E+00 -0.30249464827E+03  0.30249464828E+03  0.25500000920E-02 0.  1.
    10030    2    1    2    0    0  0.00000000000E+00  0.00000000000E+00  0.15877546055E+04  0.21927439020E+04  0.15123363160E+04 0.  0.
        3    1    3    3  502    0  0.40165703676E+03  0.63520845222E+03  0.91494323710E+03  0.11840351727E+04  0.10100000352E+00 0.  1.
       -3    1    3    3    0  502 -0.40165703676E+03 -0.63520845222E+03  0.67281136835E+03  0.10087087293E+04  0.10100000352E+00 0. -1.
</event>
<event>
 5   0  0.2696040E-04  0.1467352E+04  0.7818609E-02  0.8906459E-01
       -2   -1    0    0    0  501  0.00000000000E+00  0.00000000000E+00  0.34790702146E+03  0.34790702147E+03  0.25500000920E-02 0. -1.
        2   -1    0    0  501    0  0.00000000000E+00  0.00000000000E+00 -0.15471960011E+04  0.15471960011E+04  0.25500000920E-02 0.  1.
    10030    2    1    2    0    0  0.00000000000E+00  0.00000000000E+00 -0.11992889796E+04  0.18951030226E+04  0.14673518356E+04 0.  0.
        2    1    3    3  502    0  0.89641210011E+02  0.20273016784E+03  0.30362533122E+03  0.37593005899E+03  0.25500000920E-02 0. -1.
       -2    1    3    3    0  502 -0.89641210011E+02 -0.20273016784E+03 -0.15029143108E+04  0.15191729636E+04  0.25500000920E-02 0.  1.
</event>
<event>
 5   0  0.2696040E-04  0.1496962E+04  0.7818609E-02  0.8886476E-01
        2   -1    0    0  501    0  0.00000000000E+00  0.00000000000E+00  0.58479370133E+03  0.58479370133E+03  0.25500000920E-02 0. -1.
       -2   -1    0    0    0  501  0.00000000000E+00  0.00000000000E+00 -0.95798486856E+03  0.95798486857E+03  0.25500000920E-02 0.  1.
    10030    2    1    2    0    0  0.00000000000E+00  0.00000000000E+00 -0.37319116724E+03  0.15427785699E+04  0.14969616122E+04 0.  0.
        2    1    3    3  502    0  0.54700982628E+03 -0.11197784390E+03  0.32712303727E+03  0.64712307105E+03  0.25500000920E-02 0. -1.
       -2    1    3    3    0  502 -0.54700982628E+03  0.11197784390E+03 -0.70031420450E+03  0.89565549884E+03  0.25500000920E-02 0.  1.
</event>
<event>
 5   0  0.2641347E-04  0.1504202E+04  0.7818609E-02  0.8881664E-01
        2   -1    0    0  501    0  0.00000000000E+00  0.00000000000E+00  0.14221858668E+04  0.14221858668E+04  0.25500000920E-02 0.  1.
       -2   -1    0    0    0  501  0.00000000000E+00  0.00000000000E+00 -0.39773689042E+03  0.39773689043E+03  0.25500000920E-02 0. -1.
    10030    2    1    2    0    0  0.00000000000E+00  0.00000000000E+00  0.10244489764E+04  0.18199227572E+04  0.15042018272E+04 0.  0.
        4    1    3    3  502    0 -0.10859562079E+03  0.48882136676E+03  0.11911832590E+04  0.12921526640E+04  0.12699999809E+01 0.  1.
       -4    1    3    3    0  502  0.10859562079E+03 -0.48882136676E+03 -0.16673428264E+03  0.52777009328E+03  0.12699999809E+01 0. -1.
</event>
<event>
 5   0  0.2734072E-04  0.1497464E+04  0.7818609E-02  0.8886141E-01
       -2   -1    0    0    0  501  0.00000000000E+00  0.00000000000E+00  0.51124045426E+03  0.51124045426E+03  0.25500000920E-02 0. -1.
        2   -1    0    0  501    0  0.00000000000E+00  0.00000000000E+00 -0.10965480334E+04  0.10965480334E+04  0.25500000920E-02 0.  1.
    10030    2    1    2    0    0  0.00000000000E+00  0.00000000000E+00 -0.58530757911E+03  0.16077884876E+04  0.14974641427E+04 0.  0.
        5    1    3    3  502    0  0.44313502907E+03 -0.22151007113E+03 -0.89538794802E+03  0.10233166827E+04  0.46999998093E+01 0.  1.
       -5    1    3    3    0  502 -0.44313502907E+03  0.22151007113E+03  0.31008036891E+03  0.58447180495E+03  0.46999998093E+01 0. -1.
</event>
<event>
 5   0  0.2734072E-04  0.1491602E+04  0.7818609E-02  0.8890057E-01
       -2   -1    0    0    0  501  0.00000000000E+00  0.00000000000E+00  0.42447241308E+03  0.42447241309E+03  0.25500000920E-02 0.  1.
        2   -1    0    0  501    0  0.00000000000E+00  0.00000000000E+00 -0.13103773128E+04  0.13103773128E+04  0.25500000920E-02 0. -1.
    10030    2    1    2    0    0  0.00000000000E+00  0.00000000000E+00 -0.88590489970E+03  0.17348497259E+04  0.14916018504E+04 0.  0.
        5    1    3    3  502    0  0.62679155530E+03 -0.23633164072E+03 -0.61653181245E+02  0.67271353707E+03  0.46999998093E+01 0.  1.
       -5    1    3    3    0  502 -0.62679155530E+03  0.23633164072E+03 -0.82425171846E+03  0.10621361888E+04  0.46999998093E+01 0. -1.
</event>
<event>
 5   0  0.2646718E-04  0.1500723E+04  0.7818609E-02  0.8883972E-01
        2   -1    0    0  501    0  0.00000000000E+00  0.00000000000E+00  0.96260927478E+03  0.96260927478E+03  0.25500000920E-02 0.  1.
       -2   -1    0    0    0  501  0.00000000000E+00  0.00000000000E+00 -0.58491265293E+03  0.58491265294E+03  0.25500000920E-02 0. -1.
    10030    2    1    2    0    0  0.00000000000E+00  0.00000000000E+00  0.37769662185E+03  0.15475219277E+04  0.15007229520E+04 0.  0.
        3    1    3    3  502    0  0.53506936025E+03 -0.48216955924E+03  0.40577877841E+03  0.82670619409E+03  0.10100000352E+00 0.  1.
       -3    1    3    3    0  502 -0.53506936025E+03  0.48216955924E+03 -0.28082156564E+02  0.72081573363E+03  0.10100000352E+00 0. -1.
</event>
<event>
 5   0  0.1426929E-04  0.1497781E+04  0.7818609E-02  0.8885930E-01
       -1   -1    0    0    0  501  0.00000000000E+00  0.00000000000E+00  0.65908640034E+03  0.65908640036E+03  0.50400001928E-02 0.  1.
        1   -1    0    0  501    0  0.00000000000E+00  0.00000000000E+00 -0.85093117791E+03  0.85093117793E+03  0.50400001928E-02 0. -1.
    10030    2    1    2    0    0  0.00000000000E+00  0.00000000000E+00 -0.19184477757E+03  0.15100175783E+04  0.14977812484E+04 0.  0.
        1    1    3    3  502    0 -0.70101637932E+03 -0.17089676240E+03 -0.29807862657E+03  0.78069234345E+03  0.50400001928E-02 0. -1.
       -1    1    3    3    0  502  0.70101637932E+03  0.17089676240E+03  0.10623384900E+03  0.72932523484E+03  0.50400001928E-02 0.  1.
</event>
<event>
 5   0  0.1426929E-04  0.1422349E+04  0.7818609E-02  0.8937798E-01
       -1   -1    0    0    0  501  0.00000000000E+00  0.00000000000E+00  0.30001749074E+03  0.30001749079E+03  0.50400001928E-02 0. -1.
        1   -1    0    0  501    0  0.00000000000E+00  0.00000000000E+00 -0.16857999754E+04  0.16857999754E+04  0.50400001928E-02 0.  1.
    10030    2    1    2    0    0  0.00000000000E+00  0.00000000000E+00 -0.13857824846E+04  0.19858174662E+04  0.14223494346E+04 0.  0.
        1    1    3    3  502    0 -0.27817104049E+03  0.17218996171E+03  0.18872270270E+03  0.37768342461E+03  0.50400001928E-02 0. -1.
       -1    1    3    3    0  502  0.27817104049E+03 -0.17218996171E+03 -0.15745051873E+04  0.16081340416E+04  0.50400001928E-02 0.  1.
</event>
<event>
 5   0  0.2696040E-04  0.1496799E+04  0.7818609E-02  0.8886585E-01
        2   -1    0    0  501    0  0.00000000000E+00  0.00000000000E+00  0.16865265901E+04  0.16865265901E+04  0.25500000920E-02 0. -1.
       -2   -1    0    0    0  501  0.00000000000E+00  0.00000000000E+00 -0.33210361337E+03  0.33210361338E+03  0.25500000920E-02 0.  1.
    10030    2    1    2    0    0  0.00000000000E+00  0.00000000000E+00  0.13544229767E+04  0.20186302035E+04  0.14967986834E+04 0.  0.
        2    1    3    3  502    0  0.25309792674E+03 -0.36978978351E+03  0.14856017905E+04  0.15517138023E+04  0.25500000920E-02 0. -1.
       -2    1    3    3    0  502 -0.25309792674E+03  0.36978978351E+03 -0.13117881371E+03  0.46691640117E+03  0.25500000920E-02 0.  1.
</event>
<event>
 5   0  0.2641347E-04  0.1515177E+04  0.7818609E-02  0.8874422E-01
       -2   -1    0    0    0  501  0.00000000000E+00  0.00000000000E+00  0.33125843744E+03  0.33125843745E+03  0.25500000920E-02 0. -1.
        2   -1    0    0  501    0  0.00000000000E+00  0.00000000000E+00 -0.17326067329E+04  0.17326067329E+04  0.25500000920E-02 0.  1.
    10030    2    1    2    0    0  0.00000000000E+00  0.00000000000E+00 -0.14013482955E+04  0.20638651704E+04  0.15151773481E+04 0.  0.
        4    1    3    3  502    0 -0.57150628938E+02  0.20034088983E+02  0.32795460335E+03  0.33350171494E+03  0.12699999809E+01 0. -1.
       -4    1    3    3    0  502  0.57150628938E+02 -0.20034088983E+02 -0.17293028988E+04  0.17303634554E+04  0.12699999809E+01 0.  1.
</event>
<event>
 5   0  0.1484251E-04  0.1501234E+04  0.7818609E-02  0.8883633E-01
       -1   -1    0    0    0  501  0.00000000000E+00  0.00000000000E+00  0.39070201468E+03  0.39070201471E+03  0.50400001928E-02 0.  1.
        1   -1    0    0  501    0  0.00000000000E+00  0.00000000000E+00 -0.14420857982E+04  0.14420857982E+04  0.50400001928E-02 0. -1.
    10030    2    1    2    0    0  0.00000000000E+00  0.00000000000E+00 -0.10513837835E+04  0.18327878129E+04  0.15012339281E+04 0.  0.
        5    1    3    3  502    0 -0.96744302287E+02 -0.61691696476E+03 -0.17227372343E+02  0.62471183260E+03  0.46999998093E+01 0.  1.
       -5    1    3    3    0  502  0.96744302287E+02  0.61691696476E+03 -0.10341564111E+04  0.12080759803E+04  0.46999998093E+01 0. -1.
</event>
<event>
 5   0  0.1004313E-04  0.1504735E+04  0.7818609E-02  0.8881311E-01
        3   -1    0    0  501    0  0.00000000000E+00  0.00000000000E+00  0.96476452961E+03  0.96476453490E+03  0.10100000352E+00 0. -1.
       -3   -1    0    0    0  501  0.00000000000E+00  0.00000000000E+00 -0.58673032808E+03  0.58673033677E+03  0.10100000352E+00 0.  1.
    10030    2    1    2    0    0  0.00000000000E+00  0.00000000000E+00  0.37803420154E+03  0.15514948717E+04  0.15047346873E+04 0.  0.
        3    1    3    3  502    0  0.48265025854E+03  0.42863333026E+03  0.58752313635E+03  0.87284663592E+03  0.10100000352E+00 0. -1.
       -3    1    3    3    0  502 -0.48265025854E+03 -0.42863333026E+03 -0.20948893481E+03  0.67864823575E+03  0.10100000352E+00 0.  1.
</event>
<event>
 5   0  0.2618901E-04  0.1514196E+04  0.7818609E-02  0.8875067E-01
        2   -1    0    0  501    0  0.00000000000E+00  0.00000000000E+00  0.10216610147E+04  0.10216610147E+04  0.25500000920E-02 0.  1.
       -2   -1    0    0    0  501  0.00000000000E+00  0.00000000000E+00 -0.56104480362E+03  0.56104480363E+03  0.25500000920E-02 0. -1.
    10030    2    1    2    0    0  0.00000000000E+00  0.00000000000E+00  0.46061621110E+03  0.15827058184E+04  0.15141962929E+04 0.  0.
        1    1    3    3  502    0  0.77174682522E+02  0.72416927388E+03  0.44660190139E+03  0.85430107526E+03  0.50400001928E-02 0.  1.
       -1    1    3    3    0  502 -0.77174682522E+02 -0.72416927388E+03  0.14014309708E+02  0.72840474309E+03  0.50400001928E-02 0. -1.
</event>
<event>
 5   0  0.1484251E-04  0.1499766E+04  0.7818609E-02  0.8884609E-01
       -1   -1    0    0    0  501  0.00000000000E+00  0.00000000000E+00  0.84355965293E+03  0.84355965294E+03  0.50400001928E-02 0. -1.
        1   -1    0    0  501    0  0.00000000000E+00  0.00000000000E+00 -0.66660909170E+03  0.66660909172E+03  0.50400001928E-02 0.  1.
    10030    2    1    2    0    0  0.00000000000E+00  0.00000000000E+00  0.17695056122E+03  0.15101687447E+04  0.14997660272E+04 0.  0.
        5    1    3    3  502    0  0.25135963050E+03  0.70643487981E+03  0.96932393794E+02  0.75607531518E+03  0.46999998093E+01 0.  1.
       -5    1    3    3    0  502 -0.25135963050E+03 -0.70643487981E+03  0.80018167430E+02  0.75409342948E+03  0.46999998093E+01 0. -1.
</event>
<event>
 5   0  0.1427609E-04  0.1505340E+04  0.7818609E-02  0.8880910E-01
       -1   -1    0    0    0  501  0.00000000000E+00  0.00000000000E+00  0.60170565366E+03  0.60170565368E+03  0.50400001928E-02 0.  1.
        1   -1    0    0  501    0  0.00000000000E+00  0.00000000000E+00 -0.94151062660E+03  0.94151062661E+03  0.50400001928E-02 0. -1.
    10030    2    1    2    0    0  0.00000000000E+00  0.00000000000E+00 -0.33980497294E+03  0.15432162803E+04  0.15053401835E+04 0.  0.
        4    1    3    3  502    0 -0.52191788794E+03  0.21976828652E+03 -0.67817390546E+03  0.88352580067E+03  0.12699999809E+01 0. -1.
       -4    1    3    3    0  502  0.52191788794E+03 -0.21976828652E+03  0.33836893252E+03  0.65969047962E+03  0.12699999809E+01 0.  1.
</event>
<event>
 5   0  0.1426929E-04  0.1577116E+04  0.7818609E-02  0.8834731E-01
        1   -1    0    0  501    0  0.00000000000E+00  0.00000000000E+00  0.11637071702E+04  0.11637071702E+04  0.50400001928E-02 0.  1.
       -1   -1    0    0    0  501  0.00000000000E+00  0.00000000000E+00 -0.53434753549E+03  0.53434753551E+03  0.50400001928E-02 0. -1.
    10030    2    1    2    0    0  0.00000000000E+00  0.00000000000E+00  0.62935963471E+03  0.16980547057E+04  0.15771164300E+04 0.  0.
        1    1    3    3  502    0  0.54692034514E+03 -0.55359005718E+03  0.17747031651E+03  0.79817261829E+03  0.50400001928E-02 0. -1.
       -1    1    3    3    0  502 -0.54692034514E+03  0.55359005718E+03  0.45188931820E+03  0.89988208742E+03  0.50400001928E-02 0.  1.
</event>
<event>
 5   0  0.1426929E-04  0.1486555E+04  0.7818609E-02  0.8893443E-01
        1   -1    0    0  501    0  0.00000000000E+00  0.00000000000E+00  0.10522387671E+04  0.10522387671E+04  0.50400001928E-02 0.  1.
       -1   -1    0    0    0  501  0.00000000000E+00  0.00000000000E+00 -0.52503439088E+03  0.52503439091E+03  0.50400001928E-02 0. -1.
    10030    2    1    2    0    0  0.00000000000E+00  0.00000000000E+00  0.52720437618E+03  0.15772731580E+04  0.14865551321E+04 0.  0.
        1    1    3    3  502    0 -0.56831212403E+03  0.47314533644E+03  0.34311797783E+03  0.81521477321E+03  0.50400001928E-02 0. -1.
       -1    1    3    3    0  502  0.56831212403E+03 -0.47314533644E+03  0.18408639835E+03  0.76205838477E+03  0.50400001928E-02 0.  1.
</event>
<event>
 5   0  0.1426929E-04  0.1494047E+04  0.7818609E-02  0.8888421E-01
        1   -1    0    0  501    0  0.00000000000E+00  0.00000000000E+00  0.11112404049E+04  0.11112404049E+04  0.50400001928E-02 0.  1.
       -1   -1    0    0    0  501  0.00000000000E+00  0.00000000000E+00 -0.50218104571E+03  0.50218104573E+03  0.50400001928E-02 0. -1.
    10030    2    1    2    0    0  0.00000000000E+00  0.00000000000E+00  0.60905935923E+03  0.16134214507E+04  0.14940466775E+04 0.  0.
        1    1    3    3  502    0 -0.46970340094E+03 -0.21076156934E+03  0.88907617381E+03  0.10273744044E+04  0.50400001928E-02 0.  1.
       -1    1    3    3    0  502  0.46970340094E+03  0.21076156934E+03 -0.28001681458E+03  0.58604704627E+03  0.50400001928E-02 0. -1.
</event>
<event>
 5   0  0.1004313E-04  0.1499987E+04  0.7818609E-02  0.8884462E-01
       -4   -1    0    0    0  501  0.00000000000E+00  0.00000000000E+00  0.14352397946E+04  0.14352403565E+04  0.12699999809E+01 0.  1.
        4   -1    0    0  501    0  0.00000000000E+00  0.00000000000E+00 -0.39191190926E+03  0.39191396698E+03  0.12699999809E+01 0. -1.
    10030    2    1    2    0    0  0.00000000000E+00  0.00000000000E+00  0.10433278853E+04  0.18271543235E+04  0.14999866151E+04 0.  0.
        5    1    3    3  502    0 -0.12240289424E+02  0.91535340054E+02  0.14282706884E+04  0.14312609100E+04  0.46999998093E+01 0.  1.
       -5    1    3    3    0  502  0.12240289424E+02 -0.91535340054E+02 -0.38494280308E+03  0.39589341344E+03  0.46999998093E+01 0. -1.
</event>
<event>
 5   0  0.1484251E-04  0.1500510E+04  0.7818609E-02  0.8884114E-01
        1   -1    0    0  501    0  0.00000000000E+00  0.00000000000E+00  0.84195925456E+03  0.84195925457E+03  0.50400001928E-02 0.  1.
       -1   -1    0    0    0  501  0.00000000000E+00  0.00000000000E+00 -0.66853885852E+03  0.66853885854E+03  0.50400001928E-02 0. -1.
    10030    2    1    2    0    0  0.00000000000E+00  0.00000000000E+00  0.17342039604E+03  0.15104981131E+04  0.15005098853E+04 0.  0.
        5    1    3    3  502    0 -0.23548118841E+02 -0.31484049535E+03 -0.59839435302E+03  0.67659215421E+03  0.46999998093E+01 0. -1.
       -5    1    3    3    0  502  0.23548118841E+02  0.31484049535E+03  0.77181474906E+03  0.83390595890E+03  0.46999998093E+01 0.  1.
</event>
<event>
 5   0  0.2646718E-04  0.1501276E+04  0.7818609E-02  0.8883605E-01
       -2   -1    0    0    0  501  0.00000000000E+00  0.00000000000E+00  0.24744360400E+03  0.24744360401E+03  0.25500000920E-02 0. -1.
        2   -1    0    0  501    0  0.00000000000E+00  0.00000000000E+00 -0.22771137368E+04  0.22771137368E+04  0.25500000920E-02 0.  1.
    10030    2    1    2    0    0  0.00000000000E+00  0.00000000000E+00 -0.20296701328E+04  0.25245573408E+04  0.15012757638E+04 0.  0.
        3    1    3    3  502    0  0.25439849346E+03  0.17563101793E+03 -0.21650996500E+04  0.21870576930E+04  0.10100000352E+00 0.  1.
       -3    1    3    3    0  502 -0.25439849346E+03 -0.17563101793E+03  0.13542951720E+03  0.33749964780E+03  0.10100000352E+00 0. -1.
</event>
<event>
 5   0  0.1474203E-04  0.1504282E+04  0.7818609E-02  0.8881610E-01
       -1   -1    0    0    0  501  0.00000000000E+00  0.00000000000E+00  0.53672042189E+03  0.53672042192E+03  0.50400001928E-02 0. -1.
        1   -1    0    0  501    0  0.00000000000E+00  0.00000000000E+00 -0.10540244312E+04  0.10540244312E+04  0.50400001928E-02 0.  1.
    10030    2    1    2    0    0  0.00000000000E+00  0.00000000000E+00 -0.51730400929E+03  0.15907448531E+04  0.15042824700E+04 0.  0.
        3    1    3    3  502    0 -0.21791884273E+03 -0.44658090979E+03 -0.85572265336E+03  0.98953746805E+03  0.10100000352E+00 0.  1.
       -3    1    3    3    0  502  0.21791884273E+03  0.44658090979E+03  0.33841864406E+03  0.60120738506E+03  0.10100000352E+00 0. -1.
</event>
<event>
 5   0  0.1443750E-04  0.1480633E+04  0.7818609E-02  0.8897435E-01
       -1   -1    0    0    0  501  0.00000000000E+00  0.00000000000E+00  0.45034590655E+03  0.45034590658E+03  0.50400001928E-02 0.  1.
        1   -1    0    0  501    0  0.00000000000E+00  0.00000000000E+00 -0.12169950079E+04  0.12169950079E+04  0.50400001928E-02 0. -1.
    10030    2    1    2    0    0  0.00000000000E+00  0.00000000000E+00 -0.76664910131E+03  0.16673409144E+04  0.14806332701E+04 0.  0.
        2    1    3    3  502    0 -0.26263773571E+03 -0.30049457150E+03 -0.10854847476E+04  0.11565261368E+04  0.25500000920E-02 0. -1.
       -2    1    3    3    0  502  0.26263773571E+03  0.30049457150E+03  0.31883564631E+03  0.51081477767E+03  0.25500000920E-02 0.  1.
</event>
<event>
 5   0  0.2734072E-04  0.1503965E+04  0.7818609E-02  0.8881820E-01
        2   -1    0    0  501    0  0.00000000000E+00  0.00000000000E+00  0.60983428071E+03  0.60983428072E+03  0.25500000920E-02 0.  1.
       -2   -1    0    0    0  501  0.00000000000E+00  0.00000000000E+00 -0.92726493242E+03  0.92726493242E+03  0.25500000920E-02 0. -1.
    10030    2    1    2    0    0  0.00000000000E+00  0.00000000000E+00 -0.31743065171E+03  0.15370992131E+04  0.15039653495E+04 0.  0.
        5    1    3    3  502    0  0.69249783151E+03  0.16311576092E+03 -0.40758744028E+03  0.81994488203E+03  0.46999998093E+01 0. -1.
       -5    1    3    3    0  502 -0.69249783151E+03 -0.16311576092E+03  0.90156788572E+02  0.71715433111E+03  0.46999998093E+01 0.  1.
</event>
<event>
 5   0  0.2646718E-04  0.1452783E+04  0.7818609E-02  0.8916473E-01
        2   -1    0    0  501    0  0.00000000000E+00  0.00000000000E+00  0.14157084947E+04  0.14157084947E+04  0.25500000920E-02 0. -1.
       -2   -1    0    0    0  501  0.00000000000E+00  0.00000000000E+00 -0.37270703680E+03  0.37270703680E+03  0.25500000920E-02 0.  1.
    10030    2    1    2    0    0  0.00000000000E+00  0.00000000000E+00  0.10430014579E+04  0.17884155315E+04  0.14527828716E+04 0.  0.
        3    1    3    3  502    0  0.16195066319E+03  0.69432650071E+03  0.69264099498E+03  0.99401653157E+03  0.10100000352E+00 0.  1.
       -3    1    3    3    0  502 -0.16195066319E+03 -0.69432650071E+03  0.35036046289E+03  0.79439899991E+03  0.10100000352E+00 0. -1.
</event>
<event>
 5   0  0.1426929E-04  0.1497758E+04  0.7818609E-02  0.8885945E-01
       -1   -1    0    0    0  501  0.00000000000E+00  0.00000000000E+00  0.14375473267E+04  0.14375473267E+04  0.50400001928E-02 0.  1.
        1   -1    0    0  501    0  0.00000000000E+00  0.00000000000E+00 -0.39012250319E+03  0.39012250322E+03  0.50400001928E-02 0. -1.
    10030    2    1    2    0    0  0.00000000000E+00  0.00000000000E+00  0.10474248235E+04  0.18276698299E+04  0.14977577395E+04 0.  0.
        1    1    3    3  502    0 -0.15469414970E+03 -0.56161669579E+03  0.10979868362E+04  0.12429475796E+04  0.50400001928E-02 0.  1.
       -1    1    3    3    0  502  0.15469414970E+03  0.56161669579E+03 -0.50562012718E+02  0.58472225038E+03  0.50400001928E-02 0. -1.
</event>
<event>
 5   0  0.2641347E-04  0.1500957E+04  0.7818609E-02  0.8883817E-01
        2   -1    0    0  501    0  0.00000000000E+00  0.00000000000E+00  0.12768638904E+04  0.12768638904E+04  0.25500000920E-02 0. -1.
       -2   -1    0    0    0  501  0.00000000000E+00  0.00000000000E+00 -0.44109463635E+03  0.44109463635E+03  0.25500000920E-02 0.  1.
    10030    2    1    2    0    0  0.00000000000E+00  0.00000000000E+00  0.83576925401E+03  0.17179585267E+04  0.15009567794E+04 0.  0.
        4    1    3    3  502    0  0.54394339121E+03 -0.13216451386E+03 -0.15425932165E+03  0.58063708354E+03  0.12699999809E+01 0.  1.
       -4    1    3    3    0  502 -0.54394339121E+03  0.13216451386E+03  0.99002857567E+03  0.11373214432E+04  0.12699999809E+01 0. -1.
</event>
<event>
 5   0  0.2618901E-04  0.1497163E+04  0.7818609E-02  0.8886342E-01
       -2   -1    0    0    0  501  0.00000000000E+00  0.00000000000E+00  0.53079656649E+03  0.53079656649E+03  0.25500000920E-02 0. -1.
        2   -1    0    0  501    0  0.00000000000E+00  0.00000000000E+00 -0.10557226837E+04  0.10557226837E+04  0.25500000920E-02 0.  1.
    10030    2    1    2    0    0  0.00000000000E+00  0.00000000000E+00 -0.52492611721E+03  0.15865192502E+04  0.14971626173E+04 0.  0.
        1    1    3    3  502    0  0.64513517659E+03  0.77183698215E+02 -0.65642793575E+03  0.92360941647E+03  0.50400001928E-02 0.  1.
       -1    1    3    3    0  502 -0.64513517659E+03 -0.77183698215E+02  0.13150181854E+03  0.66290983372E+03  0.50400001928E-02 0. -1.
</event>
<event>
 5   0  0.2646718E-04  0.1497492E+04  0.7818609E-02  0.8886122E-01
        2   -1    0    0  501    0  0.00000000000E+00  0.00000000000E+00  0.60846281352E+03  0.60846281352E+03  0.25500000920E-02 0. -1.
       -2   -1    0    0    0  501  0.00000000000E+00  0.00000000000E+00 -0.92137246518E+03  0.92137246518E+03  0.25500000920E-02 0.  1.
    10030    2    1    2    0    0  0.00000000000E+00  0.00000000000E+00 -0.31290965166E+03  0.15298352787E+04  0.14974924140E+04 0.  0.
        3    1    3    3  502    0 -0.15555062664E+03 -0.26399001519E+03 -0.85438958573E+03  0.90767191208E+03  0.10100000352E+00 0.  1.
       -3    1    3    3    0  502  0.15555062664E+03  0.26399001519E+03  0.54147993407E+03  0.62216336663E+03  0.10100000352E+00 0. -1.
</event>
<event>
 5   0  0.1484251E-04  0.1492077E+04  0.7818609E-02  0.8889739E-01
       -1   -1    0    0    0  501  0.00000000000E+00  0.00000000000E+00  0.30733743640E+03  0.30733743644E+03  0.50400001928E-02 0. -1.
        1   -1    0    0  501    0  0.00000000000E+00  0.00000000000E+00 -0.18109512822E+04  0.18109512822E+04  0.50400001928E-02 0.  1.
    10030    2    1    2    0    0  0.00000000000E+00  0.00000000000E+00 -0.15036138458E+04  0.21182887186E+04  0.14920765725E+04 0.  0.
        5    1    3    3  502    0 -0.73882340841E+03 -0.35710299441E+02 -0.88956662621E+03  0.11569296118E+04  0.46999998093E+01 0. -1.
       -5    1    3    3    0  502  0.73882340841E+03  0.35710299441E+02 -0.61404721956E+03  0.96135910676E+03  0.46999998093E+01 0.  1.
</event>
<event>
 5   0  0.1443750E-04  0.1494636E+04  0.7818609E-02  0.8888027E-01
       -1   -1    0    0    0  501  0.00000000000E+00  0.00000000000E+00  0.24637694796E+03  0.24637694801E+03  0.50400001928E-02 0. -1.
        1   -1    0    0  501    0  0.00000000000E+00  0.00000000000E+00 -0.22667888437E+04  0.22667888437E+04  0.50400001928E-02 0.  1.
    10030    2    1    2    0    0  0.00000000000E+00  0.00000000000E+00 -0.20204118957E+04  0.25131657917E+04  0.14946364335E+04 0.  0.
        2    1    3    3  502    0 -0.22998451355E+03  0.64301505203E+03 -0.49985340919E+03  0.84629466754E+03  0.25500000920E-02 0. -1.
       -2    1    3    3    0  502  0.22998451355E+03 -0.64301505203E+03 -0.15205584865E+04  0.16668711242E+04  0.25500000920E-02 0.  1.
</event>
<event>
 5   0  0.1426929E-04  0.1511963E+04  0.7818609E-02  0.8876536E-01
       -1   -1    0    0    0  501  0.00000000000E+00  0.00000000000E+00  0.12646512961E+04  0.12646512961E+04  0.50400001928E-02 0.  1.
        1   -1    0    0  501    0  0.00000000000E+00  0.00000000000E+00 -0.45190967078E+03  0.45190967081E+03  0.50400001928E-02 0. -1.
    10030    2    1    2    0    0  0.00000000000E+00  0.00000000000E+00  0.81274162534E+03  0.17165609669E+04  0.15119631621E+04 0.  0.
        1    1    3    3  502    0 -0.27676851726E+01 -0.41465529169E+03  0.11240160868E+04  0.11980646203E+04  0.50400001928E-02 0.  1.
       -1    1    3    3    0  502  0.27676851726E+01  0.41465529169E+03 -0.31127446151E+03  0.51849634659E+03  0.50400001928E-02 0. -1.
</event>
<event>
 5   0  0.2696040E-04  0.1501110E+04  0.7818609E-02  0.8883715E-01
       -2   -1    0    0    0  501  0.00000000000E+00  0.00000000000E+00  0.39061341368E+03  0.39061341368E+03  0.25500000920E-02 0. -1.
        2   -1    0    0  501    0  0.00000000000E+00  0.00000000000E+00 -0.14421744035E+04  0.14421744035E+04  0.25500000920E-02 0.  1.
    10030    2    1    2    0    0  0.00000000000E+00  0.00000000000E+00 -0.10515609898E+04  0.18327878171E+04  0.15011098119E+04 0.  0.
        2    1    3    3  502    0 -0.57721609139E+01  0.14687942349E+03  0.37286722976E+03  0.40079527682E+03  0.25500000920E-02 0. -1.
       -2    1    3    3    0  502  0.57721609139E+01 -0.14687942349E+03 -0.14244282195E+04  0.14319925403E+04  0.25500000920E-02 0.  1.
</event>
<event>
 5   0  0.2641347E-04  0.1506318E+04  0.7818609E-02  0.8880262E-01
        2   -1    0    0  501    0  0.00000000000E+00  0.00000000000E+00  0.83966061648E+03  0.83966061649E+03  0.25500000920E-02 0.  1.
       -2   -1    0    0    0  501  0.00000000000E+00  0.00000000000E+00 -0.67556905384E+03  0.67556905384E+03  0.25500000920E-02 0. -1.
    10030    2    1    2    0    0  0.00000000000E+00  0.00000000000E+00  0.16409156264E+03  0.15152296703E+04  0.15063183305E+04 0.  0.
        4    1    3    3  502    0  0.67213699574E+03  0.32100238971E+03  0.19422431158E+03  0.76976319174E+03  0.12699999809E+01 0.  1.
       -4    1    3    3    0  502 -0.67213699574E+03 -0.32100238971E+03 -0.30132748937E+02  0.74546647859E+03  0.12699999809E+01 0. -1.
</event>
<event>
 5   0  0.1443750E-04  0.1498638E+04  0.7818609E-02  0.8885359E-01
       -1   -1    0    0    0  501  0.00000000000E+00  0.00000000000E+00  0.59863234195E+03  0.59863234197E+03  0.50400001928E-02 0.  1.
        1   -1    0    0  501    0  0.00000000000E+00  0.00000000000E+00 -0.93793566222E+03  0.93793566223E+03  0.50400001928E-02 0. -1.
    10030    2    1    2    0    0  0.00000000000E+00  0.00000000000E+00 -0.33930332027E+03  0.15365680042E+04  0.14986375440E+04 0.  0.
        2    1    3    3  502    0 -0.26430995805E+03 -0.33351825514E+03 -0.80201480398E+03  0.90792176218E+03  0.25500000920E-02 0. -1.
       -2    1    3    3    0  502  0.26430995805E+03  0.33351825514E+03  0.46271148371E+03  0.62864624202E+03  0.25500000920E-02 0.  1.
</event>
<event>
 5   0  0.1484251E-04  0.1494897E+04  0.7818609E-02  0.8887853E-01
        1   -1    0    0  501    0  0.00000000000E+00  0.00000000000E+00  0.76776642393E+03  0.76776642394E+03  0.50400001928E-02 0.  1.
       -1   -1    0    0    0  501  0.00000000000E+00  0.00000000000E+00 -0.72766847368E+03  0.72766847370E+03  0.50400001928E-02 0. -1.
    10030    2    1    2    0    0  0.00000000000E+00  0.00000000000E+00  0.40097950247E+02  0.14954348976E+04  0.14948972164E+04 0.  0.
        5    1    3    3  502    0  0.75584777526E+02 -0.62800964138E+03 -0.37827531063E+03  0.73703695218E+03  0.46999998093E+01 0. -1.
       -5    1    3    3    0  502 -0.75584777526E+02  0.62800964138E+03  0.41837326087E+03  0.75839794545E+03  0.46999998093E+01 0.  1.
</event>
<event>
 5   0  0.1443750E-04  0.1501584E+04  0.7818609E-02  0.8883400E-01
        1   -1    0    0  501    0  0.00000000000E+00  0.00000000000E+00  0.13168087784E+04  0.13168087784E+04  0.50400001928E-02 0.  1.
       -1   -1    0    0    0  501  0.00000000000E+00  0.00000000000E+00 -0.42807190584E+03  0.42807190587E+03  0.50400001928E-02 0. -1.
    10030    2    1    2    0    0  0.00000000000E+00  0.00000000000E+00  0.88873687254E+03  0.17448806843E+04  0.15015842879E+04 0.  0.
        2    1    3    3  502    0  0.27507678029E+03 -0.68522880318E+03  0.28638797584E+03  0.79197463373E+03  0.25500000920E-02 0. -1.
       -2    1    3    3    0  502 -0.27507678029E+03  0.68522880318E+03  0.60234889670E+03  0.95290605053E+03  0.25500000920E-02 0.  1.
</event>
<event>
 5   0  0.1004313E-04  0.1433124E+04  0.7818609E-02  0.8930185E-01
       -3   -1    0    0    0  501  0.00000000000E+00  0.00000000000E+00  0.68378567442E+03  0.68378568188E+03  0.10100000352E+00 0. -1.
        3   -1    0    0  501    0  0.00000000000E+00  0.00000000000E+00 -0.75090938632E+03  0.75090939311E+03  0.10100000352E+00 0.  1.
    10030    2    1    2    0    0  0.00000000000E+00  0.00000000000E+00 -0.67123711895E+02  0.14346950750E+04  0.14331239882E+04 0.  0.
        1    1    3    3  502    0 -0.16334966243E+03 -0.75517972858E+02 -0.72791793648E+03  0.74983371405E+03  0.50400001928E-02 0.  1.
       -1    1    3    3    0  502  0.16334966243E+03  0.75517972858E+02  0.66079422459E+03  0.68486136094E+03  0.50400001928E-02 0. -1.
</event>
<event>
 5   0  0.2696040E-04  0.1503886E+04  0.7818609E-02  0.8881873E-01
       -2   -1    0    0    0  501  0.00000000000E+00  0.00000000000E+00  0.13658408756E+04  0.13658408756E+04  0.25500000920E-02 0. -1.
        2   -1    0    0  501    0  0.00000000000E+00  0.00000000000E+00 -0.41397079977E+03  0.41397079978E+03  0.25500000920E-02 0.  1.
    10030    2    1    2    0    0  0.00000000000E+00  0.00000000000E+00  0.95187007579E+03  0.17798116753E+04  0.15038859526E+04 0.  0.
        2    1    3    3  502    0 -0.12725913382E+03  0.70622952892E+03  0.74179109736E+03  0.10320896602E+04  0.25500000920E-02 0.  1.
       -2    1    3    3    0  502  0.12725913382E+03 -0.70622952892E+03  0.21007897843E+03  0.74772201509E+03  0.25500000920E-02 0. -1.
</event>
<event>
 5   0  0.2646718E-04  0.1497808E+04  0.7818609E-02  0.8885912E-01
        2   -1    0    0  501    0  0.00000000000E+00  0.00000000000E+00  0.75068419845E+03  0.75068419845E+03  0.25500000920E-02 0.  1.
       -2   -1    0    0    0  501  0.00000000000E+00  0.00000000000E+00 -0.74712849928E+03  0.74712849928E+03  0.25500000920E-02 0. -1.
    10030    2    1    2    0    0  0.00000000000E+00  0.00000000000E+00  0.35556991733E+01  0.14978126977E+04  0.14978084772E+04 0.  0.
        3    1    3    3  502    0 -0.34609733915E+03 -0.65942273901E+03 -0.77189654326E+02  0.74871888572E+03  0.10100000352E+00 0. -1.
       -3    1    3    3    0  502  0.34609733915E+03  0.65942273901E+03  0.80745353499E+02  0.74909381202E+03  0.10100000352E+00 0.  1.
</event>
<event>
 5   0  0.2696040E-04  0.1499419E+04  0.7818609E-02  0.8884839E-01
       -2   -1    0    0    0  501  0.00000000000E+00  0.00000000000E+00  0.73613639757E+03  0.73613639757E+03  0.25500000920E-02 0.  1.
        2   -1    0    0  501    0  0.00000000000E+00  0.00000000000E+00 -0.76353314008E+03  0.76353314008E+03  0.25500000920E-02 0. -1.
    10030    2    1    2    0    0  0.00000000000E+00  0.00000000000E+00 -0.27396742510E+02  0.14996695377E+04  0.14994192678E+04 0.  0.
        2    1    3    3  502    0 -0.48598201964E+03  0.22211721320E+03 -0.53966631858E+03  0.75944342464E+03  0.25500000920E-02 0. -1.
       -2    1    3    3    0  502  0.48598201964E+03 -0.22211721320E+03  0.51226957607E+03  0.74022611302E+03  0.25500000920E-02 0.  1.
</event>
<event>
 5   0  0.1474203E-04  0.1503372E+04  0.7818609E-02  0.8882214E-01
       -1   -1    0    0    0  501  0.00000000000E+00  0.00000000000E+00  0.17510122546E+04  0.17510122546E+04  0.50400001928E-02 0.  1.
        1   -1    0    0  501    0  0.00000000000E+00  0.00000000000E+00 -0.32268851006E+03  0.32268851010E+03  0.50400001928E-02 0. -1.
    10030    2    1    2    0    0  0.00000000000E+00  0.00000000000E+00  0.14283237445E+04  0.20737007647E+04  0.15033715915E+04 0.  0.
        3    1    3    3  502    0 -0.19060821844E+03  0.12739140709E+03 -0.27328693900E+03  0.35671532735E+03  0.10100000352E+00 0. -1.
       -3    1    3    3    0  502  0.19060821844E+03 -0.12739140709E+03  0.17016106835E+04  0.17169854373E+04  0.10100000352E+00 0.  1.
</event>
<event>
 5   0  0.1484251E-04  0.1528345E+04  0.7818609E-02  0.8865820E-01
       -1   -1    0    0    0  501  0.00000000000E+00  0.00000000000E+00  0.41370235595E+03  0.41370235598E+03  0.50400001928E-02 0.  1.
        1   -1    0    0  501    0  0.00000000000E+00  0.00000000000E+00 -0.14115453370E+04  0.14115453371E+04  0.50400001928E-02 0. -1.
    10030    2    1    2    0    0  0.00000000000E+00  0.00000000000E+00 -0.99784298110E+03  0.18252476930E+04  0.15283450284E+04 0.  0.
        5    1    3    3  502    0  0.28314185033E+03 -0.28797533167E+03 -0.12736652771E+04  0.13361678140E+04  0.46999998093E+01 0. -1.
       -5    1    3    3    0  502 -0.28314185033E+03  0.28797533167E+03  0.27582229604E+03  0.48907987901E+03  0.46999998093E+01 0.  1.
</event>
<event>
 5   0  0.2734072E-04  0.1503758E+04  0.7818609E-02  0.8881958E-01
       -2   -1    0    0    0  501  0.00000000000E+00  0.00000000000E+00  0.19884942286E+03  0.19884942288E+03  0.25500000920E-02 0.  1.
        2   -1    0    0  501    0  0.00000000000E+00  0.00000000000E+00 -0.28429645043E+04  0.28429645043E+04  0.25500000920E-02 0. -1.
    10030    2    1    2    0    0  0.00000000000E+00  0.00000000000E+00 -0.26441150815E+04  0.30418139272E+04  0.15037577610E+04 0.  0.
        5    1    3    3  502    0 -0.37290766640E+03  0.26034509294E+03 -0.25331440109E+04  0.25736511739E+04  0.46999998093E+01 0. -1.
       -5    1    3    3    0  502  0.37290766640E+03 -0.26034509294E+03 -0.11097107058E+03  0.46816275330E+03  0.46999998093E+01 0.  1.
</event>
<event>
 5   0  0.1484251E-04  0.1504129E+04  0.7818609E-02  0.8881712E-01
       -1   -1    0    0    0  501  0.00000000000E+00  0.00000000000E+00  0.64753964932E+03  0.64753964934E+03  0.50400001928E-02 0. -1.
        1   -1    0    0  501    0  0.00000000000E+00  0.00000000000E+00 -0.87346128071E+03  0.87346128072E+03  0.50400001928E-02 0.  1.
    10030    2    1    2    0    0  0.00000000000E+00  0.00000000000E+00 -0.22592163139E+03  0.15210009301E+04  0.15041287331E+04 0.  0.
        5    1    3    3  502    0  0.73815833429E+03  0.69129323789E+02 -0.24055917081E+03  0.77945326643E+03  0.46999998093E+01 0.  1.
       -5    1    3    3    0  502 -0.73815833429E+03 -0.69129323789E+02  0.14637539422E+02  0.74154766364E+03  0.46999998093E+01 0. -1.
</event>
<event>
 5   0  0.1443750E-04  0.1505437E+04  0.7818609E-02  0.8880846E-01
        1   -1    0    0  501    0  0.00000000000E+00  0.00000000000E+00  0.14970368956E+04  0.14970368956E+04  0.50400001928E-02 0.  1.
       -1   -1    0    0    0  501  0.00000000000E+00  0.00000000000E+00 -0.37847088147E+03  0.37847088151E+03  0.50400001928E-02 0. -1.
    10030    2    1    2    0    0  0.00000000000E+00  0.00000000000E+00  0.11185660141E+04  0.18755077771E+04  0.15054366457E+04 0.  0.
        2    1    3    3  502    0 -0.71125206781E+03 -0.12981378152E+03  0.29839160759E+03  0.78215642510E+03  0.25500000920E-02 0. -1.
       -2    1    3    3    0  502  0.71125206781E+03  0.12981378152E+03  0.82017440654E+03  0.10933513520E+04  0.25500000920E-02 0.  1.
</event>
<event>
 5   0  0.2734072E-04  0.1496290E+04  0.7818609E-02  0.8886923E-01
        2   -1    0    0  501    0  0.00000000000E+00  0.00000000000E+00  0.49023994557E+03  0.49023994558E+03  0.25500000920E-02 0. -1.
       -2   -1    0    0    0  501  0.00000000000E+00  0.00000000000E+00 -0.11417292626E+04  0.11417292626E+04  0.25500000920E-02 0.  1.
    10030    2    1    2    0    0  0.00000000000E+00  0.00000000000E+00 -0.65148931701E+03  0.16319692082E+04  0.14962904685E+04 0.  0.
        5    1    3    3  502    0 -0.52998793719E+03 -0.46488781324E+03 -0.52658479955E+02  0.70696739527E+03  0.46999998093E+01 0. -1.
       -5    1    3    3    0  502  0.52998793719E+03  0.46488781324E+03 -0.59883083705E+03  0.92500181290E+03  0.46999998093E+01 0.  1.
</event>
<event>
 5   0  0.1426929E-04  0.1503212E+04  0.7818609E-02  0.8882320E-01
       -1   -1    0    0    0  501  0.00000000000E+00  0.00000000000E+00  0.15060404399E+04  0.15060404399E+04  0.50400001928E-02 0. -1.
        1   -1    0    0  501    0  0.00000000000E+00  0.00000000000E+00 -0.37509742391E+03  0.37509742394E+03  0.50400001928E-02 0.  1.
    10030    2    1    2    0    0  0.00000000000E+00  0.00000000000E+00  0.11309430160E+04  0.18811378639E+04  0.15032124126E+04 0.  0.
        1    1    3    3  502    0  0.20525900590E+01 -0.13323513179E+03  0.14911408600E+04  0.14970827893E+04  0.50400001928E-02 0. -1.
       -1    1    3    3    0  502 -0.20525900590E+01  0.13323513179E+03 -0.36019784401E+03  0.38405507460E+03  0.50400001928E-02 0.  1.
</event>
<event>
 5   0  0.2646718E-04  0.1501567E+04  0.7818609E-02  0.8883412E-01
        2   -1    0    0  501    0  0.00000000000E+00  0.00000000000E+00  0.14348409081E+04  0.14348409081E+04  0.25500000920E-02 0.  1.
       -2   -1    0    0    0  501  0.00000000000E+00  0.00000000000E+00 -0.39284889305E+03  0.39284889306E+03  0.25500000920E-02 0. -1.
    10030    2    1    2    0    0  0.00000000000E+00  0.00000000000E+00  0.10419920150E+04  0.18276898011E+04  0.15015667317E+04 0.  0.
        3    1    3    3  502    0 -0.18569092235E+03 -0.62148672993E+03  0.60794460207E+02  0.65147743685E+03  0.10100000352E+00 0.  1.
       -3    1    3    3    0  502  0.18569092235E+03  0.62148672993E+03  0.98119755480E+03  0.11762123643E+04  0.10100000352E+00 0. -1.
</event>
<event>
 5   0  0.2618901E-04  0.1479251E+04  0.7818609E-02  0.8898369E-01
       -2   -1    0    0    0  501  0.00000000000E+00  0.00000000000E+00  0.18320879610E+04  0.18320879610E+04  0.25500000920E-02 0.  1.
        2   -1    0    0  501    0  0.00000000000E+00  0.00000000000E+00 -0.29859144625E+03  0.29859144626E+03  0.25500000920E-02 0. -1.
    10030    2    1    2    0    0  0.00000000000E+00  0.00000000000E+00  0.15334965147E+04  0.21306794072E+04  0.14792508833E+04 0.  0.
        1    1    3    3  502    0  0.46896136747E+03 -0.55197780677E+03  0.98252394429E+03  0.12206381792E+04  0.50400001928E-02 0.  1.
       -1    1    3    3    0  502 -0.46896136747E+03  0.55197780677E+03  0.55097257043E+03  0.91004122804E+03  0.50400001928E-02 0. -1.
</event>
<event>
 5   0  0.2646718E-04  0.1496145E+04  0.7818609E-02  0.8887021E-01
        2   -1    0    0  501    0  0.00000000000E+00  0.00000000000E+00  0.17023887324E+04  0.17023887324E+04  0.25500000920E-02 0. -1.
       -2   -1    0    0    0  501  0.00000000000E+00  0.00000000000E+00 -0.32872171093E+03  0.32872171094E+03  0.25500000920E-02 0.  1.
    10030    2    1    2    0    0  0.00000000000E+00  0.00000000000E+00  0.13736670215E+04  0.20311104434E+04  0.14961445609E+04 0.  0.
        3    1    3    3  502    0  0.24255945903E+03 -0.14763079414E+03  0.16263830006E+04  0.16509850446E+04  0.10100000352E+00 0. -1.
       -3    1    3    3    0  502 -0.24255945903E+03  0.14763079414E+03 -0.25271597908E+03  0.38012539882E+03  0.10100000352E+00 0.  1.
</event>
<event>
 5   0  0.1004313E-04  0.1498450E+04  0.7818609E-02  0.8885484E-01
       -4   -1    0    0    0  501  0.00000000000E+00  0.00000000000E+00  0.10335670697E+04  0.10335678499E+04  0.12699999809E+01 0.  1.
        4   -1    0    0  501    0  0.00000000000E+00  0.00000000000E+00 -0.54310594460E+03  0.54310742948E+03  0.12699999809E+01 0. -1.
    10030    2    1    2    0    0  0.00000000000E+00  0.00000000000E+00  0.49046112507E+03  0.15766752794E+04  0.14984501398E+04 0.  0.
        5    1    3    3  502    0  0.35141616496E+03  0.53218151680E+03  0.65895636861E+03  0.91703657154E+03  0.46999998093E+01 0.  1.
       -5    1    3    3    0  502 -0.35141616496E+03 -0.53218151680E+03 -0.16849524354E+03  0.65963870787E+03  0.46999998093E+01 0. -1.
</event>
<event>
 5   0  0.2641347E-04  0.1504460E+04  0.7818609E-02  0.8881492E-01
        2   -1    0    0  501    0  0.00000000000E+00  0.00000000000E+00  0.93383278849E+03  0.93383278850E+03  0.25500000920E-02 0. -1.
       -2   -1    0    0    0  501  0.00000000000E+00  0.00000000000E+00 -0.60594358529E+03  0.60594358529E+03  0.25500000920E-02 0.  1.
    10030    2    1    2    0    0  0.00000000000E+00  0.00000000000E+00  0.32788920320E+03  0.15397763738E+04  0.15044600200E+04 0.  0.
        4    1    3    3  502    0  0.23592523915E+03 -0.17486753008E+03 -0.54485042908E+03  0.61895312788E+03  0.12699999809E+01 0.  1.
       -4    1    3    3    0  502 -0.23592523915E+03  0.17486753008E+03  0.87273963229E+03  0.92082324591E+03  0.12699999809E+01 0. -1.
</event>
<event>
 5   0  0.1484251E-04  0.1494756E+04  0.7818609E-02  0.8887948E-01
        1   -1    0    0  501    0  0.00000000000E+00  0.00000000000E+00  0.84979553265E+03  0.84979553266E+03  0.50400001928E-02 0. -1.
       -1   -1    0    0    0  501  0.00000000000E+00  0.00000000000E+00 -0.65730353342E+03  0.65730353344E+03  0.50400001928E-02 0.  1.
    10030    2    1    2    0    0  0.00000000000E+00  0.00000000000E+00  0.19249199923E+03  0.15070990661E+04  0.14947556407E+04 0.  0.
        5    1    3    3  502    0 -0.26418095125E+03  0.40467703082E+03 -0.47854624926E+03  0.68013504318E+03  0.46999998093E+01 0.  1.
       -5    1    3    3    0  502  0.26418095125E+03 -0.40467703082E+03  0.67103824849E+03  0.82696402292E+03  0.46999998093E+01 0. -1.
</event>
<event>
 5   0  0.1004313E-04  0.1467754E+04  0.7818609E-02  0.8906184E-01
        4   -1    0    0  501    0  0.00000000000E+00  0.00000000000E+00  0.40718736677E+03  0.40718934731E+03  0.12699999809E+01 0.  1.
       -4   -1    0    0    0  501  0.00000000000E+00  0.00000000000E+00 -0.13226662137E+04  0.13226668234E+04  0.12699999809E+01 0. -1.
    10030    2    1    2    0    0  0.00000000000E+00  0.00000000000E+00 -0.91547884692E+03  0.17298561707E+04  0.14677536756E+04 0.  0.
        4    1    3    3  502    0  0.59248920871E+03 -0.41813532021E+03 -0.32495754244E+03  0.79465692329E+03  0.12699999809E+01 0.  1.
       -4    1    3    3    0  502 -0.59248920871E+03  0.41813532021E+03 -0.59052130447E+03  0.93519924742E+03  0.12699999809E+01 0. -1.
</event>
<event>
 5   0  0.1004313E-04  0.1502219E+04  0.7818609E-02  0.8882979E-01
        3   -1    0    0  501    0  0.00000000000E+00  0.00000000000E+00  0.66048345249E+03  0.66048346021E+03  0.10100000352E+00 0. -1.
       -3   -1    0    0    0  501  0.00000000000E+00  0.00000000000E+00 -0.85417054557E+03  0.85417055154E+03  0.10100000352E+00 0.  1.
    10030    2    1    2    0    0  0.00000000000E+00  0.00000000000E+00 -0.19368709308E+03  0.15146540117E+04  0.15022190537E+04 0.  0.
        4    1    3    3  502    0  0.10837390572E+03 -0.17555080328E+03 -0.82504132199E+03  0.85044563839E+03  0.12699999809E+01 0.  1.
       -4    1    3    3    0  502 -0.10837390572E+03  0.17555080328E+03  0.63135422891E+03  0.66420837335E+03  0.12699999809E+01 0. -1.
</event>
<event>
 5   0  0.1443750E-04  0.1499463E+04  0.7818609E-02  0.8884810E-01
        1   -1    0    0  501    0  0.00000000000E+00  0.00000000000E+00  0.18197038665E+04  0.18197038665E+04  0.50400001928E-02 0. -1.
       -1   -1    0    0    0  501  0.00000000000E+00  0.00000000000E+00 -0.30889478756E+03  0.30889478760E+03  0.50400001928E-02 0.  1.
    10030    2    1    2    0    0  0.00000000000E+00  0.00000000000E+00  0.15108090789E+04  0.21285986541E+04  0.14994626228E+04 0.  0.
        2    1    3    3  502    0 -0.31787264572E+03  0.29950181719E+03  0.16204748776E+04  0.16782977049E+04  0.25500000920E-02 0. -1.
       -2    1    3    3    0  502  0.31787264572E+03 -0.29950181719E+03 -0.10966579869E+03  0.45030094915E+03  0.25500000920E-02 0.  1.
</event>
<event>
 5   0  0.1474203E-04  0.1503956E+04  0.7818609E-02  0.8881827E-01
        1   -1    0    0  501    0  0.00000000000E+00  0.00000000000E+00  0.71306114124E+03  0.71306114126E+03  0.50400001928E-02 0.  1.
       -1   -1    0    0    0  501  0.00000000000E+00  0.00000000000E+00 -0.79301836466E+03  0.79301836468E+03  0.50400001928E-02 0. -1.
    10030    2    1    2    0    0  0.00000000000E+00  0.00000000000E+00 -0.79957223416E+02  0.15060795059E+04  0.15039555581E+04 0.  0.
        3    1    3    3  502    0 -0.40128869739E+03  0.58696715257E+03 -0.28508438540E+03  0.76605233101E+03  0.10100000352E+00 0. -1.
       -3    1    3    3    0  502  0.40128869739E+03 -0.58696715257E+03  0.20512716198E+03  0.74002717493E+03  0.10100000352E+00 0.  1.
</event>
<event>
 5   0  0.1484251E-04  0.1498156E+04  0.7818609E-02  0.8885680E-01
        1   -1    0    0  501    0  0.00000000000E+00  0.00000000000E+00  0.66275089763E+03  0.66275089765E+03  0.50400001928E-02 0. -1.
       -1   -1    0    0    0  501  0.00000000000E+00  0.00000000000E+00 -0.84665019611E+03  0.84665019612E+03  0.50400001928E-02 0.  1.
    10030    2    1    2    0    0  0.00000000000E+00  0.00000000000E+00 -0.18389929848E+03  0.15094010938E+04  0.14981564371E+04 0.  0.
        5    1    3    3  502    0 -0.34885672369E+03 -0.85315845942E+01  0.57583912333E+03  0.67333987522E+03  0.46999998093E+01 0. -1.
       -5    1    3    3    0  502  0.34885672369E+03  0.85315845942E+01 -0.75973842181E+03  0.83606121856E+03  0.46999998093E+01 0.  1.
</event>
<event>
 5   0  0.2734072E-04  0.1500539E+04  0.7818609E-02  0.8884094E-01
        2   -1    0    0  501    0  0.00000000000E+00  0.00000000000E+00  0.19580912275E+04  0.19580912275E+04  0.25500000920E-02 0.  1.
       -2   -1    0    0    0  501  0.00000000000E+00  0.00000000000E+00 -0.28747623147E+03  0.28747623148E+03  0.25500000920E-02 0. -1.
    10030    2    1    2    0    0  0.00000000000E+00  0.00000000000E+00  0.16706149960E+04  0.22455674590E+04  0.15005394856E+04 0.  0.
        5    1    3    3  502    0 -0.60801633919E+03  0.13735701619E+03  0.14601448142E+04  0.15876384309E+04  0.46999998093E+01 0.  1.
       -5    1    3    3    0  502  0.60801633919E+03 -0.13735701619E+03  0.21047018180E+03  0.65792902812E+03  0.46999998093E+01 0. -1.
</event>
<event>
 5   0  0.1426929E-04  0.1508440E+04  0.7818609E-02  0.8878860E-01
        1   -1    0    0  501    0  0.00000000000E+00  0.00000000000E+00  0.13090141846E+04  0.13090141846E+04  0.50400001928E-02 0. -1.
       -1   -1    0    0    0  501  0.00000000000E+00  0.00000000000E+00 -0.43456192709E+03  0.43456192712E+03  0.50400001928E-02 0.  1.
    10030    2    1    2    0    0  0.00000000000E+00  0.00000000000E+00  0.87445225748E+03  0.17435761117E+04  0.15084398916E+04 0.  0.
        1    1    3    3  502    0 -0.29755639005E+03  0.65689175227E+03  0.18188080034E+03  0.74372522145E+03  0.50400001928E-02 0.  1.
       -1    1    3    3    0  502  0.29755639005E+03 -0.65689175227E+03  0.69257145714E+03  0.99985089025E+03  0.50400001928E-02 0. -1.
</event>
<event>
 5   0  0.1484251E-04  0.1492829E+04  0.7818609E-02  0.8889236E-01
       -1   -1    0    0    0  501  0.00000000000E+00  0.00000000000E+00  0.28543253523E+03  0.28543253527E+03  0.50400001928E-02 0.  1.
        1   -1    0    0  501    0  0.00000000000E+00  0.00000000000E+00 -0.19518956896E+04  0.19518956896E+04  0.50400001928E-02 0. -1.
    10030    2    1    2    0    0  0.00000000000E+00  0.00000000000E+00 -0.16664631544E+04  0.22373282249E+04  0.14928289055E+04 0.  0.
        5    1    3    3  502    0 -0.13680415365E+03  0.73374143017E+03 -0.82643221732E+03  0.11135996420E+04  0.46999998093E+01 0.  1.
       -5    1    3    3    0  502  0.13680415365E+03 -0.73374143017E+03 -0.84003093705E+03  0.11237285829E+04  0.46999998093E+01 0. -1.
</event>
<event>
 5   0  0.1427609E-04  0.1497386E+04  0.7818609E-02  0.8886193E-01
        1   -1    0    0  501    0  0.00000000000E+00  0.00000000000E+00  0.12088520780E+04  0.12088520780E+04  0.50400001928E-02 0. -1.
       -1   -1    0    0    0  501  0.00000000000E+00  0.00000000000E+00 -0.46369693803E+03  0.46369693806E+03  0.50400001928E-02 0.  1.
    10030    2    1    2    0    0  0.00000000000E+00  0.00000000000E+00  0.74515513996E+03  0.16725490161E+04  0.14973857314E+04 0.  0.
        4    1    3    3  502    0 -0.68566870262E+03 -0.30036100932E+03  0.35754647349E+03  0.82957784402E+03  0.12699999809E+01 0. -1.
       -4    1    3    3    0  502  0.68566870262E+03  0.30036100932E+03  0.38760866647E+03  0.84297117204E+03  0.12699999809E+01 0.  1.
</event>
<event>
 5   0  0.1443750E-04  0.1498967E+04  0.7818609E-02  0.8885140E-01
        1   -1    0    0  501    0  0.00000000000E+00  0.00000000000E+00  0.16459570357E+04  0.16459570357E+04  0.50400001928E-02 0. -1.
       -1   -1    0    0    0  501  0.00000000000E+00  0.00000000000E+00 -0.34127578523E+03  0.34127578526E+03  0.50400001928E-02 0.  1.
    10030    2    1    2    0    0  0.00000000000E+00  0.00000000000E+00  0.13046812505E+04  0.19872328210E+04  0.14989666839E+04 0.  0.
        2    1    3    3  502    0 -0.73612692929E+03  0.92822945500E+01  0.83868194570E+03  0.11159553858E+04  0.25500000920E-02 0. -1.
       -2    1    3    3    0  502  0.73612692929E+03 -0.92822945500E+01  0.46599930479E+03  0.87127743520E+03  0.25500000920E-02 0.  1.
</event>
<event>
 5   0  0.2696040E-04  0.1492229E+04  0.7818609E-02  0.8889637E-01
       -2   -1    0    0    0  501  0.00000000000E+00  0.00000000000E+00  0.31180091170E+03  0.31180091171E+03  0.25500000920E-02 0. -1.
        2   -1    0    0  501    0  0.00000000000E+00  0.00000000000E+00 -0.17853929034E+04  0.17853929034E+04  0.25500000920E-02 0.  1.
    10030    2    1    2    0    0  0.00000000000E+00  0.00000000000E+00 -0.14735919917E+04  0.20971938152E+04  0.14922293859E+04 0.  0.
        2    1    3    3  502    0  0.43954597151E+03  0.34888740534E+03 -0.45762906803E+02  0.56304291694E+03  0.25500000920E-02 0. -1.
       -2    1    3    3    0  502 -0.43954597151E+03 -0.34888740534E+03 -0.14278290849E+04  0.15341508982E+04  0.25500000920E-02 0.  1.
</event>
<event>
 5   0  0.2646718E-04  0.1498217E+04  0.7818609E-02  0.8885640E-01
        2   -1    0    0  501    0  0.00000000000E+00  0.00000000000E+00  0.60348871122E+03  0.60348871122E+03  0.25500000920E-02 0. -1.
       -2   -1    0    0    0  501  0.00000000000E+00  0.00000000000E+00 -0.92986565646E+03  0.92986565646E+03  0.25500000920E-02 0.  1.
    10030    2    1    2    0    0  0.00000000000E+00  0.00000000000E+00 -0.32637694524E+03  0.15333543677E+04  0.14982168423E+04 0.  0.
        3    1    3    3  502    0 -0.49615501147E+03 -0.29156723427E+03 -0.65400021271E+03  0.87114725273E+03  0.10100000352E+00 0.  1.
       -3    1    3    3    0  502  0.49615501147E+03  0.29156723427E+03  0.32762326748E+03  0.66220711496E+03  0.10100000352E+00 0. -1.
</event>
<event>
 5   0  0.2641347E-04  0.1496378E+04  0.7818609E-02  0.8886865E-01
       -2   -1    0    0    0  501  0.00000000000E+00  0.00000000000E+00  0.45144659392E+03  0.45144659392E+03  0.25500000920E-02 0. -1.
        2   -1    0    0  501    0  0.00000000000E+00  0.00000000000E+00 -0.12399844309E+04  0.12399844309E+04  0.25500000920E-02 0.  1.
    10030    2    1    2    0    0  0.00000000000E+00  0.00000000000E+00 -0.78853783695E+03  0.16914310248E+04  0.14963779574E+04 0.  0.
        4    1    3    3  502    0 -0.65308918617E+03  0.25892694964E+03 -0.68513698925E+03  0.98131695047E+03  0.12699999809E+01 0.  1.
       -4    1    3    3    0  502  0.65308918617E+03 -0.25892694964E+03 -0.10340084770E+03  0.71011407432E+03  0.12699999809E+01 0. -1.
</event>
<event>
 5   0  0.1484251E-04  0.1488753E+04  0.7818609E-02  0.8891966E-01
        1   -1    0    0  501    0  0.00000000000E+00  0.00000000000E+00  0.10257784195E+04  0.10257784195E+04  0.50400001928E-02 0.  1.
       -1   -1    0    0    0  501  0.00000000000E+00  0.00000000000E+00 -0.54017195850E+03  0.54017195852E+03  0.50400001928E-02 0. -1.
    10030    2    1    2    0    0  0.00000000000E+00  0.00000000000E+00  0.48560646099E+03  0.15659503780E+04  0.14887534892E+04 0.  0.
        5    1    3    3  502    0  0.63455659422E+03 -0.25995889737E+03  0.54735783074E+03  0.87741859136E+03  0.46999998093E+01 0. -1.
       -5    1    3    3    0  502 -0.63455659422E+03  0.25995889737E+03 -0.61751369752E+02  0.68853178667E+03  0.46999998093E+01 0.  1.
</event>
<event>
 5   0  0.2618901E-04  0.1542452E+04  0.7818609E-02  0.8856704E-01
       -2   -1    0    0    0  501  0.00000000000E+00  0.00000000000E+00  0.44714431540E+03  0.44714431541E+03  0.25500000920E-02 0. -1.
        2   -1    0    0  501    0  0.00000000000E+00  0.00000000000E+00 -0.13301954814E+04  0.13301954815E+04  0.25500000920E-02 0.  1.
    10030    2    1    2    0    0  0.00000000000E+00  0.00000000000E+00 -0.88305116605E+03  0.17773397969E+04  0.15424517469E+04 0.  0.
        1    1    3    3  502    0  0.16384840412E+03  0.70852392503E+03 -0.73741070502E+03  0.10356770731E+04  0.50400001928E-02 0.  1.
       -1    1    3    3    0  502 -0.16384840412E+03 -0.70852392503E+03 -0.14564046103E+03  0.74166272374E+03  0.50400001928E-02 0. -1.
</event>
<event>
 5   0  0.2734072E-04  0.1503038E+04  0.7818609E-02  0.8882435E-01
        2   -1    0    0  501    0  0.00000000000E+00  0.00000000000E+00  0.16509065520E+04  0.16509065520E+04  0.25500000920E-02 0. -1.
       -2   -1    0    0    0  501  0.00000000000E+00  0.00000000000E+00 -0.34210359270E+03  0.34210359271E+03  0.25500000920E-02 0.  1.
    10030    2    1    2    0    0  0.00000000000E+00  0.00000000000E+00  0.13088029593E+04  0.19930101447E+04  0.15030383397E+04 0.  0.
        5    1    3    3  502    0 -0.43723130309E+03 -0.16700025907E+03 -0.12522809835E+03  0.48452498960E+03  0.46999998093E+01 0.  1.
       -5    1    3    3    0  502  0.43723130309E+03  0.16700025907E+03  0.14340310577E+04  0.15084851551E+04  0.46999998093E+01 0. -1.
</event>
<event>
 5   0  0.1427609E-04  0.1498581E+04  0.7818609E-02  0.8885397E-01
        1   -1    0    0  501    0  0.00000000000E+00  0.00000000000E+00  0.73112141141E+03  0.73112141143E+03  0.50400001928E-02 0. -1.
       -1   -1    0    0    0  501  0.00000000000E+00  0.00000000000E+00 -0.76791104211E+03  0.76791104212E+03  0.50400001928E-02 0.  1.
    10030    2    1    2    0    0  0.00000000000E+00  0.00000000000E+00 -0.36789630699E+02  0.14990324535E+04  0.14985809354E+04 0.  0.
        4    1    3    3  502    0  0.18745691764E+03  0.60033373518E+03 -0.42581828581E+03  0.75951531584E+03  0.12699999809E+01 0.  1.
       -4    1    3    3    0  502 -0.18745691764E+03 -0.60033373518E+03  0.38902865511E+03  0.73951713771E+03  0.12699999809E+01 0. -1.
</event>
<event>
 5   0  0.1443750E-04  0.1503021E+04  0.7818609E-02  0.8882447E-01
        1   -1    0    0  501    0  0.00000000000E+00  0.00000000000E+00  0.10883968206E+04  0.10883968206E+04  0.50400001928E-02 0.  1.
       -1   -1    0    0    0  501  0.00000000000E+00  0.00000000000E+00 -0.51889866747E+03  0.51889866750E+03  0.50400001928E-02 0. -1.
    10030    2    1    2    0    0  0.00000000000E+00  0.00000000000E+00  0.56949815314E+03  0.16072954881E+04  0.15030205054E+04 0.  0.
        2    1    3    3  502    0 -0.32114044342E+03 -0.51624807404E+03  0.75712375799E+03  0.97101989849E+03  0.25500000920E-02 0.  1.
       -2    1    3    3    0  502  0.32114044342E+03  0.51624807404E+03 -0.18762560485E+03  0.63627558962E+03  0.25500000920E-02 0. -1.
</event>
<event>
 5   0  0.1443750E-04  0.1499262E+04  0.7818609E-02  0.8884944E-01
       -1   -1    0    0    0  501  0.00000000000E+00  0.00000000000E+00  0.56168794037E+03  0.56168794039E+03  0.50400001928E-02 0. -1.
        1   -1    0    0  501    0  0.00000000000E+00  0.00000000000E+00 -0.10004607206E+04  0.10004607206E+04  0.50400001928E-02 0.  1.
    10030    2    1    2    0    0  0.00000000000E+00  0.00000000000E+00 -0.43877278025E+03  0.15621486610E+04  0.14992621140E+04 0.  0.
        2    1    3    3  502    0 -0.36718015261E+03  0.22135737839E+03  0.42132622648E+03  0.60111242090E+03  0.25500000920E-02 0. -1.
       -2    1    3    3    0  502  0.36718015261E+03 -0.22135737839E+03 -0.86009900673E+03  0.96103624012E+03  0.25500000920E-02 0.  1.
</event>
<event>
 5   0  0.1474203E-04  0.1494032E+04  0.7818609E-02  0.8888431E-01
        1   -1    0    0  501    0  0.00000000000E+00  0.00000000000E+00  0.54983105948E+03  0.54983105951E+03  0.50400001928E-02 0.  1.
       -1   -1    0    0    0  501  0.00000000000E+00  0.00000000000E+00 -0.10149169337E+04  0.10149169337E+04  0.50400001928E-02 0. -1.
    10030    2    1    2    0    0  0.00000000000E+00  0.00000000000E+00 -0.46508587424E+03  0.15647479932E+04  0.14940319314E+04 0.  0.
        3    1    3    3  502    0 -0.59539149194E+03 -0.84812746821E+02 -0.69662890956E+03  0.92031303291E+03  0.10100000352E+00 0. -1.
       -3    1    3    3    0  502  0.59539149194E+03  0.84812746821E+02  0.23154303532E+03  0.64443496034E+03  0.10100000352E+00 0.  1.
</event>
<event>
 5   0  0.1443750E-04  0.1499772E+04  0.7818609E-02  0.8884604E-01
       -1   -1    0    0    0  501  0.00000000000E+00  0.00000000000E+00  0.51109433160E+03  0.51109433163E+03  0.50400001928E-02 0.  1.
        1   -1    0    0  501    0  0.00000000000E+00  0.00000000000E+00 -0.11002457109E+04  0.11002457109E+04  0.50400001928E-02 0. -1.
    10030    2    1    2    0    0  0.00000000000E+00  0.00000000000E+00 -0.58915137932E+03  0.16113400426E+04  0.14997724444E+04 0.  0.
        2    1    3    3  502    0  0.55238766658E+02 -0.74548995416E+03 -0.23080766910E+03  0.78235463392E+03  0.25500000920E-02 0.  1.
       -2    1    3    3    0  502 -0.55238766658E+02  0.74548995416E+03 -0.35834371022E+03  0.82898540865E+03  0.25500000920E-02 0. -1.
</event>
<event>
 5   0  0.2696040E-04  0.1483783E+04  0.7818609E-02  0.8895310E-01
        2   -1    0    0  501    0  0.00000000000E+00  0.00000000000E+00  0.83688399501E+03  0.83688399501E+03  0.25500000920E-02 0. -1.
       -2   -1    0    0    0  501  0.00000000000E+00  0.00000000000E+00 -0.65768095762E+03  0.65768095762E+03  0.25500000920E-02 0.  1.
    10030    2    1    2    0    0  0.00000000000E+00  0.00000000000E+00  0.17920303739E+03  0.14945649526E+04  0.14837825545E+04 0.  0.
        2    1    3    3  502    0 -0.59871067528E+03  0.17458749981E+03  0.49435161307E+03  0.79581328534E+03  0.25500000920E-02 0. -1.
       -2    1    3    3    0  502  0.59871067528E+03 -0.17458749981E+03 -0.31514857568E+03  0.69875166729E+03  0.25500000920E-02 0.  1.
</event>
<event>
 5   0  0.2696040E-04  0.1497280E+04  0.7818609E-02  0.8886264E-01
        2   -1    0    0  501    0  0.00000000000E+00  0.00000000000E+00  0.24539582432E+04  0.24539582432E+04  0.25500000920E-02 0. -1.
       -2   -1    0    0    0  501  0.00000000000E+00  0.00000000000E+00 -0.22839090139E+03  0.22839090141E+03  0.25500000920E-02 0.  1.
    10030    2    1    2    0    0  0.00000000000E+00  0.00000000000E+00  0.22255673418E+04  0.26823491446E+04  0.14972798471E+04 0.  0.
        2    1    3    3  502    0  0.18292948986E+03  0.50173453238E+03  0.20526901987E+04  0.21210228172E+04  0.25500000920E-02 0. -1.
       -2    1    3    3    0  502 -0.18292948986E+03 -0.50173453238E+03  0.17287714312E+03  0.56132632743E+03  0.25500000920E-02 0.  1.
</event>
<event>
 5   0  0.2646718E-04  0.1503799E+04  0.7818609E-02  0.8881931E-01
        2   -1    0    0  501    0  0.00000000000E+00  0.00000000000E+00  0.89470966994E+03  0.89470966994E+03  0.25500000920E-02 0. -1.
       -2   -1    0    0    0  501  0.00000000000E+00  0.00000000000E+00 -0.63188390165E+03  0.63188390165E+03  0.25500000920E-02 0.  1.
    10030    2    1    2    0    0  0.00000000000E+00  0.00000000000E+00  0.26282576829E+03  0.15265935716E+04  0.15037987061E+04 0.  0.
        3    1    3    3  502    0  0.14133508127E+03 -0.40971095819E+03  0.75514804431E+03  0.87068206222E+03  0.10100000352E+00 0.  1.
       -3    1    3    3    0  502 -0.14133508127E+03  0.40971095819E+03 -0.49232227602E+03  0.65591150937E+03  0.10100000352E+00 0. -1.
</event>
<event>
 5   0  0.1426929E-04  0.1498355E+04  0.7818609E-02  0.8885548E-01
       -1   -1    0    0    0  501  0.00000000000E+00  0.00000000000E+00  0.25023654974E+03  0.25023654980E+03  0.50400001928E-02 0.  1.
        1   -1    0    0  501    0  0.00000000000E+00  0.00000000000E+00 -0.22429451911E+04  0.22429451912E+04  0.50400001928E-02 0. -1.
    10030    2    1    2    0    0  0.00000000000E+00  0.00000000000E+00 -0.19927086414E+04  0.24931817409E+04  0.14983549192E+04 0.  0.
        1    1    3    3  502    0  0.40518725975E+03 -0.18987027402E+03 -0.19961622040E+04  0.20457006089E+04  0.50400001928E-02 0. -1.
       -1    1    3    3    0  502 -0.40518725975E+03  0.18987027402E+03  0.34535626258E+01  0.44748113205E+03  0.50400001928E-02 0.  1.
</event>
<event>
 5   0  0.1443750E-04  0.1493531E+04  0.7818609E-02  0.8888766E-01
        1   -1    0    0  501    0  0.00000000000E+00  0.00000000000E+00  0.16682910752E+04  0.16682910752E+04  0.50400001928E-02 0.  1.
       -1   -1    0    0    0  501  0.00000000000E+00  0.00000000000E+00 -0.33426950736E+03  0.33426950740E+03  0.50400001928E-02 0. -1.
    10030    2    1    2    0    0  0.00000000000E+00  0.00000000000E+00  0.13340215678E+04  0.20025605826E+04  0.14935311659E+04 0.  0.
        2    1    3    3  502    0  0.69768457148E+01 -0.64816420782E+03  0.11641890920E+04  0.13324795528E+04  0.25500000920E-02 0.  1.
       -2    1    3    3    0  502 -0.69768457148E+01  0.64816420782E+03  0.16983247585E+03  0.67008102983E+03  0.25500000920E-02 0. -1.
</event>
<event>
 5   0  0.1443750E-04  0.1496702E+04  0.7818609E-02  0.8886649E-01
       -1   -1    0    0    0  501  0.00000000000E+00  0.00000000000E+00  0.81082272159E+03  0.81082272161E+03  0.50400001928E-02 0.  1.
        1   -1    0    0  501    0  0.00000000000E+00  0.00000000000E+00 -0.69069287159E+03  0.69069287161E+03  0.50400001928E-02 0. -1.
    10030    2    1    2    0    0  0.00000000000E+00  0.00000000000E+00  0.12012985001E+03  0.15015155932E+04  0.14967023404E+04 0.  0.
        2    1    3    3  502    0 -0.38010024770E+03 -0.61809563603E+03  0.24371389375E+03  0.76545076628E+03  0.25500000920E-02 0. -1.
       -2    1    3    3    0  502  0.38010024770E+03  0.61809563603E+03 -0.12358404374E+03  0.73606482694E+03  0.25500000920E-02 0.  1.
</event>
<event>
 5   0  0.2646718E-04  0.1492945E+04  0.7818609E-02  0.8889158E-01
        2   -1    0    0  501    0  0.00000000000E+00  0.00000000000E+00  0.11862296085E+04  0.11862296085E+04  0.25500000920E-02 0.  1.
       -2   -1    0    0    0  501  0.00000000000E+00  0.00000000000E+00 -0.46974137706E+03  0.46974137707E+03  0.25500000920E-02 0. -1.
    10030    2    1    2    0    0  0.00000000000E+00  0.00000000000E+00  0.71648823140E+03  0.16559709855E+04  0.14929449150E+04 0.  0.
        3    1    3    3  502    0  0.62337422027E+02 -0.71556808483E+03  0.13283539079E+03  0.73045799979E+03  0.10100000352E+00 0. -1.
       -3    1    3    3    0  502 -0.62337422027E+02  0.71556808483E+03  0.58365284061E+03  0.92551298574E+03  0.10100000352E+00 0.  1.
</event>
<event>
 5   0  0.2696040E-04  0.1491938E+04  0.7818609E-02  0.8889832E-01
        2   -1    0    0  501    0  0.00000000000E+00  0.00000000000E+00  0.83881019152E+03  0.83881019152E+03  0.25500000920E-02 0.  1.
       -2   -1    0    0    0  501  0.00000000000E+00  0.00000000000E+00 -0.66340330083E+03  0.66340330084E+03  0.25500000920E-02 0. -1.
    10030    2    1    2    0    0  0.00000000000E+00  0.00000000000E+00  0.17540689068E+03  0.15022134924E+04  0.14919375990E+04 0.  0.
        2    1    3    3  502    0  0.45636645902E+03 -0.56327966261E+03 -0.89334562539E+02  0.73043479332E+03  0.25500000920E-02 0.  1.
       -2    1    3    3    0  502 -0.45636645902E+03  0.56327966261E+03  0.26474145322E+03  0.77177869904E+03  0.25500000920E-02 0. -1.
</event>
<event>
 5   0  0.2696040E-04  0.1504184E+04  0.7818609E-02  0.8881676E-01
       -2   -1    0    0    0  501  0.00000000000E+00  0.00000000000E+00  0.50664147909E+03  0.50664147910E+03  0.25500000920E-02 0.  1.
        2   -1    0    0  501    0  0.00000000000E+00  0.00000000000E+00 -0.11164544761E+04  0.11164544761E+04  0.25500000920E-02 0. -1.
    10030    2    1    2    0    0  0.00000000000E+00  0.00000000000E+00 -0.60981299703E+03  0.16230959552E+04  0.15041836951E+04 0.  0.
        2    1    3    3  502    0 -0.18683137599E+03 -0.54255851676E+03 -0.82951608906E+03  0.10086489227E+04  0.25500000920E-02 0. -1.
       -2    1    3    3    0  502  0.18683137599E+03  0.54255851676E+03  0.21970309203E+03  0.61444703256E+03  0.25500000920E-02 0.  1.
</event>
<event>
 5   0  0.1427609E-04  0.1496160E+04  0.7818609E-02  0.8887011E-01
       -1   -1    0    0    0  501  0.00000000000E+00  0.00000000000E+00  0.67266432273E+03  0.67266432275E+03  0.50400001928E-02 0.  1.
        1   -1    0    0  501    0  0.00000000000E+00  0.00000000000E+00 -0.83195066229E+03  0.83195066230E+03  0.50400001928E-02 0. -1.
    10030    2    1    2    0    0  0.00000000000E+00  0.00000000000E+00 -0.15928633955E+03  0.15046149851E+04  0.14961597894E+04 0.  0.
        4    1    3    3  502    0 -0.16819654568E+03 -0.31293110020E+03 -0.74169935329E+03  0.82239619103E+03  0.12699999809E+01 0. -1.
       -4    1    3    3    0  502  0.16819654568E+03  0.31293110020E+03  0.58241301373E+03  0.68221879402E+03  0.12699999809E+01 0.  1.
</event>
<event>
 5   0  0.1004313E-04  0.1502788E+04  0.7818609E-02  0.8882601E-01
        3   -1    0    0  501    0  0.00000000000E+00  0.00000000000E+00  0.77041820928E+03  0.77041821590E+03  0.10100000352E+00 0.  1.
       -3   -1    0    0    0  501  0.00000000000E+00  0.00000000000E+00 -0.73283948117E+03  0.73283948813E+03  0.10100000352E+00 0. -1.
    10030    2    1    2    0    0  0.00000000000E+00  0.00000000000E+00  0.37578728113E+02  0.15032577040E+04  0.15027879305E+04 0.  0.
        2    1    3    3  502    0 -0.48347246663E+03 -0.23766644598E+03 -0.50517006574E+03  0.73853081240E+03  0.25500000920E-02 0. -1.
       -2    1    3    3    0  502  0.48347246663E+03  0.23766644598E+03  0.54274879386E+03  0.76472689163E+03  0.25500000920E-02 0.  1.
</event>
<event>
 5   0  0.2618901E-04  0.1483951E+04  0.7818609E-02  0.8895196E-01
        2   -1    0    0  501    0  0.00000000000E+00  0.00000000000E+00  0.16591628461E+04  0.16591628462E+04  0.25500000920E-02 0. -1.
       -2   -1    0    0    0  501  0.00000000000E+00  0.00000000000E+00 -0.33181070611E+03  0.33181070612E+03  0.25500000920E-02 0.  1.
    10030    2    1    2    0    0  0.00000000000E+00  0.00000000000E+00  0.13273521400E+04  0.19909735523E+04  0.14839514757E+04 0.  0.
        1    1    3    3  502    0  0.73011783913E+03 -0.59037535181E+02  0.82225732778E+03  0.11012105170E+04  0.50400001928E-02 0.  1.
       -1    1    3    3    0  502 -0.73011783913E+03  0.59037535181E+02  0.50509481226E+03  0.88976303530E+03  0.50400001928E-02 0. -1.
</event>
<event>
 5   0  0.2646718E-04  0.1505333E+04  0.7818609E-02  0.8880914E-01
        2   -1    0    0  501    0  0.00000000000E+00  0.00000000000E+00  0.16965075145E+04  0.16965075145E+04  0.25500000920E-02 0. -1.
       -2   -1    0    0    0  501  0.00000000000E+00  0.00000000000E+00 -0.33392545981E+03  0.33392545982E+03  0.25500000920E-02 0.  1.
    10030    2    1    2    0    0  0.00000000000E+00  0.00000000000E+00  0.13625820547E+04  0.20304329744E+04  0.15053332546E+04 0.  0.
        3    1    3    3  502    0  0.42668770759E+03 -0.47030223308E+03  0.12262910226E+04  0.13809548409E+04  0.10100000352E+00 0. -1.
       -3    1    3    3    0  502 -0.42668770759E+03  0.47030223308E+03  0.13629103214E+03  0.64947813349E+03  0.10100000352E+00 0.  1.
</event>
<event>
 5   0  0.1004313E-04  0.1459692E+04  0.7818609E-02  0.8911709E-01
        4   -1    0    0  501    0  0.00000000000E+00  0.00000000000E+00  0.45785024590E+03  0.45785200728E+03  0.12699999809E+01 0.  1.
       -4   -1    0    0    0  501  0.00000000000E+00  0.00000000000E+00 -0.11634224823E+04  0.11634231755E+04  0.12699999809E+01 0. -1.
    10030    2    1    2    0    0  0.00000000000E+00  0.00000000000E+00 -0.70557223638E+03  0.16212751827E+04  0.14596921036E+04 0.  0.
        3    1    3    3  502    0 -0.33467816501E+03 -0.43900240238E+03  0.17749759381E+03  0.57986031890E+03  0.10100000352E+00 0. -1.
       -3    1    3    3    0  502  0.33467816501E+03  0.43900240238E+03 -0.88306983019E+03  0.10414148638E+04  0.10100000352E+00 0.  1.
</event>
<event>
 5   0  0.2646718E-04  0.1499433E+04  0.7818609E-02  0.8884830E-01
       -2   -1    0    0    0  501  0.00000000000E+00  0.00000000000E+00  0.54876003031E+03  0.54876003031E+03  0.25500000920E-02 0.  1.
        2   -1    0    0  501    0  0.00000000000E+00  0.00000000000E+00 -0.10242635165E+04  0.10242635166E+04  0.25500000920E-02 0. -1.
    10030    2    1    2    0    0  0.00000000000E+00  0.00000000000E+00 -0.47550348624E+03  0.15730235469E+04  0.14994330640E+04 0.  0.
        3    1    3    3  502    0  0.17864093507E+02 -0.74073457821E+03 -0.35767768882E+03  0.82276374524E+03  0.10100000352E+00 0. -1.
       -3    1    3    3    0  502 -0.17864093507E+02  0.74073457821E+03 -0.11782579742E+03  0.75025980163E+03  0.10100000352E+00 0.  1.
</event>
<event>
 5   0  0.2696040E-04  0.1498061E+04  0.7818609E-02  0.8885744E-01
        2   -1    0    0  501    0  0.00000000000E+00  0.00000000000E+00  0.13839308600E+04  0.13839308600E+04  0.25500000920E-02 0.  1.
       -2   -1    0    0    0  501  0.00000000000E+00  0.00000000000E+00 -0.40540054062E+03  0.40540054063E+03  0.25500000920E-02 0. -1.
    10030    2    1    2    0    0  0.00000000000E+00  0.00000000000E+00  0.97853031938E+03  0.17893314006E+04  0.14980605046E+04 0.  0.
        2    1    3    3  502    0  0.14096276371E+03 -0.72326003656E+03  0.64982959959E+03  0.98247345499E+03  0.25500000920E-02 0.  1.
       -2    1    3    3    0  502 -0.14096276371E+03  0.72326003656E+03  0.32870071979E+03  0.80685794564E+03  0.25500000920E-02 0. -1.
</event>
<event>
 5   0  0.2646718E-04  0.1499233E+04  0.7818609E-02  0.8884963E-01
       -2   -1    0    0    0  501  0.00000000000E+00  0.00000000000E+00  0.44452264057E+03  0.44452264058E+03  0.25500000920E-02 0.  1.
        2   -1    0    0  501    0  0.00000000000E+00  0.00000000000E+00 -0.12641079886E+04  0.12641079886E+04  0.25500000920E-02 0. -1.
    10030    2    1    2    0    0  0.00000000000E+00  0.00000000000E+00 -0.81958534801E+03  0.17086306292E+04  0.14992326318E+04 0.  0.
        3    1    3    3  502    0  0.65980847458E+02  0.70388871963E+02 -0.12570027314E+04  0.12606997829E+04  0.10100000352E+00 0. -1.
       -3    1    3    3    0  502 -0.65980847458E+02 -0.70388871963E+02  0.43741738342E+03  0.44793084628E+03  0.10100000352E+00 0.  1.
</event>
<event>
 5   0  0.1474203E-04  0.1534225E+04  0.7818609E-02  0.8862007E-01
        1   -1    0    0  501    0  0.00000000000E+00  0.00000000000E+00  0.59126907298E+03  0.59126907300E+03  0.50400001928E-02 0. -1.
       -1   -1    0    0    0  501  0.00000000000E+00  0.00000000000E+00 -0.99525231888E+03  0.99525231889E+03  0.50400001928E-02 0.  1.
    10030    2    1    2    0    0  0.00000000000E+00  0.00000000000E+00 -0.40398324590E+03  0.15865213919E+04  0.15342254280E+04 0.  0.
        3    1    3    3  502    0 -0.59743004736E+03 -0.44836717484E+03 -0.38260513971E+03  0.83925114721E+03  0.10100000352E+00 0.  1.
       -3    1    3    3    0  502  0.59743004736E+03  0.44836717484E+03 -0.21378106193E+02  0.74727024468E+03  0.10100000352E+00 0. -1.
</event>
<event>
 5   0  0.1484251E-04  0.1498673E+04  0.7818609E-02  0.8885336E-01
       -1   -1    0    0    0  501  0.00000000000E+00  0.00000000000E+00  0.56823396015E+03  0.56823396017E+03  0.50400001928E-02 0. -1.
        1   -1    0    0  501    0  0.00000000000E+00  0.00000000000E+00 -0.98815801043E+03  0.98815801044E+03  0.50400001928E-02 0.  1.
    10030    2    1    2    0    0  0.00000000000E+00  0.00000000000E+00 -0.41992405028E+03  0.15563919706E+04  0.14986726655E+04 0.  0.
        5    1    3    3  502    0 -0.57051614639E+01 -0.61462982425E+03  0.23512373308E+03  0.65810913197E+03  0.46999998093E+01 0. -1.
       -5    1    3    3    0  502  0.57051614639E+01  0.61462982425E+03 -0.65504778335E+03  0.89828283864E+03  0.46999998093E+01 0.  1.
</event>
<event>
 5   0  0.2618901E-04  0.1502390E+04  0.7818609E-02  0.8882865E-01
        2   -1    0    0  501    0  0.00000000000E+00  0.00000000000E+00  0.10142416564E+04  0.10142416564E+04  0.25500000920E-02 0. -1.
       -2   -1    0    0    0  501  0.00000000000E+00  0.00000000000E+00 -0.55637062559E+03  0.55637062560E+03  0.25500000920E-02 0.  1.
    10030    2    1    2    0    0  0.00000000000E+00  0.00000000000E+00  0.45787103079E+03  0.15706122820E+04  0.15023904484E+04 0.  0.
        1    1    3    3  502    0 -0.47511744246E+03  0.43597903295E+02 -0.37763310289E+03  0.60847688677E+03  0.50400001928E-02 0.  1.
       -1    1    3    3    0  502  0.47511744246E+03 -0.43597903295E+02  0.83550413369E+03  0.96213539522E+03  0.50400001928E-02 0. -1.
</event>
<event>
 5   0  0.1443750E-04  0.1498844E+04  0.7818609E-02  0.8885222E-01
        1   -1    0    0  501    0  0.00000000000E+00  0.00000000000E+00  0.84953772483E+03  0.84953772484E+03  0.50400001928E-02 0. -1.
       -1   -1    0    0    0  501  0.00000000000E+00  0.00000000000E+00 -0.66110443983E+03  0.66110443985E+03  0.50400001928E-02 0.  1.
    10030    2    1    2    0    0  0.00000000000E+00  0.00000000000E+00  0.18843328500E+03  0.15106421647E+04  0.14988437700E+04 0.  0.
        2    1    3    3  502    0  0.72910106460E+03 -0.12269167378E+03 -0.29187159441E+02  0.73992803671E+03  0.25500000920E-02 0. -1.
       -2    1    3    3    0  502 -0.72910106460E+03  0.12269167378E+03  0.21762044444E+03  0.77071412798E+03  0.25500000920E-02 0.  1.
</event>
<event>
 5   0  0.2696040E-04  0.1497954E+04  0.7818609E-02  0.8885815E-01
       -2   -1    0    0    0  501  0.00000000000E+00  0.00000000000E+00  0.12460923731E+04  0.12460923731E+04  0.25500000920E-02 0.  1.
        2   -1    0    0  501    0  0.00000000000E+00  0.00000000000E+00 -0.45018049226E+03  0.45018049227E+03  0.25500000920E-02 0. -1.
    10030    2    1    2    0    0  0.00000000000E+00  0.00000000000E+00  0.79591188085E+03  0.16962728654E+04  0.14979539084E+04 0.  0.
        2    1    3    3  502    0  0.24887734409E+03 -0.53441682877E+02 -0.39969475516E+03  0.47386901479E+03  0.25500000920E-02 0. -1.
       -2    1    3    3    0  502 -0.24887734409E+03  0.53441682877E+02  0.11956066360E+04  0.12224038506E+04  0.25500000920E-02 0.  1.
</event>
<event>
 5   0  0.1426929E-04  0.1504334E+04  0.7818609E-02  0.8881576E-01
       -1   -1    0    0    0  501  0.00000000000E+00  0.00000000000E+00  0.48625815637E+03  0.48625815639E+03  0.50400001928E-02 0. -1.
        1   -1    0    0  501    0  0.00000000000E+00  0.00000000000E+00 -0.11634865865E+04  0.11634865865E+04  0.50400001928E-02 0.  1.
    10030    2    1    2    0    0  0.00000000000E+00  0.00000000000E+00 -0.67722843009E+03  0.16497447429E+04  0.15043335302E+04 0.  0.
        1    1    3    3  502    0  0.37377543604E+03  0.14990733956E+03  0.35806765031E+03  0.53888099732E+03  0.50400001928E-02 0. -1.
       -1    1    3    3    0  502 -0.37377543604E+03 -0.14990733956E+03 -0.10352960804E+04  0.11108637455E+04  0.50400001928E-02 0.  1.
</event>
<event>
 5   0  0.2641347E-04  0.1583332E+04  0.7818609E-02  0.8830854E-01
       -2   -1    0    0    0  501  0.00000000000E+00  0.00000000000E+00  0.74606238741E+03  0.74606238742E+03  0.25500000920E-02 0. -1.
        2   -1    0    0  501    0  0.00000000000E+00  0.00000000000E+00 -0.84005735259E+03  0.84005735260E+03  0.25500000920E-02 0.  1.
    10030    2    1    2    0    0  0.00000000000E+00  0.00000000000E+00 -0.93994965178E+02  0.15861197400E+04  0.15833321749E+04 0.  0.
        4    1    3    3  502    0  0.59074320697E+03 -0.50031617535E+03  0.11894369223E+03  0.78322603807E+03  0.12699999809E+01 0. -1.
       -4    1    3    3    0  502 -0.59074320697E+03  0.50031617535E+03 -0.21293865741E+03  0.80289370194E+03  0.12699999809E+01 0.  1.
</event>
<event>
 5   0  0.1427609E-04  0.1525976E+04  0.7818609E-02  0.8867361E-01
        1   -1    0    0  501    0  0.00000000000E+00  0.00000000000E+00  0.11603796830E+04  0.11603796830E+04  0.50400001928E-02 0. -1.
       -1   -1    0    0    0  501  0.00000000000E+00  0.00000000000E+00 -0.50168988321E+03  0.50168988324E+03  0.50400001928E-02 0.  1.
    10030    2    1    2    0    0  0.00000000000E+00  0.00000000000E+00  0.65868979975E+03  0.16620695662E+04  0.15259760780E+04 0.  0.
        4    1    3    3  502    0 -0.44226170632E+01 -0.94131363016E+02  0.11540157587E+04  0.11578576152E+04  0.12699999809E+01 0. -1.
       -4    1    3    3    0  502  0.44226170632E+01  0.94131363016E+02 -0.49532595890E+03  0.50421195098E+03  0.12699999809E+01 0.  1.
</event>
<event>
 5   0  0.2734072E-04  0.1487466E+04  0.7818609E-02  0.8892831E-01
       -2   -1    0    0    0  501  0.00000000000E+00  0.00000000000E+00  0.10305035693E+04  0.10305035693E+04  0.25500000920E-02 0. -1.
        2   -1    0    0  501    0  0.00000000000E+00  0.00000000000E+00 -0.53676585480E+03  0.53676585480E+03  0.25500000920E-02 0.  1.
    10030    2    1    2    0    0  0.00000000000E+00  0.00000000000E+00  0.49373771452E+03  0.15672694241E+04  0.14874664759E+04 0.  0.
        5    1    3    3  502    0  0.50386121462E+03 -0.60188652216E+02 -0.32600906995E+03  0.60316067605E+03  0.46999998093E+01 0.  1.
       -5    1    3    3    0  502 -0.50386121462E+03  0.60188652216E+02  0.81974678447E+03  0.96410874807E+03  0.46999998093E+01 0. -1.
</event>
<event>
 5   0  0.1443750E-04  0.1498822E+04  0.7818609E-02  0.8885236E-01
        1   -1    0    0  501    0  0.00000000000E+00  0.00000000000E+00  0.52193401295E+03  0.52193401298E+03  0.50400001928E-02 0. -1.
       -1   -1    0    0    0  501  0.00000000000E+00  0.00000000000E+00 -0.10760307005E+04  0.10760307005E+04  0.50400001928E-02 0.  1.
    10030    2    1    2    0    0  0.00000000000E+00  0.00000000000E+00 -0.55409668754E+03  0.15979647135E+04  0.14988222331E+04 0.  0.
        2    1    3    3  502    0  0.38218933924E+03 -0.46494295016E+03  0.19900313159E+03  0.63391078577E+03  0.25500000920E-02 0. -1.
       -2    1    3    3    0  502 -0.38218933924E+03  0.46494295016E+03 -0.75309981913E+03  0.96405392770E+03  0.25500000920E-02 0.  1.
</event>
<event>
 5   0  0.1474203E-04  0.1509412E+04  0.7818609E-02  0.8878218E-01
       -1   -1    0    0    0  501  0.00000000000E+00  0.00000000000E+00  0.84730843776E+03  0.84730843778E+03  0.50400001928E-02 0.  1.
        1   -1    0    0  501    0  0.00000000000E+00  0.00000000000E+00 -0.67222371916E+03  0.67222371918E+03  0.50400001928E-02 0. -1.
    10030    2    1    2    0    0  0.00000000000E+00  0.00000000000E+00  0.17508471860E+03  0.15195321570E+04  0.15094115798E+04 0.  0.
        3    1    3    3  502    0  0.16076148651E+02  0.32241841123E+03  0.77429576778E+03  0.83889571501E+03  0.10100000352E+00 0.  1.
       -3    1    3    3    0  502 -0.16076148651E+02 -0.32241841123E+03 -0.59921104918E+03  0.68063644195E+03  0.10100000352E+00 0. -1.
</event>
<event>
 5   0  0.2618901E-04  0.1501621E+04  0.7818609E-02  0.8883376E-01
        2   -1    0    0  501    0  0.00000000000E+00  0.00000000000E+00  0.56059901564E+03  0.56059901565E+03  0.25500000920E-02 0.  1.
       -2   -1    0    0    0  501  0.00000000000E+00  0.00000000000E+00 -0.10055606225E+04  0.10055606225E+04  0.25500000920E-02 0. -1.
    10030    2    1    2    0    0  0.00000000000E+00  0.00000000000E+00 -0.44496160689E+03  0.15661596382E+04  0.15016208512E+04 0.  0.
        1    1    3    3  502    0 -0.18890289525E+03 -0.72665069853E+03 -0.22590101962E+03  0.78405153669E+03  0.50400001928E-02 0. -1.
       -1    1    3    3    0  502  0.18890289525E+03  0.72665069853E+03 -0.21906058727E+03  0.78210810149E+03  0.50400001928E-02 0.  1.
</event>
<event>
 5   0  0.1474203E-04  0.1497098E+04  0.7818609E-02  0.8886385E-01
       -1   -1    0    0    0  501  0.00000000000E+00  0.00000000000E+00  0.73358632332E+03  0.73358632334E+03  0.50400001928E-02 0. -1.
        1   -1    0    0  501    0  0.00000000000E+00  0.00000000000E+00 -0.76381676865E+03  0.76381676866E+03  0.50400001928E-02 0.  1.
    10030    2    1    2    0    0  0.00000000000E+00  0.00000000000E+00 -0.30230445329E+02  0.14974030920E+04  0.14970979060E+04 0.  0.
        3    1    3    3  502    0 -0.14901405582E+03  0.34822636851E+03  0.63066237400E+03  0.73566421194E+03  0.10100000352E+00 0. -1.
       -3    1    3    3    0  502  0.14901405582E+03 -0.34822636851E+03 -0.66089281932E+03  0.76173888006E+03  0.10100000352E+00 0.  1.
</event>
<event>
 5   0  0.2618901E-04  0.1502960E+04  0.7818609E-02  0.8882487E-01
       -2   -1    0    0    0  501  0.00000000000E+00  0.00000000000E+00  0.51992364913E+03  0.51992364914E+03  0.25500000920E-02 0.  1.
        2   -1    0    0  501    0  0.00000000000E+00  0.00000000000E+00 -0.10861630499E+04  0.10861630499E+04  0.25500000920E-02 0. -1.
    10030    2    1    2    0    0  0.00000000000E+00  0.00000000000E+00 -0.56623940077E+03  0.16060866990E+04  0.15029595556E+04 0.  0.
        1    1    3    3  502    0  0.61656279049E+03 -0.41656549791E+03 -0.17081141887E+03  0.76344811842E+03  0.50400001928E-02 0.  1.
       -1    1    3    3    0  502 -0.61656279049E+03  0.41656549791E+03 -0.39542798189E+03  0.84263858063E+03  0.50400001928E-02 0. -1.
</event>
<event>
 5   0  0.1474203E-04  0.1498642E+04  0.7818609E-02  0.8885357E-01
       -1   -1    0    0    0  501  0.00000000000E+00  0.00000000000E+00  0.59127464180E+03  0.59127464182E+03  0.50400001928E-02 0. -1.
        1   -1    0    0  501    0  0.00000000000E+00  0.00000000000E+00 -0.94961267210E+03  0.94961267212E+03  0.50400001928E-02 0.  1.
    10030    2    1    2    0    0  0.00000000000E+00  0.00000000000E+00 -0.35833803030E+03  0.15408873139E+04  0.14986419086E+04 0.  0.
        3    1    3    3  502    0  0.58089265595E+03  0.43136446925E+03 -0.37952163086E+03  0.81703626697E+03  0.10100000352E+00 0.  1.
       -3    1    3    3    0  502 -0.58089265595E+03 -0.43136446925E+03  0.21183600557E+02  0.72385104696E+03  0.10100000352E+00 0. -1.
</event>
<event>
 5   0  0.1484251E-04  0.1499166E+04  0.7818609E-02  0.8885008E-01
        1   -1    0    0  501    0  0.00000000000E+00  0.00000000000E+00  0.65559741356E+03  0.65559741358E+03  0.50400001928E-02 0. -1.
       -1   -1    0    0    0  501  0.00000000000E+00  0.00000000000E+00 -0.85704251340E+03  0.85704251342E+03  0.50400001928E-02 0.  1.
    10030    2    1    2    0    0  0.00000000000E+00  0.00000000000E+00 -0.20144509985E+03  0.15126399270E+04  0.14991662418E+04 0.  0.
        5    1    3    3  502    0  0.34354825296E+03  0.46946151226E+03 -0.57765807030E+03  0.81983562364E+03  0.46999998093E+01 0.  1.
       -5    1    3    3    0  502 -0.34354825296E+03 -0.46946151226E+03  0.37621297046E+03  0.69280430335E+03  0.46999998093E+01 0. -1.
</event>
<event>
 5   0  0.2641347E-04  0.1503376E+04  0.7818609E-02  0.8882211E-01
       -2   -1    0    0    0  501  0.00000000000E+00  0.00000000000E+00  0.53771687576E+03  0.53771687577E+03  0.25500000920E-02 0.  1.
        2   -1    0    0  501    0  0.00000000000E+00  0.00000000000E+00 -0.10508031305E+04  0.10508031305E+04  0.25500000920E-02 0. -1.
    10030    2    1    2    0    0  0.00000000000E+00  0.00000000000E+00 -0.51308625470E+03  0.15885200062E+04  0.15033756368E+04 0.  0.
        4    1    3    3  502    0  0.73163959224E+03  0.16621393487E+03 -0.20801377619E+03  0.77858519705E+03  0.12699999809E+01 0.  1.
       -4    1    3    3    0  502 -0.73163959224E+03 -0.16621393487E+03 -0.30507247851E+03  0.80993480918E+03  0.12699999809E+01 0. -1.
</event>
<event>
 5   0  0.2696040E-04  0.1491609E+04  0.7818609E-02  0.8890052E-01
       -2   -1    0    0    0  501  0.00000000000E+00  0.00000000000E+00  0.27595841683E+03  0.27595841684E+03  0.25500000920E-02 0.  1.
        2   -1    0    0  501    0  0.00000000000E+00  0.00000000000E+00 -0.20156102218E+04  0.20156102218E+04  0.25500000920E-02 0. -1.
    10030    2    1    2    0    0  0.00000000000E+00  0.00000000000E+00 -0.17396518050E+04  0.22915686387E+04  0.14916093400E+04 0.  0.
        2    1    3    3  502    0 -0.20895913968E+03  0.60667254605E+02  0.22611097002E+03  0.31380026865E+03  0.25500000920E-02 0.  1.
       -2    1    3    3    0  502  0.20895913968E+03 -0.60667254605E+02 -0.19657627750E+04  0.19777683700E+04  0.25500000920E-02 0. -1.
</event>
<event>
 5   0  0.1427609E-04  0.1509986E+04  0.7818609E-02  0.8877840E-01
        1   -1    0    0  501    0  0.00000000000E+00  0.00000000000E+00  0.98923269978E+03  0.98923269979E+03  0.50400001928E-02 0. -1.
       -1   -1    0    0    0  501  0.00000000000E+00  0.00000000000E+00 -0.57621853825E+03  0.57621853828E+03  0.50400001928E-02 0.  1.
    10030    2    1    2    0    0  0.00000000000E+00  0.00000000000E+00  0.41301416152E+03  0.15654512381E+04  0.15099857222E+04 0.  0.
        4    1    3    3  502    0  0.26187287746E+03 -0.70314753717E+03  0.29336239930E+03  0.80564072216E+03  0.12699999809E+01 0. -1.
       -4    1    3    3    0  502 -0.26187287746E+03  0.70314753717E+03  0.11965176223E+03  0.75981051591E+03  0.12699999809E+01 0.  1.
</event>
<event>
 5   0  0.2734072E-04  0.1500926E+04  0.7818609E-02  0.8883838E-01
       -2   -1    0    0    0  501  0.00000000000E+00  0.00000000000E+00  0.67799964654E+03  0.67799964654E+03  0.25500000920E-02 0.  1.
        2   -1    0    0  501    0  0.00000000000E+00  0.00000000000E+00 -0.83067068809E+03  0.83067068810E+03  0.25500000920E-02 0. -1.
    10030    2    1    2    0    0  0.00000000000E+00  0.00000000000E+00 -0.15267104155E+03  0.15086703346E+04  0.15009256250E+04 0.  0.
        5    1    3    3  502    0  0.45363663758E+03  0.17424021067E+03 -0.65114860734E+03  0.81250381464E+03  0.46999998093E+01 0. -1.
       -5    1    3    3    0  502 -0.45363663758E+03 -0.17424021067E+03  0.49847756579E+03  0.69616652000E+03  0.46999998093E+01 0.  1.
</event>
<event>
 5   0  0.1426929E-04  0.1497371E+04  0.7818609E-02  0.8886203E-01
        1   -1    0    0  501    0  0.00000000000E+00  0.00000000000E+00  0.91080527805E+03  0.91080527807E+03  0.50400001928E-02 0. -1.
       -1   -1    0    0    0  501  0.00000000000E+00  0.00000000000E+00 -0.61542246239E+03  0.61542246241E+03  0.50400001928E-02 0.  1.
    10030    2    1    2    0    0  0.00000000000E+00  0.00000000000E+00  0.29538281566E+03  0.15262277405E+04  0.14973710656E+04 0.  0.
        1    1    3    3  502    0  0.12137946578E+03 -0.70551376039E+03 -0.75730002746E+02  0.71987337370E+03  0.50400001928E-02 0.  1.
       -1    1    3    3    0  502 -0.12137946578E+03  0.70551376039E+03  0.37111281841E+03  0.80635436678E+03  0.50400001928E-02 0. -1.
</event>
<event>
 5   0  0.2641347E-04  0.1518832E+04  0.7818609E-02  0.8872026E-01
       -2   -1    0    0    0  501  0.00000000000E+00  0.00000000000E+00  0.10627224577E+04  0.10627224577E+04  0.25500000920E-02 0.  1.
        2   -1    0    0  501    0  0.00000000000E+00  0.00000000000E+00 -0.54267460654E+03  0.54267460654E+03  0.25500000920E-02 0. -1.
    10030    2    1    2    0    0  0.00000000000E+00  0.00000000000E+00  0.52004785119E+03  0.16053970643E+04  0.15188317769E+04 0.  0.
        4    1    3    3  502    0  0.11234819676E+03  0.61035974868E+03 -0.20258453518E+03  0.65284243652E+03  0.12699999809E+01 0. -1.
       -4    1    3    3    0  502 -0.11234819676E+03 -0.61035974868E+03  0.72263238637E+03  0.95255462775E+03  0.12699999809E+01 0.  1.
</event>
<event>
 5   0  0.1443750E-04  0.1501410E+04  0.7818609E-02  0.8883516E-01
       -1   -1    0    0    0  501  0.00000000000E+00  0.00000000000E+00  0.25943583998E+03  0.25943584002E+03  0.50400001928E-02 0. -1.
        1   -1    0    0  501    0  0.00000000000E+00  0.00000000000E+00 -0.21722445055E+04  0.21722445055E+04  0.50400001928E-02 0.  1.
    10030    2    1    2    0    0  0.00000000000E+00  0.00000000000E+00 -0.19128086655E+04  0.24316803455E+04  0.15014101078E+04 0.  0.
        2    1    3    3  502    0 -0.11932351778E+03 -0.60845799777E+03 -0.16418192261E+04  0.17550013128E+04  0.25500000920E-02 0.  1.
       -2    1    3    3    0  502  0.11932351778E+03  0.60845799777E+03 -0.27098943940E+03  0.67667903264E+03  0.25500000920E-02 0. -1.
</event>
<event>
 5   0  0.1443750E-04  0.1481363E+04  0.7818609E-02  0.8896942E-01
       -1   -1    0    0    0  501  0.00000000000E+00  0.00000000000E+00  0.11884106978E+04  0.11884106978E+04  0.50400001928E-02 0. -1.
        1   -1    0    0  501    0  0.00000000000E+00  0.00000000000E+00 -0.46163270452E+03  0.46163270454E+03  0.50400001928E-02 0.  1.
    10030    2    1    2    0    0  0.00000000000E+00  0.00000000000E+00  0.72677799328E+03  0.16500434023E+04  0.14813632161E+04 0.  0.
        2    1    3    3  502    0  0.59182599994E+03 -0.42961780043E+03  0.23263502530E+03  0.76742981676E+03  0.25500000920E-02 0.  1.
       -2    1    3    3    0  502 -0.59182599994E+03  0.42961780043E+03  0.49414296797E+03  0.88261358558E+03  0.25500000920E-02 0. -1.
</event>
<event>
 5   0  0.2696040E-04  0.1504213E+04  0.7818609E-02  0.8881656E-01
       -2   -1    0    0    0  501  0.00000000000E+00  0.00000000000E+00  0.35853125775E+03  0.35853125776E+03  0.25500000920E-02 0. -1.
        2   -1    0    0  501    0  0.00000000000E+00  0.00000000000E+00 -0.15777260088E+04  0.15777260088E+04  0.25500000920E-02 0.  1.
    10030    2    1    2    0    0  0.00000000000E+00  0.00000000000E+00 -0.12191947510E+04  0.19362572665E+04  0.15042128710E+04 0.  0.
        2    1    3    3  502    0 -0.11563005682E+03  0.69376781057E+03 -0.26665450880E+03  0.75218927943E+03  0.25500000920E-02 0. -1.
       -2    1    3    3    0  502  0.11563005682E+03 -0.69376781057E+03 -0.95254024223E+03  0.11840679871E+04  0.25500000920E-02 0.  1.
</event>
<event>
 5   0  0.1484251E-04  0.1491174E+04  0.7818609E-02  0.8890344E-01
        1   -1    0    0  501    0  0.00000000000E+00  0.00000000000E+00  0.61051398077E+03  0.61051398079E+03  0.50400001928E-02 0.  1.
       -1   -1    0    0    0  501  0.00000000000E+00  0.00000000000E+00 -0.91054400100E+03  0.91054400101E+03  0.50400001928E-02 0. -1.
    10030    2    1    2    0    0  0.00000000000E+00  0.00000000000E+00 -0.30003002023E+03  0.15210579818E+04  0.14911738232E+04 0.  0.
        5    1    3    3  502    0  0.52778450204E+03 -0.30531887858E+03  0.28765455143E+03  0.67419828624E+03  0.46999998093E+01 0.  1.
       -5    1    3    3    0  502 -0.52778450204E+03  0.30531887858E+03 -0.58768457166E+03  0.84685969556E+03  0.46999998093E+01 0. -1.
</event>
<event>
 5   0  0.1427609E-04  0.1495823E+04  0.7818609E-02  0.8887235E-01
       -1   -1    0    0    0  501  0.00000000000E+00  0.00000000000E+00  0.66094050852E+03  0.66094050854E+03  0.50400001928E-02 0. -1.
        1   -1    0    0  501    0  0.00000000000E+00  0.00000000000E+00 -0.84632657339E+03  0.84632657341E+03  0.50400001928E-02 0.  1.
    10030    2    1    2    0    0  0.00000000000E+00  0.00000000000E+00 -0.18538606487E+03  0.15072670819E+04  0.14958228716E+04 0.  0.
        4    1    3    3  502    0 -0.49787816589E+03 -0.49874337791E+03  0.15970745297E+03  0.72258958511E+03  0.12699999809E+01 0. -1.
       -4    1    3    3    0  502  0.49787816589E+03  0.49874337791E+03 -0.34509351784E+03  0.78467749683E+03  0.12699999809E+01 0.  1.
</event>
<event>
 5   0  0.1484251E-04  0.1504752E+04  0.7818609E-02  0.8881299E-01
        1   -1    0    0  501    0  0.00000000000E+00  0.00000000000E+00  0.18321983503E+04  0.18321983503E+04  0.50400001928E-02 0.  1.
       -1   -1    0    0    0  501  0.00000000000E+00  0.00000000000E+00 -0.30895658043E+03  0.30895658047E+03  0.50400001928E-02 0. -1.
    10030    2    1    2    0    0  0.00000000000E+00  0.00000000000E+00  0.15232417699E+04  0.21411549308E+04  0.15047521218E+04 0.  0.
        5    1    3    3  502    0 -0.62592803456E+03 -0.35292420898E+03  0.10788613723E+04  0.12962659265E+04  0.46999998093E+01 0. -1.
       -5    1    3    3    0  502  0.62592803456E+03  0.35292420898E+03  0.44438039763E+03  0.84488900427E+03  0.46999998093E+01 0.  1.
</event>
<event>
 5   0  0.2696040E-04  0.1489656E+04  0.7818609E-02  0.8891361E-01
        2   -1    0    0  501    0  0.00000000000E+00  0.00000000000E+00  0.45282284755E+03  0.45282284756E+03  0.25500000920E-02 0. -1.
       -2   -1    0    0    0  501  0.00000000000E+00  0.00000000000E+00 -0.12251345914E+04  0.12251345914E+04  0.25500000920E-02 0.  1.
    10030    2    1    2    0    0  0.00000000000E+00  0.00000000000E+00 -0.77231174382E+03  0.16779574389E+04  0.14896562480E+04 0.  0.
        2    1    3    3  502    0  0.60939064180E+03 -0.32654353767E+03 -0.74035149695E+02  0.69531923582E+03  0.25500000920E-02 0. -1.
       -2    1    3    3    0  502 -0.60939064180E+03  0.32654353767E+03 -0.69827659413E+03  0.98263820311E+03  0.25500000920E-02 0.  1.
</event>
<event>
 5   0  0.2696040E-04  0.1502545E+04  0.7818609E-02  0.8882762E-01
       -2   -1    0    0    0  501  0.00000000000E+00  0.00000000000E+00  0.44967499354E+03  0.44967499355E+03  0.25500000920E-02 0.  1.
        2   -1    0    0  501    0  0.00000000000E+00  0.00000000000E+00 -0.12551517308E+04  0.12551517308E+04  0.25500000920E-02 0. -1.
    10030    2    1    2    0    0  0.00000000000E+00  0.00000000000E+00 -0.80547673724E+03  0.17048267243E+04  0.15025449696E+04 0.  0.
        2    1    3    3  502    0  0.24068942368E+03 -0.70528292880E+03 -0.29477025619E+03  0.80140184194E+03  0.25500000920E-02 0.  1.
       -2    1    3    3    0  502 -0.24068942368E+03  0.70528292880E+03 -0.51070648104E+03  0.90342488239E+03  0.25500000920E-02 0. -1.
</event>
<event>
 5   0  0.1426929E-04  0.1499317E+04  0.7818609E-02  0.8884907E-01
       -1   -1    0    0    0  501  0.00000000000E+00  0.00000000000E+00  0.11434140841E+04  0.11434140841E+04  0.50400001928E-02 0.  1.
        1   -1    0    0  501    0  0.00000000000E+00  0.00000000000E+00 -0.49150004768E+03  0.49150004770E+03  0.50400001928E-02 0. -1.
    10030    2    1    2    0    0  0.00000000000E+00  0.00000000000E+00  0.65191403640E+03  0.16349141318E+04  0.14993172805E+04 0.  0.
        1    1    3    3  502    0  0.11129084236E+03  0.56229668062E+02  0.11320272831E+04  0.11388736527E+04  0.50400001928E-02 0.  1.
       -1    1    3    3    0  502 -0.11129084236E+03 -0.56229668062E+02 -0.48011324671E+03  0.49604047905E+03  0.50400001928E-02 0. -1.
</event>
<event>
 5   0  0.2646718E-04  0.1500843E+04  0.7818609E-02  0.8883892E-01
       -2   -1    0    0    0  501  0.00000000000E+00  0.00000000000E+00  0.45295519783E+03  0.45295519784E+03  0.25500000920E-02 0. -1.
        2   -1    0    0  501    0  0.00000000000E+00  0.00000000000E+00 -0.12432411885E+04  0.12432411885E+04  0.25500000920E-02 0.  1.
    10030    2    1    2    0    0  0.00000000000E+00  0.00000000000E+00 -0.79028599067E+03  0.16961963864E+04  0.15008431744E+04 0.  0.
        3    1    3    3  502    0  0.19741097263E+03  0.25086139831E+03 -0.11626804897E+04  0.12057066246E+04  0.10100000352E+00 0.  1.
       -3    1    3    3    0  502 -0.19741097263E+03 -0.25086139831E+03  0.37239449903E+03  0.49048976175E+03  0.10100000352E+00 0. -1.
</event>
<event>
 5   0  0.2646718E-04  0.1492423E+04  0.7818609E-02  0.8889507E-01
       -2   -1    0    0    0  501  0.00000000000E+00  0.00000000000E+00  0.62356574554E+03  0.62356574555E+03  0.25500000920E-02 0. -1.
        2   -1    0    0  501    0  0.00000000000E+00  0.00000000000E+00 -0.89297968911E+03  0.89297968911E+03  0.25500000920E-02 0.  1.
    10030    2    1    2    0    0  0.00000000000E+00  0.00000000000E+00 -0.26941394357E+03  0.15165454347E+04  0.14924229234E+04 0.  0.
        3    1    3    3  502    0  0.32342113306E+03  0.59863741263E+03  0.17661660585E+03  0.70296615621E+03  0.10100000352E+00 0. -1.
       -3    1    3    3    0  502 -0.32342113306E+03 -0.59863741263E+03 -0.44603054942E+03  0.81357927845E+03  0.10100000352E+00 0.  1.
</event>
<event>
 5   0  0.2641347E-04  0.1509260E+04  0.7818609E-02  0.8878318E-01
       -2   -1    0    0    0  501  0.00000000000E+00  0.00000000000E+00  0.63375363476E+03  0.63375363476E+03  0.25500000920E-02 0.  1.
        2   -1    0    0  501    0  0.00000000000E+00  0.00000000000E+00 -0.89856162387E+03  0.89856162388E+03  0.25500000920E-02 0. -1.
    10030    2    1    2    0    0  0.00000000000E+00  0.00000000000E+00 -0.26480798912E+03  0.15323152586E+04  0.15092603423E+04 0.  0.
        4    1    3    3  502    0 -0.75461290324E+03  0.44967330180E+01 -0.13031638884E+03  0.76579685848E+03  0.12699999809E+01 0.  1.
       -4    1    3    3    0  502  0.75461290324E+03 -0.44967330180E+01 -0.13449160027E+03  0.76651840017E+03  0.12699999809E+01 0. -1.
</event>
<event>
 5   0  0.1427609E-04  0.1509311E+04  0.7818609E-02  0.8878285E-01
       -1   -1    0    0    0  501  0.00000000000E+00  0.00000000000E+00  0.48647438758E+03  0.48647438761E+03  0.50400001928E-02 0.  1.
        1   -1    0    0  501    0  0.00000000000E+00  0.00000000000E+00 -0.11706782710E+04  0.11706782710E+04  0.50400001928E-02 0. -1.
    10030    2    1    2    0    0  0.00000000000E+00  0.00000000000E+00 -0.68420388344E+03  0.16571526586E+04  0.15093110945E+04 0.  0.
        4    1    3    3  502    0  0.29312937722E+03  0.15900993836E+03 -0.10853880634E+04  0.11354637174E+04  0.12699999809E+01 0. -1.
       -4    1    3    3    0  502 -0.29312937722E+03 -0.15900993836E+03  0.40118418000E+03  0.52168894129E+03  0.12699999809E+01 0.  1.
</event>
<event>
 5   0  0.1427609E-04  0.1499463E+04  0.7818609E-02  0.8884810E-01
       -1   -1    0    0    0  501  0.00000000000E+00  0.00000000000E+00  0.27230714588E+03  0.27230714592E+03  0.50400001928E-02 0.  1.
        1   -1    0    0  501    0  0.00000000000E+00  0.00000000000E+00 -0.20642046197E+04  0.20642046197E+04  0.50400001928E-02 0. -1.
    10030    2    1    2    0    0  0.00000000000E+00  0.00000000000E+00 -0.17918974738E+04  0.23365117656E+04  0.14994634621E+04 0.  0.
        4    1    3    3  502    0  0.67818677482E+03 -0.13578506166E+03 -0.44508040535E+03  0.82247982628E+03  0.12699999809E+01 0. -1.
       -4    1    3    3    0  502 -0.67818677482E+03  0.13578506166E+03 -0.13468170685E+04  0.15140319393E+04  0.12699999809E+01 0.  1.
</event>
<event>
 5   0  0.2734072E-04  0.1498547E+04  0.7818609E-02  0.8885420E-01
       -2   -1    0    0    0  501  0.00000000000E+00  0.00000000000E+00  0.29249945103E+03  0.29249945104E+03  0.25500000920E-02 0. -1.
        2   -1    0    0  501    0  0.00000000000E+00  0.00000000000E+00 -0.19193554608E+04  0.19193554608E+04  0.25500000920E-02 0.  1.
    10030    2    1    2    0    0  0.00000000000E+00  0.00000000000E+00 -0.16268560098E+04  0.22118549118E+04  0.14985465206E+04 0.  0.
        5    1    3    3  502    0 -0.21756474499E+03  0.65028154336E+03 -0.36771548443E+03  0.77809849722E+03  0.46999998093E+01 0. -1.
       -5    1    3    3    0  502  0.21756474499E+03 -0.65028154336E+03 -0.12591405253E+04  0.14337564146E+04  0.46999998093E+01 0.  1.
</event>
<event>
 5   0  0.1427609E-04  0.1500445E+04  0.7818609E-02  0.8884157E-01
       -1   -1    0    0    0  501  0.00000000000E+00  0.00000000000E+00  0.57254838117E+03  0.57254838120E+03  0.50400001928E-02 0. -1.
        1   -1    0    0  501    0  0.00000000000E+00  0.00000000000E+00 -0.98303219040E+03  0.98303219041E+03  0.50400001928E-02 0.  1.
    10030    2    1    2    0    0  0.00000000000E+00  0.00000000000E+00 -0.41048380922E+03  0.15555805716E+04  0.15004445865E+04 0.  0.
        4    1    3    3  502    0 -0.30649632707E+03  0.13619938495E+03  0.49049266852E+03  0.59420109537E+03  0.12699999809E+01 0. -1.
       -4    1    3    3    0  502  0.30649632707E+03 -0.13619938495E+03 -0.90097647774E+03  0.96137947623E+03  0.12699999809E+01 0.  1.
</event>
<event>
 5   0  0.2646718E-04  0.1496740E+04  0.7818609E-02  0.8886623E-01
       -2   -1    0    0    0  501  0.00000000000E+00  0.00000000000E+00  0.40492821675E+03  0.40492821676E+03  0.25500000920E-02 0.  1.
        2   -1    0    0  501    0  0.00000000000E+00  0.00000000000E+00 -0.13831044134E+04  0.13831044134E+04  0.25500000920E-02 0. -1.
    10030    2    1    2    0    0  0.00000000000E+00  0.00000000000E+00 -0.97817619667E+03  0.17880326302E+04  0.14967404634E+04 0.  0.
        3    1    3    3  502    0  0.27334675932E+03 -0.68568000544E+03 -0.63628551782E+03  0.97454337568E+03  0.10100000352E+00 0.  1.
       -3    1    3    3    0  502 -0.27334675932E+03  0.68568000544E+03 -0.34189067886E+03  0.81348925450E+03  0.10100000352E+00 0. -1.
</event>
<event>
 5   0  0.2646718E-04  0.1507530E+04  0.7818609E-02  0.8879461E-01
        2   -1    0    0  501    0  0.00000000000E+00  0.00000000000E+00  0.14773629695E+04  0.14773629695E+04  0.25500000920E-02 0. -1.
       -2   -1    0    0    0  501  0.00000000000E+00  0.00000000000E+00 -0.38457818871E+03  0.38457818872E+03  0.25500000920E-02 0.  1.
    10030    2    1    2    0    0  0.00000000000E+00  0.00000000000E+00  0.10927847808E+04  0.18619411582E+04  0.15075298669E+04 0.  0.
        3    1    3    3  502    0  0.66684045833E+03  0.35117411380E+03  0.56211788881E+03  0.94019997138E+03  0.10100000352E+00 0. -1.
       -3    1    3    3    0  502 -0.66684045833E+03 -0.35117411380E+03  0.53066689196E+03  0.92174118682E+03  0.10100000352E+00 0.  1.
</event>
<event>
 5   0  0.1427609E-04  0.1496673E+04  0.7818609E-02  0.8886668E-01
        1   -1    0    0  501    0  0.00000000000E+00  0.00000000000E+00  0.70347684181E+03  0.70347684182E+03  0.50400001928E-02 0. -1.
       -1   -1    0    0    0  501  0.00000000000E+00  0.00000000000E+00 -0.79605686313E+03  0.79605686314E+03  0.50400001928E-02 0.  1.
    10030    2    1    2    0    0  0.00000000000E+00  0.00000000000E+00 -0.92580021321E+02  0.14995337050E+04  0.14966730678E+04 0.  0.
        4    1    3    3  502    0 -0.61743252895E+03  0.41374679690E+03  0.41035142551E+02  0.74437546680E+03  0.12699999809E+01 0. -1.
       -4    1    3    3    0  502  0.61743252895E+03 -0.41374679690E+03 -0.13361516387E+03  0.75515823817E+03  0.12699999809E+01 0.  1.
</event>
<event>
 5   0  0.1474203E-04  0.1497062E+04  0.7818609E-02  0.8886409E-01
        1   -1    0    0  501    0  0.00000000000E+00  0.00000000000E+00  0.50131274894E+03  0.50131274896E+03  0.50400001928E-02 0.  1.
       -1   -1    0    0    0  501  0.00000000000E+00  0.00000000000E+00 -0.11176624926E+04  0.11176624926E+04  0.50400001928E-02 0. -1.
    10030    2    1    2    0    0  0.00000000000E+00  0.00000000000E+00 -0.61634974365E+03  0.16189752416E+04  0.14970617310E+04 0.  0.
        3    1    3    3  502    0  0.53526977781E+03  0.34118288472E+03 -0.73719119944E+03  0.97281569200E+03  0.10100000352E+00 0. -1.
       -3    1    3    3    0  502 -0.53526977781E+03 -0.34118288472E+03  0.12084145579E+03  0.64615954957E+03  0.10100000352E+00 0.  1.
</event>
<event>
 5   0  0.1427609E-04  0.1501828E+04  0.7818609E-02  0.8883238E-01
        1   -1    0    0  501    0  0.00000000000E+00  0.00000000000E+00  0.17780225893E+04  0.17780225893E+04  0.50400001928E-02 0.  1.
       -1   -1    0    0    0  501  0.00000000000E+00  0.00000000000E+00 -0.31713428341E+03  0.31713428345E+03  0.50400001928E-02 0. -1.
    10030    2    1    2    0    0  0.00000000000E+00  0.00000000000E+00  0.14608883059E+04  0.20951568728E+04  0.15018281124E+04 0.  0.
        4    1    3    3  502    0 -0.26458048370E+03 -0.32476516700E+03  0.15998712380E+04  0.16538031434E+04  0.12699999809E+01 0.  1.
       -4    1    3    3    0  502  0.26458048370E+03  0.32476516700E+03 -0.13898293216E+03  0.44135372931E+03  0.12699999809E+01 0. -1.
</event>
<event>
 5   0  0.2734072E-04  0.1499154E+04  0.7818609E-02  0.8885015E-01
        2   -1    0    0  501    0  0.00000000000E+00  0.00000000000E+00  0.38590849468E+03  0.38590849468E+03  0.25500000920E-02 0. -1.
       -2   -1    0    0    0  501  0.00000000000E+00  0.00000000000E+00 -0.14559563805E+04  0.14559563805E+04  0.25500000920E-02 0.  1.
    10030    2    1    2    0    0  0.00000000000E+00  0.00000000000E+00 -0.10700478858E+04  0.18418648751E+04  0.14991543418E+04 0.  0.
        5    1    3    3  502    0 -0.34204144858E+03 -0.63623353524E+03 -0.78092370948E+03  0.10637901080E+04  0.46999998093E+01 0.  1.
       -5    1    3    3    0  502  0.34204144858E+03  0.63623353524E+03 -0.28912417631E+03  0.77807476712E+03  0.46999998093E+01 0. -1.
</event>
<event>
 5   0  0.1427609E-04  0.1482133E+04  0.7818609E-02  0.8896422E-01
        1   -1    0    0  501    0  0.00000000000E+00  0.00000000000E+00  0.13261333635E+04  0.13261333636E+04  0.50400001928E-02 0. -1.
       -1   -1    0    0    0  501  0.00000000000E+00  0.00000000000E+00 -0.41412065619E+03  0.41412065622E+03  0.50400001928E-02 0.  1.
    10030    2    1    2    0    0  0.00000000000E+00  0.00000000000E+00  0.91201270736E+03  0.17402540198E+04  0.14821325430E+04 0.  0.
        4    1    3    3  502    0 -0.13041293015E+03  0.71167360434E+02 -0.39645418835E+03  0.42337909951E+03  0.12699999809E+01 0.  1.
       -4    1    3    3    0  502  0.13041293015E+03 -0.71167360434E+02  0.13084668957E+04  0.13168749203E+04  0.12699999809E+01 0. -1.
</event>
<event>
 5   0  0.1004313E-04  0.1497680E+04  0.7818609E-02  0.8885997E-01
       -3   -1    0    0    0  501  0.00000000000E+00  0.00000000000E+00  0.91666600484E+03  0.91666601040E+03  0.10100000352E+00 0. -1.
        3   -1    0    0  501    0  0.00000000000E+00  0.00000000000E+00 -0.61174022174E+03  0.61174023007E+03  0.10100000352E+00 0.  1.
    10030    2    1    2    0    0  0.00000000000E+00  0.00000000000E+00  0.30492578310E+03  0.15284062405E+04  0.14976801737E+04 0.  0.
        3    1    3    3  502    0 -0.39088865513E+03 -0.51891166735E+02  0.80213547338E+03  0.89381651459E+03  0.10100000352E+00 0. -1.
       -3    1    3    3    0  502  0.39088865513E+03  0.51891166735E+02 -0.49720969028E+03  0.63458972589E+03  0.10100000352E+00 0.  1.
</event>
<event>
 5   0  0.1443750E-04  0.1498988E+04  0.7818609E-02  0.8885126E-01
        1   -1    0    0  501    0  0.00000000000E+00  0.00000000000E+00  0.13641280944E+04  0.13641280944E+04  0.50400001928E-02 0. -1.
       -1   -1    0    0    0  501  0.00000000000E+00  0.00000000000E+00 -0.41179512443E+03  0.41179512446E+03  0.50400001928E-02 0.  1.
    10030    2    1    2    0    0  0.00000000000E+00  0.00000000000E+00  0.95233296998E+03  0.17759232189E+04  0.14989880565E+04 0.  0.
        2    1    3    3  502    0  0.69103002887E+02  0.35789648647E+03 -0.29970890193E+03  0.47190099167E+03  0.25500000920E-02 0.  1.
       -2    1    3    3    0  502 -0.69103002887E+02 -0.35789648647E+03  0.12520418719E+04  0.13040222272E+04  0.25500000920E-02 0. -1.
</event>
<event>
 5   0  0.1484251E-04  0.1506381E+04  0.7818609E-02  0.8880220E-01
       -1   -1    0    0    0  501  0.00000000000E+00  0.00000000000E+00  0.81125350510E+03  0.81125350512E+03  0.50400001928E-02 0. -1.
        1   -1    0    0  501    0  0.00000000000E+00  0.00000000000E+00 -0.69928347781E+03  0.69928347783E+03  0.50400001928E-02 0.  1.
    10030    2    1    2    0    0  0.00000000000E+00  0.00000000000E+00  0.11197002729E+03  0.15105369829E+04  0.15063813229E+04 0.  0.
        5    1    3    3  502    0 -0.53986187044E+02 -0.16731927843E+03  0.79037404757E+03  0.80970579496E+03  0.46999998093E+01 0. -1.
       -5    1    3    3    0  502  0.53986187044E+02  0.16731927843E+03 -0.67840402028E+03  0.70083118798E+03  0.46999998093E+01 0.  1.
</event>
<event>
 5   0  0.2696040E-04  0.1502550E+04  0.7818609E-02  0.8882759E-01
        2   -1    0    0  501    0  0.00000000000E+00  0.00000000000E+00  0.95428572812E+03  0.95428572812E+03  0.25500000920E-02 0.  1.
       -2   -1    0    0    0  501  0.00000000000E+00  0.00000000000E+00 -0.59145189538E+03  0.59145189539E+03  0.25500000920E-02 0. -1.
    10030    2    1    2    0    0  0.00000000000E+00  0.00000000000E+00  0.36283383273E+03  0.15457376235E+04  0.15025499694E+04 0.  0.
        2    1    3    3  502    0  0.50224583593E+03 -0.36266580854E+03  0.61864685341E+03  0.87550059831E+03  0.25500000920E-02 0.  1.
       -2    1    3    3    0  502 -0.50224583593E+03  0.36266580854E+03 -0.25581302068E+03  0.67023702520E+03  0.25500000920E-02 0. -1.
</event>
<event>
 5   0  0.2641347E-04  0.1499414E+04  0.7818609E-02  0.8884842E-01
        2   -1    0    0  501    0  0.00000000000E+00  0.00000000000E+00  0.70919991254E+03  0.70919991254E+03  0.25500000920E-02 0.  1.
       -2   -1    0    0    0  501  0.00000000000E+00  0.00000000000E+00 -0.79252822581E+03  0.79252822582E+03  0.25500000920E-02 0. -1.
    10030    2    1    2    0    0  0.00000000000E+00  0.00000000000E+00 -0.83328313276E+02  0.15017281384E+04  0.14994144836E+04 0.  0.
        4    1    3    3  502    0 -0.11037562769E+03  0.39475385813E+02  0.69996358587E+03  0.70971242043E+03  0.12699999809E+01 0.  1.
       -4    1    3    3    0  502  0.11037562769E+03 -0.39475385813E+02 -0.78329189915E+03  0.79201571792E+03  0.12699999809E+01 0. -1.
</event>
<event>
 5   0  0.2646718E-04  0.1481589E+04  0.7818609E-02  0.8896789E-01
       -2   -1    0    0    0  501  0.00000000000E+00  0.00000000000E+00  0.27679665047E+03  0.27679665049E+03  0.25500000920E-02 0. -1.
        2   -1    0    0  501    0  0.00000000000E+00  0.00000000000E+00 -0.19825972714E+04  0.19825972714E+04  0.25500000920E-02 0.  1.
    10030    2    1    2    0    0  0.00000000000E+00  0.00000000000E+00 -0.17058006209E+04  0.22593939219E+04  0.14815887202E+04 0.  0.
        3    1    3    3  502    0  0.10494659675E+02 -0.22508515375E+03  0.22326797568E+03  0.31720980988E+03  0.10100000352E+00 0. -1.
       -3    1    3    3    0  502 -0.10494659675E+02  0.22508515375E+03 -0.19290685966E+04  0.19421841120E+04  0.10100000352E+00 0.  1.
</event>
<event>
 5   0  0.1427609E-04  0.1499926E+04  0.7818609E-02  0.8884502E-01
       -1   -1    0    0    0  501  0.00000000000E+00  0.00000000000E+00  0.55541977807E+03  0.55541977809E+03  0.50400001928E-02 0. -1.
        1   -1    0    0  501    0  0.00000000000E+00  0.00000000000E+00 -0.10126473008E+04  0.10126473008E+04  0.50400001928E-02 0.  1.
    10030    2    1    2    0    0  0.00000000000E+00  0.00000000000E+00 -0.45722752276E+03  0.15680670789E+04  0.14999257836E+04 0.  0.
        4    1    3    3  502    0 -0.47857326154E+03 -0.26497149474E+02 -0.83162673824E+03  0.95986411030E+03  0.12699999809E+01 0.  1.
       -4    1    3    3    0  502  0.47857326154E+03  0.26497149474E+02  0.37439921548E+03  0.60820296862E+03  0.12699999809E+01 0. -1.
</event>
<event>
 5   0  0.1474203E-04  0.1506251E+04  0.7818609E-02  0.8880307E-01
       -1   -1    0    0    0  501  0.00000000000E+00  0.00000000000E+00  0.49274973477E+03  0.49274973480E+03  0.50400001928E-02 0.  1.
        1   -1    0    0  501    0  0.00000000000E+00  0.00000000000E+00 -0.11510875163E+04  0.11510875163E+04  0.50400001928E-02 0. -1.
    10030    2    1    2    0    0  0.00000000000E+00  0.00000000000E+00 -0.65833778155E+03  0.16438372511E+04  0.15062510659E+04 0.  0.
        3    1    3    3  502    0 -0.44694070972E+03  0.47695966202E+03 -0.73744154570E+03  0.98542709560E+03  0.10100000352E+00 0. -1.
       -3    1    3    3    0  502  0.44694070972E+03 -0.47695966202E+03  0.79103764155E+02  0.65841015553E+03  0.10100000352E+00 0.  1.
</event>
<event>
 5   0  0.1484251E-04  0.1499916E+04  0.7818609E-02  0.8884509E-01
        1   -1    0    0  501    0  0.00000000000E+00  0.00000000000E+00  0.62818285235E+03  0.62818285237E+03  0.50400001928E-02 0.  1.
       -1   -1    0    0    0  501  0.00000000000E+00  0.00000000000E+00 -0.89533981429E+03  0.89533981430E+03  0.50400001928E-02 0. -1.
    10030    2    1    2    0    0  0.00000000000E+00  0.00000000000E+00 -0.26715696194E+03  0.15235226667E+04  0.14999161555E+04 0.  0.
        5    1    3    3  502    0 -0.68754237115E+02 -0.47531562452E+02 -0.89057881226E+03  0.89450494990E+03  0.46999998093E+01 0. -1.
       -5    1    3    3    0  502  0.68754237115E+02  0.47531562452E+02  0.62342185032E+03  0.62901771677E+03  0.46999998093E+01 0.  1.
</event>
<event>
 5   0  0.1484251E-04  0.1499731E+04  0.7818609E-02  0.8884632E-01
        1   -1    0    0  501    0  0.00000000000E+00  0.00000000000E+00  0.29751423867E+04  0.29751423867E+04  0.50400001928E-02 0.  1.
       -1   -1    0    0    0  501  0.00000000000E+00  0.00000000000E+00 -0.18899887524E+03  0.18899887531E+03  0.50400001928E-02 0. -1.
    10030    2    1    2    0    0  0.00000000000E+00  0.00000000000E+00  0.27861435114E+04  0.31641412620E+04  0.14997313958E+04 0.  0.
        5    1    3    3  502    0  0.16892438657E+03 -0.41580066858E+03  0.12569354709E+03  0.46609720246E+03  0.46999998093E+01 0. -1.
       -5    1    3    3    0  502 -0.16892438657E+03  0.41580066858E+03  0.26604499644E+04  0.26980440595E+04  0.46999998093E+01 0.  1.
</event>
<event>
 5   0  0.2696040E-04  0.1504005E+04  0.7818609E-02  0.8881794E-01
       -2   -1    0    0    0  501  0.00000000000E+00  0.00000000000E+00  0.13682120999E+04  0.13682120999E+04  0.25500000920E-02 0. -1.
        2   -1    0    0  501    0  0.00000000000E+00  0.00000000000E+00 -0.41331897714E+03  0.41331897715E+03  0.25500000920E-02 0.  1.
    10030    2    1    2    0    0  0.00000000000E+00  0.00000000000E+00  0.95489312275E+03  0.17815310770E+04  0.15040053532E+04 0.  0.
        2    1    3    3  502    0 -0.11748921572E+03  0.73840382441E+03  0.57268189735E+03  0.94181127583E+03  0.25500000920E-02 0.  1.
       -2    1    3    3    0  502  0.11748921572E+03 -0.73840382441E+03  0.38221122540E+03  0.83971980121E+03  0.25500000920E-02 0. -1.
</event>
<event>
 5   0  0.2696040E-04  0.1482826E+04  0.7818609E-02  0.8895954E-01
       -2   -1    0    0    0  501  0.00000000000E+00  0.00000000000E+00  0.67036207285E+03  0.67036207286E+03  0.25500000920E-02 0.  1.
        2   -1    0    0  501    0  0.00000000000E+00  0.00000000000E+00 -0.81999441340E+03  0.81999441340E+03  0.25500000920E-02 0. -1.
    10030    2    1    2    0    0  0.00000000000E+00  0.00000000000E+00 -0.14963234055E+03  0.14903564863E+04  0.14828258896E+04 0.  0.
        2    1    3    3  502    0 -0.22576690825E+03 -0.17452763715E+03  0.61295619257E+03  0.67612564439E+03  0.25500000920E-02 0.  1.
       -2    1    3    3    0  502  0.22576690825E+03  0.17452763715E+03 -0.76258853312E+03  0.81423084186E+03  0.25500000920E-02 0. -1.
</event>
<event>
 5   0  0.1474203E-04  0.1498447E+04  0.7818609E-02  0.8885486E-01
        1   -1    0    0  501    0  0.00000000000E+00  0.00000000000E+00  0.67676011742E+03  0.67676011744E+03  0.50400001928E-02 0. -1.
       -1   -1    0    0    0  501  0.00000000000E+00  0.00000000000E+00 -0.82944553234E+03  0.82944553235E+03  0.50400001928E-02 0.  1.
    10030    2    1    2    0    0  0.00000000000E+00  0.00000000000E+00 -0.15268541492E+03  0.15062056498E+04  0.14984467370E+04 0.  0.
        3    1    3    3  502    0 -0.24343980097E+03 -0.54896569435E+03  0.37398305364E+03  0.70745289941E+03  0.10100000352E+00 0. -1.
       -3    1    3    3    0  502  0.24343980097E+03  0.54896569435E+03 -0.52666846856E+03  0.79875275038E+03  0.10100000352E+00 0.  1.
</event>
<event>
 5   0  0.1426929E-04  0.1501195E+04  0.7818609E-02  0.8883659E-01
       -1   -1    0    0    0  501  0.00000000000E+00  0.00000000000E+00  0.62544118569E+03  0.62544118571E+03  0.50400001928E-02 0. -1.
        1   -1    0    0  501    0  0.00000000000E+00  0.00000000000E+00 -0.90079864326E+03  0.90079864328E+03  0.50400001928E-02 0.  1.
    10030    2    1    2    0    0  0.00000000000E+00  0.00000000000E+00 -0.27535745758E+03  0.15262398290E+04  0.15011949527E+04 0.  0.
        1    1    3    3  502    0 -0.29544706032E+03 -0.61240350984E+03 -0.46089695844E+03  0.82143352174E+03  0.50400001928E-02 0.  1.
       -1    1    3    3    0  502  0.29544706032E+03  0.61240350984E+03  0.18553950087E+03  0.70480630724E+03  0.50400001928E-02 0. -1.
</event>
<event>
 5   0  0.2618901E-04  0.1522075E+04  0.7818609E-02  0.8869905E-01
       -2   -1    0    0    0  501  0.00000000000E+00  0.00000000000E+00  0.12527390448E+04  0.12527390448E+04  0.25500000920E-02 0. -1.
        2   -1    0    0  501    0  0.00000000000E+00  0.00000000000E+00 -0.46232944796E+03  0.46232944797E+03  0.25500000920E-02 0.  1.
    10030    2    1    2    0    0  0.00000000000E+00  0.00000000000E+00  0.79040959681E+03  0.17150684927E+04  0.15220750980E+04 0.  0.
        1    1    3    3  502    0 -0.10756620097E+03  0.47616353395E+03  0.10530800817E+04  0.11607238505E+04  0.50400001928E-02 0. -1.
       -1    1    3    3    0  502  0.10756620097E+03 -0.47616353395E+03 -0.26267048493E+03  0.55434464220E+03  0.50400001928E-02 0.  1.
</event>
<event>
 5   0  0.2734072E-04  0.1493467E+04  0.7818609E-02  0.8888809E-01
       -2   -1    0    0    0  501  0.00000000000E+00  0.00000000000E+00  0.76221431546E+03  0.76221431546E+03  0.25500000920E-02 0. -1.
        2   -1    0    0  501    0  0.00000000000E+00  0.00000000000E+00 -0.73156745697E+03  0.73156745698E+03  0.25500000920E-02 0.  1.
    10030    2    1    2    0    0  0.00000000000E+00  0.00000000000E+00  0.30646858487E+02  0.14937817724E+04  0.14934673595E+04 0.  0.
        5    1    3    3  502    0 -0.20952413251E+03  0.62290331567E+03 -0.33926523247E+03  0.73961604278E+03  0.46999998093E+01 0.  1.
       -5    1    3    3    0  502  0.20952413251E+03 -0.62290331567E+03  0.36991209095E+03  0.75416572967E+03  0.46999998093E+01 0. -1.
</event>
<event>
 5   0  0.1443750E-04  0.1518065E+04  0.7818609E-02  0.8872528E-01
       -1   -1    0    0    0  501  0.00000000000E+00  0.00000000000E+00  0.72203826378E+03  0.72203826380E+03  0.50400001928E-02 0.  1.
        1   -1    0    0  501    0  0.00000000000E+00  0.00000000000E+00 -0.79792218651E+03  0.79792218653E+03  0.50400001928E-02 0. -1.
    10030    2    1    2    0    0  0.00000000000E+00  0.00000000000E+00 -0.75883922732E+02  0.15199604503E+04  0.15180650186E+04 0.  0.
        2    1    3    3  502    0  0.15597487263E+03  0.24876006659E+02  0.70540225927E+03  0.72286881520E+03  0.25500000920E-02 0.  1.
       -2    1    3    3    0  502 -0.15597487263E+03 -0.24876006659E+02 -0.78128618200E+03  0.79709163513E+03  0.25500000920E-02 0. -1.
</event>
<event>
 5   0  0.1443750E-04  0.1496743E+04  0.7818609E-02  0.8886622E-01
        1   -1    0    0  501    0  0.00000000000E+00  0.00000000000E+00  0.10835928770E+04  0.10835928770E+04  0.50400001928E-02 0.  1.
       -1   -1    0    0    0  501  0.00000000000E+00  0.00000000000E+00 -0.51685442768E+03  0.51685442770E+03  0.50400001928E-02 0. -1.
    10030    2    1    2    0    0  0.00000000000E+00  0.00000000000E+00  0.56673844929E+03  0.16004473047E+04  0.14967428320E+04 0.  0.
        2    1    3    3  502    0  0.46118438278E+02 -0.71544491825E+02  0.10783997573E+04  0.10817539282E+04  0.25500000920E-02 0.  1.
       -2    1    3    3    0  502 -0.46118438278E+02  0.71544491825E+02 -0.51166130802E+03  0.51869337646E+03  0.25500000920E-02 0. -1.
</event>
<event>
 5   0  0.1474203E-04  0.1500092E+04  0.7818609E-02  0.8884392E-01
       -1   -1    0    0    0  501  0.00000000000E+00  0.00000000000E+00  0.53967507455E+03  0.53967507458E+03  0.50400001928E-02 0.  1.
        1   -1    0    0  501    0  0.00000000000E+00  0.00000000000E+00 -0.10424217713E+04  0.10424217714E+04  0.50400001928E-02 0. -1.
    10030    2    1    2    0    0  0.00000000000E+00  0.00000000000E+00 -0.50274669679E+03  0.15820968459E+04  0.15000920601E+04 0.  0.
        3    1    3    3  502    0 -0.25457767501E+03  0.33583447117E+03  0.40300829380E+03  0.58310400420E+03  0.10100000352E+00 0.  1.
       -3    1    3    3    0  502  0.25457767501E+03 -0.33583447117E+03 -0.90575499059E+03  0.99899284172E+03  0.10100000352E+00 0. -1.
</event>
<event>
 5   0  0.2646718E-04  0.1502554E+04  0.7818609E-02  0.8882757E-01
       -2   -1    0    0    0  501  0.00000000000E+00  0.00000000000E+00  0.12766269958E+04  0.12766269958E+04  0.25500000920E-02 0.  1.
        2   -1    0    0  501    0  0.00000000000E+00  0.00000000000E+00 -0.44211564969E+03  0.44211564970E+03  0.25500000920E-02 0. -1.
    10030    2    1    2    0    0  0.00000000000E+00  0.00000000000E+00  0.83451134607E+03  0.17187426455E+04  0.15025535247E+04 0.  0.
        3    1    3    3  502    0  0.35654933698E+03 -0.60662242163E+03  0.71837805825E+03  0.10055770666E+04  0.10100000352E+00 0.  1.
       -3    1    3    3    0  502 -0.35654933698E+03  0.60662242163E+03  0.11613328782E+03  0.71316557886E+03  0.10100000352E+00 0. -1.
</event>
<event>
 5   0  0.1484251E-04  0.1511161E+04  0.7818609E-02  0.8877065E-01
       -1   -1    0    0    0  501  0.00000000000E+00  0.00000000000E+00  0.61255730222E+03  0.61255730224E+03  0.50400001928E-02 0.  1.
        1   -1    0    0  501    0  0.00000000000E+00  0.00000000000E+00 -0.93199765007E+03  0.93199765009E+03  0.50400001928E-02 0. -1.
    10030    2    1    2    0    0  0.00000000000E+00  0.00000000000E+00 -0.31944034785E+03  0.15445549523E+04  0.15111610983E+04 0.  0.
        5    1    3    3  502    0  0.34403385586E+02  0.31724408718E+03 -0.85972867466E+03  0.91705119149E+03  0.46999998093E+01 0. -1.
       -5    1    3    3    0  502 -0.34403385586E+02 -0.31724408718E+03  0.54028832680E+03  0.62750376084E+03  0.46999998093E+01 0.  1.
</event>
<event>
 5   0  0.1443750E-04  0.1518666E+04  0.7818609E-02  0.8872134E-01
        1   -1    0    0  501    0  0.00000000000E+00  0.00000000000E+00  0.10151540295E+04  0.10151540295E+04  0.50400001928E-02 0. -1.
       -1   -1    0    0    0  501  0.00000000000E+00  0.00000000000E+00 -0.56797930921E+03  0.56797930924E+03  0.50400001928E-02 0.  1.
    10030    2    1    2    0    0  0.00000000000E+00  0.00000000000E+00  0.44717472032E+03  0.15831333388E+04  0.15186658414E+04 0.  0.
        2    1    3    3  502    0 -0.28821132210E+03  0.15877932626E+03  0.93696897626E+03  0.99306973729E+03  0.25500000920E-02 0. -1.
       -2    1    3    3    0  502  0.28821132210E+03 -0.15877932626E+03 -0.48979425595E+03  0.59006360149E+03  0.25500000920E-02 0.  1.
</event>
<event>
 5   0  0.2646718E-04  0.1486934E+04  0.7818609E-02  0.8893188E-01
        2   -1    0    0  501    0  0.00000000000E+00  0.00000000000E+00  0.77308303708E+03  0.77308303709E+03  0.25500000920E-02 0.  1.
       -2   -1    0    0    0  501  0.00000000000E+00  0.00000000000E+00 -0.71498549783E+03  0.71498549784E+03  0.25500000920E-02 0. -1.
    10030    2    1    2    0    0  0.00000000000E+00  0.00000000000E+00  0.58097539251E+02  0.14880685349E+04  0.14869339732E+04 0.  0.
        3    1    3    3  502    0 -0.70441799613E+03 -0.15270252321E+03  0.21145241842E+03  0.75115571577E+03  0.10100000352E+00 0.  1.
       -3    1    3    3    0  502  0.70441799613E+03  0.15270252321E+03 -0.15335487917E+03  0.73691281916E+03  0.10100000352E+00 0. -1.
</event>
<event>
 5   0  0.2734072E-04  0.1499228E+04  0.7818609E-02  0.8884967E-01
        2   -1    0    0  501    0  0.00000000000E+00  0.00000000000E+00  0.96646142635E+03  0.96646142636E+03  0.25500000920E-02 0.  1.
       -2   -1    0    0    0  501  0.00000000000E+00  0.00000000000E+00 -0.58142112675E+03  0.58142112676E+03  0.25500000920E-02 0. -1.
    10030    2    1    2    0    0  0.00000000000E+00  0.00000000000E+00  0.38504029960E+03  0.15478825531E+04  0.14992279233E+04 0.  0.
        5    1    3    3  502    0 -0.53803126592E+03  0.30654152403E+03 -0.24362702467E+03  0.66544839485E+03  0.46999998093E+01 0. -1.
       -5    1    3    3    0  502  0.53803126592E+03 -0.30654152403E+03  0.62866732427E+03  0.88243415826E+03  0.46999998093E+01 0.  1.
</event>
<event>
 5   0  0.2734072E-04  0.1499431E+04  0.7818609E-02  0.8884832E-01
        2   -1    0    0  501    0  0.00000000000E+00  0.00000000000E+00  0.91607588163E+03  0.91607588164E+03  0.25500000920E-02 0. -1.
       -2   -1    0    0    0  501  0.00000000000E+00  0.00000000000E+00 -0.61356617295E+03  0.61356617296E+03  0.25500000920E-02 0.  1.
    10030    2    1    2    0    0  0.00000000000E+00  0.00000000000E+00  0.30250970868E+03  0.15296420546E+04  0.14994307891E+04 0.  0.
        5    1    3    3  502    0 -0.21252851400E+03 -0.56981883180E+02 -0.57986911952E+03  0.62023027178E+03  0.46999998093E+01 0.  1.
       -5    1    3    3    0  502  0.21252851400E+03  0.56981883180E+02  0.88237882819E+03  0.90941178281E+03  0.46999998093E+01 0. -1.
</event>
<event>
 5   0  0.2734072E-04  0.1497003E+04  0.7818609E-02  0.8886448E-01
       -2   -1    0    0    0  501  0.00000000000E+00  0.00000000000E+00  0.43896932535E+03  0.43896932536E+03  0.25500000920E-02 0. -1.
        2   -1    0    0  501    0  0.00000000000E+00  0.00000000000E+00 -0.12762955050E+04  0.12762955050E+04  0.25500000920E-02 0.  1.
    10030    2    1    2    0    0  0.00000000000E+00  0.00000000000E+00 -0.83732617969E+03  0.17152648304E+04  0.14970031086E+04 0.  0.
        5    1    3    3  502    0  0.72258218297E+03 -0.10934445636E+03 -0.23337187192E+03  0.76718038419E+03  0.46999998093E+01 0.  1.
       -5    1    3    3    0  502 -0.72258218297E+03  0.10934445636E+03 -0.60395430777E+03  0.94808444621E+03  0.46999998093E+01 0. -1.
</event>
<event>
 5   0  0.2696040E-04  0.1500366E+04  0.7818609E-02  0.8884210E-01
       -2   -1    0    0    0  501  0.00000000000E+00  0.00000000000E+00  0.10721522704E+04  0.10721522704E+04  0.25500000920E-02 0.  1.
        2   -1    0    0  501    0  0.00000000000E+00  0.00000000000E+00 -0.52490149008E+03  0.52490149009E+03  0.25500000920E-02 0. -1.
    10030    2    1    2    0    0  0.00000000000E+00  0.00000000000E+00  0.54725078029E+03  0.15970537605E+04  0.15003657212E+04 0.  0.
        2    1    3    3  502    0 -0.26394916557E+03  0.32587832605E+03  0.93572986951E+03  0.10254053999E+04  0.25500000920E-02 0.  1.
       -2    1    3    3    0  502  0.26394916557E+03 -0.32587832605E+03 -0.38847908922E+03  0.57164836059E+03  0.25500000920E-02 0. -1.
</event>
<event>
 5   0  0.2641347E-04  0.1501095E+04  0.7818609E-02  0.8883725E-01
        2   -1    0    0  501    0  0.00000000000E+00  0.00000000000E+00  0.19794592351E+04  0.19794592351E+04  0.25500000920E-02 0.  1.
       -2   -1    0    0    0  501  0.00000000000E+00  0.00000000000E+00 -0.28458364494E+03  0.28458364495E+03  0.25500000920E-02 0. -1.
    10030    2    1    2    0    0  0.00000000000E+00  0.00000000000E+00  0.16948755902E+04  0.22640428801E+04  0.15010952324E+04 0.  0.
        4    1    3    3  502    0 -0.62439111009E+03 -0.36097031252E+03  0.53411035139E+03  0.89746270410E+03  0.12699999809E+01 0. -1.
       -4    1    3    3    0  502  0.62439111009E+03  0.36097031252E+03  0.11607652388E+04  0.13665801760E+04  0.12699999809E+01 0.  1.
</event>
<event>
 5   0  0.2646718E-04  0.1501067E+04  0.7818609E-02  0.8883744E-01
       -2   -1    0    0    0  501  0.00000000000E+00  0.00000000000E+00  0.33792312545E+03  0.33792312546E+03  0.25500000920E-02 0. -1.
        2   -1    0    0  501    0  0.00000000000E+00  0.00000000000E+00 -0.16669490536E+04  0.16669490536E+04  0.25500000920E-02 0.  1.
    10030    2    1    2    0    0  0.00000000000E+00  0.00000000000E+00 -0.13290259281E+04  0.20048721790E+04  0.15010671326E+04 0.  0.
        3    1    3    3  502    0  0.73749364635E+03 -0.47706700195E+02 -0.83931141182E+03  0.11183096458E+04  0.10100000352E+00 0.  1.
       -3    1    3    3    0  502 -0.73749364635E+03  0.47706700195E+02 -0.48971451629E+03  0.88656253322E+03  0.10100000352E+00 0. -1.
</event>
<event>
 5   0  0.2734072E-04  0.1496384E+04  0.7818609E-02  0.8886861E-01
       -2   -1    0    0    0  501  0.00000000000E+00  0.00000000000E+00  0.68069359658E+03  0.68069359659E+03  0.25500000920E-02 0.  1.
        2   -1    0    0  501    0  0.00000000000E+00  0.00000000000E+00 -0.82238388364E+03  0.82238388365E+03  0.25500000920E-02 0. -1.
    10030    2    1    2    0    0  0.00000000000E+00  0.00000000000E+00 -0.14169028706E+03  0.15030774802E+04  0.14963842335E+04 0.  0.
        5    1    3    3  502    0  0.12438839913E+03 -0.64635184547E+03 -0.42814136884E+03  0.78521990785E+03  0.46999998093E+01 0. -1.
       -5    1    3    3    0  502 -0.12438839913E+03  0.64635184547E+03  0.28645108178E+03  0.71785757238E+03  0.46999998093E+01 0.  1.
</event>
<event>
 5   0  0.2618901E-04  0.1500575E+04  0.7818609E-02  0.8884071E-01
        2   -1    0    0  501    0  0.00000000000E+00  0.00000000000E+00  0.13314463454E+04  0.13314463454E+04  0.25500000920E-02 0. -1.
       -2   -1    0    0    0  501  0.00000000000E+00  0.00000000000E+00 -0.42279668264E+03  0.42279668265E+03  0.25500000920E-02 0.  1.
    10030    2    1    2    0    0  0.00000000000E+00  0.00000000000E+00  0.90864966277E+03  0.17542430281E+04  0.15005746872E+04 0.  0.
        1    1    3    3  502    0 -0.45198936777E+03 -0.52858757973E+03  0.12525950490E+03  0.70667472122E+03  0.50400001928E-02 0.  1.
       -1    1    3    3    0  502  0.45198936777E+03  0.52858757973E+03  0.78339015787E+03  0.10475683068E+04  0.50400001928E-02 0. -1.
</event>
<event>
 5   0  0.1004313E-04  0.1504121E+04  0.7818609E-02  0.8881717E-01
        3   -1    0    0  501    0  0.00000000000E+00  0.00000000000E+00  0.82153479084E+03  0.82153479705E+03  0.10100000352E+00 0. -1.
       -3   -1    0    0    0  501  0.00000000000E+00  0.00000000000E+00 -0.68846111034E+03  0.68846111774E+03  0.10100000352E+00 0.  1.
    10030    2    1    2    0    0  0.00000000000E+00  0.00000000000E+00  0.13307368051E+03  0.15099959148E+04  0.15041206927E+04 0.  0.
        4    1    3    3  502    0  0.62978417438E+03  0.10767761865E+03 -0.33171230580E+03  0.71990085607E+03  0.12699999809E+01 0.  1.
       -4    1    3    3    0  502 -0.62978417438E+03 -0.10767761865E+03  0.46478598630E+03  0.79009505872E+03  0.12699999809E+01 0. -1.
</event>
<event>
 5   0  0.2618901E-04  0.1499951E+04  0.7818609E-02  0.8884486E-01
       -2   -1    0    0    0  501  0.00000000000E+00  0.00000000000E+00  0.98255908352E+03  0.98255908353E+03  0.25500000920E-02 0.  1.
        2   -1    0    0  501    0  0.00000000000E+00  0.00000000000E+00 -0.57244720733E+03  0.57244720734E+03  0.25500000920E-02 0. -1.
    10030    2    1    2    0    0  0.00000000000E+00  0.00000000000E+00  0.41011187619E+03  0.15550062909E+04  0.14999509371E+04 0.  0.
        1    1    3    3  502    0  0.10252051543E+03  0.38039111228E+03  0.86664527248E+03  0.95198838371E+03  0.50400001928E-02 0.  1.
       -1    1    3    3    0  502 -0.10252051543E+03 -0.38039111228E+03 -0.45653339629E+03  0.60301790715E+03  0.50400001928E-02 0. -1.
</event>
<event>
 5   0  0.1443750E-04  0.1514762E+04  0.7818609E-02  0.8874695E-01
       -1   -1    0    0    0  501  0.00000000000E+00  0.00000000000E+00  0.74765519222E+03  0.74765519224E+03  0.50400001928E-02 0.  1.
        1   -1    0    0  501    0  0.00000000000E+00  0.00000000000E+00 -0.76723373475E+03  0.76723373477E+03  0.50400001928E-02 0. -1.
    10030    2    1    2    0    0  0.00000000000E+00  0.00000000000E+00 -0.19578542536E+02  0.15148889270E+04  0.15147624044E+04 0.  0.
        2    1    3    3  502    0  0.68928185829E+03 -0.52354427668E+02  0.29971326422E+03  0.75344442862E+03  0.25500000920E-02 0. -1.
       -2    1    3    3    0  502 -0.68928185829E+03  0.52354427668E+02 -0.31929180675E+03  0.76144449839E+03  0.25500000920E-02 0.  1.
</event>
<event>
 5   0  0.2646718E-04  0.1502270E+04  0.7818609E-02  0.8882945E-01
       -2   -1    0    0    0  501  0.00000000000E+00  0.00000000000E+00  0.30371154923E+03  0.30371154924E+03  0.25500000920E-02 0. -1.
        2   -1    0    0  501    0  0.00000000000E+00  0.00000000000E+00 -0.18576957211E+04  0.18576957211E+04  0.25500000920E-02 0.  1.
    10030    2    1    2    0    0  0.00000000000E+00  0.00000000000E+00 -0.15539841719E+04  0.21614072704E+04  0.15022698099E+04 0.  0.
        3    1    3    3  502    0 -0.38653662698E+03 -0.45186933891E+03 -0.14372676827E+04  0.15554211216E+04  0.10100000352E+00 0.  1.
       -3    1    3    3    0  502  0.38653662698E+03  0.45186933891E+03 -0.11671648913E+03  0.60598614875E+03  0.10100000352E+00 0. -1.
</event>
<event>
 5   0  0.1427609E-04  0.1484717E+04  0.7818609E-02  0.8894680E-01
        1   -1    0    0  501    0  0.00000000000E+00  0.00000000000E+00  0.94726715598E+03  0.94726715599E+03  0.50400001928E-02 0. -1.
       -1   -1    0    0    0  501  0.00000000000E+00  0.00000000000E+00 -0.58177463545E+03  0.58177463547E+03  0.50400001928E-02 0.  1.
    10030    2    1    2    0    0  0.00000000000E+00  0.00000000000E+00  0.36549252053E+03  0.15290417915E+04  0.14847168139E+04 0.  0.
        4    1    3    3  502    0 -0.27710759533E+03 -0.20022851845E+03  0.86136804353E+03  0.92673437311E+03  0.12699999809E+01 0. -1.
       -4    1    3    3    0  502  0.27710759533E+03  0.20022851845E+03 -0.49587552300E+03  0.60230741835E+03  0.12699999809E+01 0.  1.
</event>
<event>
 5   0  0.1426929E-04  0.1498047E+04  0.7818609E-02  0.8885752E-01
        1   -1    0    0  501    0  0.00000000000E+00  0.00000000000E+00  0.65750137729E+03  0.65750137731E+03  0.50400001928E-02 0. -1.
       -1   -1    0    0    0  501  0.00000000000E+00  0.00000000000E+00 -0.85328569380E+03  0.85328569381E+03  0.50400001928E-02 0.  1.
    10030    2    1    2    0    0  0.00000000000E+00  0.00000000000E+00 -0.19578431650E+03  0.15107870711E+04  0.14980474210E+04 0.  0.
        1    1    3    3  502    0 -0.97670036630E+02 -0.27416273243E+03  0.59814515568E+03  0.66519340586E+03  0.50400001928E-02 0. -1.
       -1    1    3    3    0  502  0.97670036630E+02  0.27416273243E+03 -0.79392947218E+03  0.84559366526E+03  0.50400001928E-02 0.  1.
</event>
<event>
 5   0  0.1484251E-04  0.1500749E+04  0.7818609E-02  0.8883955E-01
       -1   -1    0    0    0  501  0.00000000000E+00  0.00000000000E+00  0.33992924627E+03  0.33992924631E+03  0.50400001928E-02 0.  1.
        1   -1    0    0  501    0  0.00000000000E+00  0.00000000000E+00 -0.16564089493E+04  0.16564089493E+04  0.50400001928E-02 0. -1.
    10030    2    1    2    0    0  0.00000000000E+00  0.00000000000E+00 -0.13164797030E+04  0.19963381956E+04  0.15007489406E+04 0.  0.
        5    1    3    3  502    0  0.70148822840E+03 -0.20195941619E+02 -0.30492433220E+03  0.76517615554E+03  0.46999998093E+01 0.  1.
       -5    1    3    3    0  502 -0.70148822840E+03  0.20195941619E+02 -0.10115553708E+04  0.12311620400E+04  0.46999998093E+01 0. -1.
</event>
<event>
 5   0  0.2641347E-04  0.1469115E+04  0.7818609E-02  0.8905255E-01
       -2   -1    0    0    0  501  0.00000000000E+00  0.00000000000E+00  0.75061944184E+03  0.75061944184E+03  0.25500000920E-02 0.  1.
        2   -1    0    0  501    0  0.00000000000E+00  0.00000000000E+00 -0.71883958402E+03  0.71883958403E+03  0.25500000920E-02 0. -1.
    10030    2    1    2    0    0  0.00000000000E+00  0.00000000000E+00  0.31779857814E+02  0.14694590259E+04  0.14691153356E+04 0.  0.
        4    1    3    3  502    0 -0.59906672520E+03 -0.36241504532E+03  0.23808542843E+03  0.73953491496E+03  0.12699999809E+01 0. -1.
       -4    1    3    3    0  502  0.59906672520E+03  0.36241504532E+03 -0.20630557061E+03  0.72992411091E+03  0.12699999809E+01 0.  1.
</event>
<event>
 5   0  0.1443750E-04  0.1498290E+04  0.7818609E-02  0.8885591E-01
        1   -1    0    0  501    0  0.00000000000E+00  0.00000000000E+00  0.13466528028E+04  0.13466528028E+04  0.50400001928E-02 0. -1.
       -1   -1    0    0    0  501  0.00000000000E+00  0.00000000000E+00 -0.41675035644E+03  0.41675035647E+03  0.50400001928E-02 0.  1.
    10030    2    1    2    0    0  0.00000000000E+00  0.00000000000E+00  0.92990244632E+03  0.17634031592E+04  0.14982897391E+04 0.  0.
        2    1    3    3  502    0 -0.35070694920E+03 -0.62935533895E+03  0.22336348967E+03  0.75430415311E+03  0.25500000920E-02 0.  1.
       -2    1    3    3    0  502  0.35070694920E+03  0.62935533895E+03  0.70653895665E+03  0.10090990061E+04  0.25500000920E-02 0. -1.
</event>
<event>
 5   0  0.2696040E-04  0.1519362E+04  0.7818609E-02  0.8871678E-01
        2   -1    0    0  501    0  0.00000000000E+00  0.00000000000E+00  0.85484134475E+03  0.85484134475E+03  0.25500000920E-02 0. -1.
       -2   -1    0    0    0  501  0.00000000000E+00  0.00000000000E+00 -0.67511418955E+03  0.67511418956E+03  0.25500000920E-02 0.  1.
    10030    2    1    2    0    0  0.00000000000E+00  0.00000000000E+00  0.17972715519E+03  0.15299555343E+04  0.15193623948E+04 0.  0.
        2    1    3    3  502    0  0.50966809372E+03 -0.56285689942E+03  0.66332583551E+02  0.76221353086E+03  0.25500000920E-02 0. -1.
       -2    1    3    3    0  502 -0.50966809372E+03  0.56285689942E+03  0.11339457164E+03  0.76774200345E+03  0.25500000920E-02 0.  1.
</event>
<event>
 5   0  0.2618901E-04  0.1500498E+04  0.7818609E-02  0.8884122E-01
        2   -1    0    0  501    0  0.00000000000E+00  0.00000000000E+00  0.93766423272E+03  0.93766423272E+03  0.25500000920E-02 0. -1.
       -2   -1    0    0    0  501  0.00000000000E+00  0.00000000000E+00 -0.60029341568E+03  0.60029341569E+03  0.25500000920E-02 0.  1.
    10030    2    1    2    0    0  0.00000000000E+00  0.00000000000E+00  0.33737081703E+03  0.15379576484E+04  0.15004981373E+04 0.  0.
        1    1    3    3  502    0 -0.67083955024E+03 -0.17438053424E+03  0.46297595128E+03  0.83353524483E+03  0.50400001928E-02 0. -1.
       -1    1    3    3    0  502  0.67083955024E+03  0.17438053424E+03 -0.12560513424E+03  0.70442240358E+03  0.50400001928E-02 0.  1.
</event>
<event>
 5   0  0.2734072E-04  0.1514480E+04  0.7818609E-02  0.8874880E-01
       -2   -1    0    0    0  501  0.00000000000E+00  0.00000000000E+00  0.87320545523E+03  0.87320545523E+03  0.25500000920E-02 0.  1.
        2   -1    0    0  501    0  0.00000000000E+00  0.00000000000E+00 -0.65667552958E+03  0.65667552959E+03  0.25500000920E-02 0. -1.
    10030    2    1    2    0    0  0.00000000000E+00  0.00000000000E+00  0.21652992564E+03  0.15298809848E+04  0.15144803132E+04 0.  0.
        5    1    3    3  502    0  0.33798548974E+03  0.81907901799E+02 -0.57121725562E+03  0.66877076699E+03  0.46999998093E+01 0. -1.
       -5    1    3    3    0  502 -0.33798548974E+03 -0.81907901799E+02  0.78774718127E+03  0.86111021783E+03  0.46999998093E+01 0.  1.
</event>
<event>
 5   0  0.1443750E-04  0.1490041E+04  0.7818609E-02  0.8891103E-01
       -1   -1    0    0    0  501  0.00000000000E+00  0.00000000000E+00  0.53546007152E+03  0.53546007154E+03  0.50400001928E-02 0.  1.
        1   -1    0    0  501    0  0.00000000000E+00  0.00000000000E+00 -0.10365957712E+04  0.10365957712E+04  0.50400001928E-02 0. -1.
    10030    2    1    2    0    0  0.00000000000E+00  0.00000000000E+00 -0.50113569972E+03  0.15720558428E+04  0.14900411348E+04 0.  0.
        2    1    3    3  502    0 -0.53355306374E+03 -0.22519748248E+03  0.24391135909E+03  0.62839917970E+03  0.25500000920E-02 0.  1.
       -2    1    3    3    0  502  0.53355306374E+03  0.22519748248E+03 -0.74504705881E+03  0.94365666309E+03  0.25500000920E-02 0. -1.
</event>
<event>
 5   0  0.1427609E-04  0.1504695E+04  0.7818609E-02  0.8881337E-01
        1   -1    0    0  501    0  0.00000000000E+00  0.00000000000E+00  0.73458764192E+03  0.73458764194E+03  0.50400001928E-02 0. -1.
       -1   -1    0    0    0  501  0.00000000000E+00  0.00000000000E+00 -0.77053643592E+03  0.77053643594E+03  0.50400001928E-02 0.  1.
    10030    2    1    2    0    0  0.00000000000E+00  0.00000000000E+00 -0.35948793999E+02  0.15051240779E+04  0.15046947112E+04 0.  0.
        4    1    3    3  502    0 -0.77219419490E+02  0.16141597387E+03  0.71299193459E+03  0.73510343970E+03  0.12699999809E+01 0. -1.
       -4    1    3    3    0  502  0.77219419490E+02 -0.16141597387E+03 -0.74894072859E+03  0.77002063817E+03  0.12699999809E+01 0.  1.
</event>
<event>
 5   0  0.2641347E-04  0.1507153E+04  0.7818609E-02  0.8879710E-01
       -2   -1    0    0    0  501  0.00000000000E+00  0.00000000000E+00  0.44998222328E+03  0.44998222328E+03  0.25500000920E-02 0. -1.
        2   -1    0    0  501    0  0.00000000000E+00  0.00000000000E+00 -0.12620001203E+04  0.12620001203E+04  0.25500000920E-02 0.  1.
    10030    2    1    2    0    0  0.00000000000E+00  0.00000000000E+00 -0.81201789701E+03  0.17119823436E+04  0.15071531042E+04 0.  0.
        4    1    3    3  502    0 -0.34393537806E+03 -0.26445387412E+03  0.29388593176E+03  0.52402094386E+03  0.12699999809E+01 0. -1.
       -4    1    3    3    0  502  0.34393537806E+03  0.26445387412E+03 -0.11059038288E+04  0.11879613997E+04  0.12699999809E+01 0.  1.
</event>
<event>
 5   0  0.2646718E-04  0.1487569E+04  0.7818609E-02  0.8892762E-01
        2   -1    0    0  501    0  0.00000000000E+00  0.00000000000E+00  0.17203582225E+04  0.17203582225E+04  0.25500000920E-02 0. -1.
       -2   -1    0    0    0  501  0.00000000000E+00  0.00000000000E+00 -0.32156990038E+03  0.32156990039E+03  0.25500000920E-02 0.  1.
    10030    2    1    2    0    0  0.00000000000E+00  0.00000000000E+00  0.13987883221E+04  0.20419281229E+04  0.14875690535E+04 0.  0.
        3    1    3    3  502    0  0.36830288013E+03  0.62167558911E+03  0.94141833492E+03  0.11867586280E+04  0.10100000352E+00 0. -1.
       -3    1    3    3    0  502 -0.36830288013E+03 -0.62167558911E+03  0.45736998722E+03  0.85516949490E+03  0.10100000352E+00 0.  1.
</event>
<event>
 5   0  0.1426929E-04  0.1505704E+04  0.7818609E-02  0.8880669E-01
        1   -1    0    0  501    0  0.00000000000E+00  0.00000000000E+00  0.51415653367E+03  0.51415653369E+03  0.50400001928E-02 0. -1.
       -1   -1    0    0    0  501  0.00000000000E+00  0.00000000000E+00 -0.11023603139E+04  0.11023603140E+04  0.50400001928E-02 0.  1.
    10030    2    1    2    0    0  0.00000000000E+00  0.00000000000E+00 -0.58820378028E+03  0.16165168476E+04  0.15057035006E+04 0.  0.
        1    1    3    3  502    0  0.24272880166E+03 -0.71092881532E+03 -0.34722813525E+03  0.82758952962E+03  0.50400001928E-02 0. -1.
       -1    1    3    3    0  502 -0.24272880166E+03  0.71092881532E+03 -0.24097564503E+03  0.78892731802E+03  0.50400001928E-02 0.  1.
</event>
<event>
 5   0  0.1426929E-04  0.1499849E+04  0.7818609E-02  0.8884553E-01
        1   -1    0    0  501    0  0.00000000000E+00  0.00000000000E+00  0.79548047209E+03  0.79548047211E+03  0.50400001928E-02 0. -1.
       -1   -1    0    0    0  501  0.00000000000E+00  0.00000000000E+00 -0.70697728150E+03  0.70697728152E+03  0.50400001928E-02 0.  1.
    10030    2    1    2    0    0  0.00000000000E+00  0.00000000000E+00  0.88503190588E+02  0.15024577536E+04  0.14998488213E+04 0.  0.
        1    1    3    3  502    0  0.66679078008E+03  0.18548129078E+03 -0.24499513355E+03  0.73419062179E+03  0.50400001928E-02 0.  1.
       -1    1    3    3    0  502 -0.66679078008E+03 -0.18548129078E+03  0.33349832414E+03  0.76826713184E+03  0.50400001928E-02 0. -1.
</event>
<event>
 5   0  0.1443750E-04  0.1505521E+04  0.7818609E-02  0.8880790E-01
        1   -1    0    0  501    0  0.00000000000E+00  0.00000000000E+00  0.97240588331E+03  0.97240588333E+03  0.50400001928E-02 0. -1.
       -1   -1    0    0    0  501  0.00000000000E+00  0.00000000000E+00 -0.58272827525E+03  0.58272827527E+03  0.50400001928E-02 0.  1.
    10030    2    1    2    0    0  0.00000000000E+00  0.00000000000E+00  0.38967760807E+03  0.15551341586E+04  0.15055210437E+04 0.  0.
        2    1    3    3  502    0 -0.31756073273E+03 -0.25306888968E+02  0.89934315533E+03  0.95409819654E+03  0.25500000920E-02 0. -1.
       -2    1    3    3    0  502  0.31756073273E+03  0.25306888968E+02 -0.50966554726E+03  0.60103596205E+03  0.25500000920E-02 0.  1.
</event>
<event>
 5   0  0.1443750E-04  0.1497818E+04  0.7818609E-02  0.8885905E-01
       -1   -1    0    0    0  501  0.00000000000E+00  0.00000000000E+00  0.55219603605E+03  0.55219603607E+03  0.50400001928E-02 0. -1.
        1   -1    0    0  501    0  0.00000000000E+00  0.00000000000E+00 -0.10156979798E+04  0.10156979798E+04  0.50400001928E-02 0.  1.
    10030    2    1    2    0    0  0.00000000000E+00  0.00000000000E+00 -0.46350194370E+03  0.15678940158E+04  0.14978176101E+04 0.  0.
        2    1    3    3  502    0  0.72151649854E+03 -0.10518747786E+03 -0.52833480495E+02  0.73105529192E+03  0.25500000920E-02 0. -1.
       -2    1    3    3    0  502 -0.72151649854E+03  0.10518747786E+03 -0.41066846321E+03  0.83683872392E+03  0.25500000920E-02 0.  1.
</event>
<event>
 5   0  0.2734072E-04  0.1493713E+04  0.7818609E-02  0.8888644E-01
        2   -1    0    0  501    0  0.00000000000E+00  0.00000000000E+00  0.77711482133E+03  0.77711482133E+03  0.25500000920E-02 0. -1.
       -2   -1    0    0    0  501  0.00000000000E+00  0.00000000000E+00 -0.71777669460E+03  0.71777669460E+03  0.25500000920E-02 0.  1.
    10030    2    1    2    0    0  0.00000000000E+00  0.00000000000E+00  0.59338126731E+02  0.14948915159E+04  0.14937133698E+04 0.  0.
        5    1    3    3  502    0  0.11186470566E+03  0.86751552034E+02 -0.70421230838E+03  0.71831511847E+03  0.46999998093E+01 0.  1.
       -5    1    3    3    0  502 -0.11186470566E+03 -0.86751552034E+02  0.76355043511E+03  0.77657639747E+03  0.46999998093E+01 0. -1.
</event>
<event>
 5   0  0.1484251E-04  0.1504350E+04  0.7818609E-02  0.8881566E-01
       -1   -1    0    0    0  501  0.00000000000E+00  0.00000000000E+00  0.64692803327E+03  0.64692803329E+03  0.50400001928E-02 0. -1.
        1   -1    0    0  501    0  0.00000000000E+00  0.00000000000E+00 -0.87454399897E+03  0.87454399899E+03  0.50400001928E-02 0.  1.
    10030    2    1    2    0    0  0.00000000000E+00  0.00000000000E+00 -0.22761596570E+03  0.15214720323E+04  0.15043497323E+04 0.  0.
        5    1    3    3  502    0  0.62167255081E+03 -0.35454101665E+03  0.12027578933E+03  0.72571650692E+03  0.46999998093E+01 0. -1.
       -5    1    3    3    0  502 -0.62167255081E+03  0.35454101665E+03 -0.34789175504E+03  0.79575552536E+03  0.46999998093E+01 0.  1.
</event>
<event>
 5   0  0.1474203E-04  0.1500745E+04  0.7818609E-02  0.8883958E-01
       -1   -1    0    0    0  501  0.00000000000E+00  0.00000000000E+00  0.28990499305E+03  0.28990499309E+03  0.50400001928E-02 0.  1.
        1   -1    0    0  501    0  0.00000000000E+00  0.00000000000E+00 -0.19422183333E+04  0.19422183333E+04  0.50400001928E-02 0. -1.
    10030    2    1    2    0    0  0.00000000000E+00  0.00000000000E+00 -0.16523133403E+04  0.22321233264E+04  0.15007448717E+04 0.  0.
        3    1    3    3  502    0 -0.21857328252E+03  0.26681105804E+03 -0.18173307257E+04  0.18497711743E+04  0.10100000352E+00 0. -1.
       -3    1    3    3    0  502  0.21857328252E+03 -0.26681105804E+03  0.16501738543E+03  0.38235215210E+03  0.10100000352E+00 0.  1.
</event>
<event>
 5   0  0.1484251E-04  0.1498511E+04  0.7818609E-02  0.8885444E-01
        1   -1    0    0  501    0  0.00000000000E+00  0.00000000000E+00  0.10649568239E+04  0.10649568239E+04  0.50400001928E-02 0.  1.
       -1   -1    0    0    0  501  0.00000000000E+00  0.00000000000E+00 -0.52714214285E+03  0.52714214287E+03  0.50400001928E-02 0. -1.
    10030    2    1    2    0    0  0.00000000000E+00  0.00000000000E+00  0.53781468109E+03  0.15920989668E+04  0.14985107570E+04 0.  0.
        5    1    3    3  502    0  0.69376583452E+03 -0.25850727052E+03  0.39108721228E+03  0.83732212419E+03  0.46999998093E+01 0.  1.
       -5    1    3    3    0  502 -0.69376583452E+03  0.25850727052E+03  0.14672746881E+03  0.75477684262E+03  0.46999998093E+01 0. -1.
</event>
<event>
 5   0  0.1427609E-04  0.1501840E+04  0.7818609E-02  0.8883230E-01
       -1   -1    0    0    0  501  0.00000000000E+00  0.00000000000E+00  0.52760621118E+03  0.52760621120E+03  0.50400001928E-02 0. -1.
        1   -1    0    0  501    0  0.00000000000E+00  0.00000000000E+00 -0.10687531064E+04  0.10687531064E+04  0.50400001928E-02 0.  1.
    10030    2    1    2    0    0  0.00000000000E+00  0.00000000000E+00 -0.54114689518E+03  0.15963593176E+04  0.15018399078E+04 0.  0.
        4    1    3    3  502    0 -0.60393437273E+03  0.44624700793E+03 -0.26795992301E+03  0.79729370491E+03  0.12699999809E+01 0.  1.
       -4    1    3    3    0  502  0.60393437273E+03 -0.44624700793E+03 -0.27318697217E+03  0.79906561265E+03  0.12699999809E+01 0. -1.
</event>
<event>
 5   0  0.2696040E-04  0.1498866E+04  0.7818609E-02  0.8885208E-01
       -2   -1    0    0    0  501  0.00000000000E+00  0.00000000000E+00  0.24499615411E+03  0.24499615413E+03  0.25500000920E-02 0.  1.
        2   -1    0    0  501    0  0.00000000000E+00  0.00000000000E+00 -0.22924829185E+04  0.22924829185E+04  0.25500000920E-02 0. -1.
    10030    2    1    2    0    0  0.00000000000E+00  0.00000000000E+00 -0.20474867644E+04  0.25374790726E+04  0.14988655689E+04 0.  0.
        2    1    3    3  502    0 -0.23520581565E+03  0.59807170875E+02 -0.22241162813E+04  0.22373180164E+04  0.25500000920E-02 0. -1.
       -2    1    3    3    0  502  0.23520581565E+03 -0.59807170875E+02  0.17662951699E+03  0.30016105623E+03  0.25500000920E-02 0.  1.
</event>
<event>
 5   0  0.2618901E-04  0.1512295E+04  0.7818609E-02  0.8876318E-01
       -2   -1    0    0    0  501  0.00000000000E+00  0.00000000000E+00  0.87000286712E+03  0.87000286713E+03  0.25500000920E-02 0.  1.
        2   -1    0    0  501    0  0.00000000000E+00  0.00000000000E+00 -0.65719254358E+03  0.65719254359E+03  0.25500000920E-02 0. -1.
    10030    2    1    2    0    0  0.00000000000E+00  0.00000000000E+00  0.21281032354E+03  0.15271954107E+04  0.15122954700E+04 0.  0.
        1    1    3    3  502    0  0.63302555350E+03 -0.38491841799E+03  0.25914300298E+03  0.78488128778E+03  0.50400001928E-02 0.  1.
       -1    1    3    3    0  502 -0.63302555350E+03  0.38491841799E+03 -0.46332679438E+02  0.74231412293E+03  0.50400001928E-02 0. -1.
</event>
<event>
 5   0  0.1484251E-04  0.1494670E+04  0.7818609E-02  0.8888005E-01
        1   -1    0    0  501    0  0.00000000000E+00  0.00000000000E+00  0.14698014111E+04  0.14698014111E+04  0.50400001928E-02 0.  1.
       -1   -1    0    0    0  501  0.00000000000E+00  0.00000000000E+00 -0.37998964416E+03  0.37998964419E+03  0.50400001928E-02 0. -1.
    10030    2    1    2    0    0  0.00000000000E+00  0.00000000000E+00  0.10898117669E+04  0.18497910553E+04  0.14946696159E+04 0.  0.
        5    1    3    3  502    0  0.71764095008E+03  0.11498838870E+03  0.32963473590E+03  0.79806767374E+03  0.46999998093E+01 0.  1.
       -5    1    3    3    0  502 -0.71764095008E+03 -0.11498838870E+03  0.76017703100E+03  0.10517233815E+04  0.46999998093E+01 0. -1.
</event>
<event>
 5   0  0.1443750E-04  0.1501765E+04  0.7818609E-02  0.8883280E-01
       -1   -1    0    0    0  501  0.00000000000E+00  0.00000000000E+00  0.54883951473E+03  0.54883951475E+03  0.50400001928E-02 0. -1.
        1   -1    0    0  501    0  0.00000000000E+00  0.00000000000E+00 -0.10273025713E+04  0.10273025713E+04  0.50400001928E-02 0.  1.
    10030    2    1    2    0    0  0.00000000000E+00  0.00000000000E+00 -0.47846305652E+03  0.15761420860E+04  0.15017646217E+04 0.  0.
        2    1    3    3  502    0 -0.16787889617E+03  0.70862142435E+03 -0.47146353780E+02  0.72976052614E+03  0.25500000920E-02 0. -1.
       -2    1    3    3    0  502  0.16787889617E+03 -0.70862142435E+03 -0.43131670274E+03  0.84638155988E+03  0.25500000920E-02 0.  1.
</event>
<event>
 5   0  0.1474203E-04  0.1509020E+04  0.7818609E-02  0.8878477E-01
        1   -1    0    0  501    0  0.00000000000E+00  0.00000000000E+00  0.86031077411E+03  0.86031077413E+03  0.50400001928E-02 0.  1.
       -1   -1    0    0    0  501  0.00000000000E+00  0.00000000000E+00 -0.66172024217E+03  0.66172024219E+03  0.50400001928E-02 0. -1.
    10030    2    1    2    0    0  0.00000000000E+00  0.00000000000E+00  0.19859053194E+03  0.15220310163E+04  0.15090196206E+04 0.  0.
        3    1    3    3  502    0  0.17534307878E+03 -0.56362218455E+03  0.57331548333E+03  0.82286439698E+03  0.10100000352E+00 0.  1.
       -3    1    3    3    0  502 -0.17534307878E+03  0.56362218455E+03 -0.37472495139E+03  0.69916661933E+03  0.10100000352E+00 0. -1.
</event>
<event>
 5   0  0.2696040E-04  0.1501227E+04  0.7818609E-02  0.8883637E-01
       -2   -1    0    0    0  501  0.00000000000E+00  0.00000000000E+00  0.53530735554E+03  0.53530735555E+03  0.25500000920E-02 0. -1.
        2   -1    0    0  501    0  0.00000000000E+00  0.00000000000E+00 -0.10525180227E+04  0.10525180227E+04  0.25500000920E-02 0.  1.
    10030    2    1    2    0    0  0.00000000000E+00  0.00000000000E+00 -0.51721066716E+03  0.15878253783E+04  0.15012270173E+04 0.  0.
        2    1    3    3  502    0 -0.69242354564E+03  0.14269456156E+03 -0.52536125196E+03  0.88080448995E+03  0.25500000920E-02 0.  1.
       -2    1    3    3    0  502  0.69242354564E+03 -0.14269456156E+03  0.81505847935E+01  0.70702088830E+03  0.25500000920E-02 0. -1.
</event>
<event>
 5   0  0.2618901E-04  0.1507191E+04  0.7818609E-02  0.8879685E-01
        2   -1    0    0  501    0  0.00000000000E+00  0.00000000000E+00  0.35918650345E+03  0.35918650346E+03  0.25500000920E-02 0.  1.
       -2   -1    0    0    0  501  0.00000000000E+00  0.00000000000E+00 -0.15810908419E+04  0.15810908419E+04  0.25500000920E-02 0. -1.
    10030    2    1    2    0    0  0.00000000000E+00  0.00000000000E+00 -0.12219043384E+04  0.19402773453E+04  0.15071914160E+04 0.  0.
        1    1    3    3  502    0  0.22991798805E+03 -0.19034276199E+03 -0.15017491773E+04  0.15311248283E+04  0.50400001928E-02 0. -1.
       -1    1    3    3    0  502 -0.22991798805E+03  0.19034276199E+03  0.27984483892E+03  0.40915251700E+03  0.50400001928E-02 0.  1.
</event>
<event>
 5   0  0.1426929E-04  0.1499529E+04  0.7818609E-02  0.8884766E-01
        1   -1    0    0  501    0  0.00000000000E+00  0.00000000000E+00  0.96461868375E+03  0.96461868377E+03  0.50400001928E-02 0. -1.
       -1   -1    0    0    0  501  0.00000000000E+00  0.00000000000E+00 -0.58276547710E+03  0.58276547712E+03  0.50400001928E-02 0.  1.
    10030    2    1    2    0    0  0.00000000000E+00  0.00000000000E+00  0.38185320666E+03  0.15473841609E+04  0.14995285492E+04 0.  0.
        1    1    3    3  502    0  0.64464871713E+03 -0.32276468211E+03  0.40340428668E+03  0.82612591477E+03  0.50400001928E-02 0. -1.
       -1    1    3    3    0  502 -0.64464871713E+03  0.32276468211E+03 -0.21551080018E+02  0.72125824612E+03  0.50400001928E-02 0.  1.
</event>
<event>
 5   0  0.2696040E-04  0.1498941E+04  0.7818609E-02  0.8885157E-01
        2   -1    0    0  501    0  0.00000000000E+00  0.00000000000E+00  0.35657871935E+03  0.35657871936E+03  0.25500000920E-02 0. -1.
       -2   -1    0    0    0  501  0.00000000000E+00  0.00000000000E+00 -0.15752657691E+04  0.15752657691E+04  0.25500000920E-02 0.  1.
    10030    2    1    2    0    0  0.00000000000E+00  0.00000000000E+00 -0.12186870497E+04  0.19318444884E+04  0.14989412938E+04 0.  0.
        2    1    3    3  502    0 -0.28638841080E+03 -0.40427653752E+01  0.28326192734E+03  0.40282997069E+03  0.25500000920E-02 0. -1.
       -2    1    3    3    0  502  0.28638841080E+03  0.40427653752E+01 -0.15019489771E+04  0.15290145177E+04  0.25500000920E-02 0.  1.
</event>
<event>
 5   0  0.1427609E-04  0.1502680E+04  0.7818609E-02  0.8882673E-01
        1   -1    0    0  501    0  0.00000000000E+00  0.00000000000E+00  0.15762471524E+04  0.15762471524E+04  0.50400001928E-02 0.  1.
       -1   -1    0    0    0  501  0.00000000000E+00  0.00000000000E+00 -0.35813643381E+03  0.35813643384E+03  0.50400001928E-02 0. -1.
    10030    2    1    2    0    0  0.00000000000E+00  0.00000000000E+00  0.12181107186E+04  0.19343835863E+04  0.15026796518E+04 0.  0.
        4    1    3    3  502    0  0.62540257739E+03  0.32848000832E+02  0.74710001868E+02  0.63070640732E+03  0.12699999809E+01 0. -1.
       -4    1    3    3    0  502 -0.62540257739E+03 -0.32848000832E+02  0.11434007167E+04  0.13036771789E+04  0.12699999809E+01 0.  1.
</event>
<event>
 5   0  0.1004313E-04  0.1497856E+04  0.7818609E-02  0.8885880E-01
        3   -1    0    0  501    0  0.00000000000E+00  0.00000000000E+00  0.66609286759E+03  0.66609287525E+03  0.10100000352E+00 0.  1.
       -3   -1    0    0    0  501  0.00000000000E+00  0.00000000000E+00 -0.84206498022E+03  0.84206498628E+03  0.10100000352E+00 0. -1.
    10030    2    1    2    0    0  0.00000000000E+00  0.00000000000E+00 -0.17597211263E+03  0.15081578615E+04  0.14978564520E+04 0.  0.
        5    1    3    3  502    0  0.23602996445E+03  0.60991717069E+03  0.27943771389E+03  0.71120786354E+03  0.46999998093E+01 0.  1.
       -5    1    3    3    0  502 -0.23602996445E+03 -0.60991717069E+03 -0.45540982652E+03  0.79694999799E+03  0.46999998093E+01 0. -1.
</event>
<event>
 5   0  0.1474203E-04  0.1460985E+04  0.7818609E-02  0.8910820E-01
        1   -1    0    0  501    0  0.00000000000E+00  0.00000000000E+00  0.93723500322E+03  0.93723500323E+03  0.50400001928E-02 0. -1.
       -1   -1    0    0    0  501  0.00000000000E+00  0.00000000000E+00 -0.56935456566E+03  0.56935456568E+03  0.50400001928E-02 0.  1.
    10030    2    1    2    0    0  0.00000000000E+00  0.00000000000E+00  0.36788043756E+03  0.15065895689E+04  0.14609846381E+04 0.  0.
        3    1    3    3  502    0  0.44796709635E+03  0.11189771208E+03 -0.39978898217E+03  0.61075924704E+03  0.10100000352E+00 0.  1.
       -3    1    3    3    0  502 -0.44796709635E+03 -0.11189771208E+03  0.76766941973E+03  0.89583032187E+03  0.10100000352E+00 0. -1.
</event>
<event>
 5   0  0.2734072E-04  0.1498169E+04  0.7818609E-02  0.8885671E-01
        2   -1    0    0  501    0  0.00000000000E+00  0.00000000000E+00  0.26440157445E+04  0.26440157445E+04  0.25500000920E-02 0.  1.
       -2   -1    0    0    0  501  0.00000000000E+00  0.00000000000E+00 -0.21222550772E+03  0.21222550773E+03  0.25500000920E-02 0. -1.
    10030    2    1    2    0    0  0.00000000000E+00  0.00000000000E+00  0.24317902368E+04  0.28562412522E+04  0.14981689942E+04 0.  0.
        5    1    3    3  502    0  0.29562614163E+03  0.46854057044E+03  0.25471424038E+03  0.60977579159E+03  0.46999998093E+01 0. -1.
       -5    1    3    3    0  502 -0.29562614163E+03 -0.46854057044E+03  0.21770759964E+04  0.22464654606E+04  0.46999998093E+01 0.  1.
</event>
<event>
 5   0  0.2696040E-04  0.1497049E+04  0.7818609E-02  0.8886418E-01
       -2   -1    0    0    0  501  0.00000000000E+00  0.00000000000E+00  0.64563426345E+03  0.64563426346E+03  0.25500000920E-02 0. -1.
        2   -1    0    0  501    0  0.00000000000E+00  0.00000000000E+00 -0.86781146696E+03  0.86781146696E+03  0.25500000920E-02 0.  1.
    10030    2    1    2    0    0  0.00000000000E+00  0.00000000000E+00 -0.22217720350E+03  0.15134457304E+04  0.14970488533E+04 0.  0.
        2    1    3    3  502    0  0.55251498252E+03  0.45280124157E+03  0.11493803371E+03  0.72354165179E+03  0.25500000920E-02 0.  1.
       -2    1    3    3    0  502 -0.55251498252E+03 -0.45280124157E+03 -0.33711523721E+03  0.78990407863E+03  0.25500000920E-02 0. -1.
</event>
<event>
 5   0  0.1004313E-04  0.1443811E+04  0.7818609E-02  0.8922702E-01
       -3   -1    0    0    0  501  0.00000000000E+00  0.00000000000E+00  0.60140365495E+03  0.60140366343E+03  0.10100000352E+00 0. -1.
        3   -1    0    0  501    0  0.00000000000E+00  0.00000000000E+00 -0.86655223349E+03  0.86655223938E+03  0.10100000352E+00 0.  1.
    10030    2    1    2    0    0  0.00000000000E+00  0.00000000000E+00 -0.26514857855E+03  0.14679559028E+04  0.14438111940E+04 0.  0.
        2    1    3    3  502    0  0.52304374292E+02 -0.16864382352E+03  0.57911082734E+03  0.60543029089E+03  0.25500000920E-02 0. -1.
       -2    1    3    3    0  502 -0.52304374292E+02  0.16864382352E+03 -0.84425940588E+03  0.86252561192E+03  0.25500000920E-02 0.  1.
</event>
<event>
 5   0  0.1484251E-04  0.1518100E+04  0.7818609E-02  0.8872505E-01
        1   -1    0    0  501    0  0.00000000000E+00  0.00000000000E+00  0.25200219818E+03  0.25200219823E+03  0.50400001928E-02 0.  1.
       -1   -1    0    0    0  501  0.00000000000E+00  0.00000000000E+00 -0.22863180209E+04  0.22863180209E+04  0.50400001928E-02 0. -1.
    10030    2    1    2    0    0  0.00000000000E+00  0.00000000000E+00 -0.20343158228E+04  0.25383202192E+04  0.15181003486E+04 0.  0.
        5    1    3    3  502    0  0.12404120568E+03 -0.73428143425E+03 -0.77153552673E+03  0.10723080735E+04  0.46999998093E+01 0.  1.
       -5    1    3    3    0  502 -0.12404120568E+03  0.73428143425E+03 -0.12627802960E+04  0.14660121457E+04  0.46999998093E+01 0. -1.
</event>
<event>
 5   0  0.1443750E-04  0.1485640E+04  0.7818609E-02  0.8894059E-01
       -1   -1    0    0    0  501  0.00000000000E+00  0.00000000000E+00  0.69349544017E+03  0.69349544018E+03  0.50400001928E-02 0.  1.
        1   -1    0    0  501    0  0.00000000000E+00  0.00000000000E+00 -0.79565265644E+03  0.79565265645E+03  0.50400001928E-02 0. -1.
    10030    2    1    2    0    0  0.00000000000E+00  0.00000000000E+00 -0.10215721627E+03  0.14891480966E+04  0.14856399149E+04 0.  0.
        2    1    3    3  502    0 -0.18461395589E+03 -0.28597777820E+03 -0.71287695828E+03  0.78997415146E+03  0.25500000920E-02 0. -1.
       -2    1    3    3    0  502  0.18461395589E+03  0.28597777820E+03  0.61071974200E+03  0.69917394518E+03  0.25500000920E-02 0.  1.
</event>
<event>
 5   0  0.1426929E-04  0.1486994E+04  0.7818609E-02  0.8893148E-01
        1   -1    0    0  501    0  0.00000000000E+00  0.00000000000E+00  0.59989483555E+03  0.59989483557E+03  0.50400001928E-02 0. -1.
       -1   -1    0    0    0  501  0.00000000000E+00  0.00000000000E+00 -0.92147423569E+03  0.92147423570E+03  0.50400001928E-02 0.  1.
    10030    2    1    2    0    0  0.00000000000E+00  0.00000000000E+00 -0.32157940014E+03  0.15213690713E+04  0.14869937930E+04 0.  0.
        1    1    3    3  502    0  0.58679149072E+03 -0.41588353057E+03  0.31991963748E+02  0.71993530984E+03  0.50400001928E-02 0. -1.
       -1    1    3    3    0  502 -0.58679149072E+03  0.41588353057E+03 -0.35357136388E+03  0.80143376144E+03  0.50400001928E-02 0.  1.
</event>
<event>
 5   0  0.2696040E-04  0.1494583E+04  0.7818609E-02  0.8888063E-01
       -2   -1    0    0    0  501  0.00000000000E+00  0.00000000000E+00  0.67771237875E+03  0.67771237876E+03  0.25500000920E-02 0. -1.
        2   -1    0    0  501    0  0.00000000000E+00  0.00000000000E+00 -0.82401421725E+03  0.82401421726E+03  0.25500000920E-02 0.  1.
    10030    2    1    2    0    0  0.00000000000E+00  0.00000000000E+00 -0.14630183850E+03  0.15017265960E+04  0.14945830660E+04 0.  0.
        2    1    3    3  502    0 -0.42703414754E+03  0.59689183838E+03  0.68257686377E+02  0.73708692950E+03  0.25500000920E-02 0. -1.
       -2    1    3    3    0  502  0.42703414754E+03 -0.59689183838E+03 -0.21455952487E+03  0.76463966651E+03  0.25500000920E-02 0.  1.
</event>
<event>
 5   0  0.1426929E-04  0.1501849E+04  0.7818609E-02  0.8883224E-01
        1   -1    0    0  501    0  0.00000000000E+00  0.00000000000E+00  0.48773266658E+03  0.48773266660E+03  0.50400001928E-02 0.  1.
       -1   -1    0    0    0  501  0.00000000000E+00  0.00000000000E+00 -0.11561410217E+04  0.11561410217E+04  0.50400001928E-02 0. -1.
    10030    2    1    2    0    0  0.00000000000E+00  0.00000000000E+00 -0.66840835511E+03  0.16438736883E+04  0.15018491848E+04 0.  0.
        1    1    3    3  502    0 -0.14829444832E+03 -0.17568969176E+03 -0.11166696143E+04  0.11400917238E+04  0.50400001928E-02 0. -1.
       -1    1    3    3    0  502  0.14829444832E+03  0.17568969176E+03  0.44826125920E+03  0.50378196447E+03  0.50400001928E-02 0.  1.
</event>
<event>
 5   0  0.2734072E-04  0.1501483E+04  0.7818609E-02  0.8883467E-01
        2   -1    0    0  501    0  0.00000000000E+00  0.00000000000E+00  0.12770775792E+04  0.12770775792E+04  0.25500000920E-02 0. -1.
       -2   -1    0    0    0  501  0.00000000000E+00  0.00000000000E+00 -0.44133012083E+03  0.44133012083E+03  0.25500000920E-02 0.  1.
    10030    2    1    2    0    0  0.00000000000E+00  0.00000000000E+00  0.83574745838E+03  0.17184077000E+04  0.15014830034E+04 0.  0.
        5    1    3    3  502    0 -0.30800428249E+02 -0.16330583365E+03 -0.41999763414E+03  0.45170517416E+03  0.46999998093E+01 0.  1.
       -5    1    3    3    0  502  0.30800428249E+02  0.16330583365E+03  0.12557450925E+04  0.12667025259E+04  0.46999998093E+01 0. -1.
</event>
<event>
 5   0  0.1474203E-04  0.1505265E+04  0.7818609E-02  0.8880959E-01
        1   -1    0    0  501    0  0.00000000000E+00  0.00000000000E+00  0.11386252232E+04  0.11386252232E+04  0.50400001928E-02 0.  1.
       -1   -1    0    0    0  501  0.00000000000E+00  0.00000000000E+00 -0.49749115177E+03  0.49749115180E+03  0.50400001928E-02 0. -1.
    10030    2    1    2    0    0  0.00000000000E+00  0.00000000000E+00  0.64113407145E+03  0.16361163750E+04  0.15052653902E+04 0.  0.
        3    1    3    3  502    0  0.71424018663E+03  0.23211330559E+03  0.37426102090E+03  0.83909889333E+03  0.10100000352E+00 0. -1.
       -3    1    3    3    0  502 -0.71424018663E+03 -0.23211330559E+03  0.26687305055E+03  0.79701748170E+03  0.10100000352E+00 0.  1.
</event>
<event>
 5   0  0.1484251E-04  0.1499819E+04  0.7818609E-02  0.8884574E-01
        1   -1    0    0  501    0  0.00000000000E+00  0.00000000000E+00  0.14237862311E+04  0.14237862311E+04  0.50400001928E-02 0. -1.
       -1   -1    0    0    0  501  0.00000000000E+00  0.00000000000E+00 -0.39497777900E+03  0.39497777903E+03  0.50400001928E-02 0.  1.
    10030    2    1    2    0    0  0.00000000000E+00  0.00000000000E+00  0.10288084521E+04  0.18187640101E+04  0.14998185535E+04 0.  0.
        5    1    3    3  502    0 -0.19411753978E+03 -0.64597116798E+03  0.11702762485E+03  0.68460055806E+03  0.46999998093E+01 0.  1.
       -5    1    3    3    0  502  0.19411753978E+03  0.64597116798E+03  0.91178082724E+03  0.11341634521E+04  0.46999998093E+01 0. -1.
</event>
<event>
 5   0  0.1484251E-04  0.1539198E+04  0.7818609E-02  0.8858797E-01
       -1   -1    0    0    0  501  0.00000000000E+00  0.00000000000E+00  0.40077626689E+03  0.40077626692E+03  0.50400001928E-02 0.  1.
        1   -1    0    0  501    0  0.00000000000E+00  0.00000000000E+00 -0.14778379987E+04  0.14778379987E+04  0.50400001928E-02 0. -1.
    10030    2    1    2    0    0  0.00000000000E+00  0.00000000000E+00 -0.10770617318E+04  0.18786142656E+04  0.15391977082E+04 0.  0.
        5    1    3    3  502    0  0.63701165091E+03 -0.26398261743E+03 -0.12142589206E+03  0.70016926736E+03  0.46999998093E+01 0.  1.
       -5    1    3    3    0  502 -0.63701165091E+03  0.26398261743E+03 -0.95563583971E+03  0.11784449982E+04  0.46999998093E+01 0. -1.
</event>
<event>
 5   0  0.2696040E-04  0.1497791E+04  0.7818609E-02  0.8885923E-01
        2   -1    0    0  501    0  0.00000000000E+00  0.00000000000E+00  0.12090933619E+04  0.12090933619E+04  0.25500000920E-02 0.  1.
       -2   -1    0    0    0  501  0.00000000000E+00  0.00000000000E+00 -0.46385547974E+03  0.46385547975E+03  0.25500000920E-02 0. -1.
    10030    2    1    2    0    0  0.00000000000E+00  0.00000000000E+00  0.74523788213E+03  0.16729488416E+04  0.14977911489E+04 0.  0.
        2    1    3    3  502    0  0.22015993799E+03 -0.64946924557E+03  0.36487671182E+02  0.68674016149E+03  0.25500000920E-02 0. -1.
       -2    1    3    3    0  502 -0.22015993799E+03  0.64946924557E+03  0.70875021095E+03  0.98620868013E+03  0.25500000920E-02 0.  1.
</event>
<event>
 5   0  0.1004313E-04  0.1493861E+04  0.7818609E-02  0.8888546E-01
       -3   -1    0    0    0  501  0.00000000000E+00  0.00000000000E+00  0.10831765803E+04  0.10831765850E+04  0.10100000352E+00 0.  1.
        3   -1    0    0  501    0  0.00000000000E+00  0.00000000000E+00 -0.51506359580E+03  0.51506360571E+03  0.10100000352E+00 0. -1.
    10030    2    1    2    0    0  0.00000000000E+00  0.00000000000E+00  0.56811298449E+03  0.15982401907E+04  0.14938605504E+04 0.  0.
        2    1    3    3  502    0 -0.18989044973E+03  0.95963158767E+01 -0.48873980760E+03  0.52442070107E+03  0.25500000920E-02 0. -1.
       -2    1    3    3    0  502  0.18989044973E+03 -0.95963158767E+01  0.10568527921E+04  0.10738194896E+04  0.25500000920E-02 0.  1.
</event>
<event>
 5   0  0.1426929E-04  0.1505610E+04  0.7818609E-02  0.8880731E-01
        1   -1    0    0  501    0  0.00000000000E+00  0.00000000000E+00  0.86392265790E+03  0.86392265792E+03  0.50400001928E-02 0. -1.
       -1   -1    0    0    0  501  0.00000000000E+00  0.00000000000E+00 -0.65597972063E+03  0.65597972065E+03  0.50400001928E-02 0.  1.
    10030    2    1    2    0    0  0.00000000000E+00  0.00000000000E+00  0.20794293727E+03  0.15199023786E+04  0.15056104992E+04 0.  0.
        1    1    3    3  502    0 -0.11339712163E+03  0.19069982957E+03 -0.62222513548E+03  0.66059779855E+03  0.50400001928E-02 0.  1.
       -1    1    3    3    0  502  0.11339712163E+03 -0.19069982957E+03  0.83016807275E+03  0.85930458002E+03  0.50400001928E-02 0. -1.
</event>
<event>
 5   0  0.2696040E-04  0.1499994E+04  0.7818609E-02  0.8884457E-01
       -2   -1    0    0    0  501  0.00000000000E+00  0.00000000000E+00  0.16807647927E+04  0.16807647927E+04  0.25500000920E-02 0.  1.
        2   -1    0    0  501    0  0.00000000000E+00  0.00000000000E+00 -0.33466646322E+03  0.33466646323E+03  0.25500000920E-02 0. -1.
    10030    2    1    2    0    0  0.00000000000E+00  0.00000000000E+00  0.13460983294E+04  0.20154312559E+04  0.14999941449E+04 0.  0.
        2    1    3    3  502    0  0.79498164774E+02 -0.38382650644E+03  0.15321852241E+04  0.15815291038E+04  0.25500000920E-02 0.  1.
       -2    1    3    3    0  502 -0.79498164774E+02  0.38382650644E+03 -0.18608689463E+03  0.43390215211E+03  0.25500000920E-02 0. -1.
</event>
<event>
 5   0  0.1443750E-04  0.1499658E+04  0.7818609E-02  0.8884680E-01
        1   -1    0    0  501    0  0.00000000000E+00  0.00000000000E+00  0.54726420094E+03  0.54726420096E+03  0.50400001928E-02 0. -1.
       -1   -1    0    0    0  501  0.00000000000E+00  0.00000000000E+00 -0.10273719590E+04  0.10273719590E+04  0.50400001928E-02 0.  1.
    10030    2    1    2    0    0  0.00000000000E+00  0.00000000000E+00 -0.48010775804E+03  0.15746361600E+04  0.14996584868E+04 0.  0.
        2    1    3    3  502    0  0.50296580231E+03 -0.44547509167E+03  0.10948810801E+03  0.68074246334E+03  0.25500000920E-02 0. -1.
       -2    1    3    3    0  502 -0.50296580231E+03  0.44547509167E+03 -0.58959586605E+03  0.89389369662E+03  0.25500000920E-02 0.  1.
</event>
<event>
 5   0  0.1443750E-04  0.1502601E+04  0.7818609E-02  0.8882725E-01
        1   -1    0    0  501    0  0.00000000000E+00  0.00000000000E+00  0.14211519345E+04  0.14211519345E+04  0.50400001928E-02 0.  1.
       -1   -1    0    0    0  501  0.00000000000E+00  0.00000000000E+00 -0.39717962473E+03  0.39717962476E+03  0.50400001928E-02 0. -1.
    10030    2    1    2    0    0  0.00000000000E+00  0.00000000000E+00  0.10239723098E+04  0.18183315593E+04  0.15026012007E+04 0.  0.
        2    1    3    3  502    0  0.18133416589E+03 -0.31325637476E+02  0.13934582224E+04  0.14055565420E+04  0.25500000920E-02 0.  1.
       -2    1    3    3    0  502 -0.18133416589E+03  0.31325637476E+02 -0.36948591258E+03  0.41277501728E+03  0.25500000920E-02 0. -1.
</event>
<event>
 5   0  0.1427609E-04  0.1500298E+04  0.7818609E-02  0.8884255E-01
       -1   -1    0    0    0  501  0.00000000000E+00  0.00000000000E+00  0.12701656217E+04  0.12701656217E+04  0.50400001928E-02 0. -1.
        1   -1    0    0  501    0  0.00000000000E+00  0.00000000000E+00 -0.44303149203E+03  0.44303149205E+03  0.50400001928E-02 0.  1.
    10030    2    1    2    0    0  0.00000000000E+00  0.00000000000E+00  0.82713412966E+03  0.17131971138E+04  0.15002977978E+04 0.  0.
        4    1    3    3  502    0 -0.42111729469E+03 -0.51870505906E+03  0.80303365420E+03  0.10446336089E+04  0.12699999809E+01 0. -1.
       -4    1    3    3    0  502  0.42111729469E+03  0.51870505906E+03  0.24100475460E+02  0.66856350484E+03  0.12699999809E+01 0.  1.
</event>
<event>
 5   0  0.1427609E-04  0.1502795E+04  0.7818609E-02  0.8882596E-01
       -1   -1    0    0    0  501  0.00000000000E+00  0.00000000000E+00  0.66831763515E+03  0.66831763517E+03  0.50400001928E-02 0.  1.
        1   -1    0    0  501    0  0.00000000000E+00  0.00000000000E+00 -0.84480566771E+03  0.84480566772E+03  0.50400001928E-02 0. -1.
    10030    2    1    2    0    0  0.00000000000E+00  0.00000000000E+00 -0.17648803256E+03  0.15131233029E+04  0.15027954299E+04 0.  0.
        4    1    3    3  502    0  0.35834676800E+03 -0.37263674101E+03 -0.63726780897E+03  0.82059881802E+03  0.12699999809E+01 0. -1.
       -4    1    3    3    0  502 -0.35834676800E+03  0.37263674101E+03  0.46077977641E+03  0.69252448486E+03  0.12699999809E+01 0.  1.
</event>
<event>
 5   0  0.1484251E-04  0.1501043E+04  0.7818609E-02  0.8883760E-01
        1   -1    0    0  501    0  0.00000000000E+00  0.00000000000E+00  0.12413755717E+04  0.12413755717E+04  0.50400001928E-02 0. -1.
       -1   -1    0    0    0  501  0.00000000000E+00  0.00000000000E+00 -0.45375646796E+03  0.45375646799E+03  0.50400001928E-02 0.  1.
    10030    2    1    2    0    0  0.00000000000E+00  0.00000000000E+00  0.78761910377E+03  0.16951320397E+04  0.15010425642E+04 0.  0.
        5    1    3    3  502    0 -0.14938259683E+03 -0.35445438485E+03 -0.33396215591E+03  0.50941719912E+03  0.46999998093E+01 0.  1.
       -5    1    3    3    0  502  0.14938259683E+03  0.35445438485E+03  0.11215812597E+04  0.11857148406E+04  0.46999998093E+01 0. -1.
</event>
<event>
 5   0  0.1474203E-04  0.1510335E+04  0.7818609E-02  0.8877609E-01
       -1   -1    0    0    0  501  0.00000000000E+00  0.00000000000E+00  0.13073821634E+04  0.13073821634E+04  0.50400001928E-02 0.  1.
        1   -1    0    0  501    0  0.00000000000E+00  0.00000000000E+00 -0.43619831610E+03  0.43619831613E+03  0.50400001928E-02 0. -1.
    10030    2    1    2    0    0  0.00000000000E+00  0.00000000000E+00  0.87118384733E+03  0.17435804796E+04  0.15103349274E+04 0.  0.
        3    1    3    3  502    0 -0.51582759242E+03 -0.28965917794E+03 -0.10625094577E+03  0.60105725030E+03  0.10100000352E+00 0. -1.
       -3    1    3    3    0  502  0.51582759242E+03  0.28965917794E+03  0.97743479309E+03  0.11425232293E+04  0.10100000352E+00 0.  1.
</event>
<event>
 5   0  0.2734072E-04  0.1499249E+04  0.7818609E-02  0.8884952E-01
        2   -1    0    0  501    0  0.00000000000E+00  0.00000000000E+00  0.42777349783E+03  0.42777349783E+03  0.25500000920E-02 0. -1.
       -2   -1    0    0    0  501  0.00000000000E+00  0.00000000000E+00 -0.13136319539E+04  0.13136319539E+04  0.25500000920E-02 0.  1.
    10030    2    1    2    0    0  0.00000000000E+00  0.00000000000E+00 -0.88585845610E+03  0.17414054518E+04  0.14992490598E+04 0.  0.
        5    1    3    3  502    0  0.54243202815E+03 -0.35393718685E+03 -0.46028665261E+01  0.64772472068E+03  0.46999998093E+01 0.  1.
       -5    1    3    3    0  502 -0.54243202815E+03  0.35393718685E+03 -0.88125558957E+03  0.10936807311E+04  0.46999998093E+01 0. -1.
</event>
<event>
 5   0  0.1484251E-04  0.1503148E+04  0.7818609E-02  0.8882362E-01
       -1   -1    0    0    0  501  0.00000000000E+00  0.00000000000E+00  0.34396563396E+03  0.34396563399E+03  0.50400001928E-02 0.  1.
        1   -1    0    0  501    0  0.00000000000E+00  0.00000000000E+00 -0.16422100467E+04  0.16422100467E+04  0.50400001928E-02 0. -1.
    10030    2    1    2    0    0  0.00000000000E+00  0.00000000000E+00 -0.12982444127E+04  0.19861756807E+04  0.15031484555E+04 0.  0.
        5    1    3    3  502    0  0.36612269677E+03 -0.38218451012E+03  0.55949173437E+02  0.53222479167E+03  0.46999998093E+01 0.  1.
       -5    1    3    3    0  502 -0.36612269677E+03  0.38218451012E+03 -0.13541935862E+04  0.14539508890E+04  0.46999998093E+01 0. -1.
</event>
<event>
 5   0  0.2618901E-04  0.1494781E+04  0.7818609E-02  0.8887931E-01
        2   -1    0    0  501    0  0.00000000000E+00  0.00000000000E+00  0.56915175165E+03  0.56915175165E+03  0.25500000920E-02 0.  1.
       -2   -1    0    0    0  501  0.00000000000E+00  0.00000000000E+00 -0.98144719798E+03  0.98144719799E+03  0.25500000920E-02 0. -1.
    10030    2    1    2    0    0  0.00000000000E+00  0.00000000000E+00 -0.41229544634E+03  0.15505989496E+04  0.14947807757E+04 0.  0.
        1    1    3    3  502    0 -0.69627016847E+03 -0.13634090462E+03 -0.44989309024E+03  0.84010998236E+03  0.50400001928E-02 0. -1.
       -1    1    3    3    0  502  0.69627016847E+03  0.13634090462E+03  0.37597643907E+02  0.71048896728E+03  0.50400001928E-02 0.  1.
</event>
<event>
 5   0  0.1474203E-04  0.1505661E+04  0.7818609E-02  0.8880697E-01
       -1   -1    0    0    0  501  0.00000000000E+00  0.00000000000E+00  0.22147919711E+04  0.22147919711E+04  0.50400001928E-02 0.  1.
        1   -1    0    0  501    0  0.00000000000E+00  0.00000000000E+00 -0.25589482981E+03  0.25589482986E+03  0.50400001928E-02 0. -1.
    10030    2    1    2    0    0  0.00000000000E+00  0.00000000000E+00  0.19588971413E+04  0.24706868010E+04  0.15056610702E+04 0.  0.
        3    1    3    3  502    0 -0.27555097930E+03 -0.63816609564E+03  0.14538154585E+04  0.16114477049E+04  0.10100000352E+00 0.  1.
       -3    1    3    3    0  502  0.27555097930E+03  0.63816609564E+03  0.50508168274E+03  0.85923909610E+03  0.10100000352E+00 0. -1.
</event>
<event>
 5   0  0.1443750E-04  0.1496465E+04  0.7818609E-02  0.8886807E-01
       -1   -1    0    0    0  501  0.00000000000E+00  0.00000000000E+00  0.33788864184E+03  0.33788864188E+03  0.50400001928E-02 0. -1.
        1   -1    0    0  501    0  0.00000000000E+00  0.00000000000E+00 -0.16569117437E+04  0.16569117437E+04  0.50400001928E-02 0.  1.
    10030    2    1    2    0    0  0.00000000000E+00  0.00000000000E+00 -0.13190231018E+04  0.19948003856E+04  0.14964647123E+04 0.  0.
        2    1    3    3  502    0 -0.26386882576E+02  0.50188987628E+03 -0.13984144145E+04  0.14859853936E+04  0.25500000920E-02 0.  1.
       -2    1    3    3    0  502  0.26386882576E+02 -0.50188987628E+03  0.79391312629E+02  0.50881499193E+03  0.25500000920E-02 0. -1.
</event>
<event>
 5   0  0.1004313E-04  0.1519383E+04  0.7818609E-02  0.8871665E-01
        3   -1    0    0  501    0  0.00000000000E+00  0.00000000000E+00  0.62869428980E+03  0.62869429791E+03  0.10100000352E+00 0.  1.
       -3   -1    0    0    0  501  0.00000000000E+00  0.00000000000E+00 -0.91798349633E+03  0.91798350189E+03  0.10100000352E+00 0. -1.
    10030    2    1    2    0    0  0.00000000000E+00  0.00000000000E+00 -0.28928920654E+03  0.15466777998E+04  0.15193827600E+04 0.  0.
        5    1    3    3  502    0  0.80068324035E+02  0.48122576656E+02  0.62281033662E+03  0.62979482715E+03  0.46999998093E+01 0.  1.
       -5    1    3    3    0  502 -0.80068324035E+02 -0.48122576656E+02 -0.91209954316E+03  0.91688297265E+03  0.46999998093E+01 0. -1.
</event>
<event>
 5   0  0.2618901E-04  0.1499797E+04  0.7818609E-02  0.8884588E-01
       -2   -1    0    0    0  501  0.00000000000E+00  0.00000000000E+00  0.80444931965E+03  0.80444931966E+03  0.25500000920E-02 0.  1.
        2   -1    0    0  501    0  0.00000000000E+00  0.00000000000E+00 -0.69904698922E+03  0.69904698922E+03  0.25500000920E-02 0. -1.
    10030    2    1    2    0    0  0.00000000000E+00  0.00000000000E+00  0.10540233044E+03  0.15034963089E+04  0.14997971528E+04 0.  0.
        1    1    3    3  502    0  0.34502346658E+03 -0.28186332876E+02 -0.61415546290E+03  0.70499829396E+03  0.50400001928E-02 0. -1.
       -1    1    3    3    0  502 -0.34502346658E+03  0.28186332876E+02  0.71955779334E+03  0.79849801492E+03  0.50400001928E-02 0.  1.
</event>
<event>
 5   0  0.2646718E-04  0.1498678E+04  0.7818609E-02  0.8885332E-01
       -2   -1    0    0    0  501  0.00000000000E+00  0.00000000000E+00  0.10511975534E+04  0.10511975534E+04  0.25500000920E-02 0. -1.
        2   -1    0    0  501    0  0.00000000000E+00  0.00000000000E+00 -0.53416131792E+03  0.53416131793E+03  0.25500000920E-02 0.  1.
    10030    2    1    2    0    0  0.00000000000E+00  0.00000000000E+00  0.51703623544E+03  0.15853588713E+04  0.14986781783E+04 0.  0.
        3    1    3    3  502    0 -0.49777756713E+03  0.21969172137E+03 -0.28651195729E+03  0.61492769546E+03  0.10100000352E+00 0.  1.
       -3    1    3    3    0  502  0.49777756713E+03 -0.21969172137E+03  0.80354819273E+03  0.97043117582E+03  0.10100000352E+00 0. -1.
</event>
<event>
 5   0  0.2618901E-04  0.1476901E+04  0.7818609E-02  0.8899960E-01
        2   -1    0    0  501    0  0.00000000000E+00  0.00000000000E+00  0.10566258473E+04  0.10566258473E+04  0.25500000920E-02 0.  1.
       -2   -1    0    0    0  501  0.00000000000E+00  0.00000000000E+00 -0.51608532220E+03  0.51608532220E+03  0.25500000920E-02 0. -1.
    10030    2    1    2    0    0  0.00000000000E+00  0.00000000000E+00  0.54054052511E+03  0.15727111695E+04  0.14769009322E+04 0.  0.
        1    1    3    3  502    0 -0.65439147070E+03  0.34215948843E+03  0.26730036051E+03  0.78533483000E+03  0.50400001928E-02 0.  1.
       -1    1    3    3    0  502  0.65439147070E+03 -0.34215948843E+03  0.27324016460E+03  0.78737633952E+03  0.50400001928E-02 0. -1.
</event>
<event>
 5   0  0.2646718E-04  0.1501421E+04  0.7818609E-02  0.8883508E-01
       -2   -1    0    0    0  501  0.00000000000E+00  0.00000000000E+00  0.36583796217E+03  0.36583796218E+03  0.25500000920E-02 0. -1.
        2   -1    0    0  501    0  0.00000000000E+00  0.00000000000E+00 -0.15404810472E+04  0.15404810472E+04  0.25500000920E-02 0.  1.
    10030    2    1    2    0    0  0.00000000000E+00  0.00000000000E+00 -0.11746430850E+04  0.19063190094E+04  0.15014212561E+04 0.  0.
        3    1    3    3  502    0  0.87232907569E+02  0.65136367680E+03 -0.10480622489E+04  0.12370605108E+04  0.10100000352E+00 0.  1.
       -3    1    3    3    0  502 -0.87232907569E+02 -0.65136367680E+03 -0.12658083611E+03  0.66925849856E+03  0.10100000352E+00 0. -1.
</event>
<event>
 5   0  0.2696040E-04  0.1501714E+04  0.7818609E-02  0.8883314E-01
       -2   -1    0    0    0  501  0.00000000000E+00  0.00000000000E+00  0.59879729942E+03  0.59879729943E+03  0.25500000920E-02 0. -1.
        2   -1    0    0  501    0  0.00000000000E+00  0.00000000000E+00 -0.94153069746E+03  0.94153069746E+03  0.25500000920E-02 0.  1.
    10030    2    1    2    0    0  0.00000000000E+00  0.00000000000E+00 -0.34273339804E+03  0.15403279969E+04  0.15017137397E+04 0.  0.
        2    1    3    3  502    0  0.53384968952E+03  0.16231578742E+03 -0.68672431199E+03  0.88483455319E+03  0.25500000920E-02 0.  1.
       -2    1    3    3    0  502 -0.53384968952E+03 -0.16231578742E+03  0.34399091395E+03  0.65549344370E+03  0.25500000920E-02 0. -1.
</event>
<event>
 5   0  0.2618901E-04  0.1489880E+04  0.7818609E-02  0.8891211E-01
        2   -1    0    0  501    0  0.00000000000E+00  0.00000000000E+00  0.65364497010E+03  0.65364497011E+03  0.25500000920E-02 0. -1.
       -2   -1    0    0    0  501  0.00000000000E+00  0.00000000000E+00 -0.84898576300E+03  0.84898576300E+03  0.25500000920E-02 0.  1.
    10030    2    1    2    0    0  0.00000000000E+00  0.00000000000E+00 -0.19534079290E+03  0.15026307331E+04  0.14898795571E+04 0.  0.
        1    1    3    3  502    0  0.10041804634E+03  0.71959000341E+03  0.68180657089E+02  0.72975486231E+03  0.50400001928E-02 0. -1.
       -1    1    3    3    0  502 -0.10041804634E+03 -0.71959000341E+03 -0.26352144999E+03  0.77287587080E+03  0.50400001928E-02 0.  1.
</event>
<event>
 5   0  0.1484251E-04  0.1495734E+04  0.7818609E-02  0.8887295E-01
       -1   -1    0    0    0  501  0.00000000000E+00  0.00000000000E+00  0.57264660931E+03  0.57264660933E+03  0.50400001928E-02 0.  1.
        1   -1    0    0  501    0  0.00000000000E+00  0.00000000000E+00 -0.97670165370E+03  0.97670165371E+03  0.50400001928E-02 0. -1.
    10030    2    1    2    0    0  0.00000000000E+00  0.00000000000E+00 -0.40405504439E+03  0.15493482630E+04  0.14957337869E+04 0.  0.
        5    1    3    3  502    0  0.13305472834E+02 -0.65494244577E+03  0.17167592581E+03  0.67721588610E+03  0.46999998093E+01 0.  1.
       -5    1    3    3    0  502 -0.13305472834E+02  0.65494244577E+03 -0.57573097020E+03  0.87213237695E+03  0.46999998093E+01 0. -1.
</event>
<event>
 5   0  0.1484251E-04  0.1504549E+04  0.7818609E-02  0.8881434E-01
        1   -1    0    0  501    0  0.00000000000E+00  0.00000000000E+00  0.82449808688E+03  0.82449808690E+03  0.50400001928E-02 0.  1.
       -1   -1    0    0    0  501  0.00000000000E+00  0.00000000000E+00 -0.68637703100E+03  0.68637703102E+03  0.50400001928E-02 0. -1.
    10030    2    1    2    0    0  0.00000000000E+00  0.00000000000E+00  0.13812105588E+03  0.15108751179E+04  0.15045485023E+04 0.  0.
        5    1    3    3  502    0  0.12272420395E+03 -0.28845037184E+03 -0.61764948262E+03  0.69265996032E+03  0.46999998093E+01 0. -1.
       -5    1    3    3    0  502 -0.12272420395E+03  0.28845037184E+03  0.75577053850E+03  0.81821515759E+03  0.46999998093E+01 0.  1.
</event>
<event>
 5   0  0.2696040E-04  0.1496933E+04  0.7818609E-02  0.8886495E-01
       -2   -1    0    0    0  501  0.00000000000E+00  0.00000000000E+00  0.12835898298E+04  0.12835898298E+04  0.25500000920E-02 0.  1.
        2   -1    0    0  501    0  0.00000000000E+00  0.00000000000E+00 -0.43643383992E+03  0.43643383993E+03  0.25500000920E-02 0. -1.
    10030    2    1    2    0    0  0.00000000000E+00  0.00000000000E+00  0.84715598985E+03  0.17200236697E+04  0.14969329154E+04 0.  0.
        2    1    3    3  502    0 -0.64369464046E+02  0.41484108862E+03  0.11355750166E+04  0.12106887193E+04  0.25500000920E-02 0.  1.
       -2    1    3    3    0  502  0.64369464046E+02 -0.41484108862E+03 -0.28841902674E+03  0.50933495040E+03  0.25500000920E-02 0. -1.
</event>
<event>
 5   0  0.1474203E-04  0.1502211E+04  0.7818609E-02  0.8882984E-01
       -1   -1    0    0    0  501  0.00000000000E+00  0.00000000000E+00  0.12990377060E+04  0.12990377060E+04  0.50400001928E-02 0.  1.
        1   -1    0    0  501    0  0.00000000000E+00  0.00000000000E+00 -0.43429012280E+03  0.43429012283E+03  0.50400001928E-02 0. -1.
    10030    2    1    2    0    0  0.00000000000E+00  0.00000000000E+00  0.86474758324E+03  0.17333278289E+04  0.15022106975E+04 0.  0.
        3    1    3    3  502    0  0.62925459858E+03  0.36993587987E+03  0.63665869815E+03  0.96858051456E+03  0.10100000352E+00 0.  1.
       -3    1    3    3    0  502 -0.62925459858E+03 -0.36993587987E+03  0.22808888509E+03  0.76474731431E+03  0.10100000352E+00 0. -1.
</event>
<event>
 5   0  0.1484251E-04  0.1508326E+04  0.7818609E-02  0.8878935E-01
        1   -1    0    0  501    0  0.00000000000E+00  0.00000000000E+00  0.79082486169E+03  0.79082486170E+03  0.50400001928E-02 0. -1.
       -1   -1    0    0    0  501  0.00000000000E+00  0.00000000000E+00 -0.71920064849E+03  0.71920064851E+03  0.50400001928E-02 0.  1.
    10030    2    1    2    0    0  0.00000000000E+00  0.00000000000E+00  0.71624213194E+02  0.15100255102E+04  0.15083258977E+04 0.  0.
        5    1    3    3  502    0  0.27988302291E+03 -0.24858618302E+02  0.73644869742E+03  0.78824566688E+03  0.46999998093E+01 0. -1.
       -5    1    3    3    0  502 -0.27988302291E+03  0.24858618302E+02 -0.66482448423E+03  0.72177984334E+03  0.46999998093E+01 0.  1.
</event>
<event>
 5   0  0.2734072E-04  0.1503835E+04  0.7818609E-02  0.8881907E-01
       -2   -1    0    0    0  501  0.00000000000E+00  0.00000000000E+00  0.58151874579E+03  0.58151874580E+03  0.25500000920E-02 0.  1.
        2   -1    0    0  501    0  0.00000000000E+00  0.00000000000E+00 -0.97224690247E+03  0.97224690247E+03  0.25500000920E-02 0. -1.
    10030    2    1    2    0    0  0.00000000000E+00  0.00000000000E+00 -0.39072815668E+03  0.15537656483E+04  0.15038348305E+04 0.  0.
        5    1    3    3  502    0  0.31725706478E+03 -0.51611357294E+03  0.26476773155E+03  0.66117267563E+03  0.46999998093E+01 0.  1.
       -5    1    3    3    0  502 -0.31725706478E+03  0.51611357294E+03 -0.65549588823E+03  0.89259297264E+03  0.46999998093E+01 0. -1.
</event>
<event>
 5   0  0.2646718E-04  0.1499321E+04  0.7818609E-02  0.8884905E-01
        2   -1    0    0  501    0  0.00000000000E+00  0.00000000000E+00  0.23302498725E+03  0.23302498726E+03  0.25500000920E-02 0.  1.
       -2   -1    0    0    0  501  0.00000000000E+00  0.00000000000E+00 -0.24117190523E+04  0.24117190523E+04  0.25500000920E-02 0. -1.
    10030    2    1    2    0    0  0.00000000000E+00  0.00000000000E+00 -0.21786940650E+04  0.26447440395E+04  0.14993209148E+04 0.  0.
        3    1    3    3  502    0  0.42379006738E+03  0.31461421607E+03 -0.15027881465E+03  0.54878398163E+03  0.10100000352E+00 0.  1.
       -3    1    3    3    0  502 -0.42379006738E+03 -0.31461421607E+03 -0.20284152504E+04  0.20959600579E+04  0.10100000352E+00 0. -1.
</event>
<event>
 5   0  0.1484251E-04  0.1503670E+04  0.7818609E-02  0.8882016E-01
        1   -1    0    0  501    0  0.00000000000E+00  0.00000000000E+00  0.75548929280E+03  0.75548929282E+03  0.50400001928E-02 0.  1.
       -1   -1    0    0    0  501  0.00000000000E+00  0.00000000000E+00 -0.74819872587E+03  0.74819872589E+03  0.50400001928E-02 0. -1.
    10030    2    1    2    0    0  0.00000000000E+00  0.00000000000E+00  0.72905669285E+01  0.15036880187E+04  0.15036703446E+04 0.  0.
        5    1    3    3  502    0  0.28323873840E+03 -0.67037896242E+03 -0.18504159222E+03  0.75092916912E+03  0.46999998093E+01 0. -1.
       -5    1    3    3    0  502 -0.28323873840E+03  0.67037896242E+03  0.19233215915E+03  0.75275884959E+03  0.46999998093E+01 0.  1.
</event>
<event>
 5   0  0.2696040E-04  0.1499738E+04  0.7818609E-02  0.8884627E-01
        2   -1    0    0  501    0  0.00000000000E+00  0.00000000000E+00  0.11517099369E+04  0.11517099369E+04  0.25500000920E-02 0. -1.
       -2   -1    0    0    0  501  0.00000000000E+00  0.00000000000E+00 -0.48823331095E+03  0.48823331095E+03  0.25500000920E-02 0.  1.
    10030    2    1    2    0    0  0.00000000000E+00  0.00000000000E+00  0.66347662598E+03  0.16399432479E+04  0.14997375181E+04 0.  0.
        2    1    3    3  502    0 -0.12913006279E+03  0.12723782368E+03 -0.46391078812E+03  0.49807354500E+03  0.25500000920E-02 0.  1.
       -2    1    3    3    0  502  0.12913006279E+03 -0.12723782368E+03  0.11273874141E+04  0.11418697029E+04  0.25500000920E-02 0. -1.
</event>
<event>
 5   0  0.1426929E-04  0.1510151E+04  0.7818609E-02  0.8877730E-01
       -1   -1    0    0    0  501  0.00000000000E+00  0.00000000000E+00  0.12049660570E+04  0.12049660571E+04  0.50400001928E-02 0. -1.
        1   -1    0    0  501    0  0.00000000000E+00  0.00000000000E+00 -0.47315797319E+03  0.47315797321E+03  0.50400001928E-02 0.  1.
    10030    2    1    2    0    0  0.00000000000E+00  0.00000000000E+00  0.73180808385E+03  0.16781240303E+04  0.15101513796E+04 0.  0.
        1    1    3    3  502    0 -0.17576312093E+03 -0.27493155429E+03  0.11225679915E+04  0.11690333314E+04  0.50400001928E-02 0. -1.
       -1    1    3    3    0  502  0.17576312093E+03  0.27493155429E+03 -0.39075990768E+03  0.50909069889E+03  0.50400001928E-02 0.  1.
</event>
<event>
 5   0  0.1004313E-04  0.1454473E+04  0.7818609E-02  0.8915305E-01
       -3   -1    0    0    0  501  0.00000000000E+00  0.00000000000E+00  0.58108162205E+03  0.58108163083E+03  0.10100000352E+00 0. -1.
        3   -1    0    0  501    0  0.00000000000E+00  0.00000000000E+00 -0.91015232760E+03  0.91015233320E+03  0.10100000352E+00 0.  1.
    10030    2    1    2    0    0  0.00000000000E+00  0.00000000000E+00 -0.32907070555E+03  0.14912339640E+04  0.14544728276E+04 0.  0.
        1    1    3    3  502    0  0.64342890239E+03 -0.78470669166E+02 -0.50258751443E+03  0.82021497672E+03  0.50400001928E-02 0. -1.
       -1    1    3    3    0  502 -0.64342890239E+03  0.78470669166E+02  0.17351680889E+03  0.67101898732E+03  0.50400001928E-02 0.  1.
</event>
<event>
 5   0  0.2618901E-04  0.1496331E+04  0.7818609E-02  0.8886896E-01
       -2   -1    0    0    0  501  0.00000000000E+00  0.00000000000E+00  0.31471311230E+03  0.31471311231E+03  0.25500000920E-02 0. -1.
        2   -1    0    0  501    0  0.00000000000E+00  0.00000000000E+00 -0.17786093905E+04  0.17786093905E+04  0.25500000920E-02 0.  1.
    10030    2    1    2    0    0  0.00000000000E+00  0.00000000000E+00 -0.14638962782E+04  0.20933225028E+04  0.14963311089E+04 0.  0.
        1    1    3    3  502    0 -0.51633554745E+03 -0.82476726682E+02 -0.14805564968E+04  0.15701758973E+04  0.50400001928E-02 0.  1.
       -1    1    3    3    0  502  0.51633554745E+03  0.82476726682E+02  0.16660218617E+02  0.52314660557E+03  0.50400001928E-02 0. -1.
</event>
<event>
 5   0  0.1443750E-04  0.1495799E+04  0.7818609E-02  0.8887251E-01
       -1   -1    0    0    0  501  0.00000000000E+00  0.00000000000E+00  0.35352999847E+03  0.35352999851E+03  0.50400001928E-02 0.  1.
        1   -1    0    0  501    0  0.00000000000E+00  0.00000000000E+00 -0.15821954866E+04  0.15821954866E+04  0.50400001928E-02 0. -1.
    10030    2    1    2    0    0  0.00000000000E+00  0.00000000000E+00 -0.12286654881E+04  0.19357254851E+04  0.14957988742E+04 0.  0.
        2    1    3    3  502    0  0.43878105348E+03 -0.50750371965E+03 -0.18656250782E+03  0.69634359887E+03  0.25500000920E-02 0.  1.
       -2    1    3    3    0  502 -0.43878105348E+03  0.50750371965E+03 -0.10421029803E+04  0.12393818862E+04  0.25500000920E-02 0. -1.
</event>
<event>
 5   0  0.1474203E-04  0.1503752E+04  0.7818609E-02  0.8881962E-01
        1   -1    0    0  501    0  0.00000000000E+00  0.00000000000E+00  0.87410928739E+03  0.87410928740E+03  0.50400001928E-02 0. -1.
       -1   -1    0    0    0  501  0.00000000000E+00  0.00000000000E+00 -0.64673509156E+03  0.64673509158E+03  0.50400001928E-02 0.  1.
    10030    2    1    2    0    0  0.00000000000E+00  0.00000000000E+00  0.22737419583E+03  0.15208443790E+04  0.15037515088E+04 0.  0.
        3    1    3    3  502    0 -0.71868339847E+03 -0.95630067903E+02 -0.87740518861E+02  0.73030770637E+03  0.10100000352E+00 0.  1.
       -3    1    3    3    0  502  0.71868339847E+03  0.95630067903E+02  0.31511471469E+03  0.79053667261E+03  0.10100000352E+00 0. -1.
</event>
<event>
 5   0  0.1484251E-04  0.1498962E+04  0.7818609E-02  0.8885143E-01
       -1   -1    0    0    0  501  0.00000000000E+00  0.00000000000E+00  0.10962189462E+04  0.10962189462E+04  0.50400001928E-02 0.  1.
        1   -1    0    0  501    0  0.00000000000E+00  0.00000000000E+00 -0.51241756823E+03  0.51241756826E+03  0.50400001928E-02 0. -1.
    10030    2    1    2    0    0  0.00000000000E+00  0.00000000000E+00  0.58380137794E+03  0.16086365144E+04  0.14989621032E+04 0.  0.
        5    1    3    3  502    0  0.41332914557E+03 -0.55240650807E+03 -0.22274899066E+02  0.69029862658E+03  0.46999998093E+01 0. -1.
       -5    1    3    3    0  502 -0.41332914557E+03  0.55240650807E+03  0.60607627700E+03  0.91833788786E+03  0.46999998093E+01 0.  1.
</event>
<event>
 5   0  0.1443750E-04  0.1498280E+04  0.7818609E-02  0.8885598E-01
        1   -1    0    0  501    0  0.00000000000E+00  0.00000000000E+00  0.79539902413E+03  0.79539902415E+03  0.50400001928E-02 0. -1.
       -1   -1    0    0    0  501  0.00000000000E+00  0.00000000000E+00 -0.70557126204E+03  0.70557126206E+03  0.50400001928E-02 0.  1.
    10030    2    1    2    0    0  0.00000000000E+00  0.00000000000E+00  0.89827762089E+02  0.15009702862E+04  0.14982799382E+04 0.  0.
        2    1    3    3  502    0  0.24080038156E+03 -0.43012623688E+03  0.61003432251E+03  0.78430560246E+03  0.25500000920E-02 0. -1.
       -2    1    3    3    0  502 -0.24080038156E+03  0.43012623688E+03 -0.52020656042E+03  0.71666468374E+03  0.25500000920E-02 0.  1.
</event>
<event>
 5   0  0.2641347E-04  0.1497628E+04  0.7818609E-02  0.8886032E-01
       -2   -1    0    0    0  501  0.00000000000E+00  0.00000000000E+00  0.43131586559E+03  0.43131586559E+03  0.25500000920E-02 0. -1.
        2   -1    0    0  501    0  0.00000000000E+00  0.00000000000E+00 -0.13000272166E+04  0.13000272167E+04  0.25500000920E-02 0.  1.
    10030    2    1    2    0    0  0.00000000000E+00  0.00000000000E+00 -0.86871135106E+03  0.17313430822E+04  0.14976279434E+04 0.  0.
        4    1    3    3  502    0  0.27161413745E+03 -0.11869959642E+03  0.36060212400E+03  0.46679689222E+03  0.12699999809E+01 0. -1.
       -4    1    3    3    0  502 -0.27161413745E+03  0.11869959642E+03 -0.12293134751E+04  0.12645461900E+04  0.12699999809E+01 0.  1.
</event>
<event>
 5   0  0.1427609E-04  0.1532508E+04  0.7818609E-02  0.8863119E-01
       -1   -1    0    0    0  501  0.00000000000E+00  0.00000000000E+00  0.10594115794E+04  0.10594115794E+04  0.50400001928E-02 0. -1.
        1   -1    0    0  501    0  0.00000000000E+00  0.00000000000E+00 -0.55421804818E+03  0.55421804820E+03  0.50400001928E-02 0.  1.
    10030    2    1    2    0    0  0.00000000000E+00  0.00000000000E+00  0.50519353120E+03  0.16136296276E+04  0.15325077719E+04 0.  0.
        4    1    3    3  502    0  0.30425530556E+03  0.25977026821E+03  0.94071275383E+03  0.10222494712E+04  0.12699999809E+01 0. -1.
       -4    1    3    3    0  502 -0.30425530556E+03 -0.25977026821E+03 -0.43551922263E+03  0.59138015640E+03  0.12699999809E+01 0.  1.
</event>
<event>
 5   0  0.1474203E-04  0.1498391E+04  0.7818609E-02  0.8885524E-01
        1   -1    0    0  501    0  0.00000000000E+00  0.00000000000E+00  0.85326602831E+03  0.85326602833E+03  0.50400001928E-02 0. -1.
       -1   -1    0    0    0  501  0.00000000000E+00  0.00000000000E+00 -0.65781828510E+03  0.65781828512E+03  0.50400001928E-02 0.  1.
    10030    2    1    2    0    0  0.00000000000E+00  0.00000000000E+00  0.19544774322E+03  0.15110843134E+04  0.14983911312E+04 0.  0.
        3    1    3    3  502    0  0.22276665891E+03 -0.63579285517E+03 -0.23282777179E+03  0.71278771070E+03  0.10100000352E+00 0.  1.
       -3    1    3    3    0  502 -0.22276665891E+03  0.63579285517E+03  0.42827551501E+03  0.79829660275E+03  0.10100000352E+00 0. -1.
</event>
<event>
 5   0  0.1004313E-04  0.1503144E+04  0.7818609E-02  0.8882365E-01
        4   -1    0    0  501    0  0.00000000000E+00  0.00000000000E+00  0.83282064082E+03  0.83282160916E+03  0.12699999809E+01 0. -1.
       -4   -1    0    0    0  501  0.00000000000E+00  0.00000000000E+00 -0.67824789378E+03  0.67824908280E+03  0.12699999809E+01 0.  1.
    10030    2    1    2    0    0  0.00000000000E+00  0.00000000000E+00  0.15457274704E+03  0.15110706920E+04  0.15031440057E+04 0.  0.
        4    1    3    3  502    0  0.40813304444E+03  0.53231237929E+03 -0.26351437514E+03  0.72067363620E+03  0.12699999809E+01 0.  1.
       -4    1    3    3    0  502 -0.40813304444E+03 -0.53231237929E+03  0.41808712219E+03  0.79039705576E+03  0.12699999809E+01 0. -1.
</event>
<event>
 5   0  0.2618901E-04  0.1495147E+04  0.7818609E-02  0.8887687E-01
        2   -1    0    0  501    0  0.00000000000E+00  0.00000000000E+00  0.84107678021E+03  0.84107678021E+03  0.25500000920E-02 0.  1.
       -2   -1    0    0    0  501  0.00000000000E+00  0.00000000000E+00 -0.66446497142E+03  0.66446497142E+03  0.25500000920E-02 0. -1.
    10030    2    1    2    0    0  0.00000000000E+00  0.00000000000E+00  0.17661180879E+03  0.15055417516E+04  0.14951468941E+04 0.  0.
        1    1    3    3  502    0 -0.12314268244E+03  0.34950002228E+03 -0.56547818816E+03  0.67607689439E+03  0.50400001928E-02 0. -1.
       -1    1    3    3    0  502  0.12314268244E+03 -0.34950002228E+03  0.74208999695E+03  0.82946485725E+03  0.50400001928E-02 0.  1.
</event>
<event>
 5   0  0.2646718E-04  0.1542862E+04  0.7818609E-02  0.8856440E-01
        2   -1    0    0  501    0  0.00000000000E+00  0.00000000000E+00  0.11656413632E+04  0.11656413632E+04  0.25500000920E-02 0.  1.
       -2   -1    0    0    0  501  0.00000000000E+00  0.00000000000E+00 -0.51053910104E+03  0.51053910104E+03  0.25500000920E-02 0. -1.
    10030    2    1    2    0    0  0.00000000000E+00  0.00000000000E+00  0.65510226215E+03  0.16761804642E+04  0.15428616188E+04 0.  0.
        3    1    3    3  502    0 -0.64695940308E+03 -0.70268485135E+02  0.77760739284E+03  0.10139858958E+04  0.10100000352E+00 0.  1.
       -3    1    3    3    0  502  0.64695940308E+03  0.70268485135E+02 -0.12250513070E+03  0.66219456845E+03  0.10100000352E+00 0. -1.
</event>
<event>
 5   0  0.2646718E-04  0.1513790E+04  0.7818609E-02  0.8875334E-01
       -2   -1    0    0    0  501  0.00000000000E+00  0.00000000000E+00  0.10609407137E+04  0.10609407137E+04  0.25500000920E-02 0.  1.
        2   -1    0    0  501    0  0.00000000000E+00  0.00000000000E+00 -0.53998336622E+03  0.53998336622E+03  0.25500000920E-02 0. -1.
    10030    2    1    2    0    0  0.00000000000E+00  0.00000000000E+00  0.52095734747E+03  0.16009240799E+04  0.15137903923E+04 0.  0.
        3    1    3    3  502    0 -0.13428982776E+03 -0.39319043925E+03  0.92955385544E+03  0.10181860634E+04  0.10100000352E+00 0.  1.
       -3    1    3    3    0  502  0.13428982776E+03  0.39319043925E+03 -0.40859650796E+03  0.58273801651E+03  0.10100000352E+00 0. -1.
</event>
<event>
 5   0  0.1427609E-04  0.1525604E+04  0.7818609E-02  0.8867603E-01
       -1   -1    0    0    0  501  0.00000000000E+00  0.00000000000E+00  0.41209263419E+03  0.41209263423E+03  0.50400001928E-02 0. -1.
        1   -1    0    0  501    0  0.00000000000E+00  0.00000000000E+00 -0.14119804195E+04  0.14119804195E+04  0.50400001928E-02 0.  1.
    10030    2    1    2    0    0  0.00000000000E+00  0.00000000000E+00 -0.99988778534E+03  0.18240730538E+04  0.15256037894E+04 0.  0.
        4    1    3    3  502    0 -0.10842001511E+03 -0.74486113610E+03 -0.35208953886E+03  0.83098836816E+03  0.12699999809E+01 0.  1.
       -4    1    3    3    0  502  0.10842001511E+03  0.74486113610E+03 -0.64779824648E+03  0.99308468560E+03  0.12699999809E+01 0. -1.
</event>
<event>
 5   0  0.2618901E-04  0.1497475E+04  0.7818609E-02  0.8886134E-01
       -2   -1    0    0    0  501  0.00000000000E+00  0.00000000000E+00  0.78816548696E+03  0.78816548696E+03  0.25500000920E-02 0.  1.
        2   -1    0    0  501    0  0.00000000000E+00  0.00000000000E+00 -0.71128164386E+03  0.71128164387E+03  0.25500000920E-02 0. -1.
    10030    2    1    2    0    0  0.00000000000E+00  0.00000000000E+00  0.76883843093E+02  0.14994471308E+04  0.14974747319E+04 0.  0.
        1    1    3    3  502    0  0.83305939276E+02 -0.74140316786E+03 -0.24800641457E+02  0.74648081601E+03  0.50400001928E-02 0. -1.
       -1    1    3    3    0  502 -0.83305939276E+02  0.74140316786E+03  0.10168448455E+03  0.75296631482E+03  0.50400001928E-02 0.  1.
</event>
<event>
 5   0  0.1443750E-04  0.1511966E+04  0.7818609E-02  0.8876534E-01
        1   -1    0    0  501    0  0.00000000000E+00  0.00000000000E+00  0.68255488567E+03  0.68255488569E+03  0.50400001928E-02 0.  1.
       -1   -1    0    0    0  501  0.00000000000E+00  0.00000000000E+00 -0.83731043898E+03  0.83731043900E+03  0.50400001928E-02 0. -1.
    10030    2    1    2    0    0  0.00000000000E+00  0.00000000000E+00 -0.15475555331E+03  0.15198653247E+04  0.15119660459E+04 0.  0.
        2    1    3    3  502    0 -0.27477941954E+03 -0.27762034907E+03 -0.72801010117E+03  0.82618127250E+03  0.25500000920E-02 0. -1.
       -2    1    3    3    0  502  0.27477941954E+03  0.27762034907E+03  0.57325454786E+03  0.69368405219E+03  0.25500000920E-02 0.  1.
</event>
<event>
 5   0  0.1426929E-04  0.1497429E+04  0.7818609E-02  0.8886164E-01
        1   -1    0    0  501    0  0.00000000000E+00  0.00000000000E+00  0.12904943038E+04  0.12904943038E+04  0.50400001928E-02 0.  1.
       -1   -1    0    0    0  501  0.00000000000E+00  0.00000000000E+00 -0.43438664101E+03  0.43438664104E+03  0.50400001928E-02 0. -1.
    10030    2    1    2    0    0  0.00000000000E+00  0.00000000000E+00  0.85610766282E+03  0.17248809449E+04  0.14974291114E+04 0.  0.
        1    1    3    3  502    0  0.70220621788E+03  0.24642958592E+03  0.33339937769E+03  0.81546076442E+03  0.50400001928E-02 0.  1.
       -1    1    3    3    0  502 -0.70220621788E+03 -0.24642958592E+03  0.52270828513E+03  0.90942018045E+03  0.50400001928E-02 0. -1.
</event>
<event>
 5   0  0.1484251E-04  0.1502471E+04  0.7818609E-02  0.8882812E-01
        1   -1    0    0  501    0  0.00000000000E+00  0.00000000000E+00  0.96436136636E+03  0.96436136637E+03  0.50400001928E-02 0. -1.
       -1   -1    0    0    0  501  0.00000000000E+00  0.00000000000E+00 -0.58521068279E+03  0.58521068281E+03  0.50400001928E-02 0.  1.
    10030    2    1    2    0    0  0.00000000000E+00  0.00000000000E+00  0.37915068357E+03  0.15495720492E+04  0.15024707301E+04 0.  0.
        5    1    3    3  502    0 -0.16570745496E+03  0.40469103920E+03 -0.44039138765E+03  0.62064519828E+03  0.46999998093E+01 0.  1.
       -5    1    3    3    0  502  0.16570745496E+03 -0.40469103920E+03  0.81954207121E+03  0.92892685090E+03  0.46999998093E+01 0. -1.
</event>
<event>
 5   0  0.2696040E-04  0.1502185E+04  0.7818609E-02  0.8883001E-01
        2   -1    0    0  501    0  0.00000000000E+00  0.00000000000E+00  0.49535644955E+03  0.49535644956E+03  0.25500000920E-02 0. -1.
       -2   -1    0    0    0  501  0.00000000000E+00  0.00000000000E+00 -0.11388565068E+04  0.11388565068E+04  0.25500000920E-02 0.  1.
    10030    2    1    2    0    0  0.00000000000E+00  0.00000000000E+00 -0.64350005726E+03  0.16342129564E+04  0.15021849630E+04 0.  0.
        2    1    3    3  502    0  0.22365015525E+02  0.64585162114E+03  0.94665469260E+02  0.65313556137E+03  0.25500000920E-02 0. -1.
       -2    1    3    3    0  502 -0.22365015525E+02 -0.64585162114E+03 -0.73816552652E+03  0.98107739501E+03  0.25500000920E-02 0.  1.
</event>
<event>
 5   0  0.2618901E-04  0.1492607E+04  0.7818609E-02  0.8889384E-01
       -2   -1    0    0    0  501  0.00000000000E+00  0.00000000000E+00  0.13727694038E+04  0.13727694038E+04  0.25500000920E-02 0.  1.
        2   -1    0    0  501    0  0.00000000000E+00  0.00000000000E+00 -0.40572661845E+03  0.40572661846E+03  0.25500000920E-02 0. -1.
    10030    2    1    2    0    0  0.00000000000E+00  0.00000000000E+00  0.96704278538E+03  0.17784960223E+04  0.14926072332E+04 0.  0.
        1    1    3    3  502    0 -0.18478328900E+03 -0.30434733715E+03 -0.29800024377E+03  0.46430196084E+03  0.50400001928E-02 0. -1.
       -1    1    3    3    0  502  0.18478328900E+03  0.30434733715E+03  0.12650430291E+04  0.13141940614E+04  0.50400001928E-02 0.  1.
</event>
<event>
 5   0  0.2646718E-04  0.1496459E+04  0.7818609E-02  0.8886811E-01
       -2   -1    0    0    0  501  0.00000000000E+00  0.00000000000E+00  0.21221588541E+04  0.21221588541E+04  0.25500000920E-02 0. -1.
        2   -1    0    0  501    0  0.00000000000E+00  0.00000000000E+00 -0.26381043754E+03  0.26381043755E+03  0.25500000920E-02 0.  1.
    10030    2    1    2    0    0  0.00000000000E+00  0.00000000000E+00  0.18583484166E+04  0.23859692917E+04  0.14964593624E+04 0.  0.
        3    1    3    3  502    0  0.56432449077E+03  0.15961060531E+03  0.16700344178E+04  0.17700148708E+04  0.10100000352E+00 0. -1.
       -3    1    3    3    0  502 -0.56432449077E+03 -0.15961060531E+03  0.18831399881E+03  0.61595442084E+03  0.10100000352E+00 0.  1.
</event>
<event>
 5   0  0.1004313E-04  0.1495483E+04  0.7818609E-02  0.8887462E-01
        3   -1    0    0  501    0  0.00000000000E+00  0.00000000000E+00  0.87531267430E+03  0.87531268012E+03  0.10100000352E+00 0. -1.
       -3   -1    0    0    0  501  0.00000000000E+00  0.00000000000E+00 -0.63876306310E+03  0.63876307108E+03  0.10100000352E+00 0.  1.
    10030    2    1    2    0    0  0.00000000000E+00  0.00000000000E+00  0.23654961120E+03  0.15140757512E+04  0.14954830864E+04 0.  0.
        4    1    3    3  502    0 -0.44307712164E+02 -0.32982754756E+03 -0.55965173541E+03  0.65112292414E+03  0.12699999809E+01 0.  1.
       -4    1    3    3    0  502  0.44307712164E+02  0.32982754756E+03  0.79620134661E+03  0.86295282706E+03  0.12699999809E+01 0. -1.
</event>
<event>
 5   0  0.1004313E-04  0.1499083E+04  0.7818609E-02  0.8885063E-01
        4   -1    0    0  501    0  0.00000000000E+00  0.00000000000E+00  0.93130971349E+03  0.93131057942E+03  0.12699999809E+01 0. -1.
       -4   -1    0    0    0  501  0.00000000000E+00  0.00000000000E+00 -0.60324799160E+03  0.60324932845E+03  0.12699999809E+01 0.  1.
    10030    2    1    2    0    0  0.00000000000E+00  0.00000000000E+00  0.32806172189E+03  0.15345599079E+04  0.14990829255E+04 0.  0.
        4    1    3    3  502    0 -0.18290463617E+03 -0.34407122579E+03  0.81947414408E+03  0.90740211597E+03  0.12699999809E+01 0. -1.
       -4    1    3    3    0  502  0.18290463617E+03  0.34407122579E+03 -0.49141242220E+03  0.62715779190E+03  0.12699999809E+01 0.  1.
</event>
<event>
 5   0  0.2641347E-04  0.1504168E+04  0.7818609E-02  0.8881686E-01
       -2   -1    0    0    0  501  0.00000000000E+00  0.00000000000E+00  0.10956255724E+04  0.10956255724E+04  0.25500000920E-02 0.  1.
        2   -1    0    0  501    0  0.00000000000E+00  0.00000000000E+00 -0.51626278601E+03  0.51626278601E+03  0.25500000920E-02 0. -1.
    10030    2    1    2    0    0  0.00000000000E+00  0.00000000000E+00  0.57936278643E+03  0.16118883585E+04  0.15041684885E+04 0.  0.
        4    1    3    3  502    0 -0.34349773397E+03  0.48354427656E+03 -0.20584412446E+03  0.62783690327E+03  0.12699999809E+01 0. -1.
       -4    1    3    3    0  502  0.34349773397E+03 -0.48354427656E+03  0.78520691089E+03  0.98405145518E+03  0.12699999809E+01 0.  1.
</event>
<event>
 5   0  0.2618901E-04  0.1507445E+04  0.7818609E-02  0.8879517E-01
        2   -1    0    0  501    0  0.00000000000E+00  0.00000000000E+00  0.56616559070E+03  0.56616559070E+03  0.25500000920E-02 0. -1.
       -2   -1    0    0    0  501  0.00000000000E+00  0.00000000000E+00 -0.10034120272E+04  0.10034120272E+04  0.25500000920E-02 0.  1.
    10030    2    1    2    0    0  0.00000000000E+00  0.00000000000E+00 -0.43724643648E+03  0.15695776179E+04  0.15074446764E+04 0.  0.
        1    1    3    3  502    0  0.53654975542E+03  0.40202082403E+03 -0.57718768038E+03  0.88467621275E+03  0.50400001928E-02 0.  1.
       -1    1    3    3    0  502 -0.53654975542E+03 -0.40202082403E+03  0.13994124390E+03  0.68490140514E+03  0.50400001928E-02 0. -1.
</event>
<event>
 5   0  0.1427609E-04  0.1473527E+04  0.7818609E-02  0.8902251E-01
       -1   -1    0    0    0  501  0.00000000000E+00  0.00000000000E+00  0.16317503451E+04  0.16317503451E+04  0.50400001928E-02 0.  1.
        1   -1    0    0  501    0  0.00000000000E+00  0.00000000000E+00 -0.33266124862E+03  0.33266124866E+03  0.50400001928E-02 0. -1.
    10030    2    1    2    0    0  0.00000000000E+00  0.00000000000E+00  0.12990890965E+04  0.19644115938E+04  0.14735265282E+04 0.  0.
        4    1    3    3  502    0  0.48309779096E+03  0.40851357207E+02  0.13891242456E+04  0.14712987771E+04  0.12699999809E+01 0.  1.
       -4    1    3    3    0  502 -0.48309779096E+03 -0.40851357207E+02 -0.90035149061E+02  0.49311281669E+03  0.12699999809E+01 0. -1.
</event>
<event>
 5   0  0.1484251E-04  0.1506124E+04  0.7818609E-02  0.8880391E-01
       -1   -1    0    0    0  501  0.00000000000E+00  0.00000000000E+00  0.58025302329E+03  0.58025302331E+03  0.50400001928E-02 0. -1.
        1   -1    0    0  501    0  0.00000000000E+00  0.00000000000E+00 -0.97733629275E+03  0.97733629276E+03  0.50400001928E-02 0.  1.
    10030    2    1    2    0    0  0.00000000000E+00  0.00000000000E+00 -0.39708326946E+03  0.15575893161E+04  0.15061239506E+04 0.  0.
        5    1    3    3  502    0 -0.15872729222E+03 -0.70875590964E+03 -0.40421153483E+03  0.83122701329E+03  0.46999998093E+01 0.  1.
       -5    1    3    3    0  502  0.15872729222E+03  0.70875590964E+03  0.71282653687E+01  0.72636230278E+03  0.46999998093E+01 0. -1.
</event>
<event>
 5   0  0.2734072E-04  0.1514638E+04  0.7818609E-02  0.8874777E-01
       -2   -1    0    0    0  501  0.00000000000E+00  0.00000000000E+00  0.20913337437E+03  0.20913337439E+03  0.25500000920E-02 0.  1.
        2   -1    0    0  501    0  0.00000000000E+00  0.00000000000E+00 -0.27424227816E+04  0.27424227816E+04  0.25500000920E-02 0. -1.
    10030    2    1    2    0    0  0.00000000000E+00  0.00000000000E+00 -0.25332894072E+04  0.29515561560E+04  0.15146380826E+04 0.  0.
        5    1    3    3  502    0 -0.28953050597E+03 -0.28663457341E+03 -0.22651217392E+02  0.40807163612E+03  0.46999998093E+01 0.  1.
       -5    1    3    3    0  502  0.28953050597E+03  0.28663457341E+03 -0.25106381898E+04  0.25434845198E+04  0.46999998093E+01 0. -1.
</event>
<event>
 5   0  0.2734072E-04  0.1493466E+04  0.7818609E-02  0.8888810E-01
       -2   -1    0    0    0  501  0.00000000000E+00  0.00000000000E+00  0.87437260743E+03  0.87437260743E+03  0.25500000920E-02 0. -1.
        2   -1    0    0  501    0  0.00000000000E+00  0.00000000000E+00 -0.63772562027E+03  0.63772562028E+03  0.25500000920E-02 0.  1.
    10030    2    1    2    0    0  0.00000000000E+00  0.00000000000E+00  0.23664698715E+03  0.15120982277E+04  0.14934655181E+04 0.  0.
        5    1    3    3  502    0  0.28907025861E+01 -0.65044589564E+03  0.48964076130E+03  0.81416115385E+03  0.46999998093E+01 0. -1.
       -5    1    3    3    0  502 -0.28907025861E+01  0.65044589564E+03 -0.25299377414E+03  0.69793707386E+03  0.46999998093E+01 0.  1.
</event>
<event>
 5   0  0.2734072E-04  0.1511156E+04  0.7818609E-02  0.8877068E-01
       -2   -1    0    0    0  501  0.00000000000E+00  0.00000000000E+00  0.38925628065E+03  0.38925628066E+03  0.25500000920E-02 0.  1.
        2   -1    0    0  501    0  0.00000000000E+00  0.00000000000E+00 -0.14666377407E+04  0.14666377407E+04  0.25500000920E-02 0. -1.
    10030    2    1    2    0    0  0.00000000000E+00  0.00000000000E+00 -0.10773814600E+04  0.18558940213E+04  0.15111557855E+04 0.  0.
        5    1    3    3  502    0 -0.32224977993E+03 -0.48125495024E+03 -0.11345859041E+04  0.12738753909E+04  0.46999998093E+01 0. -1.
       -5    1    3    3    0  502  0.32224977993E+03  0.48125495024E+03  0.57204444033E+02  0.58201863046E+03  0.46999998093E+01 0.  1.
</event>
<event>
 5   0  0.2641347E-04  0.1497904E+04  0.7818609E-02  0.8885848E-01
        2   -1    0    0  501    0  0.00000000000E+00  0.00000000000E+00  0.10203525870E+04  0.10203525870E+04  0.25500000920E-02 0. -1.
       -2   -1    0    0    0  501  0.00000000000E+00  0.00000000000E+00 -0.54974051135E+03  0.54974051135E+03  0.25500000920E-02 0.  1.
    10030    2    1    2    0    0  0.00000000000E+00  0.00000000000E+00  0.47061207566E+03  0.15700930984E+04  0.14979040730E+04 0.  0.
        4    1    3    3  502    0  0.73903881234E+03 -0.99408378560E+02  0.16217888129E+03  0.76312777063E+03  0.12699999809E+01 0.  1.
       -4    1    3    3    0  502 -0.73903881234E+03  0.99408378560E+02  0.30843319437E+03  0.80696532773E+03  0.12699999809E+01 0. -1.
</event>
<event>
 5   0  0.2641347E-04  0.1493457E+04  0.7818609E-02  0.8888816E-01
       -2   -1    0    0    0  501  0.00000000000E+00  0.00000000000E+00  0.25333475867E+03  0.25333475868E+03  0.25500000920E-02 0.  1.
        2   -1    0    0  501    0  0.00000000000E+00  0.00000000000E+00 -0.22010525637E+04  0.22010525637E+04  0.25500000920E-02 0. -1.
    10030    2    1    2    0    0  0.00000000000E+00  0.00000000000E+00 -0.19477178051E+04  0.24543873224E+04  0.14934565545E+04 0.  0.
        4    1    3    3  502    0  0.35528009960E+03  0.19622530578E+03 -0.20039525310E+04  0.20446407213E+04  0.12699999809E+01 0. -1.
       -4    1    3    3    0  502 -0.35528009960E+03 -0.19622530578E+03  0.56234725959E+02  0.40974660109E+03  0.12699999809E+01 0.  1.
</event>
<event>
 5   0  0.1484251E-04  0.1521594E+04  0.7818609E-02  0.8870219E-01
       -1   -1    0    0    0  501  0.00000000000E+00  0.00000000000E+00  0.92304067949E+03  0.92304067950E+03  0.50400001928E-02 0.  1.
        1   -1    0    0  501    0  0.00000000000E+00  0.00000000000E+00 -0.62707117621E+03  0.62707117623E+03  0.50400001928E-02 0. -1.
    10030    2    1    2    0    0  0.00000000000E+00  0.00000000000E+00  0.29596950328E+03  0.15501118557E+04  0.15215941701E+04 0.  0.
        5    1    3    3  502    0 -0.36852839228E+03 -0.39164898606E+03 -0.40023476306E+03  0.67038202524E+03  0.46999998093E+01 0. -1.
       -5    1    3    3    0  502  0.36852839228E+03  0.39164898606E+03  0.69620426634E+03  0.87972983050E+03  0.46999998093E+01 0.  1.
</event>
<event>
 5   0  0.2646718E-04  0.1502362E+04  0.7818609E-02  0.8882884E-01
        2   -1    0    0  501    0  0.00000000000E+00  0.00000000000E+00  0.10317284317E+04  0.10317284317E+04  0.25500000920E-02 0.  1.
       -2   -1    0    0    0  501  0.00000000000E+00  0.00000000000E+00 -0.54691989696E+03  0.54691989697E+03  0.25500000920E-02 0. -1.
    10030    2    1    2    0    0  0.00000000000E+00  0.00000000000E+00  0.48480853476E+03  0.15786483287E+04  0.15023618839E+04 0.  0.
        3    1    3    3  502    0  0.23050213720E+03  0.69057271085E+03  0.43687165851E+03  0.84904579407E+03  0.10100000352E+00 0. -1.
       -3    1    3    3    0  502 -0.23050213720E+03 -0.69057271085E+03  0.47936876247E+02  0.72960253462E+03  0.10100000352E+00 0.  1.
</event>
<event>
 5   0  0.2696040E-04  0.1504250E+04  0.7818609E-02  0.8881631E-01
       -2   -1    0    0    0  501  0.00000000000E+00  0.00000000000E+00  0.75334375017E+03  0.75334375017E+03  0.25500000920E-02 0.  1.
        2   -1    0    0  501    0  0.00000000000E+00  0.00000000000E+00 -0.75090868948E+03  0.75090868949E+03  0.25500000920E-02 0. -1.
    10030    2    1    2    0    0  0.00000000000E+00  0.00000000000E+00  0.24350606857E+01  0.15042524397E+04  0.15042504687E+04 0.  0.
        2    1    3    3  502    0 -0.54288542455E+03  0.51488885257E+03 -0.75315265412E+02  0.75200232972E+03  0.25500000920E-02 0. -1.
       -2    1    3    3    0  502  0.54288542455E+03 -0.51488885257E+03  0.77750326098E+02  0.75225010994E+03  0.25500000920E-02 0.  1.
</event>
<event>
 5   0  0.1426929E-04  0.1501735E+04  0.7818609E-02  0.8883300E-01
       -1   -1    0    0    0  501  0.00000000000E+00  0.00000000000E+00  0.33101248497E+03  0.33101248501E+03  0.50400001928E-02 0.  1.
        1   -1    0    0  501    0  0.00000000000E+00  0.00000000000E+00 -0.17032655932E+04  0.17032655933E+04  0.50400001928E-02 0. -1.
    10030    2    1    2    0    0  0.00000000000E+00  0.00000000000E+00 -0.13722531083E+04  0.20342780783E+04  0.15017352318E+04 0.  0.
        1    1    3    3  502    0  0.44032127169E+03  0.44486628521E+03 -0.12479476169E+04  0.13961239517E+04  0.50400001928E-02 0. -1.
       -1    1    3    3    0  502 -0.44032127169E+03 -0.44486628521E+03 -0.12430549140E+03  0.63815412656E+03  0.50400001928E-02 0.  1.
</event>
<event>
 5   0  0.2734072E-04  0.1512615E+04  0.7818609E-02  0.8876107E-01
       -2   -1    0    0    0  501  0.00000000000E+00  0.00000000000E+00  0.38182718059E+03  0.38182718060E+03  0.25500000920E-02 0.  1.
        2   -1    0    0  501    0  0.00000000000E+00  0.00000000000E+00 -0.14980616673E+04  0.14980616673E+04  0.25500000920E-02 0. -1.
    10030    2    1    2    0    0  0.00000000000E+00  0.00000000000E+00 -0.11162344867E+04  0.18798888479E+04  0.15126145084E+04 0.  0.
        5    1    3    3  502    0  0.12409274244E+03 -0.27384914093E+03 -0.14205811555E+04  0.14520555328E+04  0.46999998093E+01 0. -1.
       -5    1    3    3    0  502 -0.12409274244E+03  0.27384914093E+03  0.30434666884E+03  0.42783331514E+03  0.46999998093E+01 0.  1.
</event>
<event>
 5   0  0.2696040E-04  0.1514074E+04  0.7818609E-02  0.8875147E-01
       -2   -1    0    0    0  501  0.00000000000E+00  0.00000000000E+00  0.73975035613E+03  0.73975035613E+03  0.25500000920E-02 0.  1.
        2   -1    0    0  501    0  0.00000000000E+00  0.00000000000E+00 -0.77472770828E+03  0.77472770828E+03  0.25500000920E-02 0. -1.
    10030    2    1    2    0    0  0.00000000000E+00  0.00000000000E+00 -0.34977352154E+02  0.15144780644E+04  0.15140741040E+04 0.  0.
        2    1    3    3  502    0 -0.29383138651E+03 -0.62587156566E+03  0.29090024303E+03  0.75011669212E+03  0.25500000920E-02 0. -1.
       -2    1    3    3    0  502  0.29383138651E+03  0.62587156566E+03 -0.32587759518E+03  0.76436137229E+03  0.25500000920E-02 0.  1.
</event>
<event>
 5   0  0.1426929E-04  0.1503984E+04  0.7818609E-02  0.8881808E-01
        1   -1    0    0  501    0  0.00000000000E+00  0.00000000000E+00  0.56761645737E+03  0.56761645739E+03  0.50400001928E-02 0. -1.
       -1   -1    0    0    0  501  0.00000000000E+00  0.00000000000E+00 -0.99625761810E+03  0.99625761811E+03  0.50400001928E-02 0.  1.
    10030    2    1    2    0    0  0.00000000000E+00  0.00000000000E+00 -0.42864116073E+03  0.15638740755E+04  0.15039843348E+04 0.  0.
        1    1    3    3  502    0  0.26647561728E+03  0.26717398465E+03 -0.89068461704E+03  0.96732118747E+03  0.50400001928E-02 0.  1.
       -1    1    3    3    0  502 -0.26647561728E+03 -0.26717398465E+03  0.46204345631E+03  0.59655288804E+03  0.50400001928E-02 0. -1.
</event>
<event>
 5   0  0.2734072E-04  0.1498375E+04  0.7818609E-02  0.8885534E-01
       -2   -1    0    0    0  501  0.00000000000E+00  0.00000000000E+00  0.50077559832E+03  0.50077559833E+03  0.25500000920E-02 0. -1.
        2   -1    0    0  501    0  0.00000000000E+00  0.00000000000E+00 -0.11208252260E+04  0.11208252260E+04  0.25500000920E-02 0.  1.
    10030    2    1    2    0    0  0.00000000000E+00  0.00000000000E+00 -0.62004962766E+03  0.16216008243E+04  0.14983750174E+04 0.  0.
        5    1    3    3  502    0 -0.25325541628E+03 -0.70386198711E+03 -0.26540515667E+03  0.79373924557E+03  0.46999998093E+01 0. -1.
       -5    1    3    3    0  502  0.25325541628E+03  0.70386198711E+03 -0.35464447100E+03  0.82786157875E+03  0.46999998093E+01 0.  1.
</event>
<event>
 5   0  0.2734072E-04  0.1483305E+04  0.7818609E-02  0.8895631E-01
       -2   -1    0    0    0  501  0.00000000000E+00  0.00000000000E+00  0.74642056466E+03  0.74642056466E+03  0.25500000920E-02 0.  1.
        2   -1    0    0  501    0  0.00000000000E+00  0.00000000000E+00 -0.73691498957E+03  0.73691498957E+03  0.25500000920E-02 0. -1.
    10030    2    1    2    0    0  0.00000000000E+00  0.00000000000E+00  0.95055750871E+01  0.14833355542E+04  0.14833050969E+04 0.  0.
        5    1    3    3  502    0  0.62390028272E+03  0.21938774097E+03  0.34038427435E+03  0.74381858533E+03  0.46999998093E+01 0. -1.
       -5    1    3    3    0  502 -0.62390028272E+03 -0.21938774097E+03 -0.33087869927E+03  0.73951696890E+03  0.46999998093E+01 0.  1.
</event>
<event>
 5   0  0.2646718E-04  0.1496813E+04  0.7818609E-02  0.8886575E-01
        2   -1    0    0  501    0  0.00000000000E+00  0.00000000000E+00  0.15012639435E+04  0.15012639435E+04  0.25500000920E-02 0.  1.
       -2   -1    0    0    0  501  0.00000000000E+00  0.00000000000E+00 -0.37309385230E+03  0.37309385231E+03  0.25500000920E-02 0. -1.
    10030    2    1    2    0    0  0.00000000000E+00  0.00000000000E+00  0.11281700912E+04  0.18743577958E+04  0.14968130785E+04 0.  0.
        3    1    3    3  502    0 -0.18184918594E+03 -0.56064289277E+03  0.11416381271E+04  0.12848062901E+04  0.10100000352E+00 0.  1.
       -3    1    3    3    0  502  0.18184918594E+03  0.56064289277E+03 -0.13468035934E+02  0.58955150567E+03  0.10100000352E+00 0. -1.
</event>
<event>
 5   0  0.1443750E-04  0.1500198E+04  0.7818609E-02  0.8884321E-01
       -1   -1    0    0    0  501  0.00000000000E+00  0.00000000000E+00  0.41090679657E+03  0.41090679660E+03  0.50400001928E-02 0.  1.
        1   -1    0    0  501    0  0.00000000000E+00  0.00000000000E+00 -0.13692854727E+04  0.13692854727E+04  0.50400001928E-02 0. -1.
    10030    2    1    2    0    0  0.00000000000E+00  0.00000000000E+00 -0.95837867609E+03  0.17801922693E+04  0.15001982632E+04 0.  0.
        2    1    3    3  502    0  0.29910267690E+02 -0.73089032345E+03 -0.28221665800E+03  0.78405454598E+03  0.25500000920E-02 0.  1.
       -2    1    3    3    0  502 -0.29910267690E+02  0.73089032345E+03 -0.67616201810E+03  0.99613772328E+03  0.25500000920E-02 0. -1.
</event>
<event>
 5   0  0.1484251E-04  0.1493949E+04  0.7818609E-02  0.8888487E-01
        1   -1    0    0  501    0  0.00000000000E+00  0.00000000000E+00  0.99054140527E+03  0.99054140528E+03  0.50400001928E-02 0.  1.
       -1   -1    0    0    0  501  0.00000000000E+00  0.00000000000E+00 -0.56329859312E+03  0.56329859314E+03  0.50400001928E-02 0. -1.
    10030    2    1    2    0    0  0.00000000000E+00  0.00000000000E+00  0.42724281216E+03  0.15538399984E+04  0.14939485668E+04 0.  0.
        5    1    3    3  502    0  0.57919010086E+03  0.29325464560E+03 -0.17063359125E+03  0.67126550080E+03  0.46999998093E+01 0. -1.
       -5    1    3    3    0  502 -0.57919010086E+03 -0.29325464560E+03  0.59787640341E+03  0.88257449762E+03  0.46999998093E+01 0.  1.
</event>
<event>
 5   0  0.2696040E-04  0.1501895E+04  0.7818609E-02  0.8883194E-01
       -2   -1    0    0    0  501  0.00000000000E+00  0.00000000000E+00  0.38371527074E+03  0.38371527074E+03  0.25500000920E-02 0. -1.
        2   -1    0    0  501    0  0.00000000000E+00  0.00000000000E+00 -0.14696361170E+04  0.14696361170E+04  0.25500000920E-02 0.  1.
    10030    2    1    2    0    0  0.00000000000E+00  0.00000000000E+00 -0.10859208462E+04  0.18533513877E+04  0.15018945642E+04 0.  0.
        2    1    3    3  502    0 -0.73389731510E+02  0.36046159536E+03 -0.13508388847E+04  0.14000301093E+04  0.25500000920E-02 0.  1.
       -2    1    3    3    0  502  0.73389731510E+02 -0.36046159536E+03  0.26491803844E+03  0.45332127848E+03  0.25500000920E-02 0. -1.
</event>
<event>
 5   0  0.2618901E-04  0.1467188E+04  0.7818609E-02  0.8906570E-01
       -2   -1    0    0    0  501  0.00000000000E+00  0.00000000000E+00  0.25480491695E+03  0.25480491697E+03  0.25500000920E-02 0.  1.
        2   -1    0    0  501    0  0.00000000000E+00  0.00000000000E+00 -0.21120488479E+04  0.21120488479E+04  0.25500000920E-02 0. -1.
    10030    2    1    2    0    0  0.00000000000E+00  0.00000000000E+00 -0.18572439309E+04  0.23668537649E+04  0.14671883741E+04 0.  0.
        1    1    3    3  502    0 -0.14462321667E+03 -0.65499388564E+03 -0.44945408505E+03  0.80742915455E+03  0.50400001928E-02 0.  1.
       -1    1    3    3    0  502  0.14462321667E+03  0.65499388564E+03 -0.14077898459E+04  0.15594246103E+04  0.50400001928E-02 0. -1.
</event>
<event>
 5   0  0.1443750E-04  0.1483993E+04  0.7818609E-02  0.8895167E-01
        1   -1    0    0  501    0  0.00000000000E+00  0.00000000000E+00  0.14269322876E+04  0.14269322876E+04  0.50400001928E-02 0. -1.
       -1   -1    0    0    0  501  0.00000000000E+00  0.00000000000E+00 -0.38583404643E+03  0.38583404647E+03  0.50400001928E-02 0.  1.
    10030    2    1    2    0    0  0.00000000000E+00  0.00000000000E+00  0.10410982411E+04  0.18127663340E+04  0.14839933403E+04 0.  0.
        2    1    3    3  502    0 -0.43016479665E+03 -0.25171857256E+03 -0.15091809874E+03  0.52074971396E+03  0.25500000920E-02 0.  1.
       -2    1    3    3    0  502  0.43016479665E+03  0.25171857256E+03  0.11920163399E+04  0.12920166201E+04  0.25500000920E-02 0. -1.
</event>
<event>
 5   0  0.1474203E-04  0.1499025E+04  0.7818609E-02  0.8885102E-01
        1   -1    0    0  501    0  0.00000000000E+00  0.00000000000E+00  0.19196039016E+04  0.19196039016E+04  0.50400001928E-02 0. -1.
       -1   -1    0    0    0  501  0.00000000000E+00  0.00000000000E+00 -0.29264837376E+03  0.29264837380E+03  0.50400001928E-02 0.  1.
    10030    2    1    2    0    0  0.00000000000E+00  0.00000000000E+00  0.16269555278E+04  0.22122522754E+04  0.14990249632E+04 0.  0.
        3    1    3    3  502    0  0.50532909408E+03  0.53015411492E+03  0.57851543247E+03  0.93332791381E+03  0.10100000352E+00 0.  1.
       -3    1    3    3    0  502 -0.50532909408E+03 -0.53015411492E+03  0.10484400953E+04  0.12789243616E+04  0.10100000352E+00 0. -1.
</event>
<event>
 5   0  0.2696040E-04  0.1508602E+04  0.7818609E-02  0.8878753E-01
        2   -1    0    0  501    0  0.00000000000E+00  0.00000000000E+00  0.55050841481E+03  0.55050841482E+03  0.25500000920E-02 0. -1.
       -2   -1    0    0    0  501  0.00000000000E+00  0.00000000000E+00 -0.10335357223E+04  0.10335357223E+04  0.25500000920E-02 0.  1.
    10030    2    1    2    0    0  0.00000000000E+00  0.00000000000E+00 -0.48302730746E+03  0.15840441371E+04  0.15086021505E+04 0.  0.
        2    1    3    3  502    0 -0.56318474544E+03  0.34844926220E+03 -0.62064671644E+03  0.90763224516E+03  0.25500000920E-02 0.  1.
       -2    1    3    3    0  502  0.56318474544E+03 -0.34844926220E+03  0.13761940898E+03  0.67641189194E+03  0.25500000920E-02 0. -1.
</event>
<event>
 5   0  0.1426929E-04  0.1522071E+04  0.7818609E-02  0.8869907E-01
       -1   -1    0    0    0  501  0.00000000000E+00  0.00000000000E+00  0.67103392040E+03  0.67103392042E+03  0.50400001928E-02 0.  1.
        1   -1    0    0  501    0  0.00000000000E+00  0.00000000000E+00 -0.86310789965E+03  0.86310789966E+03  0.50400001928E-02 0. -1.
    10030    2    1    2    0    0  0.00000000000E+00  0.00000000000E+00 -0.19207397924E+03  0.15341418201E+04  0.15220705340E+04 0.  0.
        1    1    3    3  502    0 -0.53195770135E+03 -0.91283941233E+02 -0.63682069390E+03  0.83477682655E+03  0.50400001928E-02 0. -1.
       -1    1    3    3    0  502  0.53195770135E+03  0.91283941233E+02  0.44474671465E+03  0.69936499353E+03  0.50400001928E-02 0.  1.
</event>
<event>
 5   0  0.1426929E-04  0.1498980E+04  0.7818609E-02  0.8885131E-01
        1   -1    0    0  501    0  0.00000000000E+00  0.00000000000E+00  0.53915637466E+03  0.53915637469E+03  0.50400001928E-02 0.  1.
       -1   -1    0    0    0  501  0.00000000000E+00  0.00000000000E+00 -0.10418783404E+04  0.10418783404E+04  0.50400001928E-02 0. -1.
    10030    2    1    2    0    0  0.00000000000E+00  0.00000000000E+00 -0.50272196571E+03  0.15810347151E+04  0.14989801184E+04 0.  0.
        1    1    3    3  502    0 -0.60066910564E+03 -0.36534639835E+03 -0.52529712453E+03  0.87762089442E+03  0.50400001928E-02 0. -1.
       -1    1    3    3    0  502  0.60066910564E+03  0.36534639835E+03  0.22575158820E+02  0.70341382065E+03  0.50400001928E-02 0.  1.
</event>
<event>
 5   0  0.1443750E-04  0.1518106E+04  0.7818609E-02  0.8872501E-01
       -1   -1    0    0    0  501  0.00000000000E+00  0.00000000000E+00  0.57199058085E+03  0.57199058087E+03  0.50400001928E-02 0. -1.
        1   -1    0    0  501    0  0.00000000000E+00  0.00000000000E+00 -0.10072915944E+04  0.10072915944E+04  0.50400001928E-02 0.  1.
    10030    2    1    2    0    0  0.00000000000E+00  0.00000000000E+00 -0.43530101351E+03  0.15792821752E+04  0.15181057989E+04 0.  0.
        2    1    3    3  502    0 -0.21785421507E+03  0.43053606497E+03  0.39191390856E+03  0.62162550944E+03  0.25500000920E-02 0. -1.
       -2    1    3    3    0  502  0.21785421507E+03 -0.43053606497E+03 -0.82721492206E+03  0.95765666580E+03  0.25500000920E-02 0.  1.
</event>
<event>
 5   0  0.2641347E-04  0.1500628E+04  0.7818609E-02  0.8884035E-01
        2   -1    0    0  501    0  0.00000000000E+00  0.00000000000E+00  0.17968246958E+04  0.17968246958E+04  0.25500000920E-02 0.  1.
       -2   -1    0    0    0  501  0.00000000000E+00  0.00000000000E+00 -0.31331450525E+03  0.31331450526E+03  0.25500000920E-02 0. -1.
    10030    2    1    2    0    0  0.00000000000E+00  0.00000000000E+00  0.14835101905E+04  0.21101392011E+04  0.15006281893E+04 0.  0.
        4    1    3    3  502    0  0.18281709368E+03 -0.64987933030E+03  0.12021646188E+04  0.13787554596E+04  0.12699999809E+01 0.  1.
       -4    1    3    3    0  502 -0.18281709368E+03  0.64987933030E+03  0.28134557174E+03  0.73138374150E+03  0.12699999809E+01 0. -1.
</event>
<event>
 5   0  0.2734072E-04  0.1492483E+04  0.7818609E-02  0.8889467E-01
       -2   -1    0    0    0  501  0.00000000000E+00  0.00000000000E+00  0.18117409901E+04  0.18117409901E+04  0.25500000920E-02 0.  1.
        2   -1    0    0  501    0  0.00000000000E+00  0.00000000000E+00 -0.30737073946E+03  0.30737073947E+03  0.25500000920E-02 0. -1.
    10030    2    1    2    0    0  0.00000000000E+00  0.00000000000E+00  0.15043702507E+04  0.21191117296E+04  0.14924827207E+04 0.  0.
        5    1    3    3  502    0 -0.41222173295E+03 -0.49601745118E+03  0.21922979912E+03  0.68120765102E+03  0.46999998093E+01 0. -1.
       -5    1    3    3    0  502  0.41222173295E+03  0.49601745118E+03  0.12851404516E+04  0.14379040786E+04  0.46999998093E+01 0.  1.
</event>
<event>
 5   0  0.2641347E-04  0.1502292E+04  0.7818609E-02  0.8882930E-01
        2   -1    0    0  501    0  0.00000000000E+00  0.00000000000E+00  0.13513160264E+04  0.13513160264E+04  0.25500000920E-02 0. -1.
       -2   -1    0    0    0  501  0.00000000000E+00  0.00000000000E+00 -0.41753391770E+03  0.41753391771E+03  0.25500000920E-02 0.  1.
    10030    2    1    2    0    0  0.00000000000E+00  0.00000000000E+00  0.93378210870E+03  0.17688499441E+04  0.15022919484E+04 0.  0.
        4    1    3    3  502    0  0.33614510650E+03 -0.25669544507E+03  0.11977852556E+04  0.12702665924E+04  0.12699999809E+01 0. -1.
       -4    1    3    3    0  502 -0.33614510650E+03  0.25669544507E+03 -0.26400314695E+03  0.49858335175E+03  0.12699999809E+01 0.  1.
</event>
<event>
 5   0  0.2618901E-04  0.1498742E+04  0.7818609E-02  0.8885290E-01
        2   -1    0    0  501    0  0.00000000000E+00  0.00000000000E+00  0.79314689554E+03  0.79314689555E+03  0.25500000920E-02 0.  1.
       -2   -1    0    0    0  501  0.00000000000E+00  0.00000000000E+00 -0.70801114610E+03  0.70801114610E+03  0.25500000920E-02 0. -1.
    10030    2    1    2    0    0  0.00000000000E+00  0.00000000000E+00  0.85135749446E+02  0.15011580416E+04  0.14987419291E+04 0.  0.
        1    1    3    3  502    0  0.53287863945E+03 -0.41675469524E+03 -0.28030675463E+03  0.73226770863E+03  0.50400001928E-02 0. -1.
       -1    1    3    3    0  502 -0.53287863945E+03  0.41675469524E+03  0.36544250408E+03  0.76889033301E+03  0.50400001928E-02 0.  1.
</event>
<event>
 5   0  0.2734072E-04  0.1501721E+04  0.7818609E-02  0.8883309E-01
       -2   -1    0    0    0  501  0.00000000000E+00  0.00000000000E+00  0.48962926197E+03  0.48962926198E+03  0.25500000920E-02 0.  1.
        2   -1    0    0  501    0  0.00000000000E+00  0.00000000000E+00 -0.11514667844E+04  0.11514667844E+04  0.25500000920E-02 0. -1.
    10030    2    1    2    0    0  0.00000000000E+00  0.00000000000E+00 -0.66183752239E+03  0.16410960463E+04  0.15017214546E+04 0.  0.
        5    1    3    3  502    0  0.58898370221E+03 -0.28858011018E+03 -0.73033959278E+03  0.98163042548E+03  0.46999998093E+01 0. -1.
       -5    1    3    3    0  502 -0.58898370221E+03  0.28858011018E+03  0.68502070390E+02  0.65946562086E+03  0.46999998093E+01 0.  1.
</event>
<event>
 5   0  0.2646718E-04  0.1493573E+04  0.7818609E-02  0.8888738E-01
       -2   -1    0    0    0  501  0.00000000000E+00  0.00000000000E+00  0.63210247171E+03  0.63210247171E+03  0.25500000920E-02 0. -1.
        2   -1    0    0  501    0  0.00000000000E+00  0.00000000000E+00 -0.88227822399E+03  0.88227822399E+03  0.25500000920E-02 0.  1.
    10030    2    1    2    0    0  0.00000000000E+00  0.00000000000E+00 -0.25017575228E+03  0.15143806957E+04  0.14935732270E+04 0.  0.
        3    1    3    3  502    0 -0.57734720324E+03  0.29277810314E+03 -0.50262099151E+03  0.81955883381E+03  0.10100000352E+00 0.  1.
       -3    1    3    3    0  502  0.57734720324E+03 -0.29277810314E+03  0.25244523923E+03  0.69482186190E+03  0.10100000352E+00 0. -1.
</event>
<event>
 5   0  0.2641347E-04  0.1497796E+04  0.7818609E-02  0.8885920E-01
       -2   -1    0    0    0  501  0.00000000000E+00  0.00000000000E+00  0.56950587710E+03  0.56950587710E+03  0.25500000920E-02 0. -1.
        2   -1    0    0  501    0  0.00000000000E+00  0.00000000000E+00 -0.98479844755E+03  0.98479844755E+03  0.25500000920E-02 0.  1.
    10030    2    1    2    0    0  0.00000000000E+00  0.00000000000E+00 -0.41529257046E+03  0.15543043247E+04  0.14977963862E+04 0.  0.
        4    1    3    3  502    0  0.34774308906E+03 -0.61116871815E+03  0.59746145506E+02  0.70570792318E+03  0.12699999809E+01 0. -1.
       -4    1    3    3    0  502 -0.34774308906E+03  0.61116871815E+03 -0.47503871596E+03  0.84859640148E+03  0.12699999809E+01 0.  1.
</event>
<event>
 5   0  0.1474203E-04  0.1504548E+04  0.7818609E-02  0.8881434E-01
        1   -1    0    0  501    0  0.00000000000E+00  0.00000000000E+00  0.10215103492E+04  0.10215103492E+04  0.50400001928E-02 0. -1.
       -1   -1    0    0    0  501  0.00000000000E+00  0.00000000000E+00 -0.55399935552E+03  0.55399935554E+03  0.50400001928E-02 0.  1.
    10030    2    1    2    0    0  0.00000000000E+00  0.00000000000E+00  0.46751099370E+03  0.15755097048E+04  0.15045478725E+04 0.  0.
        3    1    3    3  502    0  0.53261552745E+03 -0.44220953959E+03  0.54206952177E+03  0.87924282972E+03  0.10100000352E+00 0. -1.
       -3    1    3    3    0  502 -0.53261552745E+03  0.44220953959E+03 -0.74558528065E+02  0.69626687505E+03  0.10100000352E+00 0.  1.
</event>
<event>
 5   0  0.1443750E-04  0.1495756E+04  0.7818609E-02  0.8887280E-01
       -1   -1    0    0    0  501  0.00000000000E+00  0.00000000000E+00  0.13251089152E+04  0.13251089152E+04  0.50400001928E-02 0.  1.
        1   -1    0    0  501    0  0.00000000000E+00  0.00000000000E+00 -0.42209483061E+03  0.42209483064E+03  0.50400001928E-02 0. -1.
    10030    2    1    2    0    0  0.00000000000E+00  0.00000000000E+00  0.90301408461E+03  0.17472037459E+04  0.14957561608E+04 0.  0.
        2    1    3    3  502    0 -0.44591779342E+03 -0.22138982428E+03 -0.20040307218E+03  0.53667264150E+03  0.25500000920E-02 0. -1.
       -2    1    3    3    0  502  0.44591779342E+03  0.22138982428E+03  0.11034171568E+04  0.12105311044E+04  0.25500000920E-02 0.  1.
</event>
<event>
 5   0  0.1474203E-04  0.1511451E+04  0.7818609E-02  0.8876874E-01
        1   -1    0    0  501    0  0.00000000000E+00  0.00000000000E+00  0.53256086066E+03  0.53256086068E+03  0.50400001928E-02 0. -1.
       -1   -1    0    0    0  501  0.00000000000E+00  0.00000000000E+00 -0.10724053099E+04  0.10724053099E+04  0.50400001928E-02 0.  1.
    10030    2    1    2    0    0  0.00000000000E+00  0.00000000000E+00 -0.53984444928E+03  0.16049661706E+04  0.15114510840E+04 0.  0.
        3    1    3    3  502    0  0.14579051040E+03  0.36507929676E+03 -0.95528849016E+03  0.10330120403E+04  0.10100000352E+00 0.  1.
       -3    1    3    3    0  502 -0.14579051040E+03 -0.36507929676E+03  0.41544404088E+03  0.57195413029E+03  0.10100000352E+00 0. -1.
</event>
<event>
 5   0  0.2641347E-04  0.1496374E+04  0.7818609E-02  0.8886868E-01
        2   -1    0    0  501    0  0.00000000000E+00  0.00000000000E+00  0.77951695361E+03  0.77951695362E+03  0.25500000920E-02 0. -1.
       -2   -1    0    0    0  501  0.00000000000E+00  0.00000000000E+00 -0.71811585566E+03  0.71811585566E+03  0.25500000920E-02 0.  1.
    10030    2    1    2    0    0  0.00000000000E+00  0.00000000000E+00  0.61401097956E+02  0.14976328093E+04  0.14963735953E+04 0.  0.
        4    1    3    3  502    0 -0.67845649356E+03 -0.16746003320E+03  0.29820021889E+03  0.75978356116E+03  0.12699999809E+01 0. -1.
       -4    1    3    3    0  502  0.67845649356E+03  0.16746003320E+03 -0.23679912093E+03  0.73784924811E+03  0.12699999809E+01 0.  1.
</event>
<event>
 5   0  0.1426929E-04  0.1489810E+04  0.7818609E-02  0.8891257E-01
        1   -1    0    0  501    0  0.00000000000E+00  0.00000000000E+00  0.66376366355E+03  0.66376366357E+03  0.50400001928E-02 0. -1.
       -1   -1    0    0    0  501  0.00000000000E+00  0.00000000000E+00 -0.83596572381E+03  0.83596572382E+03  0.50400001928E-02 0.  1.
    10030    2    1    2    0    0  0.00000000000E+00  0.00000000000E+00 -0.17220206026E+03  0.14997293874E+04  0.14898102852E+04 0.  0.
        1    1    3    3  502    0  0.14522030546E+03  0.36539853459E+03 -0.72298914436E+03  0.82299351703E+03  0.50400001928E-02 0.  1.
       -1    1    3    3    0  502 -0.14522030546E+03 -0.36539853459E+03  0.55078708410E+03  0.67673587036E+03  0.50400001928E-02 0. -1.
</event>
<event>
 5   0  0.1484251E-04  0.1499796E+04  0.7818609E-02  0.8884589E-01
        1   -1    0    0  501    0  0.00000000000E+00  0.00000000000E+00  0.52250482478E+03  0.52250482480E+03  0.50400001928E-02 0. -1.
       -1   -1    0    0    0  501  0.00000000000E+00  0.00000000000E+00 -0.10762520489E+04  0.10762520489E+04  0.50400001928E-02 0.  1.
    10030    2    1    2    0    0  0.00000000000E+00  0.00000000000E+00 -0.55374722415E+03  0.15987568737E+04  0.14997958371E+04 0.  0.
        5    1    3    3  502    0 -0.33264846881E+03 -0.37453041637E+03 -0.87172342155E+03  0.10054112841E+04  0.46999998093E+01 0.  1.
       -5    1    3    3    0  502  0.33264846881E+03  0.37453041637E+03  0.31797619741E+03  0.59334558960E+03  0.46999998093E+01 0. -1.
</event>
<event>
 5   0  0.1426929E-04  0.1496978E+04  0.7818609E-02  0.8886465E-01
       -1   -1    0    0    0  501  0.00000000000E+00  0.00000000000E+00  0.77521140603E+03  0.77521140605E+03  0.50400001928E-02 0.  1.
        1   -1    0    0  501    0  0.00000000000E+00  0.00000000000E+00 -0.72268757250E+03  0.72268757252E+03  0.50400001928E-02 0. -1.
    10030    2    1    2    0    0  0.00000000000E+00  0.00000000000E+00  0.52523833529E+02  0.14978989786E+04  0.14969778211E+04 0.  0.
        1    1    3    3  502    0 -0.53797608482E+03  0.49771694506E+03 -0.12580272658E+03  0.74361734197E+03  0.50400001928E-02 0. -1.
       -1    1    3    3    0  502  0.53797608482E+03 -0.49771694506E+03  0.17832656011E+03  0.75428163660E+03  0.50400001928E-02 0.  1.
</event>
<event>
 5   0  0.1443750E-04  0.1501391E+04  0.7818609E-02  0.8883528E-01
        1   -1    0    0  501    0  0.00000000000E+00  0.00000000000E+00  0.61657227953E+03  0.61657227955E+03  0.50400001928E-02 0.  1.
       -1   -1    0    0    0  501  0.00000000000E+00  0.00000000000E+00 -0.91399465682E+03  0.91399465684E+03  0.50400001928E-02 0. -1.
    10030    2    1    2    0    0  0.00000000000E+00  0.00000000000E+00 -0.29742237730E+03  0.15305669364E+04  0.15013910471E+04 0.  0.
        2    1    3    3  502    0 -0.26361636230E+03 -0.42185793112E+02 -0.86396540940E+03  0.90427288816E+03  0.25500000920E-02 0. -1.
       -2    1    3    3    0  502  0.26361636230E+03  0.42185793112E+02  0.56654303210E+03  0.62629404823E+03  0.25500000920E-02 0.  1.
</event>
<event>
 5   0  0.2734072E-04  0.1502404E+04  0.7818609E-02  0.8882856E-01
       -2   -1    0    0    0  501  0.00000000000E+00  0.00000000000E+00  0.33277648604E+03  0.33277648605E+03  0.25500000920E-02 0.  1.
        2   -1    0    0  501    0  0.00000000000E+00  0.00000000000E+00 -0.16957454147E+04  0.16957454147E+04  0.25500000920E-02 0. -1.
    10030    2    1    2    0    0  0.00000000000E+00  0.00000000000E+00 -0.13629689287E+04  0.20285219008E+04  0.15024036746E+04 0.  0.
        5    1    3    3  502    0 -0.78260215151E+02 -0.30016967044E+03  0.24223861565E+03  0.39360910716E+03  0.46999998093E+01 0.  1.
       -5    1    3    3    0  502  0.78260215151E+02  0.30016967044E+03 -0.16052075443E+04  0.16349127936E+04  0.46999998093E+01 0. -1.
</event>
<event>
 5   0  0.2641347E-04  0.1506965E+04  0.7818609E-02  0.8879834E-01
        2   -1    0    0  501    0  0.00000000000E+00  0.00000000000E+00  0.81626011899E+03  0.81626011900E+03  0.25500000920E-02 0.  1.
       -2   -1    0    0    0  501  0.00000000000E+00  0.00000000000E+00 -0.69553312384E+03  0.69553312384E+03  0.25500000920E-02 0. -1.
    10030    2    1    2    0    0  0.00000000000E+00  0.00000000000E+00  0.12072699516E+03  0.15117932428E+04  0.15069650964E+04 0.  0.
        4    1    3    3  502    0 -0.37305286467E+03  0.25429269030E+03  0.66553839561E+03  0.80422396203E+03  0.12699999809E+01 0.  1.
       -4    1    3    3    0  502  0.37305286467E+03 -0.25429269030E+03 -0.54481140045E+03  0.70756928081E+03  0.12699999809E+01 0. -1.
</event>
<event>
 5   0  0.1474203E-04  0.1502061E+04  0.7818609E-02  0.8883084E-01
        1   -1    0    0  501    0  0.00000000000E+00  0.00000000000E+00  0.12536268887E+04  0.12536268887E+04  0.50400001928E-02 0.  1.
       -1   -1    0    0    0  501  0.00000000000E+00  0.00000000000E+00 -0.44993189067E+03  0.44993189070E+03  0.50400001928E-02 0. -1.
    10030    2    1    2    0    0  0.00000000000E+00  0.00000000000E+00  0.80369499799E+03  0.17035587794E+04  0.15020608726E+04 0.  0.
        3    1    3    3  502    0 -0.71074507042E+03 -0.22000437619E+03  0.51798679351E+03  0.90657090683E+03  0.10100000352E+00 0. -1.
       -3    1    3    3    0  502  0.71074507042E+03  0.22000437619E+03  0.28570820448E+03  0.79698787254E+03  0.10100000352E+00 0.  1.
</event>
<event>
 5   0  0.1443750E-04  0.1497091E+04  0.7818609E-02  0.8886390E-01
       -1   -1    0    0    0  501  0.00000000000E+00  0.00000000000E+00  0.67251219755E+03  0.67251219757E+03  0.50400001928E-02 0. -1.
        1   -1    0    0  501    0  0.00000000000E+00  0.00000000000E+00 -0.83317470232E+03  0.83317470233E+03  0.50400001928E-02 0.  1.
    10030    2    1    2    0    0  0.00000000000E+00  0.00000000000E+00 -0.16066250477E+03  0.15056868999E+04  0.14970907120E+04 0.  0.
        2    1    3    3  502    0 -0.19114070564E+03 -0.18097847532E+03  0.62442920664E+03  0.67764283512E+03  0.25500000920E-02 0. -1.
       -2    1    3    3    0  502  0.19114070564E+03  0.18097847532E+03 -0.78509171141E+03  0.82804406478E+03  0.25500000920E-02 0.  1.
</event>
<event>
 5   0  0.2641347E-04  0.1500600E+04  0.7818609E-02  0.8884054E-01
        2   -1    0    0  501    0  0.00000000000E+00  0.00000000000E+00  0.20339272655E+04  0.20339272655E+04  0.25500000920E-02 0. -1.
       -2   -1    0    0    0  501  0.00000000000E+00  0.00000000000E+00 -0.27677984730E+03  0.27677984731E+03  0.25500000920E-02 0.  1.
    10030    2    1    2    0    0  0.00000000000E+00  0.00000000000E+00  0.17571474182E+04  0.23107071128E+04  0.15005999840E+04 0.  0.
        4    1    3    3  502    0  0.37023847945E+03  0.55268053853E+03  0.14129194386E+04  0.15616898739E+04  0.12699999809E+01 0. -1.
       -4    1    3    3    0  502 -0.37023847945E+03 -0.55268053853E+03  0.34422797955E+03  0.74901723888E+03  0.12699999809E+01 0.  1.
</event>
<event>
 5   0  0.1426929E-04  0.1505390E+04  0.7818609E-02  0.8880877E-01
       -1   -1    0    0    0  501  0.00000000000E+00  0.00000000000E+00  0.11600920548E+04  0.11600920548E+04  0.50400001928E-02 0. -1.
        1   -1    0    0  501    0  0.00000000000E+00  0.00000000000E+00 -0.48836619947E+03  0.48836619950E+03  0.50400001928E-02 0.  1.
    10030    2    1    2    0    0  0.00000000000E+00  0.00000000000E+00  0.67172585535E+03  0.16484582543E+04  0.15053899799E+04 0.  0.
        1    1    3    3  502    0 -0.12343397145E+02  0.47177902784E+03 -0.30622680304E+03  0.56258569613E+03  0.50400001928E-02 0.  1.
       -1    1    3    3    0  502  0.12343397145E+02 -0.47177902784E+03  0.97795265839E+03  0.10858725582E+04  0.50400001928E-02 0. -1.
</event>
<event>
 5   0  0.2618901E-04  0.1498663E+04  0.7818609E-02  0.8885342E-01
        2   -1    0    0  501    0  0.00000000000E+00  0.00000000000E+00  0.79707736423E+03  0.79707736423E+03  0.25500000920E-02 0.  1.
       -2   -1    0    0    0  501  0.00000000000E+00  0.00000000000E+00 -0.70444578917E+03  0.70444578918E+03  0.25500000920E-02 0. -1.
    10030    2    1    2    0    0  0.00000000000E+00  0.00000000000E+00  0.92631575053E+02  0.15015231534E+04  0.14986631281E+04 0.  0.
        1    1    3    3  502    0  0.14874561118E+03 -0.40580437253E+03 -0.56697601689E+03  0.71292653854E+03  0.50400001928E-02 0. -1.
       -1    1    3    3    0  502 -0.14874561118E+03  0.40580437253E+03  0.65960759194E+03  0.78859661487E+03  0.50400001928E-02 0.  1.
</event>
<event>
 5   0  0.1426929E-04  0.1499064E+04  0.7818609E-02  0.8885076E-01
        1   -1    0    0  501    0  0.00000000000E+00  0.00000000000E+00  0.75378646261E+03  0.75378646262E+03  0.50400001928E-02 0. -1.
       -1   -1    0    0    0  501  0.00000000000E+00  0.00000000000E+00 -0.74530150075E+03  0.74530150077E+03  0.50400001928E-02 0.  1.
    10030    2    1    2    0    0  0.00000000000E+00  0.00000000000E+00  0.84849618581E+01  0.14990879634E+04  0.14990639504E+04 0.  0.
        1    1    3    3  502    0  0.41675738871E+03 -0.22143056734E+03 -0.57807257806E+03  0.74624803030E+03  0.50400001928E-02 0.  1.
       -1    1    3    3    0  502 -0.41675738871E+03  0.22143056734E+03  0.58655753991E+03  0.75283993309E+03  0.50400001928E-02 0. -1.
</event>
<event>
 5   0  0.1426929E-04  0.1467842E+04  0.7818609E-02  0.8906124E-01
       -1   -1    0    0    0  501  0.00000000000E+00  0.00000000000E+00  0.62726667637E+03  0.62726667639E+03  0.50400001928E-02 0. -1.
        1   -1    0    0  501    0  0.00000000000E+00  0.00000000000E+00 -0.85870972707E+03  0.85870972708E+03  0.50400001928E-02 0.  1.
    10030    2    1    2    0    0  0.00000000000E+00  0.00000000000E+00 -0.23144305070E+03  0.14859764035E+04  0.14678419486E+04 0.  0.
        1    1    3    3  502    0 -0.63539913746E+03  0.81673986540E+02 -0.47824805040E+03  0.79945225104E+03  0.50400001928E-02 0. -1.
       -1    1    3    3    0  502  0.63539913746E+03 -0.81673986540E+02  0.24680499970E+03  0.68652415242E+03  0.50400001928E-02 0.  1.
</event>
<event>
 5   0  0.2646718E-04  0.1509433E+04  0.7818609E-02  0.8878204E-01
        2   -1    0    0  501    0  0.00000000000E+00  0.00000000000E+00  0.21655940505E+04  0.21655940505E+04  0.25500000920E-02 0. -1.
       -2   -1    0    0    0  501  0.00000000000E+00  0.00000000000E+00 -0.26302118449E+03  0.26302118451E+03  0.25500000920E-02 0.  1.
    10030    2    1    2    0    0  0.00000000000E+00  0.00000000000E+00  0.19025728660E+04  0.24286152350E+04  0.15094331549E+04 0.  0.
        3    1    3    3  502    0  0.30967756655E+03 -0.55588348133E+03  0.29833774436E+03  0.70278877335E+03  0.10100000352E+00 0.  1.
       -3    1    3    3    0  502 -0.30967756655E+03  0.55588348133E+03  0.16042351217E+04  0.17258264617E+04  0.10100000352E+00 0. -1.
</event>
<event>
 5   0  0.1484251E-04  0.1494463E+04  0.7818609E-02  0.8888143E-01
        1   -1    0    0  501    0  0.00000000000E+00  0.00000000000E+00  0.73774552008E+03  0.73774552010E+03  0.50400001928E-02 0.  1.
       -1   -1    0    0    0  501  0.00000000000E+00  0.00000000000E+00 -0.75683963248E+03  0.75683963249E+03  0.50400001928E-02 0. -1.
    10030    2    1    2    0    0  0.00000000000E+00  0.00000000000E+00 -0.19094112397E+02  0.14945851526E+04  0.14944631789E+04 0.  0.
        5    1    3    3  502    0 -0.61435323659E+03 -0.33241842987E+03  0.25580655466E+03  0.74390254418E+03  0.46999998093E+01 0.  1.
       -5    1    3    3    0  502  0.61435323659E+03  0.33241842987E+03 -0.27490066706E+03  0.75068260841E+03  0.46999998093E+01 0. -1.
</event>
<event>
 5   0  0.2646718E-04  0.1494052E+04  0.7818609E-02  0.8888418E-01
        2   -1    0    0  501    0  0.00000000000E+00  0.00000000000E+00  0.70706749006E+03  0.70706749007E+03  0.25500000920E-02 0.  1.
       -2   -1    0    0    0  501  0.00000000000E+00  0.00000000000E+00 -0.78924268424E+03  0.78924268425E+03  0.25500000920E-02 0. -1.
    10030    2    1    2    0    0  0.00000000000E+00  0.00000000000E+00 -0.82175194180E+02  0.14963101743E+04  0.14940519988E+04 0.  0.
        3    1    3    3  502    0 -0.33789243145E+02  0.42722255469E+03  0.57170893885E+03  0.71450118625E+03  0.10100000352E+00 0.  1.
       -3    1    3    3    0  502  0.33789243145E+02 -0.42722255469E+03 -0.65388413303E+03  0.78180898806E+03  0.10100000352E+00 0. -1.
</event>
<event>
 5   0  0.2641347E-04  0.1511029E+04  0.7818609E-02  0.8877152E-01
        2   -1    0    0  501    0  0.00000000000E+00  0.00000000000E+00  0.21038940871E+04  0.21038940871E+04  0.25500000920E-02 0. -1.
       -2   -1    0    0    0  501  0.00000000000E+00  0.00000000000E+00 -0.27130729634E+03  0.27130729635E+03  0.25500000920E-02 0.  1.
    10030    2    1    2    0    0  0.00000000000E+00  0.00000000000E+00  0.18325867907E+04  0.23752013834E+04  0.15110285458E+04 0.  0.
        4    1    3    3  502    0  0.70281671976E+02  0.48436040297E+03  0.11583288045E+02  0.48957154619E+03  0.12699999809E+01 0.  1.
       -4    1    3    3    0  502 -0.70281671976E+02 -0.48436040297E+03  0.18210035027E+04  0.18856298372E+04  0.12699999809E+01 0. -1.
</event>
<event>
 5   0  0.2646718E-04  0.1502124E+04  0.7818609E-02  0.8883042E-01
       -2   -1    0    0    0  501  0.00000000000E+00  0.00000000000E+00  0.57999071322E+03  0.57999071322E+03  0.25500000920E-02 0. -1.
        2   -1    0    0  501    0  0.00000000000E+00  0.00000000000E+00 -0.97259108493E+03  0.97259108494E+03  0.25500000920E-02 0.  1.
    10030    2    1    2    0    0  0.00000000000E+00  0.00000000000E+00 -0.39260037172E+03  0.15525817982E+04  0.15021235595E+04 0.  0.
        3    1    3    3  502    0  0.70781489969E+03 -0.10007672747E+03  0.41822067770E+02  0.71607707627E+03  0.10100000352E+00 0. -1.
       -3    1    3    3    0  502 -0.70781489969E+03  0.10007672747E+03 -0.43442243949E+03  0.83650472189E+03  0.10100000352E+00 0.  1.
</event>
<event>
 5   0  0.2618901E-04  0.1499497E+04  0.7818609E-02  0.8884787E-01
        2   -1    0    0  501    0  0.00000000000E+00  0.00000000000E+00  0.10114349039E+04  0.10114349039E+04  0.25500000920E-02 0. -1.
       -2   -1    0    0    0  501  0.00000000000E+00  0.00000000000E+00 -0.55576801703E+03  0.55576801703E+03  0.25500000920E-02 0.  1.
    10030    2    1    2    0    0  0.00000000000E+00  0.00000000000E+00  0.45566688691E+03  0.15672029210E+04  0.14994974771E+04 0.  0.
        1    1    3    3  502    0  0.35616655933E+03 -0.50520664867E+03 -0.21562989017E+03  0.65466374988E+03  0.50400001928E-02 0.  1.
       -1    1    3    3    0  502 -0.35616655933E+03  0.50520664867E+03  0.67129677709E+03  0.91253917110E+03  0.50400001928E-02 0. -1.
</event>
<event>
 5   0  0.1443750E-04  0.1478164E+04  0.7818609E-02  0.8899105E-01
       -1   -1    0    0    0  501  0.00000000000E+00  0.00000000000E+00  0.63647821117E+03  0.63647821119E+03  0.50400001928E-02 0.  1.
        1   -1    0    0  501    0  0.00000000000E+00  0.00000000000E+00 -0.85822569975E+03  0.85822569977E+03  0.50400001928E-02 0. -1.
    10030    2    1    2    0    0  0.00000000000E+00  0.00000000000E+00 -0.22174748858E+03  0.14947039110E+04  0.14781636691E+04 0.  0.
        2    1    3    3  502    0  0.69479275994E+02 -0.72044979002E+03  0.40354702321E+02  0.72491638948E+03  0.25500000920E-02 0.  1.
       -2    1    3    3    0  502 -0.69479275994E+02  0.72044979002E+03 -0.26210219090E+03  0.76978752147E+03  0.25500000920E-02 0. -1.
</event>
<event>
 5   0  0.1427609E-04  0.1480193E+04  0.7818609E-02  0.8897732E-01
        1   -1    0    0  501    0  0.00000000000E+00  0.00000000000E+00  0.35938123456E+03  0.35938123460E+03  0.50400001928E-02 0. -1.
       -1   -1    0    0    0  501  0.00000000000E+00  0.00000000000E+00 -0.15241278381E+04  0.15241278381E+04  0.50400001928E-02 0.  1.
    10030    2    1    2    0    0  0.00000000000E+00  0.00000000000E+00 -0.11647466035E+04  0.18835090727E+04  0.14801931551E+04 0.  0.
        4    1    3    3  502    0  0.18044451884E+03  0.64151536133E+02  0.32730468783E+03  0.37921710872E+03  0.12699999809E+01 0. -1.
       -4    1    3    3    0  502 -0.18044451884E+03 -0.64151536133E+02 -0.14920512914E+04  0.15042919640E+04  0.12699999809E+01 0.  1.
</event>
<event>
 5   0  0.2734072E-04  0.1487735E+04  0.7818609E-02  0.8892650E-01
        2   -1    0    0  501    0  0.00000000000E+00  0.00000000000E+00  0.10913342102E+04  0.10913342102E+04  0.25500000920E-02 0.  1.
       -2   -1    0    0    0  501  0.00000000000E+00  0.00000000000E+00 -0.50702978107E+03  0.50702978108E+03  0.25500000920E-02 0. -1.
    10030    2    1    2    0    0  0.00000000000E+00  0.00000000000E+00  0.58430442914E+03  0.15983639913E+04  0.14877351185E+04 0.  0.
        5    1    3    3  502    0  0.67047315742E+03 -0.61342485306E+02  0.63192832994E+03  0.92339193168E+03  0.46999998093E+01 0.  1.
       -5    1    3    3    0  502 -0.67047315742E+03  0.61342485306E+02 -0.47623900795E+02  0.67497205961E+03  0.46999998093E+01 0. -1.
</event>
<event>
 5   0  0.1426929E-04  0.1493089E+04  0.7818609E-02  0.8889061E-01
        1   -1    0    0  501    0  0.00000000000E+00  0.00000000000E+00  0.19205351764E+04  0.19205351764E+04  0.50400001928E-02 0.  1.
       -1   -1    0    0    0  501  0.00000000000E+00  0.00000000000E+00 -0.29019463292E+03  0.29019463296E+03  0.50400001928E-02 0. -1.
    10030    2    1    2    0    0  0.00000000000E+00  0.00000000000E+00  0.16303405435E+04  0.22107298094E+04  0.14930894154E+04 0.  0.
        1    1    3    3  502    0  0.10172726691E+03  0.73152407260E+03  0.97637052947E+03  0.12242447943E+04  0.50400001928E-02 0. -1.
       -1    1    3    3    0  502 -0.10172726691E+03 -0.73152407260E+03  0.65397001405E+03  0.98648501506E+03  0.50400001928E-02 0.  1.
</event>
<event>
 5   0  0.1427609E-04  0.1496889E+04  0.7818609E-02  0.8886524E-01
        1   -1    0    0  501    0  0.00000000000E+00  0.00000000000E+00  0.67893685366E+03  0.67893685368E+03  0.50400001928E-02 0.  1.
       -1   -1    0    0    0  501  0.00000000000E+00  0.00000000000E+00 -0.82506852440E+03  0.82506852442E+03  0.50400001928E-02 0. -1.
    10030    2    1    2    0    0  0.00000000000E+00  0.00000000000E+00 -0.14613167074E+03  0.15040053781E+04  0.14968893453E+04 0.  0.
        4    1    3    3  502    0  0.33154092813E+03  0.50409588362E+03 -0.51804337717E+03  0.79523744909E+03  0.12699999809E+01 0. -1.
       -4    1    3    3    0  502 -0.33154092813E+03 -0.50409588362E+03  0.37191170643E+03  0.70876792901E+03  0.12699999809E+01 0.  1.
</event>
<event>
 5   0  0.1484251E-04  0.1499318E+04  0.7818609E-02  0.8884907E-01
       -1   -1    0    0    0  501  0.00000000000E+00  0.00000000000E+00  0.23955724191E+03  0.23955724196E+03  0.50400001928E-02 0.  1.
        1   -1    0    0  501    0  0.00000000000E+00  0.00000000000E+00 -0.23459462318E+04  0.23459462318E+04  0.50400001928E-02 0. -1.
    10030    2    1    2    0    0  0.00000000000E+00  0.00000000000E+00 -0.21063889899E+04  0.25855034737E+04  0.14993177235E+04 0.  0.
        5    1    3    3  502    0  0.26983076552E+03 -0.11320294310E+03 -0.22433706362E+04  0.22623787149E+04  0.46999998093E+01 0. -1.
       -5    1    3    3    0  502 -0.26983076552E+03  0.11320294310E+03  0.13698164632E+03  0.32312475884E+03  0.46999998093E+01 0.  1.
</event>
<event>
 5   0  0.2641347E-04  0.1497562E+04  0.7818609E-02  0.8886076E-01
        2   -1    0    0  501    0  0.00000000000E+00  0.00000000000E+00  0.97569901800E+03  0.97569901800E+03  0.25500000920E-02 0.  1.
       -2   -1    0    0    0  501  0.00000000000E+00  0.00000000000E+00 -0.57463723821E+03  0.57463723822E+03  0.25500000920E-02 0. -1.
    10030    2    1    2    0    0  0.00000000000E+00  0.00000000000E+00  0.40106177979E+03  0.15503362562E+04  0.14975620041E+04 0.  0.
        4    1    3    3  502    0  0.22666255815E+03 -0.66501481908E+03 -0.67535839099E+02  0.70582103067E+03  0.12699999809E+01 0. -1.
       -4    1    3    3    0  502 -0.22666255815E+03  0.66501481908E+03  0.46859761888E+03  0.84451522555E+03  0.12699999809E+01 0.  1.
</event>
<event>
 5   0  0.1426929E-04  0.1505065E+04  0.7818609E-02  0.8881092E-01
       -1   -1    0    0    0  501  0.00000000000E+00  0.00000000000E+00  0.10750945386E+04  0.10750945386E+04  0.50400001928E-02 0. -1.
        1   -1    0    0  501    0  0.00000000000E+00  0.00000000000E+00 -0.52674934333E+03  0.52674934336E+03  0.50400001928E-02 0.  1.
    10030    2    1    2    0    0  0.00000000000E+00  0.00000000000E+00  0.54834519522E+03  0.16018438819E+04  0.15050652374E+04 0.  0.
        1    1    3    3  502    0  0.46545330710E+03 -0.55592592969E+03  0.48863649853E+03  0.87433749097E+03  0.50400001928E-02 0. -1.
       -1    1    3    3    0  502 -0.46545330710E+03  0.55592592969E+03  0.59708696693E+02  0.72750639095E+03  0.50400001928E-02 0.  1.
</event>
<event>
 5   0  0.2696040E-04  0.1486691E+04  0.7818609E-02  0.8893352E-01
        2   -1    0    0  501    0  0.00000000000E+00  0.00000000000E+00  0.12197671591E+04  0.12197671591E+04  0.25500000920E-02 0.  1.
       -2   -1    0    0    0  501  0.00000000000E+00  0.00000000000E+00 -0.45300640826E+03  0.45300640826E+03  0.25500000920E-02 0. -1.
    10030    2    1    2    0    0  0.00000000000E+00  0.00000000000E+00  0.76676075083E+03  0.16727735673E+04  0.14866907407E+04 0.  0.
        2    1    3    3  502    0  0.60006175120E+03 -0.34024305832E+03  0.69503890221E+03  0.97924385092E+03  0.25500000920E-02 0. -1.
       -2    1    3    3    0  502 -0.60006175120E+03  0.34024305832E+03  0.71721848622E+02  0.69352971642E+03  0.25500000920E-02 0.  1.
</event>
<event>
 5   0  0.2734072E-04  0.1497272E+04  0.7818609E-02  0.8886269E-01
       -2   -1    0    0    0  501  0.00000000000E+00  0.00000000000E+00  0.36890821444E+03  0.36890821445E+03  0.25500000920E-02 0.  1.
        2   -1    0    0  501    0  0.00000000000E+00  0.00000000000E+00 -0.15192283323E+04  0.15192283323E+04  0.25500000920E-02 0. -1.
    10030    2    1    2    0    0  0.00000000000E+00  0.00000000000E+00 -0.11503201178E+04  0.18881365467E+04  0.14972719344E+04 0.  0.
        5    1    3    3  502    0  0.39220688052E+03  0.12119025617E+03 -0.13646228264E+04  0.14250371446E+04  0.46999998093E+01 0. -1.
       -5    1    3    3    0  502 -0.39220688052E+03 -0.12119025617E+03  0.21430270855E+03  0.46309940208E+03  0.46999998093E+01 0.  1.
</event>
<event>
 5   0  0.1474203E-04  0.1497863E+04  0.7818609E-02  0.8885875E-01
       -1   -1    0    0    0  501  0.00000000000E+00  0.00000000000E+00  0.82373926609E+03  0.82373926611E+03  0.50400001928E-02 0.  1.
        1   -1    0    0  501    0  0.00000000000E+00  0.00000000000E+00 -0.68091780460E+03  0.68091780462E+03  0.50400001928E-02 0. -1.
    10030    2    1    2    0    0  0.00000000000E+00  0.00000000000E+00  0.14282146149E+03  0.15046570707E+04  0.14978634553E+04 0.  0.
        3    1    3    3  502    0  0.47556703479E+03 -0.55434640188E+03  0.23779646311E+03  0.76812180410E+03  0.10100000352E+00 0.  1.
       -3    1    3    3    0  502 -0.47556703479E+03  0.55434640188E+03 -0.94975001628E+02  0.73653526663E+03  0.10100000352E+00 0. -1.
</event>
<event>
 5   0  0.1004313E-04  0.1514474E+04  0.7818609E-02  0.8874885E-01
       -3   -1    0    0    0  501  0.00000000000E+00  0.00000000000E+00  0.12791795502E+04  0.12791795542E+04  0.10100000352E+00 0. -1.
        3   -1    0    0  501    0  0.00000000000E+00  0.00000000000E+00 -0.44826201765E+03  0.44826202903E+03  0.10100000352E+00 0.  1.
    10030    2    1    2    0    0  0.00000000000E+00  0.00000000000E+00  0.83091753260E+03  0.17274415833E+04  0.15144736636E+04 0.  0.
        5    1    3    3  502    0 -0.37978941633E+03  0.88657999699E+02 -0.32487880650E+03  0.50761064860E+03  0.46999998093E+01 0.  1.
       -5    1    3    3    0  502  0.37978941633E+03 -0.88657999699E+02  0.11557963391E+04  0.12198309347E+04  0.46999998093E+01 0. -1.
</event>
<event>
 5   0  0.1484251E-04  0.1494907E+04  0.7818609E-02  0.8887847E-01
       -1   -1    0    0    0  501  0.00000000000E+00  0.00000000000E+00  0.64307091214E+03  0.64307091216E+03  0.50400001928E-02 0. -1.
        1   -1    0    0  501    0  0.00000000000E+00  0.00000000000E+00 -0.86877905990E+03  0.86877905991E+03  0.50400001928E-02 0.  1.
    10030    2    1    2    0    0  0.00000000000E+00  0.00000000000E+00 -0.22570814776E+03  0.15118499721E+04  0.14949067429E+04 0.  0.
        5    1    3    3  502    0 -0.65195941184E+02 -0.15980644540E+03 -0.84833507779E+03  0.86572692285E+03  0.46999998093E+01 0.  1.
       -5    1    3    3    0  502  0.65195941184E+02  0.15980644540E+03  0.62262693003E+03  0.64612304922E+03  0.46999998093E+01 0. -1.
</event>
<event>
 5   0  0.2696040E-04  0.1504576E+04  0.7818609E-02  0.8881415E-01
        2   -1    0    0  501    0  0.00000000000E+00  0.00000000000E+00  0.37933127080E+03  0.37933127081E+03  0.25500000920E-02 0.  1.
       -2   -1    0    0    0  501  0.00000000000E+00  0.00000000000E+00 -0.14919349998E+04  0.14919349998E+04  0.25500000920E-02 0. -1.
    10030    2    1    2    0    0  0.00000000000E+00  0.00000000000E+00 -0.11126037290E+04  0.18712662706E+04  0.15045764845E+04 0.  0.
        2    1    3    3  502    0 -0.66501902436E+03 -0.28476199365E+03 -0.29960803260E+03  0.78301000568E+03  0.25500000920E-02 0.  1.
       -2    1    3    3    0  502  0.66501902436E+03  0.28476199365E+03 -0.81299569636E+03  0.10882562649E+04  0.25500000920E-02 0. -1.
</event>
<event>
 5   0  0.1427609E-04  0.1502578E+04  0.7818609E-02  0.8882740E-01
       -1   -1    0    0    0  501  0.00000000000E+00  0.00000000000E+00  0.11597800397E+04  0.11597800397E+04  0.50400001928E-02 0.  1.
        1   -1    0    0  501    0  0.00000000000E+00  0.00000000000E+00 -0.48667445769E+03  0.48667445771E+03  0.50400001928E-02 0. -1.
    10030    2    1    2    0    0  0.00000000000E+00  0.00000000000E+00  0.67310558199E+03  0.16464544974E+04  0.15025782134E+04 0.  0.
        4    1    3    3  502    0 -0.30332360116E+03  0.17199768798E+03  0.10657393651E+04  0.11213342138E+04  0.12699999809E+01 0.  1.
       -4    1    3    3    0  502  0.30332360116E+03 -0.17199768798E+03 -0.39263378315E+03  0.52512028362E+03  0.12699999809E+01 0. -1.
</event>
<event>
 5   0  0.2646718E-04  0.1478753E+04  0.7818609E-02  0.8898706E-01
       -2   -1    0    0    0  501  0.00000000000E+00  0.00000000000E+00  0.39347993813E+03  0.39347993814E+03  0.25500000920E-02 0. -1.
        2   -1    0    0  501    0  0.00000000000E+00  0.00000000000E+00 -0.13893399214E+04  0.13893399214E+04  0.25500000920E-02 0.  1.
    10030    2    1    2    0    0  0.00000000000E+00  0.00000000000E+00 -0.99585998327E+03  0.17828198595E+04  0.14787526992E+04 0.  0.
        3    1    3    3  502    0 -0.28023597086E+03 -0.41803739035E+03  0.15510207128E+03  0.52663471383E+03  0.10100000352E+00 0. -1.
       -3    1    3    3    0  502  0.28023597086E+03  0.41803739035E+03 -0.11509620546E+04  0.12561851457E+04  0.10100000352E+00 0.  1.
</event>
<event>
 5   0  0.2734072E-04  0.1500448E+04  0.7818609E-02  0.8884155E-01
       -2   -1    0    0    0  501  0.00000000000E+00  0.00000000000E+00  0.30591879411E+03  0.30591879412E+03  0.25500000920E-02 0. -1.
        2   -1    0    0  501    0  0.00000000000E+00  0.00000000000E+00 -0.18398216581E+04  0.18398216581E+04  0.25500000920E-02 0.  1.
    10030    2    1    2    0    0  0.00000000000E+00  0.00000000000E+00 -0.15339028640E+04  0.21457404523E+04  0.15004479638E+04 0.  0.
        5    1    3    3  502    0  0.28459986750E+03  0.92392711471E+01 -0.17595159953E+04  0.17824143952E+04  0.46999998093E+01 0.  1.
       -5    1    3    3    0  502 -0.28459986750E+03 -0.92392711471E+01  0.22561313125E+03  0.36332605701E+03  0.46999998093E+01 0. -1.
</event>
<event>
 5   0  0.2618901E-04  0.1496617E+04  0.7818609E-02  0.8886706E-01
       -2   -1    0    0    0  501  0.00000000000E+00  0.00000000000E+00  0.83763836232E+03  0.83763836232E+03  0.25500000920E-02 0.  1.
        2   -1    0    0  501    0  0.00000000000E+00  0.00000000000E+00 -0.66850535829E+03  0.66850535830E+03  0.25500000920E-02 0. -1.
    10030    2    1    2    0    0  0.00000000000E+00  0.00000000000E+00  0.16913300403E+03  0.15061437206E+04  0.14966171635E+04 0.  0.
        1    1    3    3  502    0 -0.63752215477E+03 -0.15679355953E+03  0.44594419508E+03  0.79365291110E+03  0.50400001928E-02 0.  1.
       -1    1    3    3    0  502  0.63752215477E+03  0.15679355953E+03 -0.27681119105E+03  0.71249080952E+03  0.50400001928E-02 0. -1.
</event>
<event>
 5   0  0.1427609E-04  0.1499142E+04  0.7818609E-02  0.8885023E-01
       -1   -1    0    0    0  501  0.00000000000E+00  0.00000000000E+00  0.57548490789E+03  0.57548490791E+03  0.50400001928E-02 0.  1.
        1   -1    0    0  501    0  0.00000000000E+00  0.00000000000E+00 -0.97631920069E+03  0.97631920070E+03  0.50400001928E-02 0. -1.
    10030    2    1    2    0    0  0.00000000000E+00  0.00000000000E+00 -0.40083429280E+03  0.15518041086E+04  0.14991423752E+04 0.  0.
        4    1    3    3  502    0 -0.60338091159E+03  0.27718051114E+03 -0.56042414426E+03  0.86889262547E+03  0.12699999809E+01 0. -1.
       -4    1    3    3    0  502  0.60338091159E+03 -0.27718051114E+03  0.15958985146E+03  0.68291148315E+03  0.12699999809E+01 0.  1.
</event>
<event>
 5   0  0.2618901E-04  0.1497525E+04  0.7818609E-02  0.8886100E-01
        2   -1    0    0  501    0  0.00000000000E+00  0.00000000000E+00  0.66021344759E+03  0.66021344760E+03  0.25500000920E-02 0. -1.
       -2   -1    0    0    0  501  0.00000000000E+00  0.00000000000E+00 -0.84918801862E+03  0.84918801863E+03  0.25500000920E-02 0.  1.
    10030    2    1    2    0    0  0.00000000000E+00  0.00000000000E+00 -0.18897457103E+03  0.15094014662E+04  0.14975250909E+04 0.  0.
        1    1    3    3  502    0  0.58029466575E+03 -0.20864499448E+03 -0.52255618405E+03  0.80829425232E+03  0.50400001928E-02 0.  1.
       -1    1    3    3    0  502 -0.58029466575E+03  0.20864499448E+03  0.33358161302E+03  0.70110721390E+03  0.50400001928E-02 0. -1.
</event>
<event>
 5   0  0.1427609E-04  0.1523627E+04  0.7818609E-02  0.8868892E-01
       -1   -1    0    0    0  501  0.00000000000E+00  0.00000000000E+00  0.80363826099E+03  0.80363826101E+03  0.50400001928E-02 0.  1.
        1   -1    0    0  501    0  0.00000000000E+00  0.00000000000E+00 -0.72216503515E+03  0.72216503517E+03  0.50400001928E-02 0. -1.
    10030    2    1    2    0    0  0.00000000000E+00  0.00000000000E+00  0.81473225845E+02  0.15258032962E+04  0.15236265330E+04 0.  0.
        4    1    3    3  502    0  0.81375192979E+02  0.29618930470E+03  0.73887520787E+03  0.80018011220E+03  0.12699999809E+01 0.  1.
       -4    1    3    3    0  502 -0.81375192979E+02 -0.29618930470E+03 -0.65740198203E+03  0.72562318398E+03  0.12699999809E+01 0. -1.
</event>
<event>
 5   0  0.2641347E-04  0.1503756E+04  0.7818609E-02  0.8881959E-01
       -2   -1    0    0    0  501  0.00000000000E+00  0.00000000000E+00  0.62254158059E+03  0.62254158059E+03  0.25500000920E-02 0. -1.
        2   -1    0    0  501    0  0.00000000000E+00  0.00000000000E+00 -0.90808421030E+03  0.90808421031E+03  0.25500000920E-02 0.  1.
    10030    2    1    2    0    0  0.00000000000E+00  0.00000000000E+00 -0.28554262972E+03  0.15306257909E+04  0.15037555381E+04 0.  0.
        4    1    3    3  502    0 -0.42716818371E+02 -0.48031376016E+03  0.44441857996E+03  0.65577093705E+03  0.12699999809E+01 0. -1.
       -4    1    3    3    0  502  0.42716818371E+02  0.48031376016E+03 -0.72996120967E+03  0.87485485385E+03  0.12699999809E+01 0.  1.
</event>
<event>
 5   0  0.1426929E-04  0.1504845E+04  0.7818609E-02  0.8881238E-01
       -1   -1    0    0    0  501  0.00000000000E+00  0.00000000000E+00  0.46756892117E+03  0.46756892120E+03  0.50400001928E-02 0. -1.
        1   -1    0    0  501    0  0.00000000000E+00  0.00000000000E+00 -0.12108147111E+04  0.12108147111E+04  0.50400001928E-02 0.  1.
    10030    2    1    2    0    0  0.00000000000E+00  0.00000000000E+00 -0.74324578993E+03  0.16783836323E+04  0.15048446142E+04 0.  0.
        1    1    3    3  502    0 -0.31580556699E+03 -0.25895666237E+03 -0.10764378768E+04  0.11513080439E+04  0.50400001928E-02 0.  1.
       -1    1    3    3    0  502  0.31580556699E+03  0.25895666237E+03  0.33319208692E+03  0.52707558845E+03  0.50400001928E-02 0. -1.
</event>
<event>
 5   0  0.2734072E-04  0.1488571E+04  0.7818609E-02  0.8892089E-01
        2   -1    0    0  501    0  0.00000000000E+00  0.00000000000E+00  0.12743658289E+04  0.12743658289E+04  0.25500000920E-02 0.  1.
       -2   -1    0    0    0  501  0.00000000000E+00  0.00000000000E+00 -0.43469510123E+03  0.43469510124E+03  0.25500000920E-02 0. -1.
    10030    2    1    2    0    0  0.00000000000E+00  0.00000000000E+00  0.83967072771E+03  0.17090609302E+04  0.14885705667E+04 0.  0.
        5    1    3    3  502    0 -0.68803897192E+02  0.69547353406E+03  0.71372119137E+03  0.99891813571E+03  0.46999998093E+01 0.  1.
       -5    1    3    3    0  502  0.68803897192E+02 -0.69547353406E+03  0.12594953635E+03  0.71014279448E+03  0.46999998093E+01 0. -1.
</event>
<event>
 5   0  0.2734072E-04  0.1495501E+04  0.7818609E-02  0.8887450E-01
        2   -1    0    0  501    0  0.00000000000E+00  0.00000000000E+00  0.21365474699E+04  0.21365474699E+04  0.25500000920E-02 0.  1.
       -2   -1    0    0    0  501  0.00000000000E+00  0.00000000000E+00 -0.26169814258E+03  0.26169814260E+03  0.25500000920E-02 0. -1.
    10030    2    1    2    0    0  0.00000000000E+00  0.00000000000E+00  0.18748493273E+04  0.23982456125E+04  0.14955005910E+04 0.  0.
        5    1    3    3  502    0 -0.31090735878E+03  0.37819210703E+03  0.31096993739E+02  0.49059328224E+03  0.46999998093E+01 0. -1.
       -5    1    3    3    0  502  0.31090735878E+03 -0.37819210703E+03  0.18437523336E+04  0.19076523303E+04  0.46999998093E+01 0.  1.
</event>
<event>
 5   0  0.2696040E-04  0.1498827E+04  0.7818609E-02  0.8885233E-01
        2   -1    0    0  501    0  0.00000000000E+00  0.00000000000E+00  0.10557032294E+04  0.10557032294E+04  0.25500000920E-02 0. -1.
       -2   -1    0    0    0  501  0.00000000000E+00  0.00000000000E+00 -0.53198744514E+03  0.53198744515E+03  0.25500000920E-02 0.  1.
    10030    2    1    2    0    0  0.00000000000E+00  0.00000000000E+00  0.52371578430E+03  0.15876906746E+04  0.14988273601E+04 0.  0.
        2    1    3    3  502    0  0.56552339075E+03 -0.22563299735E+03 -0.20096018873E+03  0.64118012480E+03  0.25500000920E-02 0.  1.
       -2    1    3    3    0  502 -0.56552339075E+03  0.22563299735E+03  0.72467597303E+03  0.94651054979E+03  0.25500000920E-02 0. -1.
</event>
<event>
 5   0  0.2696040E-04  0.1518454E+04  0.7818609E-02  0.8872273E-01
       -2   -1    0    0    0  501  0.00000000000E+00  0.00000000000E+00  0.41466657574E+03  0.41466657575E+03  0.25500000920E-02 0.  1.
        2   -1    0    0  501    0  0.00000000000E+00  0.00000000000E+00 -0.13900943522E+04  0.13900943522E+04  0.25500000920E-02 0. -1.
    10030    2    1    2    0    0  0.00000000000E+00  0.00000000000E+00 -0.97542777641E+03  0.18047609279E+04  0.15184540361E+04 0.  0.
        2    1    3    3  502    0  0.68605865956E+03  0.99933149828E+02 -0.85551740058E+03  0.11011689886E+04  0.25500000920E-02 0. -1.
       -2    1    3    3    0  502 -0.68605865956E+03 -0.99933149828E+02 -0.11991037583E+03  0.70359193929E+03  0.25500000920E-02 0.  1.
</event>
<event>
 5   0  0.2618901E-04  0.1496416E+04  0.7818609E-02  0.8886840E-01
        2   -1    0    0  501    0  0.00000000000E+00  0.00000000000E+00  0.11044181245E+04  0.11044181245E+04  0.25500000920E-02 0. -1.
       -2   -1    0    0    0  501  0.00000000000E+00  0.00000000000E+00 -0.50688715490E+03  0.50688715490E+03  0.25500000920E-02 0.  1.
    10030    2    1    2    0    0  0.00000000000E+00  0.00000000000E+00  0.59753096961E+03  0.16113052794E+04  0.14964162001E+04 0.  0.
        1    1    3    3  502    0  0.32373434412E+03 -0.19210506694E+03 -0.39749089720E+03  0.54745529104E+03  0.50400001928E-02 0.  1.
       -1    1    3    3    0  502 -0.32373434412E+03  0.19210506694E+03  0.99502186681E+03  0.10638499884E+04  0.50400001928E-02 0. -1.
</event>
<event>
 5   0  0.1474203E-04  0.1482992E+04  0.7818609E-02  0.8895843E-01
        1   -1    0    0  501    0  0.00000000000E+00  0.00000000000E+00  0.25560335068E+04  0.25560335069E+04  0.50400001928E-02 0.  1.
       -1   -1    0    0    0  501  0.00000000000E+00  0.00000000000E+00 -0.21510520621E+03  0.21510520627E+03  0.50400001928E-02 0. -1.
    10030    2    1    2    0    0  0.00000000000E+00  0.00000000000E+00  0.23409283006E+04  0.27711387131E+04  0.14829917258E+04 0.  0.
        3    1    3    3  502    0 -0.58962393690E+03  0.20475942401E+02  0.20097618518E+04  0.20945687772E+04  0.10100000352E+00 0.  1.
       -3    1    3    3    0  502  0.58962393690E+03 -0.20475942401E+02  0.33116644882E+03  0.67656993593E+03  0.10100000352E+00 0. -1.
</event>
<event>
 5   0  0.1474203E-04  0.1501117E+04  0.7818609E-02  0.8883711E-01
        1   -1    0    0  501    0  0.00000000000E+00  0.00000000000E+00  0.88231889560E+03  0.88231889562E+03  0.50400001928E-02 0. -1.
       -1   -1    0    0    0  501  0.00000000000E+00  0.00000000000E+00 -0.63847427780E+03  0.63847427782E+03  0.50400001928E-02 0.  1.
    10030    2    1    2    0    0  0.00000000000E+00  0.00000000000E+00  0.24384461780E+03  0.15207931734E+04  0.15011168105E+04 0.  0.
        3    1    3    3  502    0  0.53747891916E+03  0.28040261298E+02  0.65191237126E+03  0.84537541649E+03  0.10100000352E+00 0. -1.
       -3    1    3    3    0  502 -0.53747891916E+03 -0.28040261298E+02 -0.40806775345E+03  0.67541775695E+03  0.10100000352E+00 0.  1.
</event>
<event>
 5   0  0.1004313E-04  0.1497609E+04  0.7818609E-02  0.8886045E-01
       -3   -1    0    0    0  501  0.00000000000E+00  0.00000000000E+00  0.12680264970E+04  0.12680265010E+04  0.10100000352E+00 0.  1.
        3   -1    0    0  501    0  0.00000000000E+00  0.00000000000E+00 -0.44218959087E+03  0.44218960241E+03  0.10100000352E+00 0. -1.
    10030    2    1    2    0    0  0.00000000000E+00  0.00000000000E+00  0.82583690609E+03  0.17102161034E+04  0.14976089359E+04 0.  0.
        1    1    3    3  502    0 -0.62852741190E+03 -0.24970504653E+03  0.45871810907E+02  0.67786690496E+03  0.50400001928E-02 0. -1.
       -1    1    3    3    0  502  0.62852741190E+03  0.24970504653E+03  0.77996509518E+03  0.10323491984E+04  0.50400001928E-02 0.  1.
</event>
<event>
 5   0  0.2646718E-04  0.1477683E+04  0.7818609E-02  0.8899431E-01
       -2   -1    0    0    0  501  0.00000000000E+00  0.00000000000E+00  0.56530713569E+03  0.56530713569E+03  0.25500000920E-02 0.  1.
        2   -1    0    0  501    0  0.00000000000E+00  0.00000000000E+00 -0.96564577142E+03  0.96564577142E+03  0.25500000920E-02 0. -1.
    10030    2    1    2    0    0  0.00000000000E+00  0.00000000000E+00 -0.40033863573E+03  0.15309529071E+04  0.14776825710E+04 0.  0.
        3    1    3    3  502    0 -0.73299595422E+03 -0.39480950862E+02 -0.28712730609E+03  0.78821565227E+03  0.10100000352E+00 0. -1.
       -3    1    3    3    0  502  0.73299595422E+03  0.39480950862E+02 -0.11321132964E+03  0.74273725485E+03  0.10100000352E+00 0.  1.
</event>
<event>
 5   0  0.1426929E-04  0.1404344E+04  0.7818609E-02  0.8950680E-01
       -1   -1    0    0    0  501  0.00000000000E+00  0.00000000000E+00  0.35316669446E+03  0.35316669450E+03  0.50400001928E-02 0. -1.
        1   -1    0    0  501    0  0.00000000000E+00  0.00000000000E+00 -0.13960700760E+04  0.13960700760E+04  0.50400001928E-02 0.  1.
    10030    2    1    2    0    0  0.00000000000E+00  0.00000000000E+00 -0.10429033816E+04  0.17492367705E+04  0.14043439095E+04 0.  0.
        1    1    3    3  502    0 -0.69207241310E+03 -0.42294323434E+02 -0.65955173093E+03  0.95695429387E+03  0.50400001928E-02 0.  1.
       -1    1    3    3    0  502  0.69207241310E+03  0.42294323434E+02 -0.38335165064E+03  0.79228247667E+03  0.50400001928E-02 0. -1.
</event>
<event>
 5   0  0.2696040E-04  0.1468448E+04  0.7818609E-02  0.8905710E-01
       -2   -1    0    0    0  501  0.00000000000E+00  0.00000000000E+00  0.98900336001E+03  0.98900336002E+03  0.25500000920E-02 0. -1.
        2   -1    0    0  501    0  0.00000000000E+00  0.00000000000E+00 -0.54507865935E+03  0.54507865936E+03  0.25500000920E-02 0.  1.
    10030    2    1    2    0    0  0.00000000000E+00  0.00000000000E+00  0.44392470066E+03  0.15340820194E+04  0.14684476505E+04 0.  0.
        2    1    3    3  502    0 -0.95897901329E+01 -0.73080542314E+03  0.29521110482E+03  0.78823735447E+03  0.25500000920E-02 0.  1.
       -2    1    3    3    0  502  0.95897901329E+01  0.73080542314E+03  0.14871359584E+03  0.74584466490E+03  0.25500000920E-02 0. -1.
</event>
<event>
 5   0  0.1427609E-04  0.1485139E+04  0.7818609E-02  0.8894396E-01
        1   -1    0    0  501    0  0.00000000000E+00  0.00000000000E+00  0.60852822003E+03  0.60852822005E+03  0.50400001928E-02 0.  1.
       -1   -1    0    0    0  501  0.00000000000E+00  0.00000000000E+00 -0.90613573446E+03  0.90613573447E+03  0.50400001928E-02 0. -1.
    10030    2    1    2    0    0  0.00000000000E+00  0.00000000000E+00 -0.29760751443E+03  0.15146639545E+04  0.14851386004E+04 0.  0.
        4    1    3    3  502    0  0.32666488794E+03 -0.48092545442E+03 -0.61994917170E+03  0.84990460059E+03  0.12699999809E+01 0. -1.
       -4    1    3    3    0  502 -0.32666488794E+03  0.48092545442E+03  0.32234165727E+03  0.66475935393E+03  0.12699999809E+01 0.  1.
</event>
<event>
 5   0  0.1426929E-04  0.1514067E+04  0.7818609E-02  0.8875152E-01
        1   -1    0    0  501    0  0.00000000000E+00  0.00000000000E+00  0.10273798711E+04  0.10273798711E+04  0.50400001928E-02 0. -1.
       -1   -1    0    0    0  501  0.00000000000E+00  0.00000000000E+00 -0.55782623382E+03  0.55782623384E+03  0.50400001928E-02 0.  1.
    10030    2    1    2    0    0  0.00000000000E+00  0.00000000000E+00  0.46955363731E+03  0.15852061050E+04  0.15140666356E+04 0.  0.
        1    1    3    3  502    0 -0.15167829015E+03 -0.32399084731E+02 -0.54101304399E+03  0.56280646601E+03  0.50400001928E-02 0.  1.
       -1    1    3    3    0  502  0.15167829015E+03  0.32399084731E+02  0.10105666813E+04  0.10223996390E+04  0.50400001928E-02 0. -1.
</event>
<event>
 5   0  0.1443750E-04  0.1493636E+04  0.7818609E-02  0.8888696E-01
       -1   -1    0    0    0  501  0.00000000000E+00  0.00000000000E+00  0.60266276182E+03  0.60266276184E+03  0.50400001928E-02 0. -1.
        1   -1    0    0  501    0  0.00000000000E+00  0.00000000000E+00 -0.92545510892E+03  0.92545510894E+03  0.50400001928E-02 0.  1.
    10030    2    1    2    0    0  0.00000000000E+00  0.00000000000E+00 -0.32279234710E+03  0.15281178708E+04  0.14936362769E+04 0.  0.
        2    1    3    3  502    0 -0.21728881273E+03  0.62753667119E+03 -0.51092726512E+03  0.83789221984E+03  0.25500000920E-02 0.  1.
       -2    1    3    3    0  502  0.21728881273E+03 -0.62753667119E+03  0.18813491802E+03  0.69022565093E+03  0.25500000920E-02 0. -1.
</event>
<event>
 5   0  0.1474203E-04  0.1501551E+04  0.7818609E-02  0.8883422E-01
        1   -1    0    0  501    0  0.00000000000E+00  0.00000000000E+00  0.75078689497E+03  0.75078689498E+03  0.50400001928E-02 0.  1.
       -1   -1    0    0    0  501  0.00000000000E+00  0.00000000000E+00 -0.75076410665E+03  0.75076410666E+03  0.50400001928E-02 0. -1.
    10030    2    1    2    0    0  0.00000000000E+00  0.00000000000E+00  0.22788318885E-01  0.15015510016E+04  0.15015510015E+04 0.  0.
        3    1    3    3  502    0  0.10494405721E+03  0.72740555825E+03 -0.15338919579E+03  0.75077317274E+03  0.10100000352E+00 0. -1.
       -3    1    3    3    0  502 -0.10494405721E+03 -0.72740555825E+03  0.15341198411E+03  0.75077782891E+03  0.10100000352E+00 0.  1.
</event>
<event>
 5   0  0.2641347E-04  0.1495837E+04  0.7818609E-02  0.8887226E-01
       -2   -1    0    0    0  501  0.00000000000E+00  0.00000000000E+00  0.23777566639E+03  0.23777566640E+03  0.25500000920E-02 0.  1.
        2   -1    0    0  501    0  0.00000000000E+00  0.00000000000E+00 -0.23525637021E+04  0.23525637021E+04  0.25500000920E-02 0. -1.
    10030    2    1    2    0    0  0.00000000000E+00  0.00000000000E+00 -0.21147880357E+04  0.25903393685E+04  0.14958374270E+04 0.  0.
        4    1    3    3  502    0 -0.68426910733E+03 -0.70453417520E+02 -0.54899113839E+03  0.88010270890E+03  0.12699999809E+01 0.  1.
       -4    1    3    3    0  502  0.68426910733E+03  0.70453417520E+02 -0.15657968973E+04  0.17102366596E+04  0.12699999809E+01 0. -1.
</event>
<event>
 5   0  0.2641347E-04  0.1498303E+04  0.7818609E-02  0.8885582E-01
       -2   -1    0    0    0  501  0.00000000000E+00  0.00000000000E+00  0.11519971458E+04  0.11519971458E+04  0.25500000920E-02 0. -1.
        2   -1    0    0  501    0  0.00000000000E+00  0.00000000000E+00 -0.48717857627E+03  0.48717857628E+03  0.25500000920E-02 0.  1.
    10030    2    1    2    0    0  0.00000000000E+00  0.00000000000E+00  0.66481856956E+03  0.16391757221E+04  0.14983034798E+04 0.  0.
        4    1    3    3  502    0  0.87833345549E+01 -0.48522502956E+03 -0.29195602393E+03  0.56635713917E+03  0.12699999809E+01 0.  1.
       -4    1    3    3    0  502 -0.87833345549E+01  0.48522502956E+03  0.95677459349E+03  0.10728185829E+04  0.12699999809E+01 0. -1.
</event>
<event>
 5   0  0.1443750E-04  0.1439602E+04  0.7818609E-02  0.8925641E-01
        1   -1    0    0  501    0  0.00000000000E+00  0.00000000000E+00  0.61289090350E+03  0.61289090352E+03  0.50400001928E-02 0. -1.
       -1   -1    0    0    0  501  0.00000000000E+00  0.00000000000E+00 -0.84536024096E+03  0.84536024098E+03  0.50400001928E-02 0.  1.
    10030    2    1    2    0    0  0.00000000000E+00  0.00000000000E+00 -0.23246933746E+03  0.14582511445E+04  0.14396021699E+04 0.  0.
        2    1    3    3  502    0  0.15183900294E+03  0.51125963534E+03  0.37342379783E+03  0.65106591858E+03  0.25500000920E-02 0. -1.
       -2    1    3    3    0  502 -0.15183900294E+03 -0.51125963534E+03 -0.60589313529E+03  0.80718522592E+03  0.25500000920E-02 0.  1.
</event>
<event>
 5   0  0.2641347E-04  0.1501705E+04  0.7818609E-02  0.8883320E-01
       -2   -1    0    0    0  501  0.00000000000E+00  0.00000000000E+00  0.62539614365E+03  0.62539614366E+03  0.25500000920E-02 0. -1.
        2   -1    0    0  501    0  0.00000000000E+00  0.00000000000E+00 -0.90147520803E+03  0.90147520803E+03  0.25500000920E-02 0.  1.
    10030    2    1    2    0    0  0.00000000000E+00  0.00000000000E+00 -0.27607906437E+03  0.15268713517E+04  0.15017045231E+04 0.  0.
        4    1    3    3  502    0 -0.60679224037E+03 -0.32682431779E+03  0.16489070413E+03  0.70866177749E+03  0.12699999809E+01 0.  1.
       -4    1    3    3    0  502  0.60679224037E+03  0.32682431779E+03 -0.44096976850E+03  0.81820957420E+03  0.12699999809E+01 0. -1.
</event>
<event>
 5   0  0.2618901E-04  0.1498244E+04  0.7818609E-02  0.8885621E-01
       -2   -1    0    0    0  501  0.00000000000E+00  0.00000000000E+00  0.46639347408E+03  0.46639347409E+03  0.25500000920E-02 0. -1.
        2   -1    0    0  501    0  0.00000000000E+00  0.00000000000E+00 -0.12032412846E+04  0.12032412846E+04  0.25500000920E-02 0.  1.
    10030    2    1    2    0    0  0.00000000000E+00  0.00000000000E+00 -0.73684781054E+03  0.16696347587E+04  0.14982441495E+04 0.  0.
        1    1    3    3  502    0  0.11685915319E+03  0.53919451849E+03  0.19629709473E+03  0.58559315218E+03  0.50400001928E-02 0. -1.
       -1    1    3    3    0  502 -0.11685915319E+03 -0.53919451849E+03 -0.93314490527E+03  0.10840416065E+04  0.50400001928E-02 0.  1.
</event>
<event>
 5   0  0.2641347E-04  0.1504293E+04  0.7818609E-02  0.8881603E-01
        2   -1    0    0  501    0  0.00000000000E+00  0.00000000000E+00  0.52461139408E+03  0.52461139408E+03  0.25500000920E-02 0.  1.
       -2   -1    0    0    0  501  0.00000000000E+00  0.00000000000E+00 -0.10783689314E+04  0.10783689314E+04  0.25500000920E-02 0. -1.
    10030    2    1    2    0    0  0.00000000000E+00  0.00000000000E+00 -0.55375753729E+03  0.16029803255E+04  0.15042933602E+04 0.  0.
        4    1    3    3  502    0  0.39152920124E+03 -0.42097368187E+03  0.23992143468E+03  0.62295895850E+03  0.12699999809E+01 0.  1.
       -4    1    3    3    0  502 -0.39152920124E+03  0.42097368187E+03 -0.79367897197E+03  0.98002136696E+03  0.12699999809E+01 0. -1.
</event>
<event>
 5   0  0.1474203E-04  0.1500648E+04  0.7818609E-02  0.8884022E-01
       -1   -1    0    0    0  501  0.00000000000E+00  0.00000000000E+00  0.37562774767E+03  0.37562774770E+03  0.50400001928E-02 0. -1.
        1   -1    0    0  501    0  0.00000000000E+00  0.00000000000E+00 -0.14987875829E+04  0.14987875829E+04  0.50400001928E-02 0.  1.
    10030    2    1    2    0    0  0.00000000000E+00  0.00000000000E+00 -0.11231598352E+04  0.18744153306E+04  0.15006481320E+04 0.  0.
        3    1    3    3  502    0  0.44611289830E+02  0.58150019989E+03  0.28073375495E+02  0.58388421307E+03  0.10100000352E+00 0.  1.
       -3    1    3    3    0  502 -0.44611289830E+02 -0.58150019989E+03 -0.11512332107E+04  0.12905311175E+04  0.10100000352E+00 0. -1.
</event>
<event>
 5   0  0.2734072E-04  0.1507202E+04  0.7818609E-02  0.8879678E-01
       -2   -1    0    0    0  501  0.00000000000E+00  0.00000000000E+00  0.35299953078E+03  0.35299953079E+03  0.25500000920E-02 0.  1.
        2   -1    0    0  501    0  0.00000000000E+00  0.00000000000E+00 -0.16088244740E+04  0.16088244740E+04  0.25500000920E-02 0. -1.
    10030    2    1    2    0    0  0.00000000000E+00  0.00000000000E+00 -0.12558249432E+04  0.19618240048E+04  0.15072017575E+04 0.  0.
        5    1    3    3  502    0  0.19721663758E+03 -0.48120907525E+03  0.81967853643E+02  0.52649538960E+03  0.46999998093E+01 0.  1.
       -5    1    3    3    0  502 -0.19721663758E+03  0.48120907525E+03 -0.13377927968E+04  0.14353286152E+04  0.46999998093E+01 0. -1.
</event>
<event>
 5   0  0.1474203E-04  0.1471120E+04  0.7818609E-02  0.8903888E-01
        1   -1    0    0  501    0  0.00000000000E+00  0.00000000000E+00  0.61673337108E+03  0.61673337110E+03  0.50400001928E-02 0.  1.
       -1   -1    0    0    0  501  0.00000000000E+00  0.00000000000E+00 -0.87728165562E+03  0.87728165563E+03  0.50400001928E-02 0. -1.
    10030    2    1    2    0    0  0.00000000000E+00  0.00000000000E+00 -0.26054828454E+03  0.14940150267E+04  0.14711204884E+04 0.  0.
        3    1    3    3  502    0 -0.71639752651E+03  0.15853779753E+03 -0.77609473262E+02  0.73782307484E+03  0.10100000352E+00 0. -1.
       -3    1    3    3    0  502  0.71639752651E+03 -0.15853779753E+03 -0.18293881127E+03  0.75619195189E+03  0.10100000352E+00 0.  1.
</event>
<event>
 5   0  0.1474203E-04  0.1521386E+04  0.7818609E-02  0.8870355E-01
       -1   -1    0    0    0  501  0.00000000000E+00  0.00000000000E+00  0.62360349539E+03  0.62360349541E+03  0.50400001928E-02 0. -1.
        1   -1    0    0  501    0  0.00000000000E+00  0.00000000000E+00 -0.92791899810E+03  0.92791899811E+03  0.50400001928E-02 0.  1.
    10030    2    1    2    0    0  0.00000000000E+00  0.00000000000E+00 -0.30431550270E+03  0.15515224935E+04  0.15213855930E+04 0.  0.
        3    1    3    3  502    0  0.52978690995E+03  0.26688021115E+03  0.33346222772E+03  0.68051178137E+03  0.10100000352E+00 0. -1.
       -3    1    3    3    0  502 -0.52978690995E+03 -0.26688021115E+03 -0.63777773043E+03  0.87101071216E+03  0.10100000352E+00 0.  1.
</event>
<event>
 5   0  0.2646718E-04  0.1499864E+04  0.7818609E-02  0.8884543E-01
       -2   -1    0    0    0  501  0.00000000000E+00  0.00000000000E+00  0.81084448942E+03  0.81084448943E+03  0.25500000920E-02 0.  1.
        2   -1    0    0  501    0  0.00000000000E+00  0.00000000000E+00 -0.69359581468E+03  0.69359581469E+03  0.25500000920E-02 0. -1.
    10030    2    1    2    0    0  0.00000000000E+00  0.00000000000E+00  0.11724867474E+03  0.15044403041E+04  0.14998644528E+04 0.  0.
        3    1    3    3  502    0  0.46532310235E+03 -0.52392888963E+03 -0.20934471387E+03  0.73133596274E+03  0.10100000352E+00 0. -1.
       -3    1    3    3    0  502 -0.46532310235E+03  0.52392888963E+03  0.32659338861E+03  0.77310434138E+03  0.10100000352E+00 0.  1.
</event>
<event>
 5   0  0.1426929E-04  0.1494096E+04  0.7818609E-02  0.8888389E-01
       -1   -1    0    0    0  501  0.00000000000E+00  0.00000000000E+00  0.50126440499E+03  0.50126440502E+03  0.50400001928E-02 0.  1.
        1   -1    0    0  501    0  0.00000000000E+00  0.00000000000E+00 -0.11133452819E+04  0.11133452820E+04  0.50400001928E-02 0. -1.
    10030    2    1    2    0    0  0.00000000000E+00  0.00000000000E+00 -0.61208087695E+03  0.16146096870E+04  0.14940955262E+04 0.  0.
        1    1    3    3  502    0  0.48426405498E+03  0.54004524160E+03 -0.49911249453E+03  0.88049634874E+03  0.50400001928E-02 0.  1.
       -1    1    3    3    0  502 -0.48426405498E+03 -0.54004524160E+03 -0.11296838242E+03  0.73411333823E+03  0.50400001928E-02 0. -1.
</event>
<event>
 5   0  0.1427609E-04  0.1441837E+04  0.7818609E-02  0.8924080E-01
       -1   -1    0    0    0  501  0.00000000000E+00  0.00000000000E+00  0.57873789862E+03  0.57873789864E+03  0.50400001928E-02 0. -1.
        1   -1    0    0  501    0  0.00000000000E+00  0.00000000000E+00 -0.89802883846E+03  0.89802883847E+03  0.50400001928E-02 0.  1.
    10030    2    1    2    0    0  0.00000000000E+00  0.00000000000E+00 -0.31929093983E+03  0.14767667371E+04  0.14418367770E+04 0.  0.
        4    1    3    3  502    0  0.25044939947E+03 -0.13870812584E+03 -0.83730614658E+03  0.88490001801E+03  0.12699999809E+01 0.  1.
       -4    1    3    3    0  502 -0.25044939947E+03  0.13870812584E+03  0.51801520675E+03  0.59186671911E+03  0.12699999809E+01 0. -1.
</event>
<event>
 5   0  0.1484251E-04  0.1496758E+04  0.7818609E-02  0.8886612E-01
        1   -1    0    0  501    0  0.00000000000E+00  0.00000000000E+00  0.97169999671E+03  0.97169999673E+03  0.50400001928E-02 0.  1.
       -1   -1    0    0    0  501  0.00000000000E+00  0.00000000000E+00 -0.57638273775E+03  0.57638273778E+03  0.50400001928E-02 0. -1.
    10030    2    1    2    0    0  0.00000000000E+00  0.00000000000E+00  0.39531725896E+03  0.15480827345E+04  0.14967579690E+04 0.  0.
        5    1    3    3  502    0 -0.15380585931E+03 -0.51404632597E+03 -0.34190923555E+03  0.63625771740E+03  0.46999998093E+01 0. -1.
       -5    1    3    3    0  502  0.15380585931E+03  0.51404632597E+03  0.73722649451E+03  0.91182501710E+03  0.46999998093E+01 0.  1.
</event>
<event>
 5   0  0.1427609E-04  0.1452217E+04  0.7818609E-02  0.8916865E-01
        1   -1    0    0  501    0  0.00000000000E+00  0.00000000000E+00  0.12620748956E+04  0.12620748956E+04  0.50400001928E-02 0. -1.
       -1   -1    0    0    0  501  0.00000000000E+00  0.00000000000E+00 -0.41775163382E+03  0.41775163385E+03  0.50400001928E-02 0.  1.
    10030    2    1    2    0    0  0.00000000000E+00  0.00000000000E+00  0.84432326175E+03  0.16798265294E+04  0.14522174075E+04 0.  0.
        4    1    3    3  502    0  0.39704547410E+03  0.55291085520E+03  0.71451229340E+03  0.98685609520E+03  0.12699999809E+01 0.  1.
       -4    1    3    3    0  502 -0.39704547410E+03 -0.55291085520E+03  0.12981096834E+03  0.69297043422E+03  0.12699999809E+01 0. -1.
</event>
<event>
 5   0  0.1426929E-04  0.1480924E+04  0.7818609E-02  0.8897239E-01
       -1   -1    0    0    0  501  0.00000000000E+00  0.00000000000E+00  0.21656359761E+03  0.21656359767E+03  0.50400001928E-02 0. -1.
        1   -1    0    0  501    0  0.00000000000E+00  0.00000000000E+00 -0.25317441491E+04  0.25317441491E+04  0.50400001928E-02 0.  1.
    10030    2    1    2    0    0  0.00000000000E+00  0.00000000000E+00 -0.23151805514E+04  0.27483077467E+04  0.14809235243E+04 0.  0.
        1    1    3    3  502    0  0.41191226334E+02 -0.70421973844E+03 -0.73988342478E+03  0.10222766942E+04  0.50400001928E-02 0.  1.
       -1    1    3    3    0  502 -0.41191226334E+02  0.70421973844E+03 -0.15752971267E+04  0.17260310526E+04  0.50400001928E-02 0. -1.
</event>
<event>
 5   0  0.2641347E-04  0.1496068E+04  0.7818609E-02  0.8887072E-01
       -2   -1    0    0    0  501  0.00000000000E+00  0.00000000000E+00  0.49923768306E+03  0.49923768306E+03  0.25500000920E-02 0. -1.
        2   -1    0    0  501    0  0.00000000000E+00  0.00000000000E+00 -0.11208187654E+04  0.11208187654E+04  0.25500000920E-02 0.  1.
    10030    2    1    2    0    0  0.00000000000E+00  0.00000000000E+00 -0.62158108236E+03  0.16200564485E+04  0.14960681316E+04 0.  0.
        4    1    3    3  502    0 -0.10971877133E+03 -0.42935274055E+03 -0.96337176651E+03  0.10604097123E+04  0.12699999809E+01 0.  1.
       -4    1    3    3    0  502  0.10971877133E+03  0.42935274055E+03  0.34179068416E+03  0.55964673614E+03  0.12699999809E+01 0. -1.
</event>
<event>
 5   0  0.1427609E-04  0.1495246E+04  0.7818609E-02  0.8887620E-01
       -1   -1    0    0    0  501  0.00000000000E+00  0.00000000000E+00  0.17019487785E+04  0.17019487786E+04  0.50400001928E-02 0. -1.
        1   -1    0    0  501    0  0.00000000000E+00  0.00000000000E+00 -0.32841191794E+03  0.32841191798E+03  0.50400001928E-02 0.  1.
    10030    2    1    2    0    0  0.00000000000E+00  0.00000000000E+00  0.13735368606E+04  0.20303606965E+04  0.14952461505E+04 0.  0.
        4    1    3    3  502    0 -0.13952898072E+03 -0.22306392899E+03 -0.26346702592E+03  0.37234706864E+03  0.12699999809E+01 0.  1.
       -4    1    3    3    0  502  0.13952898072E+03  0.22306392899E+03  0.16370038865E+04  0.16580136279E+04  0.12699999809E+01 0. -1.
</event>
<event>
 5   0  0.1427609E-04  0.1498415E+04  0.7818609E-02  0.8885508E-01
       -1   -1    0    0    0  501  0.00000000000E+00  0.00000000000E+00  0.94133446509E+03  0.94133446511E+03  0.50400001928E-02 0.  1.
        1   -1    0    0  501    0  0.00000000000E+00  0.00000000000E+00 -0.59629360366E+03  0.59629360368E+03  0.50400001928E-02 0. -1.
    10030    2    1    2    0    0  0.00000000000E+00  0.00000000000E+00  0.34504086143E+03  0.15376280688E+04  0.14984147897E+04 0.  0.
        4    1    3    3  502    0 -0.65816460017E+03 -0.14464316387E+03 -0.16347431307E+03  0.69341744260E+03  0.12699999809E+01 0. -1.
       -4    1    3    3    0  502  0.65816460017E+03  0.14464316387E+03  0.50851517450E+03  0.84421062619E+03  0.12699999809E+01 0.  1.
</event>
<event>
 5   0  0.1474203E-04  0.1496241E+04  0.7818609E-02  0.8886956E-01
        1   -1    0    0  501    0  0.00000000000E+00  0.00000000000E+00  0.11655362443E+04  0.11655362444E+04  0.50400001928E-02 0. -1.
       -1   -1    0    0    0  501  0.00000000000E+00  0.00000000000E+00 -0.48019475921E+03  0.48019475924E+03  0.50400001928E-02 0.  1.
    10030    2    1    2    0    0  0.00000000000E+00  0.00000000000E+00  0.68534148514E+03  0.16457310036E+04  0.14962411520E+04 0.  0.
        3    1    3    3  502    0  0.20377736040E+03 -0.71700511652E+03  0.27256204194E+03  0.79366972138E+03  0.10100000352E+00 0.  1.
       -3    1    3    3    0  502 -0.20377736040E+03  0.71700511652E+03  0.41277944320E+03  0.85206128222E+03  0.10100000352E+00 0. -1.
</event>
<event>
 5   0  0.1474203E-04  0.1516208E+04  0.7818609E-02  0.8873746E-01
        1   -1    0    0  501    0  0.00000000000E+00  0.00000000000E+00  0.64145076232E+03  0.64145076234E+03  0.50400001928E-02 0.  1.
       -1   -1    0    0    0  501  0.00000000000E+00  0.00000000000E+00 -0.89597124154E+03  0.89597124155E+03  0.50400001928E-02 0. -1.
    10030    2    1    2    0    0  0.00000000000E+00  0.00000000000E+00 -0.25452047922E+03  0.15374220039E+04  0.15162076849E+04 0.  0.
        3    1    3    3  502    0  0.11938010194E+03 -0.11850811440E+03  0.62228859848E+03  0.64462306189E+03  0.10100000352E+00 0.  1.
       -3    1    3    3    0  502 -0.11938010194E+03  0.11850811440E+03 -0.87680907770E+03  0.89279894201E+03  0.10100000352E+00 0. -1.
</event>
<event>
 5   0  0.2641347E-04  0.1507076E+04  0.7818609E-02  0.8879761E-01
       -2   -1    0    0    0  501  0.00000000000E+00  0.00000000000E+00  0.32809730805E+03  0.32809730806E+03  0.25500000920E-02 0.  1.
        2   -1    0    0  501    0  0.00000000000E+00  0.00000000000E+00 -0.17306428504E+04  0.17306428504E+04  0.25500000920E-02 0. -1.
    10030    2    1    2    0    0  0.00000000000E+00  0.00000000000E+00 -0.14025455423E+04  0.20587401585E+04  0.15070756589E+04 0.  0.
        4    1    3    3  502    0 -0.74499848432E+03 -0.71046723362E+02 -0.82151050935E+03  0.11112837209E+04  0.12699999809E+01 0. -1.
       -4    1    3    3    0  502  0.74499848432E+03  0.71046723362E+02 -0.58103503300E+03  0.94745643753E+03  0.12699999809E+01 0.  1.
</event>
<event>
 5   0  0.1443750E-04  0.1493988E+04  0.7818609E-02  0.8888460E-01
        1   -1    0    0  501    0  0.00000000000E+00  0.00000000000E+00  0.11182514117E+04  0.11182514117E+04  0.50400001928E-02 0. -1.
       -1   -1    0    0    0  501  0.00000000000E+00  0.00000000000E+00 -0.49899367785E+03  0.49899367788E+03  0.50400001928E-02 0.  1.
    10030    2    1    2    0    0  0.00000000000E+00  0.00000000000E+00  0.61925773385E+03  0.16172450896E+04  0.14939884668E+04 0.  0.
        2    1    3    3  502    0 -0.33217014898E+03  0.27122012429E+03  0.97172980619E+03  0.10621469672E+04  0.25500000920E-02 0. -1.
       -2    1    3    3    0  502  0.33217014898E+03 -0.27122012429E+03 -0.35247207234E+03  0.55509812239E+03  0.25500000920E-02 0.  1.
</event>
<event>
 5   0  0.1427609E-04  0.1489267E+04  0.7818609E-02  0.8891622E-01
       -1   -1    0    0    0  501  0.00000000000E+00  0.00000000000E+00  0.52263679186E+03  0.52263679189E+03  0.50400001928E-02 0. -1.
        1   -1    0    0  501    0  0.00000000000E+00  0.00000000000E+00 -0.10609264518E+04  0.10609264519E+04  0.50400001928E-02 0.  1.
    10030    2    1    2    0    0  0.00000000000E+00  0.00000000000E+00 -0.53828965998E+03  0.15835632437E+04  0.14892671986E+04 0.  0.
        4    1    3    3  502    0  0.40042939147E+03  0.62757029986E+03 -0.25105576256E+03  0.78563273075E+03  0.12699999809E+01 0.  1.
       -4    1    3    3    0  502 -0.40042939147E+03 -0.62757029986E+03 -0.28723389742E+03  0.79793051298E+03  0.12699999809E+01 0. -1.
</event>
<event>
 5   0  0.2641347E-04  0.1497970E+04  0.7818609E-02  0.8885804E-01
       -2   -1    0    0    0  501  0.00000000000E+00  0.00000000000E+00  0.37473127273E+03  0.37473127274E+03  0.25500000920E-02 0.  1.
        2   -1    0    0  501    0  0.00000000000E+00  0.00000000000E+00 -0.14970163376E+04  0.14970163376E+04  0.25500000920E-02 0. -1.
    10030    2    1    2    0    0  0.00000000000E+00  0.00000000000E+00 -0.11222850649E+04  0.18717476103E+04  0.14979704103E+04 0.  0.
        4    1    3    3  502    0 -0.27365699214E+03  0.33324458902E+03  0.20406842379E+03  0.47705936732E+03  0.12699999809E+01 0.  1.
       -4    1    3    3    0  502  0.27365699214E+03 -0.33324458902E+03 -0.13263534887E+04  0.13946882430E+04  0.12699999809E+01 0. -1.
</event>
<event>
 5   0  0.2734072E-04  0.1518281E+04  0.7818609E-02  0.8872387E-01
        2   -1    0    0  501    0  0.00000000000E+00  0.00000000000E+00  0.12368782680E+04  0.12368782680E+04  0.25500000920E-02 0. -1.
       -2   -1    0    0    0  501  0.00000000000E+00  0.00000000000E+00 -0.46592627638E+03  0.46592627639E+03  0.25500000920E-02 0.  1.
    10030    2    1    2    0    0  0.00000000000E+00  0.00000000000E+00  0.77095199160E+03  0.17028045444E+04  0.15182807194E+04 0.  0.
        5    1    3    3  502    0 -0.71460458692E+03  0.24886078510E+03  0.45351711197E+03  0.88220817659E+03  0.46999998093E+01 0.  1.
       -5    1    3    3    0  502  0.71460458692E+03 -0.24886078510E+03  0.31743487963E+03  0.82059636778E+03  0.46999998093E+01 0. -1.
</event>
<event>
 5   0  0.1427609E-04  0.1499537E+04  0.7818609E-02  0.8884761E-01
       -1   -1    0    0    0  501  0.00000000000E+00  0.00000000000E+00  0.58366650354E+03  0.58366650356E+03  0.50400001928E-02 0. -1.
        1   -1    0    0  501    0  0.00000000000E+00  0.00000000000E+00 -0.96313982562E+03  0.96313982563E+03  0.50400001928E-02 0.  1.
    10030    2    1    2    0    0  0.00000000000E+00  0.00000000000E+00 -0.37947332207E+03  0.15468063292E+04  0.14995365344E+04 0.  0.
        4    1    3    3  502    0  0.15391213652E+03  0.42158291085E+03  0.42980407391E+03  0.62141310843E+03  0.12699999809E+01 0. -1.
       -4    1    3    3    0  502 -0.15391213652E+03 -0.42158291085E+03 -0.80927739598E+03  0.92539322076E+03  0.12699999809E+01 0.  1.
</event>
<event>
 5   0  0.2641347E-04  0.1496418E+04  0.7818609E-02  0.8886838E-01
        2   -1    0    0  501    0  0.00000000000E+00  0.00000000000E+00  0.12798230715E+04  0.12798230715E+04  0.25500000920E-02 0. -1.
       -2   -1    0    0    0  501  0.00000000000E+00  0.00000000000E+00 -0.43741740347E+03  0.43741740347E+03  0.25500000920E-02 0.  1.
    10030    2    1    2    0    0  0.00000000000E+00  0.00000000000E+00  0.84240566807E+03  0.17172404750E+04  0.14964182368E+04 0.  0.
        4    1    3    3  502    0 -0.24859620700E+03  0.42140126803E+03 -0.22840146352E+03  0.53995179810E+03  0.12699999809E+01 0.  1.
       -4    1    3    3    0  502  0.24859620700E+03 -0.42140126803E+03  0.10708071316E+04  0.11772886769E+04  0.12699999809E+01 0. -1.
</event>
<event>
 5   0  0.2646718E-04  0.1483857E+04  0.7818609E-02  0.8895260E-01
        2   -1    0    0  501    0  0.00000000000E+00  0.00000000000E+00  0.52514919983E+03  0.52514919984E+03  0.25500000920E-02 0.  1.
       -2   -1    0    0    0  501  0.00000000000E+00  0.00000000000E+00 -0.10481928384E+04  0.10481928384E+04  0.25500000920E-02 0. -1.
    10030    2    1    2    0    0  0.00000000000E+00  0.00000000000E+00 -0.52304363857E+03  0.15733420382E+04  0.14838566378E+04 0.  0.
        3    1    3    3  502    0  0.38225020595E+03  0.13039295896E+03  0.39837710432E+03  0.56729346122E+03  0.10100000352E+00 0.  1.
       -3    1    3    3    0  502 -0.38225020595E+03 -0.13039295896E+03 -0.92142074289E+03  0.10060485770E+04  0.10100000352E+00 0. -1.
</event>
<event>
 5   0  0.1484251E-04  0.1499551E+04  0.7818609E-02  0.8884751E-01
        1   -1    0    0  501    0  0.00000000000E+00  0.00000000000E+00  0.14309113931E+04  0.14309113931E+04  0.50400001928E-02 0. -1.
       -1   -1    0    0    0  501  0.00000000000E+00  0.00000000000E+00 -0.39287088140E+03  0.39287088143E+03  0.50400001928E-02 0.  1.
    10030    2    1    2    0    0  0.00000000000E+00  0.00000000000E+00  0.10380405117E+04  0.18237822745E+04  0.14995511598E+04 0.  0.
        5    1    3    3  502    0 -0.56758166308E+03  0.28328811852E+03  0.10051126807E+04  0.11885599241E+04  0.46999998093E+01 0. -1.
       -5    1    3    3    0  502  0.56758166308E+03 -0.28328811852E+03  0.32927830978E+02  0.63522235037E+03  0.46999998093E+01 0.  1.
</event>
<event>
 5   0  0.2696040E-04  0.1499494E+04  0.7818609E-02  0.8884789E-01
        2   -1    0    0  501    0  0.00000000000E+00  0.00000000000E+00  0.14770557070E+04  0.14770557070E+04  0.25500000920E-02 0. -1.
       -2   -1    0    0    0  501  0.00000000000E+00  0.00000000000E+00 -0.38056833958E+03  0.38056833959E+03  0.25500000920E-02 0.  1.
    10030    2    1    2    0    0  0.00000000000E+00  0.00000000000E+00  0.10964873674E+04  0.18576240466E+04  0.14994940985E+04 0.  0.
        2    1    3    3  502    0 -0.56796763074E+03 -0.20895819628E+03 -0.29358297665E-01  0.60518654829E+03  0.25500000920E-02 0.  1.
       -2    1    3    3    0  502  0.56796763074E+03  0.20895819628E+03  0.10965167257E+04  0.12524374983E+04  0.25500000920E-02 0. -1.
</event>
<event>
 5   0  0.1484251E-04  0.1499583E+04  0.7818609E-02  0.8884730E-01
        1   -1    0    0  501    0  0.00000000000E+00  0.00000000000E+00  0.18586120930E+04  0.18586120930E+04  0.50400001928E-02 0. -1.
       -1   -1    0    0    0  501  0.00000000000E+00  0.00000000000E+00 -0.30247687824E+03  0.30247687828E+03  0.50400001928E-02 0.  1.
    10030    2    1    2    0    0  0.00000000000E+00  0.00000000000E+00  0.15561352147E+04  0.21610889713E+04  0.14995828537E+04 0.  0.
        5    1    3    3  502    0  0.29950235655E+02  0.10632017956E+03  0.18468009285E+04  0.18501072285E+04  0.46999998093E+01 0. -1.
       -5    1    3    3    0  502 -0.29950235655E+02 -0.10632017956E+03 -0.29066571378E+03  0.31098174282E+03  0.46999998093E+01 0.  1.
</event>
<event>
 5   0  0.2696040E-04  0.1420357E+04  0.7818609E-02  0.8939214E-01
       -2   -1    0    0    0  501  0.00000000000E+00  0.00000000000E+00  0.89535689452E+03  0.89535689452E+03  0.25500000920E-02 0. -1.
        2   -1    0    0  501    0  0.00000000000E+00  0.00000000000E+00 -0.56329845748E+03  0.56329845749E+03  0.25500000920E-02 0.  1.
    10030    2    1    2    0    0  0.00000000000E+00  0.00000000000E+00  0.33205843703E+03  0.14586553520E+04  0.14203565152E+04 0.  0.
        2    1    3    3  502    0  0.66491564487E+03  0.11528578792E+03  0.39324033968E+03  0.78105159397E+03  0.25500000920E-02 0. -1.
       -2    1    3    3    0  502 -0.66491564487E+03 -0.11528578792E+03 -0.61181902643E+02  0.67760375804E+03  0.25500000920E-02 0.  1.
</event>
<event>
 5   0  0.1474203E-04  0.1499419E+04  0.7818609E-02  0.8884839E-01
        1   -1    0    0  501    0  0.00000000000E+00  0.00000000000E+00  0.85666022321E+03  0.85666022323E+03  0.50400001928E-02 0.  1.
       -1   -1    0    0    0  501  0.00000000000E+00  0.00000000000E+00 -0.65611152522E+03  0.65611152524E+03  0.50400001928E-02 0. -1.
    10030    2    1    2    0    0  0.00000000000E+00  0.00000000000E+00  0.20054869799E+03  0.15127717485E+04  0.14994194152E+04 0.  0.
        3    1    3    3  502    0 -0.17442427452E+03  0.29715103080E+03 -0.57149432678E+03  0.66732925785E+03  0.10100000352E+00 0. -1.
       -3    1    3    3    0  502  0.17442427452E+03 -0.29715103080E+03  0.77204302477E+03  0.84544249062E+03  0.10100000352E+00 0.  1.
</event>
<event>
 5   0  0.2646718E-04  0.1500481E+04  0.7818609E-02  0.8884133E-01
       -2   -1    0    0    0  501  0.00000000000E+00  0.00000000000E+00  0.70315018357E+03  0.70315018357E+03  0.25500000920E-02 0.  1.
        2   -1    0    0  501    0  0.00000000000E+00  0.00000000000E+00 -0.80048458087E+03  0.80048458088E+03  0.25500000920E-02 0. -1.
    10030    2    1    2    0    0  0.00000000000E+00  0.00000000000E+00 -0.97334397307E+02  0.15036347645E+04  0.15004810962E+04 0.  0.
        3    1    3    3  502    0 -0.59376640906E+03 -0.33158416969E+03 -0.36612041791E+03  0.77236699873E+03  0.10100000352E+00 0. -1.
       -3    1    3    3    0  502  0.59376640906E+03  0.33158416969E+03  0.26878602061E+03  0.73126776572E+03  0.10100000352E+00 0.  1.
</event>
<event>
 5   0  0.1443750E-04  0.1494378E+04  0.7818609E-02  0.8888200E-01
       -1   -1    0    0    0  501  0.00000000000E+00  0.00000000000E+00  0.24621868597E+03  0.24621868602E+03  0.50400001928E-02 0. -1.
        1   -1    0    0  501    0  0.00000000000E+00  0.00000000000E+00 -0.22674607540E+04  0.22674607540E+04  0.50400001928E-02 0.  1.
    10030    2    1    2    0    0  0.00000000000E+00  0.00000000000E+00 -0.20212420680E+04  0.25136794400E+04  0.14943777399E+04 0.  0.
        2    1    3    3  502    0  0.14526478014E+01 -0.64790678551E+03 -0.16366344368E+04  0.17602152120E+04  0.25500000920E-02 0. -1.
       -2    1    3    3    0  502 -0.14526478014E+01  0.64790678551E+03 -0.38460763126E+03  0.75346422803E+03  0.25500000920E-02 0.  1.
</event>
<event>
 5   0  0.1426929E-04  0.1488928E+04  0.7818609E-02  0.8891849E-01
        1   -1    0    0  501    0  0.00000000000E+00  0.00000000000E+00  0.24059382150E+03  0.24059382155E+03  0.50400001928E-02 0. -1.
       -1   -1    0    0    0  501  0.00000000000E+00  0.00000000000E+00 -0.23035790306E+04  0.23035790306E+04  0.50400001928E-02 0.  1.
    10030    2    1    2    0    0  0.00000000000E+00  0.00000000000E+00 -0.20629852091E+04  0.25441728522E+04  0.14889283155E+04 0.  0.
        1    1    3    3  502    0 -0.44641651661E+03 -0.37659392840E+03 -0.24266691524E+03  0.63245389159E+03  0.50400001928E-02 0. -1.
       -1    1    3    3    0  502  0.44641651661E+03  0.37659392840E+03 -0.18203182939E+04  0.19117189606E+04  0.50400001928E-02 0.  1.
</event>
<event>
 5   0  0.2696040E-04  0.1500704E+04  0.7818609E-02  0.8883985E-01
        2   -1    0    0  501    0  0.00000000000E+00  0.00000000000E+00  0.81645753875E+03  0.81645753876E+03  0.25500000920E-02 0.  1.
       -2   -1    0    0    0  501  0.00000000000E+00  0.00000000000E+00 -0.68959920831E+03  0.68959920831E+03  0.25500000920E-02 0. -1.
    10030    2    1    2    0    0  0.00000000000E+00  0.00000000000E+00  0.12685833045E+03  0.15060567471E+04  0.15007044644E+04 0.  0.
        2    1    3    3  502    0 -0.33421859175E+03 -0.82361900277E+02 -0.60568929507E+03  0.69666711696E+03  0.25500000920E-02 0. -1.
       -2    1    3    3    0  502  0.33421859175E+03  0.82361900277E+02  0.73254762551E+03  0.80938963011E+03  0.25500000920E-02 0.  1.
</event>
<event>
 5   0  0.1474203E-04  0.1500060E+04  0.7818609E-02  0.8884413E-01
       -1   -1    0    0    0  501  0.00000000000E+00  0.00000000000E+00  0.63285506853E+03  0.63285506855E+03  0.50400001928E-02 0.  1.
        1   -1    0    0  501    0  0.00000000000E+00  0.00000000000E+00 -0.88890073313E+03  0.88890073314E+03  0.50400001928E-02 0. -1.
    10030    2    1    2    0    0  0.00000000000E+00  0.00000000000E+00 -0.25604566459E+03  0.15217558017E+04  0.15000604447E+04 0.  0.
        3    1    3    3  502    0  0.60005501174E+03  0.33952607117E+03  0.17154682416E+03  0.71047328817E+03  0.10100000352E+00 0.  1.
       -3    1    3    3    0  502 -0.60005501174E+03 -0.33952607117E+03 -0.42759248875E+03  0.81128251353E+03  0.10100000352E+00 0. -1.
</event>
<event>
 5   0  0.2641347E-04  0.1501280E+04  0.7818609E-02  0.8883602E-01
       -2   -1    0    0    0  501  0.00000000000E+00  0.00000000000E+00  0.80041319152E+03  0.80041319152E+03  0.25500000920E-02 0.  1.
        2   -1    0    0  501    0  0.00000000000E+00  0.00000000000E+00 -0.70396234761E+03  0.70396234761E+03  0.25500000920E-02 0. -1.
    10030    2    1    2    0    0  0.00000000000E+00  0.00000000000E+00  0.96450843908E+02  0.15043755391E+04  0.15012804526E+04 0.  0.
        4    1    3    3  502    0  0.28711430797E+03  0.60693052956E+03  0.38456579691E+03  0.77375174223E+03  0.12699999809E+01 0.  1.
       -4    1    3    3    0  502 -0.28711430797E+03 -0.60693052956E+03 -0.28811495301E+03  0.73062379690E+03  0.12699999809E+01 0. -1.
</event>
<event>
 5   0  0.2646718E-04  0.1503958E+04  0.7818609E-02  0.8881825E-01
       -2   -1    0    0    0  501  0.00000000000E+00  0.00000000000E+00  0.41591381664E+03  0.41591381665E+03  0.25500000920E-02 0.  1.
        2   -1    0    0  501    0  0.00000000000E+00  0.00000000000E+00 -0.13595911993E+04  0.13595911993E+04  0.25500000920E-02 0. -1.
    10030    2    1    2    0    0  0.00000000000E+00  0.00000000000E+00 -0.94367738269E+03  0.17755050160E+04  0.15039584632E+04 0.  0.
        3    1    3    3  502    0  0.68076609773E+03 -0.26165580918E+03 -0.68813005109E+03  0.10027109353E+04  0.10100000352E+00 0. -1.
       -3    1    3    3    0  502 -0.68076609773E+03  0.26165580918E+03 -0.25554733160E+03  0.77279408071E+03  0.10100000352E+00 0.  1.
</event>
<event>
 5   0  0.2734072E-04  0.1502432E+04  0.7818609E-02  0.8882837E-01
        2   -1    0    0  501    0  0.00000000000E+00  0.00000000000E+00  0.14338273037E+04  0.14338273037E+04  0.25500000920E-02 0. -1.
       -2   -1    0    0    0  501  0.00000000000E+00  0.00000000000E+00 -0.39358002874E+03  0.39358002875E+03  0.25500000920E-02 0.  1.
    10030    2    1    2    0    0  0.00000000000E+00  0.00000000000E+00  0.10402472750E+04  0.18274073325E+04  0.15024324163E+04 0.  0.
        5    1    3    3  502    0 -0.43523174925E+03  0.51495372462E+03  0.92297340080E+03  0.11430249353E+04  0.46999998093E+01 0.  1.
       -5    1    3    3    0  502  0.43523174925E+03 -0.51495372462E+03  0.11727387419E+03  0.68438239721E+03  0.46999998093E+01 0. -1.
</event>
<event>
 5   0  0.1427609E-04  0.1489906E+04  0.7818609E-02  0.8891193E-01
        1   -1    0    0  501    0  0.00000000000E+00  0.00000000000E+00  0.59754966324E+03  0.59754966326E+03  0.50400001928E-02 0.  1.
       -1   -1    0    0    0  501  0.00000000000E+00  0.00000000000E+00 -0.92871779496E+03  0.92871779497E+03  0.50400001928E-02 0. -1.
    10030    2    1    2    0    0  0.00000000000E+00  0.00000000000E+00 -0.33116813171E+03  0.15262674582E+04  0.14899060449E+04 0.  0.
        4    1    3    3  502    0  0.41061489614E+03 -0.59530383931E+03 -0.34872679369E+03  0.80287187245E+03  0.12699999809E+01 0. -1.
       -4    1    3    3    0  502 -0.41061489614E+03  0.59530383931E+03  0.17558661980E+02  0.72339558579E+03  0.12699999809E+01 0.  1.
</event>
<event>
 5   0  0.1474203E-04  0.1494136E+04  0.7818609E-02  0.8888362E-01
        1   -1    0    0  501    0  0.00000000000E+00  0.00000000000E+00  0.77301298893E+03  0.77301298895E+03  0.50400001928E-02 0. -1.
       -1   -1    0    0    0  501  0.00000000000E+00  0.00000000000E+00 -0.72199352859E+03  0.72199352861E+03  0.50400001928E-02 0.  1.
    10030    2    1    2    0    0  0.00000000000E+00  0.00000000000E+00  0.51019460341E+02  0.14950065176E+04  0.14941357041E+04 0.  0.
        3    1    3    3  502    0 -0.29069036763E+03  0.13955134723E+03  0.69979780649E+03  0.77051440513E+03  0.10100000352E+00 0. -1.
       -3    1    3    3    0  502  0.29069036763E+03 -0.13955134723E+03 -0.64877834615E+03  0.72449211243E+03  0.10100000352E+00 0.  1.
</event>
<event>
 5   0  0.1484251E-04  0.1485042E+04  0.7818609E-02  0.8894461E-01
        1   -1    0    0  501    0  0.00000000000E+00  0.00000000000E+00  0.67542312606E+03  0.67542312608E+03  0.50400001928E-02 0. -1.
       -1   -1    0    0    0  501  0.00000000000E+00  0.00000000000E+00 -0.81628424036E+03  0.81628424038E+03  0.50400001928E-02 0.  1.
    10030    2    1    2    0    0  0.00000000000E+00  0.00000000000E+00 -0.14086111430E+03  0.14917073665E+04  0.14850417548E+04 0.  0.
        5    1    3    3  502    0 -0.50636440721E+03 -0.39362107078E+03 -0.44623909673E+03  0.78134107897E+03  0.46999998093E+01 0.  1.
       -5    1    3    3    0  502  0.50636440721E+03  0.39362107078E+03  0.30537798243E+03  0.71036628749E+03  0.46999998093E+01 0. -1.
</event>
<event>
 5   0  0.2641347E-04  0.1494957E+04  0.7818609E-02  0.8887813E-01
       -2   -1    0    0    0  501  0.00000000000E+00  0.00000000000E+00  0.10891394432E+04  0.10891394432E+04  0.25500000920E-02 0. -1.
        2   -1    0    0  501    0  0.00000000000E+00  0.00000000000E+00 -0.51299596937E+03  0.51299596938E+03  0.25500000920E-02 0.  1.
    10030    2    1    2    0    0  0.00000000000E+00  0.00000000000E+00  0.57614347380E+03  0.16021354125E+04  0.14949570488E+04 0.  0.
        4    1    3    3  502    0 -0.22837296054E+03  0.10311851791E+03 -0.46664301282E+03  0.52966494330E+03  0.12699999809E+01 0.  1.
       -4    1    3    3    0  502  0.22837296054E+03 -0.10311851791E+03  0.10427864866E+04  0.10724704693E+04  0.12699999809E+01 0. -1.
</event>
<event>
 5   0  0.2618901E-04  0.1499002E+04  0.7818609E-02  0.8885117E-01
        2   -1    0    0  501    0  0.00000000000E+00  0.00000000000E+00  0.45452725777E+03  0.45452725778E+03  0.25500000920E-02 0.  1.
       -2   -1    0    0    0  501  0.00000000000E+00  0.00000000000E+00 -0.12359031882E+04  0.12359031882E+04  0.25500000920E-02 0. -1.
    10030    2    1    2    0    0  0.00000000000E+00  0.00000000000E+00 -0.78137593041E+03  0.16904304460E+04  0.14990019173E+04 0.  0.
        1    1    3    3  502    0  0.18589018622E+03  0.19531510837E+03 -0.11793139786E+04  0.12097456812E+04  0.50400001928E-02 0. -1.
       -1    1    3    3    0  502 -0.18589018622E+03 -0.19531510837E+03  0.39793804820E+03  0.48068476481E+03  0.50400001928E-02 0.  1.
</event>
<event>
 5   0  0.2734072E-04  0.1501749E+04  0.7818609E-02  0.8883290E-01
       -2   -1    0    0    0  501  0.00000000000E+00  0.00000000000E+00  0.38865372858E+03  0.38865372859E+03  0.25500000920E-02 0.  1.
        2   -1    0    0  501    0  0.00000000000E+00  0.00000000000E+00 -0.14506814186E+04  0.14506814186E+04  0.25500000920E-02 0. -1.
    10030    2    1    2    0    0  0.00000000000E+00  0.00000000000E+00 -0.10620276900E+04  0.18393351472E+04  0.15017493031E+04 0.  0.
        5    1    3    3  502    0  0.12382992554E+03  0.26468344670E+03 -0.13781608461E+04  0.14088082145E+04  0.46999998093E+01 0. -1.
       -5    1    3    3    0  502 -0.12382992554E+03 -0.26468344670E+03  0.31613315609E+03  0.43052693272E+03  0.46999998093E+01 0.  1.
</event>
<event>
 5   0  0.2641347E-04  0.1505577E+04  0.7818609E-02  0.8880753E-01
       -2   -1    0    0    0  501  0.00000000000E+00  0.00000000000E+00  0.85840698834E+03  0.85840698834E+03  0.25500000920E-02 0.  1.
        2   -1    0    0  501    0  0.00000000000E+00  0.00000000000E+00 -0.66016531436E+03  0.66016531437E+03  0.25500000920E-02 0. -1.
    10030    2    1    2    0    0  0.00000000000E+00  0.00000000000E+00  0.19824167398E+03  0.15185723027E+04  0.15055769915E+04 0.  0.
        4    1    3    3  502    0  0.56611913085E+03  0.16751472658E+03  0.57020339704E+03  0.82078351643E+03  0.12699999809E+01 0.  1.
       -4    1    3    3    0  502 -0.56611913085E+03 -0.16751472658E+03 -0.37196172306E+03  0.69778878628E+03  0.12699999809E+01 0. -1.
</event>
<event>
 5   0  0.2696040E-04  0.1498930E+04  0.7818609E-02  0.8885165E-01
        2   -1    0    0  501    0  0.00000000000E+00  0.00000000000E+00  0.13191041168E+04  0.13191041168E+04  0.25500000920E-02 0. -1.
       -2   -1    0    0    0  501  0.00000000000E+00  0.00000000000E+00 -0.42581784130E+03  0.42581784131E+03  0.25500000920E-02 0.  1.
    10030    2    1    2    0    0  0.00000000000E+00  0.00000000000E+00  0.89328627552E+03  0.17449219581E+04  0.14989303753E+04 0.  0.
        2    1    3    3  502    0  0.42761558043E+03 -0.41552315135E+03 -0.81949967798E+02  0.60185577273E+03  0.25500000920E-02 0.  1.
       -2    1    3    3    0  502 -0.42761558043E+03  0.41552315135E+03  0.97523624332E+03  0.11430661854E+04  0.25500000920E-02 0. -1.
</event>
<event>
 5   0  0.2734072E-04  0.1524274E+04  0.7818609E-02  0.8868470E-01
        2   -1    0    0  501    0  0.00000000000E+00  0.00000000000E+00  0.96845427287E+03  0.96845427287E+03  0.25500000920E-02 0. -1.
       -2   -1    0    0    0  501  0.00000000000E+00  0.00000000000E+00 -0.59977275710E+03  0.59977275711E+03  0.25500000920E-02 0.  1.
    10030    2    1    2    0    0  0.00000000000E+00  0.00000000000E+00  0.36868151576E+03  0.15682270300E+04  0.15242735835E+04 0.  0.
        5    1    3    3  502    0 -0.64509082021E+03  0.28291056949E+03  0.48367685354E+03  0.85448577829E+03  0.46999998093E+01 0. -1.
       -5    1    3    3    0  502  0.64509082021E+03 -0.28291056949E+03 -0.11499533778E+03  0.71374125169E+03  0.46999998093E+01 0.  1.
</event>
<event>
 5   0  0.2734072E-04  0.1495721E+04  0.7818609E-02  0.8887303E-01
        2   -1    0    0  501    0  0.00000000000E+00  0.00000000000E+00  0.12368507727E+04  0.12368507727E+04  0.25500000920E-02 0. -1.
       -2   -1    0    0    0  501  0.00000000000E+00  0.00000000000E+00 -0.45219302961E+03  0.45219302961E+03  0.25500000920E-02 0.  1.
    10030    2    1    2    0    0  0.00000000000E+00  0.00000000000E+00  0.78465774310E+03  0.16890438023E+04  0.14957209607E+04 0.  0.
        5    1    3    3  502    0 -0.26368709251E+03  0.68980071790E+03  0.52554835575E+03  0.90640999410E+03  0.46999998093E+01 0. -1.
       -5    1    3    3    0  502  0.26368709251E+03 -0.68980071790E+03  0.25910938735E+03  0.78263380823E+03  0.46999998093E+01 0.  1.
</event>
<event>
 5   0  0.1443750E-04  0.1500077E+04  0.7818609E-02  0.8884401E-01
        1   -1    0    0  501    0  0.00000000000E+00  0.00000000000E+00  0.65976066458E+03  0.65976066460E+03  0.50400001928E-02 0.  1.
       -1   -1    0    0    0  501  0.00000000000E+00  0.00000000000E+00 -0.85266999713E+03  0.85266999715E+03  0.50400001928E-02 0. -1.
    10030    2    1    2    0    0  0.00000000000E+00  0.00000000000E+00 -0.19290933256E+03  0.15124306617E+04  0.15000774967E+04 0.  0.
        2    1    3    3  502    0 -0.44134897972E+02 -0.25010454090E+03 -0.80799859451E+03  0.84697219514E+03  0.25500000920E-02 0. -1.
       -2    1    3    3    0  502  0.44134897972E+02  0.25010454090E+03  0.61508926196E+03  0.66545846661E+03  0.25500000920E-02 0.  1.
</event>
<event>
 5   0  0.1443750E-04  0.1497182E+04  0.7818609E-02  0.8886329E-01
        1   -1    0    0  501    0  0.00000000000E+00  0.00000000000E+00  0.76432894715E+03  0.76432894716E+03  0.50400001928E-02 0.  1.
       -1   -1    0    0    0  501  0.00000000000E+00  0.00000000000E+00 -0.73317723738E+03  0.73317723740E+03  0.50400001928E-02 0. -1.
    10030    2    1    2    0    0  0.00000000000E+00  0.00000000000E+00  0.31151709764E+02  0.14975061846E+04  0.14971821345E+04 0.  0.
        2    1    3    3  502    0 -0.34368128446E+03  0.15166580952E+03  0.66322603498E+03  0.76222576481E+03  0.25500000920E-02 0.  1.
       -2    1    3    3    0  502  0.34368128446E+03 -0.15166580952E+03 -0.63207432522E+03  0.73528041975E+03  0.25500000920E-02 0. -1.
</event>
<event>
 5   0  0.1004313E-04  0.1502053E+04  0.7818609E-02  0.8883089E-01
       -4   -1    0    0    0  501  0.00000000000E+00  0.00000000000E+00  0.57231600396E+03  0.57231741306E+03  0.12699999809E+01 0. -1.
        4   -1    0    0  501    0  0.00000000000E+00  0.00000000000E+00 -0.98553723651E+03  0.98553805479E+03  0.12699999809E+01 0.  1.
    10030    2    1    2    0    0  0.00000000000E+00  0.00000000000E+00 -0.41322123255E+03  0.15578554679E+04  0.15020525529E+04 0.  0.
        4    1    3    3  502    0  0.85142797026E+02  0.32782564490E+03  0.48860555359E+03  0.59452161376E+03  0.12699999809E+01 0. -1.
       -4    1    3    3    0  502 -0.85142797026E+02 -0.32782564490E+03 -0.90182678614E+03  0.96333385409E+03  0.12699999809E+01 0.  1.
</event>
<event>
 5   0  0.1484251E-04  0.1503270E+04  0.7818609E-02  0.8882282E-01
       -1   -1    0    0    0  501  0.00000000000E+00  0.00000000000E+00  0.50528740586E+03  0.50528740588E+03  0.50400001928E-02 0.  1.
        1   -1    0    0  501    0  0.00000000000E+00  0.00000000000E+00 -0.11180861764E+04  0.11180861764E+04  0.50400001928E-02 0. -1.
    10030    2    1    2    0    0  0.00000000000E+00  0.00000000000E+00 -0.61279877049E+03  0.16233735822E+04  0.15032695881E+04 0.  0.
        5    1    3    3  502    0  0.54961638546E+03  0.13192350005E+03 -0.84141175361E+03  0.10136458011E+04  0.46999998093E+01 0. -1.
       -5    1    3    3    0  502 -0.54961638546E+03 -0.13192350005E+03  0.22861298311E+03  0.60972778112E+03  0.46999998093E+01 0.  1.
</event>
<event>
 5   0  0.2646718E-04  0.1457218E+04  0.7818609E-02  0.8913412E-01
       -2   -1    0    0    0  501  0.00000000000E+00  0.00000000000E+00  0.58240854028E+03  0.58240854029E+03  0.25500000920E-02 0.  1.
        2   -1    0    0  501    0  0.00000000000E+00  0.00000000000E+00 -0.91150932098E+03  0.91150932099E+03  0.25500000920E-02 0. -1.
    10030    2    1    2    0    0  0.00000000000E+00  0.00000000000E+00 -0.32910078070E+03  0.14939178613E+04  0.14572176407E+04 0.  0.
        3    1    3    3  502    0 -0.52314804267E+03 -0.38294199160E+03  0.17630225165E+03  0.67187122100E+03  0.10100000352E+00 0.  1.
       -3    1    3    3    0  502  0.52314804267E+03  0.38294199160E+03 -0.50540303235E+03  0.82204664027E+03  0.10100000352E+00 0. -1.
</event>
<event>
 5   0  0.1426929E-04  0.1506062E+04  0.7818609E-02  0.8880432E-01
       -1   -1    0    0    0  501  0.00000000000E+00  0.00000000000E+00  0.34041320549E+03  0.34041320553E+03  0.50400001928E-02 0. -1.
        1   -1    0    0  501    0  0.00000000000E+00  0.00000000000E+00 -0.16657862394E+04  0.16657862394E+04  0.50400001928E-02 0.  1.
    10030    2    1    2    0    0  0.00000000000E+00  0.00000000000E+00 -0.13253730340E+04  0.20061994450E+04  0.15060619290E+04 0.  0.
        1    1    3    3  502    0 -0.70533381597E+03 -0.16579620483E+03 -0.93591443142E+03  0.11836046622E+04  0.50400001928E-02 0.  1.
       -1    1    3    3    0  502  0.70533381597E+03  0.16579620483E+03 -0.38945860253E+03  0.82259478274E+03  0.50400001928E-02 0. -1.
</event>
<event>
 5   0  0.1443750E-04  0.1504868E+04  0.7818609E-02  0.8881222E-01
       -1   -1    0    0    0  501  0.00000000000E+00  0.00000000000E+00  0.52676624332E+03  0.52676624334E+03  0.50400001928E-02 0. -1.
        1   -1    0    0  501    0  0.00000000000E+00  0.00000000000E+00 -0.10747783629E+04  0.10747783629E+04  0.50400001928E-02 0.  1.
    10030    2    1    2    0    0  0.00000000000E+00  0.00000000000E+00 -0.54801211955E+03  0.16015446062E+04  0.15048680482E+04 0.  0.
        2    1    3    3  502    0 -0.58186048879E+03 -0.42427847190E+03 -0.41856944915E+02  0.72133615879E+03  0.25500000920E-02 0.  1.
       -2    1    3    3    0  502  0.58186048879E+03  0.42427847190E+03 -0.50615517463E+03  0.88020844744E+03  0.25500000920E-02 0. -1.
</event>
<event>
 5   0  0.1484251E-04  0.1501872E+04  0.7818609E-02  0.8883209E-01
       -1   -1    0    0    0  501  0.00000000000E+00  0.00000000000E+00  0.61851457732E+03  0.61851457734E+03  0.50400001928E-02 0. -1.
        1   -1    0    0  501    0  0.00000000000E+00  0.00000000000E+00 -0.91170872299E+03  0.91170872300E+03  0.50400001928E-02 0.  1.
    10030    2    1    2    0    0  0.00000000000E+00  0.00000000000E+00 -0.29319414567E+03  0.15302233003E+04  0.15018723454E+04 0.  0.
        5    1    3    3  502    0 -0.51262146926E+03  0.40184183933E+03 -0.52731560915E+03  0.83805815802E+03  0.46999998093E+01 0.  1.
       -5    1    3    3    0  502  0.51262146926E+03 -0.40184183933E+03  0.23412146348E+03  0.69216514232E+03  0.46999998093E+01 0. -1.
</event>
<event>
 5   0  0.2696040E-04  0.1506010E+04  0.7818609E-02  0.8880466E-01
       -2   -1    0    0    0  501  0.00000000000E+00  0.00000000000E+00  0.38733682782E+03  0.38733682783E+03  0.25500000920E-02 0. -1.
        2   -1    0    0  501    0  0.00000000000E+00  0.00000000000E+00 -0.14638847609E+04  0.14638847609E+04  0.25500000920E-02 0.  1.
    10030    2    1    2    0    0  0.00000000000E+00  0.00000000000E+00 -0.10765479331E+04  0.18512215888E+04  0.15060099330E+04 0.  0.
        2    1    3    3  502    0  0.59849332711E+03 -0.12150008152E+03  0.32261126212E+01  0.61071019331E+03  0.25500000920E-02 0. -1.
       -2    1    3    3    0  502 -0.59849332711E+03  0.12150008152E+03 -0.10797740457E+04  0.12405113955E+04  0.25500000920E-02 0.  1.
</event>
<event>
 5   0  0.2641347E-04  0.1459507E+04  0.7818609E-02  0.8911836E-01
        2   -1    0    0  501    0  0.00000000000E+00  0.00000000000E+00  0.17250417124E+04  0.17250417124E+04  0.25500000920E-02 0.  1.
       -2   -1    0    0    0  501  0.00000000000E+00  0.00000000000E+00 -0.30871141492E+03  0.30871141493E+03  0.25500000920E-02 0. -1.
    10030    2    1    2    0    0  0.00000000000E+00  0.00000000000E+00  0.14163302975E+04  0.20337531273E+04  0.14595068590E+04 0.  0.
        4    1    3    3  502    0 -0.50851403538E+03  0.37065240374E+03  0.19321199404E+03  0.65825695296E+03  0.12699999809E+01 0. -1.
       -4    1    3    3    0  502  0.50851403538E+03 -0.37065240374E+03  0.12231183034E+04  0.13754961744E+04  0.12699999809E+01 0.  1.
</event>
<event>
 5   0  0.1474203E-04  0.1460423E+04  0.7818609E-02  0.8911206E-01
        1   -1    0    0  501    0  0.00000000000E+00  0.00000000000E+00  0.19932274685E+04  0.19932274685E+04  0.50400001928E-02 0.  1.
       -1   -1    0    0    0  501  0.00000000000E+00  0.00000000000E+00 -0.26751027769E+03  0.26751027774E+03  0.50400001928E-02 0. -1.
    10030    2    1    2    0    0  0.00000000000E+00  0.00000000000E+00  0.17257171908E+04  0.22607377462E+04  0.14604229985E+04 0.  0.
        3    1    3    3  502    0  0.47349647062E+02 -0.36773044470E+03  0.18366750984E+04  0.18737243918E+04  0.10100000352E+00 0.  1.
       -3    1    3    3    0  502 -0.47349647062E+02  0.36773044470E+03 -0.11095790764E+03  0.38701335443E+03  0.10100000352E+00 0. -1.
</event>
<event>
 5   0  0.2696040E-04  0.1502507E+04  0.7818609E-02  0.8882788E-01
       -2   -1    0    0    0  501  0.00000000000E+00  0.00000000000E+00  0.61029793930E+03  0.61029793931E+03  0.25500000920E-02 0. -1.
        2   -1    0    0  501    0  0.00000000000E+00  0.00000000000E+00 -0.92476430308E+03  0.92476430309E+03  0.25500000920E-02 0.  1.
    10030    2    1    2    0    0  0.00000000000E+00  0.00000000000E+00 -0.31446636378E+03  0.15350622424E+04  0.15025069032E+04 0.  0.
        2    1    3    3  502    0  0.11949317033E+03 -0.22320236867E+03  0.56539974772E+03  0.61949559309E+03  0.25500000920E-02 0. -1.
       -2    1    3    3    0  502 -0.11949317033E+03  0.22320236867E+03 -0.87986611150E+03  0.91556664930E+03  0.25500000920E-02 0.  1.
</event>
<event>
 5   0  0.1484251E-04  0.1506612E+04  0.7818609E-02  0.8880068E-01
        1   -1    0    0  501    0  0.00000000000E+00  0.00000000000E+00  0.14770890940E+04  0.14770890941E+04  0.50400001928E-02 0. -1.
       -1   -1    0    0    0  501  0.00000000000E+00  0.00000000000E+00 -0.38418113768E+03  0.38418113772E+03  0.50400001928E-02 0.  1.
    10030    2    1    2    0    0  0.00000000000E+00  0.00000000000E+00  0.10929079564E+04  0.18612702318E+04  0.15066117863E+04 0.  0.
        5    1    3    3  502    0 -0.51737981224E+03  0.53350334179E+03  0.39444441681E+03  0.84137754532E+03  0.46999998093E+01 0.  1.
       -5    1    3    3    0  502  0.51737981224E+03 -0.53350334179E+03  0.69846353955E+03  0.10198926865E+04  0.46999998093E+01 0. -1.
</event>
<event>
 5   0  0.1004313E-04  0.1499584E+04  0.7818609E-02  0.8884729E-01
       -3   -1    0    0    0  501  0.00000000000E+00  0.00000000000E+00  0.13769079435E+04  0.13769079472E+04  0.10100000352E+00 0. -1.
        3   -1    0    0  501    0  0.00000000000E+00  0.00000000000E+00 -0.40829766270E+03  0.40829767519E+03  0.10100000352E+00 0.  1.
    10030    2    1    2    0    0  0.00000000000E+00  0.00000000000E+00  0.96861028083E+03  0.17852056224E+04  0.14995843551E+04 0.  0.
        3    1    3    3  502    0  0.55953829771E+03 -0.22977713504E+03 -0.43150534500E+02  0.60641785694E+03  0.10100000352E+00 0.  1.
       -3    1    3    3    0  502 -0.55953829771E+03  0.22977713504E+03  0.10117608153E+04  0.11787877655E+04  0.10100000352E+00 0. -1.
</event>
<event>
 5   0  0.1427609E-04  0.1500682E+04  0.7818609E-02  0.8884000E-01
       -1   -1    0    0    0  501  0.00000000000E+00  0.00000000000E+00  0.67553544725E+03  0.67553544726E+03  0.50400001928E-02 0.  1.
        1   -1    0    0  501    0  0.00000000000E+00  0.00000000000E+00 -0.83342960822E+03  0.83342960823E+03  0.50400001928E-02 0. -1.
    10030    2    1    2    0    0  0.00000000000E+00  0.00000000000E+00 -0.15789416097E+03  0.15089650555E+04  0.15006815027E+04 0.  0.
        4    1    3    3  502    0  0.62118421956E+03  0.41722283400E+03 -0.13461422943E+03  0.76030739277E+03  0.12699999809E+01 0.  1.
       -4    1    3    3    0  502 -0.62118421956E+03 -0.41722283400E+03 -0.23279931537E+02  0.74865766272E+03  0.12699999809E+01 0. -1.
</event>
<event>
 5   0  0.1443750E-04  0.1505142E+04  0.7818609E-02  0.8881041E-01
       -1   -1    0    0    0  501  0.00000000000E+00  0.00000000000E+00  0.74622925287E+03  0.74622925288E+03  0.50400001928E-02 0.  1.
        1   -1    0    0  501    0  0.00000000000E+00  0.00000000000E+00 -0.75896640248E+03  0.75896640249E+03  0.50400001928E-02 0. -1.
    10030    2    1    2    0    0  0.00000000000E+00  0.00000000000E+00 -0.12737149610E+02  0.15051956554E+04  0.15051417628E+04 0.  0.
        2    1    3    3  502    0  0.55401615671E+03  0.23500923170E+03  0.44553220400E+03  0.74877378806E+03  0.25500000920E-02 0.  1.
       -2    1    3    3    0  502 -0.55401615671E+03 -0.23500923170E+03 -0.45826935361E+03  0.75642186731E+03  0.25500000920E-02 0. -1.
</event>
<event>
 5   0  0.1484251E-04  0.1500736E+04  0.7818609E-02  0.8883964E-01
       -1   -1    0    0    0  501  0.00000000000E+00  0.00000000000E+00  0.45480589909E+03  0.45480589912E+03  0.50400001928E-02 0. -1.
        1   -1    0    0  501    0  0.00000000000E+00  0.00000000000E+00 -0.12380045485E+04  0.12380045485E+04  0.50400001928E-02 0.  1.
    10030    2    1    2    0    0  0.00000000000E+00  0.00000000000E+00 -0.78319864937E+03  0.16928104476E+04  0.15007355154E+04 0.  0.
        5    1    3    3  502    0 -0.36536354678E+03  0.64750934525E+03 -0.50591518297E+03  0.89929479920E+03  0.46999998093E+01 0.  1.
       -5    1    3    3    0  502  0.36536354678E+03 -0.64750934525E+03 -0.27728346640E+03  0.79351564839E+03  0.46999998093E+01 0. -1.
</event>
<event>
 5   0  0.1426929E-04  0.1485841E+04  0.7818609E-02  0.8893924E-01
        1   -1    0    0  501    0  0.00000000000E+00  0.00000000000E+00  0.77388400984E+03  0.77388400986E+03  0.50400001928E-02 0. -1.
       -1   -1    0    0    0  501  0.00000000000E+00  0.00000000000E+00 -0.71319554035E+03  0.71319554037E+03  0.50400001928E-02 0.  1.
    10030    2    1    2    0    0  0.00000000000E+00  0.00000000000E+00  0.60688469497E+02  0.14870795502E+04  0.14858406706E+04 0.  0.
        1    1    3    3  502    0  0.60373625067E+03 -0.67772004326E+02 -0.39761037428E+03  0.72607473080E+03  0.50400001928E-02 0.  1.
       -1    1    3    3    0  502 -0.60373625067E+03  0.67772004326E+02  0.45829884378E+03  0.76100481942E+03  0.50400001928E-02 0. -1.
</event>
<event>
 5   0  0.2646718E-04  0.1503127E+04  0.7818609E-02  0.8882376E-01
        2   -1    0    0  501    0  0.00000000000E+00  0.00000000000E+00  0.11498653165E+04  0.11498653165E+04  0.25500000920E-02 0. -1.
       -2   -1    0    0    0  501  0.00000000000E+00  0.00000000000E+00 -0.49122966522E+03  0.49122966523E+03  0.25500000920E-02 0.  1.
    10030    2    1    2    0    0  0.00000000000E+00  0.00000000000E+00  0.65863565129E+03  0.16410949817E+04  0.15031273459E+04 0.  0.
        3    1    3    3  502    0 -0.56785752103E+03  0.51630538064E+02  0.86387004551E+03  0.10350842199E+04  0.10100000352E+00 0.  1.
       -3    1    3    3    0  502  0.56785752103E+03 -0.51630538064E+02 -0.20523439421E+03  0.60601076180E+03  0.10100000352E+00 0. -1.
</event>
<event>
 5   0  0.2646718E-04  0.1499745E+04  0.7818609E-02  0.8884623E-01
        2   -1    0    0  501    0  0.00000000000E+00  0.00000000000E+00  0.13721093322E+04  0.13721093322E+04  0.25500000920E-02 0.  1.
       -2   -1    0    0    0  501  0.00000000000E+00  0.00000000000E+00 -0.40981319435E+03  0.40981319436E+03  0.25500000920E-02 0. -1.
    10030    2    1    2    0    0  0.00000000000E+00  0.00000000000E+00  0.96229613788E+03  0.17819225266E+04  0.14997446562E+04 0.  0.
        3    1    3    3  502    0 -0.35792503786E+02  0.22667818659E+03 -0.36706531505E+03  0.43289843995E+03  0.10100000352E+00 0. -1.
       -3    1    3    3    0  502  0.35792503786E+02 -0.22667818659E+03  0.13293614529E+04  0.13490240866E+04  0.10100000352E+00 0.  1.
</event>
<event>
 5   0  0.1484251E-04  0.1501286E+04  0.7818609E-02  0.8883598E-01
       -1   -1    0    0    0  501  0.00000000000E+00  0.00000000000E+00  0.38585617934E+03  0.38585617937E+03  0.50400001928E-02 0. -1.
        1   -1    0    0  501    0  0.00000000000E+00  0.00000000000E+00 -0.14602970054E+04  0.14602970054E+04  0.50400001928E-02 0.  1.
    10030    2    1    2    0    0  0.00000000000E+00  0.00000000000E+00 -0.10744408260E+04  0.18461531847E+04  0.15012856134E+04 0.  0.
        5    1    3    3  502    0 -0.46526553885E+03 -0.46296811938E+03 -0.89376180633E+02  0.66243618022E+03  0.46999998093E+01 0. -1.
       -5    1    3    3    0  502  0.46526553885E+03  0.46296811938E+03 -0.98506464540E+03  0.11837170045E+04  0.46999998093E+01 0.  1.
</event>
<event>
 5   0  0.1474203E-04  0.1497401E+04  0.7818609E-02  0.8886183E-01
        1   -1    0    0  501    0  0.00000000000E+00  0.00000000000E+00  0.21207012856E+04  0.21207012856E+04  0.50400001928E-02 0. -1.
       -1   -1    0    0    0  501  0.00000000000E+00  0.00000000000E+00 -0.26432419344E+03  0.26432419348E+03  0.50400001928E-02 0.  1.
    10030    2    1    2    0    0  0.00000000000E+00  0.00000000000E+00  0.18563770922E+04  0.23850254791E+04  0.14974012915E+04 0.  0.
        3    1    3    3  502    0  0.57263964302E+03  0.48119966932E+03  0.87576310890E+03  0.11517075651E+04  0.10100000352E+00 0.  1.
       -3    1    3    3    0  502 -0.57263964302E+03 -0.48119966932E+03  0.98061398331E+03  0.12333179140E+04  0.10100000352E+00 0. -1.
</event>
<event>
 5   0  0.1474203E-04  0.1497336E+04  0.7818609E-02  0.8886227E-01
        1   -1    0    0  501    0  0.00000000000E+00  0.00000000000E+00  0.10190864299E+04  0.10190864300E+04  0.50400001928E-02 0.  1.
       -1   -1    0    0    0  501  0.00000000000E+00  0.00000000000E+00 -0.55000590286E+03  0.55000590288E+03  0.50400001928E-02 0. -1.
    10030    2    1    2    0    0  0.00000000000E+00  0.00000000000E+00  0.46908052708E+03  0.15690923328E+04  0.14973357032E+04 0.  0.
        3    1    3    3  502    0 -0.64177322258E+02  0.18243833680E+03  0.99245809142E+03  0.10111258818E+04  0.10100000352E+00 0.  1.
       -3    1    3    3    0  502  0.64177322258E+02 -0.18243833680E+03 -0.52337756434E+03  0.55796645103E+03  0.10100000352E+00 0. -1.
</event>
<event>
 5   0  0.2696040E-04  0.1502194E+04  0.7818609E-02  0.8882995E-01
        2   -1    0    0  501    0  0.00000000000E+00  0.00000000000E+00  0.15698318074E+04  0.15698318074E+04  0.25500000920E-02 0. -1.
       -2   -1    0    0    0  501  0.00000000000E+00  0.00000000000E+00 -0.35936778781E+03  0.35936778782E+03  0.25500000920E-02 0.  1.
    10030    2    1    2    0    0  0.00000000000E+00  0.00000000000E+00  0.12104640196E+04  0.19291995952E+04  0.15021943734E+04 0.  0.
        2    1    3    3  502    0  0.24245551804E+03 -0.60568994787E+03  0.10831782418E+04  0.12644841220E+04  0.25500000920E-02 0. -1.
       -2    1    3    3    0  502 -0.24245551804E+03  0.60568994787E+03  0.12728577781E+03  0.66471547328E+03  0.25500000920E-02 0.  1.
</event>
<event>
 5   0  0.2696040E-04  0.1492391E+04  0.7818609E-02  0.8889529E-01
        2   -1    0    0  501    0  0.00000000000E+00  0.00000000000E+00  0.17728922164E+04  0.17728922164E+04  0.25500000920E-02 0.  1.
       -2   -1    0    0    0  501  0.00000000000E+00  0.00000000000E+00 -0.31406735879E+03  0.31406735880E+03  0.25500000920E-02 0. -1.
    10030    2    1    2    0    0  0.00000000000E+00  0.00000000000E+00  0.14588248576E+04  0.20869595752E+04  0.14923908011E+04 0.  0.
        2    1    3    3  502    0  0.14314245404E+03  0.63530396181E+03  0.12388346457E+04  0.13995757091E+04  0.25500000920E-02 0.  1.
       -2    1    3    3    0  502 -0.14314245404E+03 -0.63530396181E+03  0.21999021188E+03  0.68738386609E+03  0.25500000920E-02 0. -1.
</event>
<event>
 5   0  0.1427609E-04  0.1501802E+04  0.7818609E-02  0.8883255E-01
       -1   -1    0    0    0  501  0.00000000000E+00  0.00000000000E+00  0.49504093366E+03  0.49504093368E+03  0.50400001928E-02 0. -1.
        1   -1    0    0  501    0  0.00000000000E+00  0.00000000000E+00 -0.11390016021E+04  0.11390016021E+04  0.50400001928E-02 0.  1.
    10030    2    1    2    0    0  0.00000000000E+00  0.00000000000E+00 -0.64396066843E+03  0.16340425358E+04  0.15018021395E+04 0.  0.
        4    1    3    3  502    0 -0.41401072922E+03  0.57928184040E+03 -0.62487966782E+02  0.71475778654E+03  0.12699999809E+01 0.  1.
       -4    1    3    3    0  502  0.41401072922E+03 -0.57928184040E+03 -0.58147270165E+03  0.91928474925E+03  0.12699999809E+01 0. -1.
</event>
<event>
 5   0  0.2618901E-04  0.1499435E+04  0.7818609E-02  0.8884829E-01
        2   -1    0    0  501    0  0.00000000000E+00  0.00000000000E+00  0.10798937309E+04  0.10798937309E+04  0.25500000920E-02 0.  1.
       -2   -1    0    0    0  501  0.00000000000E+00  0.00000000000E+00 -0.52049211139E+03  0.52049211140E+03  0.25500000920E-02 0. -1.
    10030    2    1    2    0    0  0.00000000000E+00  0.00000000000E+00  0.55940161947E+03  0.16003858423E+04  0.14994347843E+04 0.  0.
        1    1    3    3  502    0 -0.30885269558E+03  0.17618241954E+03 -0.42477154102E+03  0.55395044418E+03  0.50400001928E-02 0. -1.
       -1    1    3    3    0  502  0.30885269558E+03 -0.17618241954E+03  0.98417316049E+03  0.10464353981E+04  0.50400001928E-02 0.  1.
</event>
<event>
 5   0  0.1004313E-04  0.1492414E+04  0.7818609E-02  0.8889513E-01
       -3   -1    0    0    0  501  0.00000000000E+00  0.00000000000E+00  0.62884968971E+03  0.62884969782E+03  0.10100000352E+00 0.  1.
        3   -1    0    0  501    0  0.00000000000E+00  0.00000000000E+00 -0.88546545837E+03  0.88546546413E+03  0.10100000352E+00 0. -1.
    10030    2    1    2    0    0  0.00000000000E+00  0.00000000000E+00 -0.25661576865E+03  0.15143151619E+04  0.14924137352E+04 0.  0.
        1    1    3    3  502    0  0.12171154668E+03 -0.17172639683E+03 -0.85471966680E+03  0.88025528389E+03  0.50400001928E-02 0. -1.
       -1    1    3    3    0  502 -0.12171154668E+03  0.17172639683E+03  0.59810389815E+03  0.63405987806E+03  0.50400001928E-02 0.  1.
</event>
<event>
 5   0  0.2734072E-04  0.1498274E+04  0.7818609E-02  0.8885602E-01
       -2   -1    0    0    0  501  0.00000000000E+00  0.00000000000E+00  0.43673958389E+03  0.43673958390E+03  0.25500000920E-02 0.  1.
        2   -1    0    0  501    0  0.00000000000E+00  0.00000000000E+00 -0.12849897639E+04  0.12849897639E+04  0.25500000920E-02 0. -1.
    10030    2    1    2    0    0  0.00000000000E+00  0.00000000000E+00 -0.84825017998E+03  0.17217293478E+04  0.14982735328E+04 0.  0.
        5    1    3    3  502    0 -0.11126495987E+03  0.48413802202E+03 -0.10684796586E+04  0.11783210032E+04  0.46999998093E+01 0. -1.
       -5    1    3    3    0  502  0.11126495987E+03 -0.48413802202E+03  0.22022947866E+03  0.54340834456E+03  0.46999998093E+01 0.  1.
</event>
<event>
 5   0  0.2734072E-04  0.1500443E+04  0.7818609E-02  0.8884158E-01
       -2   -1    0    0    0  501  0.00000000000E+00  0.00000000000E+00  0.41045013048E+03  0.41045013049E+03  0.25500000920E-02 0. -1.
        2   -1    0    0  501    0  0.00000000000E+00  0.00000000000E+00 -0.13712565735E+04  0.13712565735E+04  0.25500000920E-02 0.  1.
    10030    2    1    2    0    0  0.00000000000E+00  0.00000000000E+00 -0.96080644303E+03  0.17817067040E+04  0.15004431872E+04 0.  0.
        5    1    3    3  502    0 -0.25536190263E+03 -0.68127504454E+03 -0.69762923176E+03  0.10079950509E+04  0.46999998093E+01 0.  1.
       -5    1    3    3    0  502  0.25536190263E+03  0.68127504454E+03 -0.26317721128E+03  0.77371165311E+03  0.46999998093E+01 0. -1.
</event>
<event>
 5   0  0.2696040E-04  0.1499016E+04  0.7818609E-02  0.8885107E-01
        2   -1    0    0  501    0  0.00000000000E+00  0.00000000000E+00  0.10183121718E+04  0.10183121718E+04  0.25500000920E-02 0. -1.
       -2   -1    0    0    0  501  0.00000000000E+00  0.00000000000E+00 -0.55166019410E+03  0.55166019411E+03  0.25500000920E-02 0.  1.
    10030    2    1    2    0    0  0.00000000000E+00  0.00000000000E+00  0.46665197773E+03  0.15699723659E+04  0.14990160645E+04 0.  0.
        2    1    3    3  502    0 -0.64537632839E+03  0.16530625982E+03 -0.12633193370E+03  0.67808297594E+03  0.25500000920E-02 0.  1.
       -2    1    3    3    0  502  0.64537632839E+03 -0.16530625982E+03  0.59298391143E+03  0.89188939000E+03  0.25500000920E-02 0. -1.
</event>
<event>
 5   0  0.1484251E-04  0.1496342E+04  0.7818609E-02  0.8886889E-01
       -1   -1    0    0    0  501  0.00000000000E+00  0.00000000000E+00  0.29178538533E+03  0.29178538537E+03  0.50400001928E-02 0.  1.
        1   -1    0    0  501    0  0.00000000000E+00  0.00000000000E+00 -0.19183960490E+04  0.19183960490E+04  0.50400001928E-02 0. -1.
    10030    2    1    2    0    0  0.00000000000E+00  0.00000000000E+00 -0.16266106637E+04  0.22101814344E+04  0.14963421139E+04 0.  0.
        5    1    3    3  502    0 -0.56680844375E+03  0.48328360321E+03 -0.91673078111E+03  0.11812079699E+04  0.46999998093E+01 0. -1.
       -5    1    3    3    0  502  0.56680844375E+03 -0.48328360321E+03 -0.70987988259E+03  0.10289734645E+04  0.46999998093E+01 0.  1.
</event>
<event>
 5   0  0.2646718E-04  0.1496877E+04  0.7818609E-02  0.8886532E-01
       -2   -1    0    0    0  501  0.00000000000E+00  0.00000000000E+00  0.13902275876E+04  0.13902275876E+04  0.25500000920E-02 0.  1.
        2   -1    0    0  501    0  0.00000000000E+00  0.00000000000E+00 -0.40292693905E+03  0.40292693906E+03  0.25500000920E-02 0. -1.
    10030    2    1    2    0    0  0.00000000000E+00  0.00000000000E+00  0.98730064853E+03  0.17931545266E+04  0.14968769441E+04 0.  0.
        3    1    3    3  502    0  0.14094444675E+03  0.13705071967E+03 -0.37144453017E+03  0.42026097371E+03  0.10100000352E+00 0. -1.
       -3    1    3    3    0  502 -0.14094444675E+03 -0.13705071967E+03  0.13587451787E+04  0.13728935529E+04  0.10100000352E+00 0.  1.
</event>
<event>
 5   0  0.1474203E-04  0.1515503E+04  0.7818609E-02  0.8874208E-01
       -1   -1    0    0    0  501  0.00000000000E+00  0.00000000000E+00  0.48669168232E+03  0.48669168235E+03  0.50400001928E-02 0.  1.
        1   -1    0    0  501    0  0.00000000000E+00  0.00000000000E+00 -0.11797770929E+04  0.11797770929E+04  0.50400001928E-02 0. -1.
    10030    2    1    2    0    0  0.00000000000E+00  0.00000000000E+00 -0.69308541057E+03  0.16664687753E+04  0.15155034782E+04 0.  0.
        3    1    3    3  502    0 -0.13058504235E+03  0.54113848723E+03 -0.91186018873E+03  0.10683502841E+04  0.10100000352E+00 0. -1.
       -3    1    3    3    0  502  0.13058504235E+03 -0.54113848723E+03  0.21877477816E+03  0.59811849111E+03  0.10100000352E+00 0.  1.
</event>
<event>
 5   0  0.2641347E-04  0.1494179E+04  0.7818609E-02  0.8888333E-01
        2   -1    0    0  501    0  0.00000000000E+00  0.00000000000E+00  0.14323415470E+04  0.14323415470E+04  0.25500000920E-02 0. -1.
       -2   -1    0    0    0  501  0.00000000000E+00  0.00000000000E+00 -0.38967138655E+03  0.38967138656E+03  0.25500000920E-02 0.  1.
    10030    2    1    2    0    0  0.00000000000E+00  0.00000000000E+00  0.10426701604E+04  0.18220129335E+04  0.14941787264E+04 0.  0.
        4    1    3    3  502    0  0.14001065304E+03 -0.56682156972E+03 -0.47033455096E+02  0.58575031683E+03  0.12699999809E+01 0.  1.
       -4    1    3    3    0  502 -0.14001065304E+03  0.56682156972E+03  0.10897036155E+04  0.12362626167E+04  0.12699999809E+01 0. -1.
</event>
<event>
 5   0  0.1443750E-04  0.1512973E+04  0.7818609E-02  0.8875872E-01
        1   -1    0    0  501    0  0.00000000000E+00  0.00000000000E+00  0.73171207838E+03  0.73171207840E+03  0.50400001928E-02 0.  1.
       -1   -1    0    0    0  501  0.00000000000E+00  0.00000000000E+00 -0.78209935757E+03  0.78209935758E+03  0.50400001928E-02 0. -1.
    10030    2    1    2    0    0  0.00000000000E+00  0.00000000000E+00 -0.50387279182E+02  0.15138114360E+04  0.15129726322E+04 0.  0.
        2    1    3    3  502    0  0.70308740372E+03 -0.20128228984E+03 -0.21875654410E+03  0.76334846765E+03  0.25500000920E-02 0. -1.
       -2    1    3    3    0  502 -0.70308740372E+03  0.20128228984E+03  0.16836926492E+03  0.75046296834E+03  0.25500000920E-02 0.  1.
</event>
<event>
 5   0  0.1426929E-04  0.1499292E+04  0.7818609E-02  0.8884924E-01
       -1   -1    0    0    0  501  0.00000000000E+00  0.00000000000E+00  0.74424887971E+03  0.74424887973E+03  0.50400001928E-02 0.  1.
        1   -1    0    0  501    0  0.00000000000E+00  0.00000000000E+00 -0.75508269682E+03  0.75508269684E+03  0.50400001928E-02 0. -1.
    10030    2    1    2    0    0  0.00000000000E+00  0.00000000000E+00 -0.10833817111E+02  0.14993315766E+04  0.14992924348E+04 0.  0.
        1    1    3    3  502    0 -0.13431811874E+03  0.70974858161E+03 -0.20588422090E+03  0.75111431791E+03  0.50400001928E-02 0.  1.
       -1    1    3    3    0  502  0.13431811874E+03 -0.70974858161E+03  0.19505040379E+03  0.74821725867E+03  0.50400001928E-02 0. -1.
</event>
<event>
 5   0  0.2734072E-04  0.1414707E+04  0.7818609E-02  0.8943242E-01
       -2   -1    0    0    0  501  0.00000000000E+00  0.00000000000E+00  0.12755837252E+04  0.12755837252E+04  0.25500000920E-02 0.  1.
        2   -1    0    0  501    0  0.00000000000E+00  0.00000000000E+00 -0.39225071222E+03  0.39225071223E+03  0.25500000920E-02 0. -1.
    10030    2    1    2    0    0  0.00000000000E+00  0.00000000000E+00  0.88333301295E+03  0.16678344374E+04  0.14147065062E+04 0.  0.
        5    1    3    3  502    0 -0.60839650417E+03  0.31226784881E+02  0.86543283110E+03  0.10583560334E+04  0.46999998093E+01 0.  1.
       -5    1    3    3    0  502  0.60839650417E+03 -0.31226784881E+02  0.17900181850E+02  0.60947840396E+03  0.46999998093E+01 0. -1.
</event>
<event>
 5   0  0.1484251E-04  0.1497922E+04  0.7818609E-02  0.8885836E-01
       -1   -1    0    0    0  501  0.00000000000E+00  0.00000000000E+00  0.79325602155E+03  0.79325602157E+03  0.50400001928E-02 0.  1.
        1   -1    0    0  501    0  0.00000000000E+00  0.00000000000E+00 -0.70713897832E+03  0.70713897834E+03  0.50400001928E-02 0. -1.
    10030    2    1    2    0    0  0.00000000000E+00  0.00000000000E+00  0.86117043230E+02  0.15003949999E+04  0.14979215636E+04 0.  0.
        5    1    3    3  502    0 -0.38635582779E+03 -0.62482141811E+03 -0.10294750626E+03  0.74181730179E+03  0.46999998093E+01 0.  1.
       -5    1    3    3    0  502  0.38635582779E+03  0.62482141811E+03  0.18906454949E+03  0.75857769811E+03  0.46999998093E+01 0. -1.
</event>
<event>
 5   0  0.2646718E-04  0.1500418E+04  0.7818609E-02  0.8884175E-01
       -2   -1    0    0    0  501  0.00000000000E+00  0.00000000000E+00  0.56231597206E+03  0.56231597206E+03  0.25500000920E-02 0.  1.
        2   -1    0    0  501    0  0.00000000000E+00  0.00000000000E+00 -0.10008850002E+04  0.10008850002E+04  0.25500000920E-02 0. -1.
    10030    2    1    2    0    0  0.00000000000E+00  0.00000000000E+00 -0.43856902816E+03  0.15632009723E+04  0.15004181042E+04 0.  0.
        3    1    3    3  502    0  0.32724695846E+03  0.30094169654E+03  0.41028315384E+03  0.60497004311E+03  0.10100000352E+00 0.  1.
       -3    1    3    3    0  502 -0.32724695846E+03 -0.30094169654E+03 -0.84885218200E+03  0.95823092917E+03  0.10100000352E+00 0. -1.
</event>
<event>
 5   0  0.2618901E-04  0.1495847E+04  0.7818609E-02  0.8887220E-01
        2   -1    0    0  501    0  0.00000000000E+00  0.00000000000E+00  0.69705329240E+03  0.69705329240E+03  0.25500000920E-02 0. -1.
       -2   -1    0    0    0  501  0.00000000000E+00  0.00000000000E+00 -0.80250585377E+03  0.80250585378E+03  0.25500000920E-02 0.  1.
    10030    2    1    2    0    0  0.00000000000E+00  0.00000000000E+00 -0.10545256138E+03  0.14995591462E+04  0.14958467135E+04 0.  0.
        1    1    3    3  502    0  0.66759568064E+03 -0.33167134212E+03  0.82479863057E+01  0.74549171779E+03  0.50400001928E-02 0.  1.
       -1    1    3    3    0  502 -0.66759568064E+03  0.33167134212E+03 -0.11370054769E+03  0.75406742839E+03  0.50400001928E-02 0. -1.
</event>
<event>
 5   0  0.1443750E-04  0.1501884E+04  0.7818609E-02  0.8883201E-01
       -1   -1    0    0    0  501  0.00000000000E+00  0.00000000000E+00  0.95764549966E+03  0.95764549967E+03  0.50400001928E-02 0.  1.
        1   -1    0    0  501    0  0.00000000000E+00  0.00000000000E+00 -0.58885454915E+03  0.58885454917E+03  0.50400001928E-02 0. -1.
    10030    2    1    2    0    0  0.00000000000E+00  0.00000000000E+00  0.36879095051E+03  0.15465000488E+04  0.15018840288E+04 0.  0.
        2    1    3    3  502    0 -0.40589174523E+03 -0.56208494122E+02  0.83238001531E+03  0.92777367582E+03  0.25500000920E-02 0.  1.
       -2    1    3    3    0  502  0.40589174523E+03  0.56208494122E+02 -0.46358906480E+03  0.61872637302E+03  0.25500000920E-02 0. -1.
</event>
<event>
 5   0  0.1443750E-04  0.1502736E+04  0.7818609E-02  0.8882635E-01
       -1   -1    0    0    0  501  0.00000000000E+00  0.00000000000E+00  0.11138818568E+04  0.11138818568E+04  0.50400001928E-02 0.  1.
        1   -1    0    0  501    0  0.00000000000E+00  0.00000000000E+00 -0.50683482257E+03  0.50683482260E+03  0.50400001928E-02 0. -1.
    10030    2    1    2    0    0  0.00000000000E+00  0.00000000000E+00  0.60704703426E+03  0.16207166794E+04  0.15027363219E+04 0.  0.
        2    1    3    3  502    0 -0.10016076512E+03  0.46866345259E+03  0.92764144175E+03  0.10441246358E+04  0.25500000920E-02 0.  1.
       -2    1    3    3    0  502  0.10016076512E+03 -0.46866345259E+03 -0.32059440749E+03  0.57659204363E+03  0.25500000920E-02 0. -1.
</event>
<event>
 5   0  0.2646718E-04  0.1496471E+04  0.7818609E-02  0.8886803E-01
        2   -1    0    0  501    0  0.00000000000E+00  0.00000000000E+00  0.97280173060E+03  0.97280173060E+03  0.25500000920E-02 0.  1.
       -2   -1    0    0    0  501  0.00000000000E+00  0.00000000000E+00 -0.57550932574E+03  0.57550932575E+03  0.25500000920E-02 0. -1.
    10030    2    1    2    0    0  0.00000000000E+00  0.00000000000E+00  0.39729240485E+03  0.15483110563E+04  0.14964711398E+04 0.  0.
        3    1    3    3  502    0 -0.87523950736E+02 -0.64119171842E+03 -0.18995663308E+03  0.67444109778E+03  0.10100000352E+00 0. -1.
       -3    1    3    3    0  502  0.87523950736E+02  0.64119171842E+03  0.58724903794E+03  0.87386995856E+03  0.10100000352E+00 0.  1.
</event>
<event>
 5   0  0.2646718E-04  0.1495413E+04  0.7818609E-02  0.8887509E-01
       -2   -1    0    0    0  501  0.00000000000E+00  0.00000000000E+00  0.69768717251E+03  0.69768717252E+03  0.25500000920E-02 0. -1.
        2   -1    0    0  501    0  0.00000000000E+00  0.00000000000E+00 -0.80131165513E+03  0.80131165513E+03  0.25500000920E-02 0.  1.
    10030    2    1    2    0    0  0.00000000000E+00  0.00000000000E+00 -0.10362448261E+03  0.14989988276E+04  0.14954128032E+04 0.  0.
        3    1    3    3  502    0 -0.64752724553E+02 -0.71740130773E+03 -0.25281066878E+03  0.76339425995E+03  0.10100000352E+00 0.  1.
       -3    1    3    3    0  502  0.64752724553E+02  0.71740130773E+03  0.14918618617E+03  0.73560456770E+03  0.10100000352E+00 0. -1.
</event>
<event>
 5   0  0.1427609E-04  0.1499914E+04  0.7818609E-02  0.8884510E-01
        1   -1    0    0  501    0  0.00000000000E+00  0.00000000000E+00  0.55936791593E+03  0.55936791595E+03  0.50400001928E-02 0.  1.
       -1   -1    0    0    0  501  0.00000000000E+00  0.00000000000E+00 -0.10054846697E+04  0.10054846697E+04  0.50400001928E-02 0. -1.
    10030    2    1    2    0    0  0.00000000000E+00  0.00000000000E+00 -0.44611675374E+03  0.15648525856E+04  0.14999144832E+04 0.  0.
        4    1    3    3  502    0 -0.35128141641E+03 -0.60180796711E+03 -0.51230280470E+03  0.86488567996E+03  0.12699999809E+01 0. -1.
       -4    1    3    3    0  502  0.35128141641E+03  0.60180796711E+03  0.66186050964E+02  0.69996690567E+03  0.12699999809E+01 0.  1.
</event>
<event>
 5   0  0.1427609E-04  0.1549011E+04  0.7818609E-02  0.8852500E-01
       -1   -1    0    0    0  501  0.00000000000E+00  0.00000000000E+00  0.59046889991E+03  0.59046889993E+03  0.50400001928E-02 0. -1.
        1   -1    0    0  501    0  0.00000000000E+00  0.00000000000E+00 -0.10159026934E+04  0.10159026934E+04  0.50400001928E-02 0.  1.
    10030    2    1    2    0    0  0.00000000000E+00  0.00000000000E+00 -0.42543379349E+03  0.16063715933E+04  0.15490112276E+04 0.  0.
        4    1    3    3  502    0 -0.60686560396E+03  0.42287634232E+03  0.25455059207E+02  0.74010798881E+03  0.12699999809E+01 0. -1.
       -4    1    3    3    0  502  0.60686560396E+03 -0.42287634232E+03 -0.45088885270E+03  0.86626360454E+03  0.12699999809E+01 0.  1.
</event>
<event>
 5   0  0.1426929E-04  0.1499966E+04  0.7818609E-02  0.8884476E-01
       -1   -1    0    0    0  501  0.00000000000E+00  0.00000000000E+00  0.58538241892E+03  0.58538241894E+03  0.50400001928E-02 0. -1.
        1   -1    0    0  501    0  0.00000000000E+00  0.00000000000E+00 -0.96086641154E+03  0.96086641155E+03  0.50400001928E-02 0.  1.
    10030    2    1    2    0    0  0.00000000000E+00  0.00000000000E+00 -0.37548399262E+03  0.15462488305E+04  0.14999657386E+04 0.  0.
        1    1    3    3  502    0  0.26242764617E+03  0.18710175303E+03  0.51035309108E+03  0.60360219769E+03  0.50400001928E-02 0. -1.
       -1    1    3    3    0  502 -0.26242764617E+03 -0.18710175303E+03 -0.88583708369E+03  0.94264663280E+03  0.50400001928E-02 0.  1.
</event>
<event>
 5   0  0.1426929E-04  0.1497387E+04  0.7818609E-02  0.8886193E-01
       -1   -1    0    0    0  501  0.00000000000E+00  0.00000000000E+00  0.47986878459E+03  0.47986878462E+03  0.50400001928E-02 0.  1.
        1   -1    0    0  501    0  0.00000000000E+00  0.00000000000E+00 -0.11681144815E+04  0.11681144815E+04  0.50400001928E-02 0. -1.
    10030    2    1    2    0    0  0.00000000000E+00  0.00000000000E+00 -0.68824569692E+03  0.16479832661E+04  0.14973866255E+04 0.  0.
        1    1    3    3  502    0  0.20806005033E+03 -0.45803562242E+03 -0.95437648614E+03  0.10788512841E+04  0.50400001928E-02 0. -1.
       -1    1    3    3    0  502 -0.20806005033E+03  0.45803562242E+03  0.26613078922E+03  0.56913198201E+03  0.50400001928E-02 0.  1.
</event>
<event>
 5   0  0.1443750E-04  0.1498076E+04  0.7818609E-02  0.8885733E-01
        1   -1    0    0  501    0  0.00000000000E+00  0.00000000000E+00  0.88113380021E+03  0.88113380022E+03  0.50400001928E-02 0. -1.
       -1   -1    0    0    0  501  0.00000000000E+00  0.00000000000E+00 -0.63674579618E+03  0.63674579620E+03  0.50400001928E-02 0.  1.
    10030    2    1    2    0    0  0.00000000000E+00  0.00000000000E+00  0.24438800402E+03  0.15178795964E+04  0.14980764242E+04 0.  0.
        2    1    3    3  502    0  0.18499397378E+03 -0.46384725852E+03  0.68785814878E+03  0.85001522481E+03  0.25500000920E-02 0. -1.
       -2    1    3    3    0  502 -0.18499397378E+03  0.46384725852E+03 -0.44347014475E+03  0.66786437161E+03  0.25500000920E-02 0.  1.
</event>
<event>
 5   0  0.1484251E-04  0.1538196E+04  0.7818609E-02  0.8859443E-01
       -1   -1    0    0    0  501  0.00000000000E+00  0.00000000000E+00  0.62128512614E+03  0.62128512616E+03  0.50400001928E-02 0.  1.
        1   -1    0    0  501    0  0.00000000000E+00  0.00000000000E+00 -0.95207726566E+03  0.95207726568E+03  0.50400001928E-02 0. -1.
    10030    2    1    2    0    0  0.00000000000E+00  0.00000000000E+00 -0.33079213953E+03  0.15733623918E+04  0.15381956236E+04 0.  0.
        5    1    3    3  502    0 -0.14152698911E+03  0.68598960899E+03  0.15947783359E+03  0.71837796576E+03  0.46999998093E+01 0.  1.
       -5    1    3    3    0  502  0.14152698911E+03 -0.68598960899E+03 -0.49026997312E+03  0.85498442607E+03  0.46999998093E+01 0. -1.
</event>
<event>
 5   0  0.1443750E-04  0.1456308E+04  0.7818609E-02  0.8914039E-01
        1   -1    0    0  501    0  0.00000000000E+00  0.00000000000E+00  0.81262270550E+03  0.81262270552E+03  0.50400001928E-02 0. -1.
       -1   -1    0    0    0  501  0.00000000000E+00  0.00000000000E+00 -0.65246531701E+03  0.65246531703E+03  0.50400001928E-02 0.  1.
    10030    2    1    2    0    0  0.00000000000E+00  0.00000000000E+00  0.16015738849E+03  0.14650880226E+04  0.14563078400E+04 0.  0.
        2    1    3    3  502    0 -0.49878467165E+03 -0.88055262112E+02 -0.44620842458E+03  0.67501247102E+03  0.25500000920E-02 0.  1.
       -2    1    3    3    0  502  0.49878467165E+03  0.88055262112E+02  0.60636581307E+03  0.79007555153E+03  0.25500000920E-02 0. -1.
</event>
<event>
 5   0  0.2618901E-04  0.1500224E+04  0.7818609E-02  0.8884304E-01
       -2   -1    0    0    0  501  0.00000000000E+00  0.00000000000E+00  0.94709931377E+03  0.94709931377E+03  0.25500000920E-02 0.  1.
        2   -1    0    0  501    0  0.00000000000E+00  0.00000000000E+00 -0.59409647262E+03  0.59409647262E+03  0.25500000920E-02 0. -1.
    10030    2    1    2    0    0  0.00000000000E+00  0.00000000000E+00  0.35300284115E+03  0.15411957864E+04  0.15002244653E+04 0.  0.
        1    1    3    3  502    0 -0.10630565112E+03  0.26141476930E+02 -0.58584582480E+03  0.59598624039E+03  0.50400001928E-02 0. -1.
       -1    1    3    3    0  502  0.10630565112E+03 -0.26141476930E+02  0.93884866595E+03  0.94520954600E+03  0.50400001928E-02 0.  1.
</event>
<event>
 5   0  0.2618901E-04  0.1505602E+04  0.7818609E-02  0.8880736E-01
       -2   -1    0    0    0  501  0.00000000000E+00  0.00000000000E+00  0.80441192372E+03  0.80441192372E+03  0.25500000920E-02 0.  1.
        2   -1    0    0  501    0  0.00000000000E+00  0.00000000000E+00 -0.70450188579E+03  0.70450188579E+03  0.25500000920E-02 0. -1.
    10030    2    1    2    0    0  0.00000000000E+00  0.00000000000E+00  0.99910037926E+02  0.15089138095E+04  0.15056024936E+04 0.  0.
        1    1    3    3  502    0  0.25995546374E+03  0.35220215019E+03 -0.56383501958E+03  0.71381589157E+03  0.50400001928E-02 0. -1.
       -1    1    3    3    0  502 -0.25995546374E+03 -0.35220215019E+03  0.66374505751E+03  0.79509791794E+03  0.50400001928E-02 0.  1.
</event>
<event>
 5   0  0.2696040E-04  0.1501252E+04  0.7818609E-02  0.8883621E-01
       -2   -1    0    0    0  501  0.00000000000E+00  0.00000000000E+00  0.53171825110E+03  0.53171825111E+03  0.25500000920E-02 0.  1.
        2   -1    0    0  501    0  0.00000000000E+00  0.00000000000E+00 -0.10596578972E+04  0.10596578972E+04  0.25500000920E-02 0. -1.
    10030    2    1    2    0    0  0.00000000000E+00  0.00000000000E+00 -0.52793964608E+03  0.15913761483E+04  0.15012520693E+04 0.  0.
        2    1    3    3  502    0  0.59979013384E+03 -0.40981880190E+03 -0.46436866912E+03  0.86217046801E+03  0.25500000920E-02 0.  1.
       -2    1    3    3    0  502 -0.59979013384E+03  0.40981880190E+03 -0.63570976958E+02  0.72920568028E+03  0.25500000920E-02 0. -1.
</event>
<event>
 5   0  0.1427609E-04  0.1476562E+04  0.7818609E-02  0.8900190E-01
        1   -1    0    0  501    0  0.00000000000E+00  0.00000000000E+00  0.89991311322E+03  0.89991311324E+03  0.50400001928E-02 0. -1.
       -1   -1    0    0    0  501  0.00000000000E+00  0.00000000000E+00 -0.60567939385E+03  0.60567939387E+03  0.50400001928E-02 0.  1.
    10030    2    1    2    0    0  0.00000000000E+00  0.00000000000E+00  0.29423371938E+03  0.15055925071E+04  0.14765619919E+04 0.  0.
        4    1    3    3  502    0  0.67021915591E+03 -0.22635753022E+03 -0.68284583851E+02  0.71070095380E+03  0.12699999809E+01 0.  1.
       -4    1    3    3    0  502 -0.67021915591E+03  0.22635753022E+03  0.36251830323E+03  0.79489155330E+03  0.12699999809E+01 0. -1.
</event>
<event>
 5   0  0.1427609E-04  0.1515884E+04  0.7818609E-02  0.8873958E-01
       -1   -1    0    0    0  501  0.00000000000E+00  0.00000000000E+00  0.69927469468E+03  0.69927469470E+03  0.50400001928E-02 0. -1.
        1   -1    0    0  501    0  0.00000000000E+00  0.00000000000E+00 -0.82153137803E+03  0.82153137805E+03  0.50400001928E-02 0.  1.
    10030    2    1    2    0    0  0.00000000000E+00  0.00000000000E+00 -0.12225668335E+03  0.15208060727E+04  0.15158840372E+04 0.  0.
        4    1    3    3  502    0  0.42354998012E+03  0.62651519026E+03 -0.11187539993E+03  0.76448256179E+03  0.12699999809E+01 0.  1.
       -4    1    3    3    0  502 -0.42354998012E+03 -0.62651519026E+03 -0.10381283419E+02  0.75632351095E+03  0.12699999809E+01 0. -1.
</event>
<event>
 5   0  0.1426929E-04  0.1496941E+04  0.7818609E-02  0.8886490E-01
       -1   -1    0    0    0  501  0.00000000000E+00  0.00000000000E+00  0.62179477328E+03  0.62179477330E+03  0.50400001928E-02 0.  1.
        1   -1    0    0  501    0  0.00000000000E+00  0.00000000000E+00 -0.90095321382E+03  0.90095321384E+03  0.50400001928E-02 0. -1.
    10030    2    1    2    0    0  0.00000000000E+00  0.00000000000E+00 -0.27915844055E+03  0.15227479871E+04  0.14969408797E+04 0.  0.
        1    1    3    3  502    0 -0.45149163553E+01  0.13620368185E+03 -0.88822643894E+03  0.89862007227E+03  0.50400001928E-02 0. -1.
       -1    1    3    3    0  502  0.45149163553E+01 -0.13620368185E+03  0.60906799840E+03  0.62412791487E+03  0.50400001928E-02 0.  1.
</event>
<event>
 5   0  0.1443750E-04  0.1450398E+04  0.7818609E-02  0.8918125E-01
       -1   -1    0    0    0  501  0.00000000000E+00  0.00000000000E+00  0.35951312897E+03  0.35951312900E+03  0.50400001928E-02 0.  1.
        1   -1    0    0  501    0  0.00000000000E+00  0.00000000000E+00 -0.14628485790E+04  0.14628485790E+04  0.50400001928E-02 0. -1.
    10030    2    1    2    0    0  0.00000000000E+00  0.00000000000E+00 -0.11033354501E+04  0.18223617081E+04  0.14503975592E+04 0.  0.
        2    1    3    3  502    0 -0.90535119140E+02 -0.55624813718E+02  0.34967908078E+03  0.36546708092E+03  0.25500000920E-02 0.  1.
       -2    1    3    3    0  502  0.90535119140E+02  0.55624813718E+02 -0.14530145308E+04  0.14568946271E+04  0.25500000920E-02 0. -1.
</event>
<event>
 5   0  0.1443750E-04  0.1511735E+04  0.7818609E-02  0.8876686E-01
       -1   -1    0    0    0  501  0.00000000000E+00  0.00000000000E+00  0.87808415209E+03  0.87808415210E+03  0.50400001928E-02 0.  1.
        1   -1    0    0  501    0  0.00000000000E+00  0.00000000000E+00 -0.65066184951E+03  0.65066184953E+03  0.50400001928E-02 0. -1.
    10030    2    1    2    0    0  0.00000000000E+00  0.00000000000E+00  0.22742230257E+03  0.15287460016E+04  0.15117352393E+04 0.  0.
        2    1    3    3  502    0 -0.50486558016E+03  0.25442806611E+03 -0.39364436752E+03  0.68889678686E+03  0.25500000920E-02 0. -1.
       -2    1    3    3    0  502  0.50486558016E+03 -0.25442806611E+03  0.62106667009E+03  0.83984921478E+03  0.25500000920E-02 0.  1.
</event>
<event>
 5   0  0.2646718E-04  0.1501972E+04  0.7818609E-02  0.8883143E-01
       -2   -1    0    0    0  501  0.00000000000E+00  0.00000000000E+00  0.32230528619E+03  0.32230528620E+03  0.25500000920E-02 0. -1.
        2   -1    0    0  501    0  0.00000000000E+00  0.00000000000E+00 -0.17498308864E+04  0.17498308864E+04  0.25500000920E-02 0.  1.
    10030    2    1    2    0    0  0.00000000000E+00  0.00000000000E+00 -0.14275256002E+04  0.20721361726E+04  0.15019716970E+04 0.  0.
        3    1    3    3  502    0  0.54741203849E+03  0.22085249643E+03 -0.13542706864E+04  0.14773235486E+04  0.10100000352E+00 0. -1.
       -3    1    3    3    0  502 -0.54741203849E+03 -0.22085249643E+03 -0.73254913833E+02  0.59481262400E+03  0.10100000352E+00 0.  1.
</event>
<event>
 5   0  0.2618901E-04  0.1498881E+04  0.7818609E-02  0.8885197E-01
       -2   -1    0    0    0  501  0.00000000000E+00  0.00000000000E+00  0.55746922101E+03  0.55746922102E+03  0.25500000920E-02 0.  1.
        2   -1    0    0  501    0  0.00000000000E+00  0.00000000000E+00 -0.10075198618E+04  0.10075198618E+04  0.25500000920E-02 0. -1.
    10030    2    1    2    0    0  0.00000000000E+00  0.00000000000E+00 -0.45005064075E+03  0.15649890828E+04  0.14988813329E+04 0.  0.
        1    1    3    3  502    0 -0.62463221020E+03 -0.14782583977E+03 -0.62892443067E+03  0.89864554550E+03  0.50400001928E-02 0.  1.
       -1    1    3    3    0  502  0.62463221020E+03  0.14782583977E+03  0.17887378992E+03  0.66634353728E+03  0.50400001928E-02 0. -1.
</event>
<event>
 5   0  0.2646718E-04  0.1498537E+04  0.7818609E-02  0.8885427E-01
        2   -1    0    0  501    0  0.00000000000E+00  0.00000000000E+00  0.14105115771E+04  0.14105115771E+04  0.25500000920E-02 0. -1.
       -2   -1    0    0    0  501  0.00000000000E+00  0.00000000000E+00 -0.39801381636E+03  0.39801381637E+03  0.25500000920E-02 0.  1.
    10030    2    1    2    0    0  0.00000000000E+00  0.00000000000E+00  0.10124977607E+04  0.18085253935E+04  0.14985367474E+04 0.  0.
        3    1    3    3  502    0 -0.49305572411E+03 -0.21277377220E+03  0.11368570361E+04  0.12573068662E+04  0.10100000352E+00 0. -1.
       -3    1    3    3    0  502  0.49305572411E+03  0.21277377220E+03 -0.12435927533E+03  0.55121852724E+03  0.10100000352E+00 0.  1.
</event>
<event>
 5   0  0.1426929E-04  0.1498497E+04  0.7818609E-02  0.8885453E-01
        1   -1    0    0  501    0  0.00000000000E+00  0.00000000000E+00  0.36291736138E+03  0.36291736141E+03  0.50400001928E-02 0.  1.
       -1   -1    0    0    0  501  0.00000000000E+00  0.00000000000E+00 -0.15468340890E+04  0.15468340890E+04  0.50400001928E-02 0. -1.
    10030    2    1    2    0    0  0.00000000000E+00  0.00000000000E+00 -0.11839167276E+04  0.19097514504E+04  0.14984965080E+04 0.  0.
        1    1    3    3  502    0  0.16216683922E+03  0.35350287734E+03  0.22419466929E+03  0.44891604760E+03  0.50400001928E-02 0.  1.
       -1    1    3    3    0  502 -0.16216683922E+03 -0.35350287734E+03 -0.14081113969E+04  0.14608354028E+04  0.50400001928E-02 0. -1.
</event>
<event>
 5   0  0.2696040E-04  0.1495992E+04  0.7818609E-02  0.8887123E-01
       -2   -1    0    0    0  501  0.00000000000E+00  0.00000000000E+00  0.41369239117E+03  0.41369239117E+03  0.25500000920E-02 0. -1.
        2   -1    0    0  501    0  0.00000000000E+00  0.00000000000E+00 -0.13524487836E+04  0.13524487836E+04  0.25500000920E-02 0.  1.
    10030    2    1    2    0    0  0.00000000000E+00  0.00000000000E+00 -0.93875639245E+03  0.17661411748E+04  0.14959916727E+04 0.  0.
        2    1    3    3  502    0 -0.79314563336E+02 -0.67707272637E+03 -0.83283552752E+03  0.10762589338E+04  0.25500000920E-02 0.  1.
       -2    1    3    3    0  502  0.79314563336E+02  0.67707272637E+03 -0.10592086493E+03  0.68988224096E+03  0.25500000920E-02 0. -1.
</event>
<event>
 5   0  0.2696040E-04  0.1506042E+04  0.7818609E-02  0.8880445E-01
        2   -1    0    0  501    0  0.00000000000E+00  0.00000000000E+00  0.74023864338E+03  0.74023864339E+03  0.25500000920E-02 0.  1.
       -2   -1    0    0    0  501  0.00000000000E+00  0.00000000000E+00 -0.76602422856E+03  0.76602422857E+03  0.25500000920E-02 0. -1.
    10030    2    1    2    0    0  0.00000000000E+00  0.00000000000E+00 -0.25785585179E+02  0.15062628720E+04  0.15060421452E+04 0.  0.
        2    1    3    3  502    0  0.74223733797E+03 -0.56799939380E+02  0.10069425682E+03  0.75118694900E+03  0.25500000920E-02 0.  1.
       -2    1    3    3    0  502 -0.74223733797E+03  0.56799939380E+02 -0.12647984200E+03  0.75507592296E+03  0.25500000920E-02 0. -1.
</event>
<event>
 5   0  0.1427609E-04  0.1499715E+04  0.7818609E-02  0.8884643E-01
       -1   -1    0    0    0  501  0.00000000000E+00  0.00000000000E+00  0.75354102458E+03  0.75354102460E+03  0.50400001928E-02 0. -1.
        1   -1    0    0  501    0  0.00000000000E+00  0.00000000000E+00 -0.74619163461E+03  0.74619163462E+03  0.50400001928E-02 0.  1.
    10030    2    1    2    0    0  0.00000000000E+00  0.00000000000E+00  0.73493899750E+01  0.14997326592E+04  0.14997146514E+04 0.  0.
        4    1    3    3  502    0 -0.21520601667E+03 -0.31965600923E+03  0.64694815115E+03  0.75301866977E+03  0.12699999809E+01 0. -1.
       -4    1    3    3    0  502  0.21520601667E+03  0.31965600923E+03 -0.63959876117E+03  0.74671398945E+03  0.12699999809E+01 0.  1.
</event>
<event>
 5   0  0.1443750E-04  0.1439600E+04  0.7818609E-02  0.8925643E-01
       -1   -1    0    0    0  501  0.00000000000E+00  0.00000000000E+00  0.43308772955E+03  0.43308772958E+03  0.50400001928E-02 0. -1.
        1   -1    0    0  501    0  0.00000000000E+00  0.00000000000E+00 -0.11963204071E+04  0.11963204071E+04  0.50400001928E-02 0.  1.
    10030    2    1    2    0    0  0.00000000000E+00  0.00000000000E+00 -0.76323267756E+03  0.16294081367E+04  0.14395995123E+04 0.  0.
        2    1    3    3  502    0 -0.27277029350E+03  0.29554155749E+03  0.29405366901E+03  0.49821281144E+03  0.25500000920E-02 0. -1.
       -2    1    3    3    0  502  0.27277029350E+03 -0.29554155749E+03 -0.10572863466E+04  0.11311953253E+04  0.25500000920E-02 0.  1.
</event>
<event>
 5   0  0.1484251E-04  0.1507055E+04  0.7818609E-02  0.8879775E-01
       -1   -1    0    0    0  501  0.00000000000E+00  0.00000000000E+00  0.10219649205E+04  0.10219649205E+04  0.50400001928E-02 0.  1.
        1   -1    0    0  501    0  0.00000000000E+00  0.00000000000E+00 -0.55560033442E+03  0.55560033444E+03  0.50400001928E-02 0. -1.
    10030    2    1    2    0    0  0.00000000000E+00  0.00000000000E+00  0.46636458604E+03  0.15775652549E+04  0.15070554756E+04 0.  0.
        5    1    3    3  502    0  0.23469758218E+03  0.40489496299E+03  0.85137069405E+03  0.97153334211E+03  0.46999998093E+01 0. -1.
       -5    1    3    3    0  502 -0.23469758218E+03 -0.40489496299E+03 -0.38500610801E+03  0.60603191281E+03  0.46999998093E+01 0.  1.
</event>
<event>
 5   0  0.2641347E-04  0.1499973E+04  0.7818609E-02  0.8884471E-01
        2   -1    0    0  501    0  0.00000000000E+00  0.00000000000E+00  0.52099455125E+03  0.52099455126E+03  0.25500000920E-02 0. -1.
       -2   -1    0    0    0  501  0.00000000000E+00  0.00000000000E+00 -0.10796271832E+04  0.10796271832E+04  0.25500000920E-02 0.  1.
    10030    2    1    2    0    0  0.00000000000E+00  0.00000000000E+00 -0.55863263194E+03  0.16006217345E+04  0.14999731729E+04 0.  0.
        4    1    3    3  502    0 -0.10146382272E+02 -0.12234493991E+03 -0.10688313507E+04  0.10758593321E+04  0.12699999809E+01 0.  1.
       -4    1    3    3    0  502  0.10146382272E+02  0.12234493991E+03  0.51019871875E+03  0.52476240233E+03  0.12699999809E+01 0. -1.
</event>
<event>
 5   0  0.1484251E-04  0.1530727E+04  0.7818609E-02  0.8864273E-01
        1   -1    0    0  501    0  0.00000000000E+00  0.00000000000E+00  0.36063492003E+03  0.36063492006E+03  0.50400001928E-02 0.  1.
       -1   -1    0    0    0  501  0.00000000000E+00  0.00000000000E+00 -0.16243061173E+04  0.16243061173E+04  0.50400001928E-02 0. -1.
    10030    2    1    2    0    0  0.00000000000E+00  0.00000000000E+00 -0.12636711973E+04  0.19849410374E+04  0.15307272870E+04 0.  0.
        5    1    3    3  502    0  0.49676725353E+03  0.84951167864E+02 -0.13787401020E+04  0.14679716496E+04  0.46999998093E+01 0.  1.
       -5    1    3    3    0  502 -0.49676725353E+03 -0.84951167864E+02  0.11506890472E+03  0.51696938781E+03  0.46999998093E+01 0. -1.
</event>
<event>
 5   0  0.2618901E-04  0.1511898E+04  0.7818609E-02  0.8876579E-01
        2   -1    0    0  501    0  0.00000000000E+00  0.00000000000E+00  0.31830226619E+03  0.31830226620E+03  0.25500000920E-02 0. -1.
       -2   -1    0    0    0  501  0.00000000000E+00  0.00000000000E+00 -0.17953346736E+04  0.17953346736E+04  0.25500000920E-02 0.  1.
    10030    2    1    2    0    0  0.00000000000E+00  0.00000000000E+00 -0.14770324074E+04  0.21136369398E+04  0.15118982706E+04 0.  0.
        1    1    3    3  502    0 -0.18826097977E+03  0.21522195557E+03  0.23978205295E+03  0.37317304245E+03  0.50400001928E-02 0. -1.
       -1    1    3    3    0  502  0.18826097977E+03 -0.21522195557E+03 -0.17168144603E+04  0.17404638973E+04  0.50400001928E-02 0.  1.
</event>
<event>
 5   0  0.1484251E-04  0.1492780E+04  0.7818609E-02  0.8889268E-01
       -1   -1    0    0    0  501  0.00000000000E+00  0.00000000000E+00  0.72800001545E+03  0.72800001547E+03  0.50400001928E-02 0.  1.
        1   -1    0    0  501    0  0.00000000000E+00  0.00000000000E+00 -0.76524468705E+03  0.76524468707E+03  0.50400001928E-02 0. -1.
    10030    2    1    2    0    0  0.00000000000E+00  0.00000000000E+00 -0.37244671603E+02  0.14932447025E+04  0.14927801500E+04 0.  0.
        5    1    3    3  502    0 -0.49407112806E+03 -0.22101436522E+03  0.49546602234E+03  0.73379990359E+03  0.46999998093E+01 0. -1.
       -5    1    3    3    0  502  0.49407112806E+03  0.22101436522E+03 -0.53271069394E+03  0.75944479895E+03  0.46999998093E+01 0.  1.
</event>
<event>
 5   0  0.1426929E-04  0.1498107E+04  0.7818609E-02  0.8885713E-01
        1   -1    0    0  501    0  0.00000000000E+00  0.00000000000E+00  0.67554018376E+03  0.67554018378E+03  0.50400001928E-02 0.  1.
       -1   -1    0    0    0  501  0.00000000000E+00  0.00000000000E+00 -0.83056652181E+03  0.83056652182E+03  0.50400001928E-02 0. -1.
    10030    2    1    2    0    0  0.00000000000E+00  0.00000000000E+00 -0.15502633805E+03  0.15061067056E+04  0.14981068864E+04 0.  0.
        1    1    3    3  502    0 -0.22369740688E+03 -0.28649809161E+03 -0.73596047242E+03  0.82082854686E+03  0.50400001928E-02 0. -1.
       -1    1    3    3    0  502  0.22369740688E+03  0.28649809161E+03  0.58093413437E+03  0.68527815874E+03  0.50400001928E-02 0.  1.
</event>
<event>
 5   0  0.1474203E-04  0.1498855E+04  0.7818609E-02  0.8885215E-01
       -1   -1    0    0    0  501  0.00000000000E+00  0.00000000000E+00  0.10679647102E+04  0.10679647102E+04  0.50400001928E-02 0. -1.
        1   -1    0    0  501    0  0.00000000000E+00  0.00000000000E+00 -0.52589912067E+03  0.52589912070E+03  0.50400001928E-02 0.  1.
    10030    2    1    2    0    0  0.00000000000E+00  0.00000000000E+00  0.54206558951E+03  0.15938638309E+04  0.14988551658E+04 0.  0.
        3    1    3    3  502    0 -0.63093205225E+03 -0.31996874776E+03  0.79944087638E+01  0.70747379801E+03  0.10100000352E+00 0.  1.
       -3    1    3    3    0  502  0.63093205225E+03  0.31996874776E+03  0.53407118075E+03  0.88639003289E+03  0.10100000352E+00 0. -1.
</event>
<event>
 5   0  0.1484251E-04  0.1501729E+04  0.7818609E-02  0.8883304E-01
       -1   -1    0    0    0  501  0.00000000000E+00  0.00000000000E+00  0.12626270603E+04  0.12626270603E+04  0.50400001928E-02 0.  1.
        1   -1    0    0  501    0  0.00000000000E+00  0.00000000000E+00 -0.44652740144E+03  0.44652740146E+03  0.50400001928E-02 0. -1.
    10030    2    1    2    0    0  0.00000000000E+00  0.00000000000E+00  0.81609965883E+03  0.17091544617E+04  0.15017291104E+04 0.  0.
        5    1    3    3  502    0 -0.11426260885E+02  0.47158736256E+03 -0.25680408237E+03  0.53711788900E+03  0.46999998093E+01 0. -1.
       -5    1    3    3    0  502  0.11426260885E+02 -0.47158736256E+03  0.10729037412E+04  0.11720365727E+04  0.46999998093E+01 0.  1.
</event>
<event>
 5   0  0.2641347E-04  0.1493821E+04  0.7818609E-02  0.8888572E-01
        2   -1    0    0  501    0  0.00000000000E+00  0.00000000000E+00  0.11523576718E+04  0.11523576718E+04  0.25500000920E-02 0. -1.
       -2   -1    0    0    0  501  0.00000000000E+00  0.00000000000E+00 -0.48411670665E+03  0.48411670666E+03  0.25500000920E-02 0.  1.
    10030    2    1    2    0    0  0.00000000000E+00  0.00000000000E+00  0.66824096511E+03  0.16364743784E+04  0.14938214096E+04 0.  0.
        4    1    3    3  502    0  0.33635492571E+03 -0.14099001876E+03 -0.37993843837E+03  0.52665705282E+03  0.12699999809E+01 0.  1.
       -4    1    3    3    0  502 -0.33635492571E+03  0.14099001876E+03  0.10481794035E+04  0.11098173256E+04  0.12699999809E+01 0. -1.
</event>
<event>
 5   0  0.2646718E-04  0.1499722E+04  0.7818609E-02  0.8884638E-01
       -2   -1    0    0    0  501  0.00000000000E+00  0.00000000000E+00  0.12471094122E+04  0.12471094122E+04  0.25500000920E-02 0. -1.
        2   -1    0    0  501    0  0.00000000000E+00  0.00000000000E+00 -0.45087582965E+03  0.45087582966E+03  0.25500000920E-02 0.  1.
    10030    2    1    2    0    0  0.00000000000E+00  0.00000000000E+00  0.79623358253E+03  0.16979852418E+04  0.14997219621E+04 0.  0.
        3    1    3    3  502    0  0.54058193453E+03  0.43172868174E+03  0.72562020043E+03  0.10025682860E+04  0.10100000352E+00 0. -1.
       -3    1    3    3    0  502 -0.54058193453E+03 -0.43172868174E+03  0.70613382104E+02  0.69541695587E+03  0.10100000352E+00 0.  1.
</event>
<event>
 5   0  0.2696040E-04  0.1490618E+04  0.7818609E-02  0.8890716E-01
       -2   -1    0    0    0  501  0.00000000000E+00  0.00000000000E+00  0.12477904734E+04  0.12477904734E+04  0.25500000920E-02 0.  1.
        2   -1    0    0  501    0  0.00000000000E+00  0.00000000000E+00 -0.44517523674E+03  0.44517523674E+03  0.25500000920E-02 0. -1.
    10030    2    1    2    0    0  0.00000000000E+00  0.00000000000E+00  0.80261523670E+03  0.16929657102E+04  0.14906178845E+04 0.  0.
        2    1    3    3  502    0 -0.25624926605E+03 -0.42439705551E+03 -0.23075289233E+03  0.54683036164E+03  0.25500000920E-02 0. -1.
       -2    1    3    3    0  502  0.25624926605E+03  0.42439705551E+03  0.10333681290E+04  0.11461353485E+04  0.25500000920E-02 0.  1.
</event>
<event>
 5   0  0.2618901E-04  0.1510210E+04  0.7818609E-02  0.8877691E-01
       -2   -1    0    0    0  501  0.00000000000E+00  0.00000000000E+00  0.20776682150E+03  0.20776682152E+03  0.25500000920E-02 0. -1.
        2   -1    0    0  501    0  0.00000000000E+00  0.00000000000E+00 -0.27443447101E+04  0.27443447101E+04  0.25500000920E-02 0.  1.
    10030    2    1    2    0    0  0.00000000000E+00  0.00000000000E+00 -0.25365778886E+04  0.29521115316E+04  0.15102102867E+04 0.  0.
        1    1    3    3  502    0 -0.21183538886E+03 -0.68210572613E+02 -0.26787825963E+04  0.26880109956E+04  0.50400001928E-02 0.  1.
       -1    1    3    3    0  502  0.21183538886E+03  0.68210572613E+02  0.14220470773E+03  0.26410053600E+03  0.50400001928E-02 0. -1.
</event>
<event>
 5   0  0.2734072E-04  0.1489529E+04  0.7818609E-02  0.8891446E-01
       -2   -1    0    0    0  501  0.00000000000E+00  0.00000000000E+00  0.10536858682E+04  0.10536858682E+04  0.25500000920E-02 0. -1.
        2   -1    0    0  501    0  0.00000000000E+00  0.00000000000E+00 -0.52641291279E+03  0.52641291279E+03  0.25500000920E-02 0.  1.
    10030    2    1    2    0    0  0.00000000000E+00  0.00000000000E+00  0.52727295546E+03  0.15800987810E+04  0.14895285792E+04 0.  0.
        5    1    3    3  502    0 -0.70846653893E+03  0.22894945318E+03  0.28228577819E+03  0.79627259118E+03  0.46999998093E+01 0. -1.
       -5    1    3    3    0  502  0.70846653893E+03 -0.22894945318E+03  0.24498717727E+03  0.78382618986E+03  0.46999998093E+01 0.  1.
</event>
<event>
 5   0  0.2646718E-04  0.1501597E+04  0.7818609E-02  0.8883392E-01
        2   -1    0    0  501    0  0.00000000000E+00  0.00000000000E+00  0.12420089258E+04  0.12420089258E+04  0.25500000920E-02 0.  1.
       -2   -1    0    0    0  501  0.00000000000E+00  0.00000000000E+00 -0.45386013870E+03  0.45386013871E+03  0.25500000920E-02 0. -1.
    10030    2    1    2    0    0  0.00000000000E+00  0.00000000000E+00  0.78814878705E+03  0.16958690645E+04  0.15015969410E+04 0.  0.
        3    1    3    3  502    0  0.63156631653E+03  0.40156518893E+03  0.46153252754E+03  0.87928544700E+03  0.10100000352E+00 0.  1.
       -3    1    3    3    0  502 -0.63156631653E+03 -0.40156518893E+03  0.32661625951E+03  0.81658361746E+03  0.10100000352E+00 0. -1.
</event>
<event>
 5   0  0.1426929E-04  0.1506158E+04  0.7818609E-02  0.8880368E-01
       -1   -1    0    0    0  501  0.00000000000E+00  0.00000000000E+00  0.25401321377E+03  0.25401321382E+03  0.50400001928E-02 0.  1.
        1   -1    0    0  501    0  0.00000000000E+00  0.00000000000E+00 -0.22326726546E+04  0.22326726546E+04  0.50400001928E-02 0. -1.
    10030    2    1    2    0    0  0.00000000000E+00  0.00000000000E+00 -0.19786594408E+04  0.24866858684E+04  0.15061584994E+04 0.  0.
        1    1    3    3  502    0  0.82015355704E+02 -0.50157417690E+03 -0.19068308402E+04  0.19733998649E+04  0.50400001928E-02 0. -1.
       -1    1    3    3    0  502 -0.82015355704E+02  0.50157417690E+03 -0.71828600569E+02  0.51328600350E+03  0.50400001928E-02 0.  1.
</event>
<event>
 5   0  0.1474203E-04  0.1496817E+04  0.7818609E-02  0.8886572E-01
       -1   -1    0    0    0  501  0.00000000000E+00  0.00000000000E+00  0.68346236499E+03  0.68346236501E+03  0.50400001928E-02 0. -1.
        1   -1    0    0  501    0  0.00000000000E+00  0.00000000000E+00 -0.81952625435E+03  0.81952625437E+03  0.50400001928E-02 0.  1.
    10030    2    1    2    0    0  0.00000000000E+00  0.00000000000E+00 -0.13606388936E+03  0.15029886194E+04  0.14968170924E+04 0.  0.
        3    1    3    3  502    0 -0.30248698145E+03 -0.54836818209E+03 -0.47948883548E+03  0.78874304474E+03  0.10100000352E+00 0.  1.
       -3    1    3    3    0  502  0.30248698145E+03  0.54836818209E+03  0.34342494611E+03  0.71424557464E+03  0.10100000352E+00 0. -1.
</event>
<event>
 5   0  0.1484251E-04  0.1498251E+04  0.7818609E-02  0.8885617E-01
        1   -1    0    0  501    0  0.00000000000E+00  0.00000000000E+00  0.58648182542E+03  0.58648182544E+03  0.50400001928E-02 0.  1.
       -1   -1    0    0    0  501  0.00000000000E+00  0.00000000000E+00 -0.95687307894E+03  0.95687307895E+03  0.50400001928E-02 0. -1.
    10030    2    1    2    0    0  0.00000000000E+00  0.00000000000E+00 -0.37039125352E+03  0.15433549044E+04  0.14982505399E+04 0.  0.
        5    1    3    3  502    0 -0.72055860742E+03  0.14815509725E+03 -0.39473344349E+02  0.73670541907E+03  0.46999998093E+01 0.  1.
       -5    1    3    3    0  502  0.72055860742E+03 -0.14815509725E+03 -0.33091790917E+03  0.80664948533E+03  0.46999998093E+01 0. -1.
</event>
<event>
 5   0  0.1474203E-04  0.1474846E+04  0.7818609E-02  0.8901355E-01
       -1   -1    0    0    0  501  0.00000000000E+00  0.00000000000E+00  0.91991803158E+03  0.91991803159E+03  0.50400001928E-02 0. -1.
        1   -1    0    0  501    0  0.00000000000E+00  0.00000000000E+00 -0.59113131941E+03  0.59113131943E+03  0.50400001928E-02 0.  1.
    10030    2    1    2    0    0  0.00000000000E+00  0.00000000000E+00  0.32878671217E+03  0.15110493510E+04  0.14748455645E+04 0.  0.
        3    1    3    3  502    0  0.46991054462E+02 -0.42301510842E+03  0.78137379825E+03  0.88977242256E+03  0.10100000352E+00 0. -1.
       -3    1    3    3    0  502 -0.46991054462E+02  0.42301510842E+03 -0.45258708608E+03  0.62127692847E+03  0.10100000352E+00 0.  1.
</event>
<event>
 5   0  0.2696040E-04  0.1497639E+04  0.7818609E-02  0.8886025E-01
       -2   -1    0    0    0  501  0.00000000000E+00  0.00000000000E+00  0.62641332510E+03  0.62641332510E+03  0.25500000920E-02 0.  1.
        2   -1    0    0  501    0  0.00000000000E+00  0.00000000000E+00 -0.89514439517E+03  0.89514439517E+03  0.25500000920E-02 0. -1.
    10030    2    1    2    0    0  0.00000000000E+00  0.00000000000E+00 -0.26873107007E+03  0.15215577203E+04  0.14976386440E+04 0.  0.
        2    1    3    3  502    0  0.40921242685E+03  0.46650508375E+03  0.29143255382E+03  0.68557620793E+03  0.25500000920E-02 0.  1.
       -2    1    3    3    0  502 -0.40921242685E+03 -0.46650508375E+03 -0.56016362389E+03  0.83598151235E+03  0.25500000920E-02 0. -1.
</event>
<event>
 5   0  0.2646718E-04  0.1497461E+04  0.7818609E-02  0.8886143E-01
        2   -1    0    0  501    0  0.00000000000E+00  0.00000000000E+00  0.17372375510E+04  0.17372375510E+04  0.25500000920E-02 0.  1.
       -2   -1    0    0    0  501  0.00000000000E+00  0.00000000000E+00 -0.32269478346E+03  0.32269478347E+03  0.25500000920E-02 0. -1.
    10030    2    1    2    0    0  0.00000000000E+00  0.00000000000E+00  0.14145427675E+04  0.20599323345E+04  0.14974611786E+04 0.  0.
        3    1    3    3  502    0  0.29617268237E+03 -0.93567363098E+02 -0.22989040286E+03  0.38642297647E+03  0.10100000352E+00 0. -1.
       -3    1    3    3    0  502 -0.29617268237E+03  0.93567363098E+02  0.16444331704E+04  0.16735093580E+04  0.10100000352E+00 0.  1.
</event>
<event>
 5   0  0.1474203E-04  0.1498218E+04  0.7818609E-02  0.8885639E-01
        1   -1    0    0  501    0  0.00000000000E+00  0.00000000000E+00  0.11254445525E+04  0.11254445525E+04  0.50400001928E-02 0.  1.
       -1   -1    0    0    0  501  0.00000000000E+00  0.00000000000E+00 -0.49861568339E+03  0.49861568341E+03  0.50400001928E-02 0. -1.
    10030    2    1    2    0    0  0.00000000000E+00  0.00000000000E+00  0.62682886912E+03  0.16240602359E+04  0.14982180144E+04 0.  0.
        3    1    3    3  502    0 -0.11864084279E+03  0.13216686369E+03  0.11022918783E+04  0.11165084526E+04  0.10100000352E+00 0.  1.
       -3    1    3    3    0  502  0.11864084279E+03 -0.13216686369E+03 -0.47546300922E+03  0.50755178334E+03  0.10100000352E+00 0. -1.
</event>
<event>
 5   0  0.1443750E-04  0.1497787E+04  0.7818609E-02  0.8885926E-01
       -1   -1    0    0    0  501  0.00000000000E+00  0.00000000000E+00  0.11002052164E+04  0.11002052164E+04  0.50400001928E-02 0. -1.
        1   -1    0    0  501    0  0.00000000000E+00  0.00000000000E+00 -0.50976109739E+03  0.50976109742E+03  0.50400001928E-02 0.  1.
    10030    2    1    2    0    0  0.00000000000E+00  0.00000000000E+00  0.59044411898E+03  0.16099663138E+04  0.14977874595E+04 0.  0.
        2    1    3    3  502    0  0.68465727875E+03 -0.18979242424E+03  0.54973669649E+03  0.89832465686E+03  0.25500000920E-02 0. -1.
       -2    1    3    3    0  502 -0.68465727875E+03  0.18979242424E+03  0.40707422488E+02  0.71164165694E+03  0.25500000920E-02 0.  1.
</event>
<event>
 5   0  0.2696040E-04  0.1507256E+04  0.7818609E-02  0.8879642E-01
        2   -1    0    0  501    0  0.00000000000E+00  0.00000000000E+00  0.90025381566E+03  0.90025381566E+03  0.25500000920E-02 0. -1.
       -2   -1    0    0    0  501  0.00000000000E+00  0.00000000000E+00 -0.63088313176E+03  0.63088313177E+03  0.25500000920E-02 0.  1.
    10030    2    1    2    0    0  0.00000000000E+00  0.00000000000E+00  0.26937068389E+03  0.15311369474E+04  0.15072557137E+04 0.  0.
        2    1    3    3  502    0  0.47816970629E+03  0.42484239214E+03  0.53951883889E+03  0.83679023877E+03  0.25500000920E-02 0. -1.
       -2    1    3    3    0  502 -0.47816970629E+03 -0.42484239214E+03 -0.27014815500E+03  0.69434670866E+03  0.25500000920E-02 0.  1.
</event>
<event>
 5   0  0.1427609E-04  0.1500334E+04  0.7818609E-02  0.8884231E-01
       -1   -1    0    0    0  501  0.00000000000E+00  0.00000000000E+00  0.49274830884E+03  0.49274830887E+03  0.50400001928E-02 0.  1.
        1   -1    0    0  501    0  0.00000000000E+00  0.00000000000E+00 -0.11420648595E+04  0.11420648595E+04  0.50400001928E-02 0. -1.
    10030    2    1    2    0    0  0.00000000000E+00  0.00000000000E+00 -0.64931655064E+03  0.16348131684E+04  0.15003340003E+04 0.  0.
        4    1    3    3  502    0  0.40488283917E+03 -0.10668469903E+03 -0.10028942500E+04  0.10867889528E+04  0.12699999809E+01 0. -1.
       -4    1    3    3    0  502 -0.40488283917E+03  0.10668469903E+03  0.35357769933E+03  0.54802421554E+03  0.12699999809E+01 0.  1.
</event>
<event>
 5   0  0.1004313E-04  0.1502572E+04  0.7818609E-02  0.8882745E-01
        3   -1    0    0  501    0  0.00000000000E+00  0.00000000000E+00  0.31974273381E+03  0.31974274976E+03  0.10100000352E+00 0.  1.
       -3   -1    0    0    0  501  0.00000000000E+00  0.00000000000E+00 -0.17652642749E+04  0.17652642778E+04  0.10100000352E+00 0. -1.
    10030    2    1    2    0    0  0.00000000000E+00  0.00000000000E+00 -0.14455215411E+04  0.20850070276E+04  0.15025717218E+04 0.  0.
        3    1    3    3  502    0  0.73763430987E+03  0.12958190620E+03 -0.64026308249E+03  0.98530841390E+03  0.10100000352E+00 0.  1.
       -3    1    3    3    0  502 -0.73763430987E+03 -0.12958190620E+03 -0.80525845864E+03  0.10996986137E+04  0.10100000352E+00 0. -1.
</event>
<event>
 5   0  0.2618901E-04  0.1508369E+04  0.7818609E-02  0.8878907E-01
       -2   -1    0    0    0  501  0.00000000000E+00  0.00000000000E+00  0.59833444212E+03  0.59833444213E+03  0.25500000920E-02 0. -1.
        2   -1    0    0  501    0  0.00000000000E+00  0.00000000000E+00 -0.95062868425E+03  0.95062868425E+03  0.25500000920E-02 0.  1.
    10030    2    1    2    0    0  0.00000000000E+00  0.00000000000E+00 -0.35229424213E+03  0.15489631264E+04  0.15083685007E+04 0.  0.
        1    1    3    3  502    0 -0.20355445193E+03 -0.19464106489E+03 -0.89460048524E+03  0.93788570053E+03  0.50400001928E-02 0.  1.
       -1    1    3    3    0  502  0.20355445193E+03  0.19464106489E+03  0.54230624311E+03  0.61107742585E+03  0.50400001928E-02 0. -1.
</event>
<event>
 5   0  0.1427609E-04  0.1488208E+04  0.7818609E-02  0.8892332E-01
       -1   -1    0    0    0  501  0.00000000000E+00  0.00000000000E+00  0.59660876276E+03  0.59660876278E+03  0.50400001928E-02 0. -1.
        1   -1    0    0  501    0  0.00000000000E+00  0.00000000000E+00 -0.92806365276E+03  0.92806365278E+03  0.50400001928E-02 0.  1.
    10030    2    1    2    0    0  0.00000000000E+00  0.00000000000E+00 -0.33145489000E+03  0.15246724156E+04  0.14882081947E+04 0.  0.
        4    1    3    3  502    0  0.37470171627E+03 -0.60529784908E+03 -0.38760355086E+03  0.81057077903E+03  0.12699999809E+01 0. -1.
       -4    1    3    3    0  502 -0.37470171627E+03  0.60529784908E+03  0.56148660863E+02  0.71410163653E+03  0.12699999809E+01 0.  1.
</event>
<event>
 5   0  0.1426929E-04  0.1505998E+04  0.7818609E-02  0.8880474E-01
       -1   -1    0    0    0  501  0.00000000000E+00  0.00000000000E+00  0.30718869971E+03  0.30718869975E+03  0.50400001928E-02 0.  1.
        1   -1    0    0  501    0  0.00000000000E+00  0.00000000000E+00 -0.18457964195E+04  0.18457964195E+04  0.50400001928E-02 0. -1.
    10030    2    1    2    0    0  0.00000000000E+00  0.00000000000E+00 -0.15386077198E+04  0.21529851193E+04  0.15059984091E+04 0.  0.
        1    1    3    3  502    0 -0.42246240571E+03  0.33457542640E+03 -0.15211635388E+04  0.16138010137E+04  0.50400001928E-02 0. -1.
       -1    1    3    3    0  502  0.42246240571E+03 -0.33457542640E+03 -0.17444181038E+02  0.53918410554E+03  0.50400001928E-02 0.  1.
</event>
<event>
 5   0  0.1443750E-04  0.1498522E+04  0.7818609E-02  0.8885436E-01
       -1   -1    0    0    0  501  0.00000000000E+00  0.00000000000E+00  0.27158440423E+03  0.27158440427E+03  0.50400001928E-02 0. -1.
        1   -1    0    0  501    0  0.00000000000E+00  0.00000000000E+00 -0.20670992331E+04  0.20670992331E+04  0.50400001928E-02 0.  1.
    10030    2    1    2    0    0  0.00000000000E+00  0.00000000000E+00 -0.17955148289E+04  0.23386836374E+04  0.14985218234E+04 0.  0.
        2    1    3    3  502    0  0.46011935679E+03  0.46696889161E+03 -0.14639613556E+04  0.16040425863E+04  0.25500000920E-02 0.  1.
       -2    1    3    3    0  502 -0.46011935679E+03 -0.46696889161E+03 -0.33155347335E+03  0.73464105107E+03  0.25500000920E-02 0. -1.
</event>
<event>
 5   0  0.2618901E-04  0.1496852E+04  0.7818609E-02  0.8886549E-01
        2   -1    0    0  501    0  0.00000000000E+00  0.00000000000E+00  0.59764783960E+03  0.59764783960E+03  0.25500000920E-02 0.  1.
       -2   -1    0    0    0  501  0.00000000000E+00  0.00000000000E+00 -0.93724287304E+03  0.93724287304E+03  0.25500000920E-02 0. -1.
    10030    2    1    2    0    0  0.00000000000E+00  0.00000000000E+00 -0.33959503344E+03  0.15348907126E+04  0.14968516002E+04 0.  0.
        1    1    3    3  502    0  0.51378784737E+02  0.37031453039E+03 -0.83463243190E+03  0.91454028197E+03  0.50400001928E-02 0. -1.
       -1    1    3    3    0  502 -0.51378784737E+02 -0.37031453039E+03  0.49503739846E+03  0.62035043068E+03  0.50400001928E-02 0.  1.
</event>
<event>
 5   0  0.2734072E-04  0.1500560E+04  0.7818609E-02  0.8884080E-01
        2   -1    0    0  501    0  0.00000000000E+00  0.00000000000E+00  0.95744551415E+03  0.95744551415E+03  0.25500000920E-02 0.  1.
       -2   -1    0    0    0  501  0.00000000000E+00  0.00000000000E+00 -0.58793978642E+03  0.58793978643E+03  0.25500000920E-02 0. -1.
    10030    2    1    2    0    0  0.00000000000E+00  0.00000000000E+00  0.36950572773E+03  0.15453853006E+04  0.15005603102E+04 0.  0.
        5    1    3    3  502    0 -0.49700615782E+03 -0.45369444367E+03 -0.15688610138E+03  0.69100586679E+03  0.46999998093E+01 0. -1.
       -5    1    3    3    0  502  0.49700615782E+03  0.45369444367E+03  0.52639182911E+03  0.85437943379E+03  0.46999998093E+01 0.  1.
</event>
<event>
 5   0  0.1484251E-04  0.1492377E+04  0.7818609E-02  0.8889538E-01
       -1   -1    0    0    0  501  0.00000000000E+00  0.00000000000E+00  0.41888397495E+03  0.41888397498E+03  0.50400001928E-02 0.  1.
        1   -1    0    0  501    0  0.00000000000E+00  0.00000000000E+00 -0.13292392259E+04  0.13292392260E+04  0.50400001928E-02 0. -1.
    10030    2    1    2    0    0  0.00000000000E+00  0.00000000000E+00 -0.91035525100E+03  0.17481232009E+04  0.14923766424E+04 0.  0.
        5    1    3    3  502    0 -0.33396169039E+03 -0.33787308583E+03 -0.11291842902E+04  0.12250583186E+04  0.46999998093E+01 0. -1.
       -5    1    3    3    0  502  0.33396169039E+03  0.33787308583E+03  0.21882903916E+03  0.52306488236E+03  0.46999998093E+01 0.  1.
</event>
<event>
 5   0  0.2641347E-04  0.1490466E+04  0.7818609E-02  0.8890818E-01
       -2   -1    0    0    0  501  0.00000000000E+00  0.00000000000E+00  0.42157663339E+03  0.42157663340E+03  0.25500000920E-02 0.  1.
        2   -1    0    0  501    0  0.00000000000E+00  0.00000000000E+00 -0.13173701634E+04  0.13173701634E+04  0.25500000920E-02 0. -1.
    10030    2    1    2    0    0  0.00000000000E+00  0.00000000000E+00 -0.89579352998E+03  0.17389467968E+04  0.14904663410E+04 0.  0.
        4    1    3    3  502    0  0.56451592944E+03  0.48646981430E+03 -0.44054085468E+03  0.86568410657E+03  0.12699999809E+01 0.  1.
       -4    1    3    3    0  502 -0.56451592944E+03 -0.48646981430E+03 -0.45525267530E+03  0.87326269020E+03  0.12699999809E+01 0. -1.
</event>
<event>
 5   0  0.1427609E-04  0.1501063E+04  0.7818609E-02  0.8883746E-01
        1   -1    0    0  501    0  0.00000000000E+00  0.00000000000E+00  0.15335821630E+04  0.15335821630E+04  0.50400001928E-02 0.  1.
       -1   -1    0    0    0  501  0.00000000000E+00  0.00000000000E+00 -0.36730824374E+03  0.36730824378E+03  0.50400001928E-02 0. -1.
    10030    2    1    2    0    0  0.00000000000E+00  0.00000000000E+00  0.11662739193E+04  0.19008904068E+04  0.15010627848E+04 0.  0.
        4    1    3    3  502    0  0.20180878533E+03  0.23560003518E+03  0.14485935721E+04  0.14814381906E+04  0.12699999809E+01 0.  1.
       -4    1    3    3    0  502 -0.20180878533E+03 -0.23560003518E+03 -0.28231965284E+03  0.41945221623E+03  0.12699999809E+01 0. -1.
</event>
<event>
 5   0  0.1484251E-04  0.1510416E+04  0.7818609E-02  0.8877556E-01
       -1   -1    0    0    0  501  0.00000000000E+00  0.00000000000E+00  0.26586990063E+03  0.26586990067E+03  0.50400001928E-02 0. -1.
        1   -1    0    0  501    0  0.00000000000E+00  0.00000000000E+00 -0.21451799632E+04  0.21451799632E+04  0.50400001928E-02 0.  1.
    10030    2    1    2    0    0  0.00000000000E+00  0.00000000000E+00 -0.18793100626E+04  0.24110498639E+04  0.15104155504E+04 0.  0.
        5    1    3    3  502    0  0.27181942150E+03  0.69418057398E+02 -0.20588892887E+04  0.20779200798E+04  0.46999998093E+01 0.  1.
       -5    1    3    3    0  502 -0.27181942150E+03 -0.69418057398E+02  0.17957922616E+03  0.33312978412E+03  0.46999998093E+01 0. -1.
</event>
<event>
 5   0  0.1443750E-04  0.1500366E+04  0.7818609E-02  0.8884210E-01
       -1   -1    0    0    0  501  0.00000000000E+00  0.00000000000E+00  0.10835562432E+04  0.10835562432E+04  0.50400001928E-02 0. -1.
        1   -1    0    0  501    0  0.00000000000E+00  0.00000000000E+00 -0.51937716507E+03  0.51937716509E+03  0.50400001928E-02 0.  1.
    10030    2    1    2    0    0  0.00000000000E+00  0.00000000000E+00  0.56417907815E+03  0.16029334083E+04  0.15003657818E+04 0.  0.
        2    1    3    3  502    0  0.19696710540E+03 -0.64552154076E+03  0.63201718722E+03  0.92462956104E+03  0.25500000920E-02 0. -1.
       -2    1    3    3    0  502 -0.19696710540E+03  0.64552154076E+03 -0.67838109067E+02  0.67830384728E+03  0.25500000920E-02 0.  1.
</event>
<event>
 5   0  0.1443750E-04  0.1501633E+04  0.7818609E-02  0.8883368E-01
        1   -1    0    0  501    0  0.00000000000E+00  0.00000000000E+00  0.56094944196E+03  0.56094944198E+03  0.50400001928E-02 0. -1.
       -1   -1    0    0    0  501  0.00000000000E+00  0.00000000000E+00 -0.10049490696E+04  0.10049490696E+04  0.50400001928E-02 0.  1.
    10030    2    1    2    0    0  0.00000000000E+00  0.00000000000E+00 -0.44399962767E+03  0.15658985116E+04  0.15016332706E+04 0.  0.
        2    1    3    3  502    0 -0.26116694232E+03  0.32774009429E+03  0.42764162681E+03  0.59874794543E+03  0.25500000920E-02 0. -1.
       -2    1    3    3    0  502  0.26116694232E+03 -0.32774009429E+03 -0.87164125448E+03  0.96715056619E+03  0.25500000920E-02 0.  1.
</event>
<event>
 5   0  0.1484251E-04  0.1499325E+04  0.7818609E-02  0.8884902E-01
       -1   -1    0    0    0  501  0.00000000000E+00  0.00000000000E+00  0.60225772059E+03  0.60225772061E+03  0.50400001928E-02 0.  1.
        1   -1    0    0  501    0  0.00000000000E+00  0.00000000000E+00 -0.93314545372E+03  0.93314545373E+03  0.50400001928E-02 0. -1.
    10030    2    1    2    0    0  0.00000000000E+00  0.00000000000E+00 -0.33088773313E+03  0.15354031743E+04  0.14993252535E+04 0.  0.
        5    1    3    3  502    0 -0.29781560863E+03 -0.58275175019E+03 -0.53986203380E+03  0.84839073818E+03  0.46999998093E+01 0. -1.
       -5    1    3    3    0  502  0.29781560863E+03  0.58275175019E+03  0.20897430067E+03  0.68701243616E+03  0.46999998093E+01 0.  1.
</event>
<event>
 5   0  0.1484251E-04  0.1501523E+04  0.7818609E-02  0.8883441E-01
       -1   -1    0    0    0  501  0.00000000000E+00  0.00000000000E+00  0.59546002619E+03  0.59546002621E+03  0.50400001928E-02 0. -1.
        1   -1    0    0  501    0  0.00000000000E+00  0.00000000000E+00 -0.94656682847E+03  0.94656682848E+03  0.50400001928E-02 0.  1.
    10030    2    1    2    0    0  0.00000000000E+00  0.00000000000E+00 -0.35110680228E+03  0.15420268547E+04  0.15015228383E+04 0.  0.
        5    1    3    3  502    0 -0.30754080627E+03  0.54069654045E+03  0.25612637817E+03  0.67272350038E+03  0.46999998093E+01 0. -1.
       -5    1    3    3    0  502  0.30754080627E+03 -0.54069654045E+03 -0.60723318045E+03  0.86930335431E+03  0.46999998093E+01 0.  1.
</event>
<event>
 5   0  0.1443750E-04  0.1515020E+04  0.7818609E-02  0.8874526E-01
       -1   -1    0    0    0  501  0.00000000000E+00  0.00000000000E+00  0.68829742077E+03  0.68829742079E+03  0.50400001928E-02 0.  1.
        1   -1    0    0  501    0  0.00000000000E+00  0.00000000000E+00 -0.83368239108E+03  0.83368239109E+03  0.50400001928E-02 0. -1.
    10030    2    1    2    0    0  0.00000000000E+00  0.00000000000E+00 -0.14538497031E+03  0.15219798119E+04  0.15150200521E+04 0.  0.
        2    1    3    3  502    0 -0.41420184074E+02 -0.32616924593E+03  0.61287891179E+03  0.69550166726E+03  0.25500000920E-02 0.  1.
       -2    1    3    3    0  502  0.41420184074E+02  0.32616924593E+03 -0.75826388209E+03  0.82647814462E+03  0.25500000920E-02 0. -1.
</event>
<event>
 5   0  0.1443750E-04  0.1502709E+04  0.7818609E-02  0.8882654E-01
        1   -1    0    0  501    0  0.00000000000E+00  0.00000000000E+00  0.68076977291E+03  0.68076977293E+03  0.50400001928E-02 0.  1.
       -1   -1    0    0    0  501  0.00000000000E+00  0.00000000000E+00 -0.82925761096E+03  0.82925761097E+03  0.50400001928E-02 0. -1.
    10030    2    1    2    0    0  0.00000000000E+00  0.00000000000E+00 -0.14848783805E+03  0.15100273839E+04  0.15027089080E+04 0.  0.
        2    1    3    3  502    0 -0.14679958568E+02 -0.72815581878E+03  0.11133663783E+03  0.73676471450E+03  0.25500000920E-02 0.  1.
       -2    1    3    3    0  502  0.14679958568E+02  0.72815581878E+03 -0.25982447588E+03  0.77326266939E+03  0.25500000920E-02 0. -1.
</event>
<event>
 5   0  0.1004313E-04  0.1499459E+04  0.7818609E-02  0.8884813E-01
       -4   -1    0    0    0  501  0.00000000000E+00  0.00000000000E+00  0.87682328458E+03  0.87682420432E+03  0.12699999809E+01 0.  1.
        4   -1    0    0  501    0  0.00000000000E+00  0.00000000000E+00 -0.64105607126E+03  0.64105732926E+03  0.12699999809E+01 0. -1.
    10030    2    1    2    0    0  0.00000000000E+00  0.00000000000E+00  0.23576721332E+03  0.15178815336E+04  0.14994592929E+04 0.  0.
        4    1    3    3  502    0  0.12162621536E+03 -0.69816441792E+03  0.36556587188E+03  0.79741238409E+03  0.12699999809E+01 0.  1.
       -4    1    3    3    0  502 -0.12162621536E+03  0.69816441792E+03 -0.12979865856E+03  0.72046914949E+03  0.12699999809E+01 0. -1.
</event>
<event>
 5   0  0.2618901E-04  0.1497130E+04  0.7818609E-02  0.8886364E-01
       -2   -1    0    0    0  501  0.00000000000E+00  0.00000000000E+00  0.43952424930E+03  0.43952424931E+03  0.25500000920E-02 0.  1.
        2   -1    0    0  501    0  0.00000000000E+00  0.00000000000E+00 -0.12749000612E+04  0.12749000612E+04  0.25500000920E-02 0. -1.
    10030    2    1    2    0    0  0.00000000000E+00  0.00000000000E+00 -0.83537581186E+03  0.17144243105E+04  0.14971299106E+04 0.  0.
        1    1    3    3  502    0  0.51320600512E+03 -0.45430312482E+03 -0.73044783758E+02  0.68928025750E+03  0.50400001928E-02 0. -1.
       -1    1    3    3    0  502 -0.51320600512E+03  0.45430312482E+03 -0.76233102810E+03  0.10251440530E+04  0.50400001928E-02 0.  1.
</event>
<event>
 5   0  0.1484251E-04  0.1495103E+04  0.7818609E-02  0.8887716E-01
        1   -1    0    0  501    0  0.00000000000E+00  0.00000000000E+00  0.16313238388E+04  0.16313238388E+04  0.50400001928E-02 0.  1.
       -1   -1    0    0    0  501  0.00000000000E+00  0.00000000000E+00 -0.34256403524E+03  0.34256403527E+03  0.50400001928E-02 0. -1.
    10030    2    1    2    0    0  0.00000000000E+00  0.00000000000E+00  0.12887598035E+04  0.19738878740E+04  0.14951025076E+04 0.  0.
        5    1    3    3  502    0  0.14042115462E+01  0.24412375715E+03 -0.28843224817E+03  0.37790690970E+03  0.46999998093E+01 0. -1.
       -5    1    3    3    0  502 -0.14042115462E+01 -0.24412375715E+03  0.15771920517E+04  0.15959809643E+04  0.46999998093E+01 0.  1.
</event>
<event>
 5   0  0.1443750E-04  0.1502576E+04  0.7818609E-02  0.8882742E-01
        1   -1    0    0  501    0  0.00000000000E+00  0.00000000000E+00  0.14611778599E+04  0.14611778599E+04  0.50400001928E-02 0. -1.
       -1   -1    0    0    0  501  0.00000000000E+00  0.00000000000E+00 -0.38628682268E+03  0.38628682272E+03  0.50400001928E-02 0.  1.
    10030    2    1    2    0    0  0.00000000000E+00  0.00000000000E+00  0.10748910372E+04  0.18474646826E+04  0.15025761251E+04 0.  0.
        2    1    3    3  502    0 -0.30782462485E+03  0.22581177951E+03  0.13330263158E+04  0.13866167885E+04  0.25500000920E-02 0. -1.
       -2    1    3    3    0  502  0.30782462485E+03 -0.22581177951E+03 -0.25813527863E+03  0.46084789411E+03  0.25500000920E-02 0.  1.
</event>
<event>
 5   0  0.1426929E-04  0.1500587E+04  0.7818609E-02  0.8884063E-01
       -1   -1    0    0    0  501  0.00000000000E+00  0.00000000000E+00  0.83476652816E+03  0.83476652818E+03  0.50400001928E-02 0. -1.
        1   -1    0    0  501    0  0.00000000000E+00  0.00000000000E+00 -0.67436845794E+03  0.67436845796E+03  0.50400001928E-02 0.  1.
    10030    2    1    2    0    0  0.00000000000E+00  0.00000000000E+00  0.16039807022E+03  0.15091349861E+04  0.15005868404E+04 0.  0.
        1    1    3    3  502    0  0.56281557843E+02  0.68547539014E+03  0.38173377901E+03  0.78661604503E+03  0.50400001928E-02 0. -1.
       -1    1    3    3    0  502 -0.56281557843E+02 -0.68547539014E+03 -0.22133570879E+03  0.72251894110E+03  0.50400001928E-02 0.  1.
</event>
<event>
 5   0  0.2734072E-04  0.1512503E+04  0.7818609E-02  0.8876181E-01
        2   -1    0    0  501    0  0.00000000000E+00  0.00000000000E+00  0.20477651160E+04  0.20477651160E+04  0.25500000920E-02 0.  1.
       -2   -1    0    0    0  501  0.00000000000E+00  0.00000000000E+00 -0.27928801628E+03  0.27928801629E+03  0.25500000920E-02 0. -1.
    10030    2    1    2    0    0  0.00000000000E+00  0.00000000000E+00  0.17684770997E+04  0.23270531323E+04  0.15125029019E+04 0.  0.
        5    1    3    3  502    0  0.58705227780E+03  0.27026522354E+03  0.14884391260E+04  0.16226973808E+04  0.46999998093E+01 0.  1.
       -5    1    3    3    0  502 -0.58705227780E+03 -0.27026522354E+03  0.28003797375E+03  0.70435575150E+03  0.46999998093E+01 0. -1.
</event>
<event>
 5   0  0.2734072E-04  0.1529237E+04  0.7818609E-02  0.8865240E-01
        2   -1    0    0  501    0  0.00000000000E+00  0.00000000000E+00  0.11782608400E+04  0.11782608400E+04  0.25500000920E-02 0.  1.
       -2   -1    0    0    0  501  0.00000000000E+00  0.00000000000E+00 -0.49619044939E+03  0.49619044940E+03  0.25500000920E-02 0. -1.
    10030    2    1    2    0    0  0.00000000000E+00  0.00000000000E+00  0.68207039058E+03  0.16744512894E+04  0.15292374252E+04 0.  0.
        5    1    3    3  502    0 -0.36969802169E+03 -0.64723223266E+03  0.15446285341E+03  0.76122733353E+03  0.46999998093E+01 0. -1.
       -5    1    3    3    0  502  0.36969802169E+03  0.64723223266E+03  0.52760753717E+03  0.91322395584E+03  0.46999998093E+01 0.  1.
</event>
<event>
 5   0  0.2641347E-04  0.1498075E+04  0.7818609E-02  0.8885734E-01
       -2   -1    0    0    0  501  0.00000000000E+00  0.00000000000E+00  0.53964527836E+03  0.53964527837E+03  0.25500000920E-02 0. -1.
        2   -1    0    0  501    0  0.00000000000E+00  0.00000000000E+00 -0.10396776083E+04  0.10396776083E+04  0.25500000920E-02 0.  1.
    10030    2    1    2    0    0  0.00000000000E+00  0.00000000000E+00 -0.50003232992E+03  0.15793228867E+04  0.14980749145E+04 0.  0.
        4    1    3    3  502    0  0.12697750892E+02  0.69724193499E+03  0.38212415158E+02  0.69840486135E+03  0.12699999809E+01 0. -1.
       -4    1    3    3    0  502 -0.12697750892E+02 -0.69724193499E+03 -0.53824474508E+03  0.88091802530E+03  0.12699999809E+01 0.  1.
</event>
<event>
 5   0  0.1484251E-04  0.1490588E+04  0.7818609E-02  0.8890736E-01
        1   -1    0    0  501    0  0.00000000000E+00  0.00000000000E+00  0.16915416159E+04  0.16915416159E+04  0.50400001928E-02 0. -1.
       -1   -1    0    0    0  501  0.00000000000E+00  0.00000000000E+00 -0.32837685071E+03  0.32837685075E+03  0.50400001928E-02 0.  1.
    10030    2    1    2    0    0  0.00000000000E+00  0.00000000000E+00  0.13631647651E+04  0.20199184666E+04  0.14905879494E+04 0.  0.
        5    1    3    3  502    0  0.58562155840E+01 -0.34533428874E+03 -0.21335911505E+03  0.40599786725E+03  0.46999998093E+01 0.  1.
       -5    1    3    3    0  502 -0.58562155840E+01  0.34533428874E+03  0.15765238802E+04  0.16139205994E+04  0.46999998093E+01 0. -1.
</event>
<event>
 5   0  0.2696040E-04  0.1496096E+04  0.7818609E-02  0.8887053E-01
       -2   -1    0    0    0  501  0.00000000000E+00  0.00000000000E+00  0.48285543711E+03  0.48285543712E+03  0.25500000920E-02 0. -1.
        2   -1    0    0  501    0  0.00000000000E+00  0.00000000000E+00 -0.11588890436E+04  0.11588890436E+04  0.25500000920E-02 0.  1.
    10030    2    1    2    0    0  0.00000000000E+00  0.00000000000E+00 -0.67603360653E+03  0.16417444808E+04  0.14960960875E+04 0.  0.
        2    1    3    3  502    0  0.35092576532E+03  0.32692290013E+03 -0.96796622512E+03  0.10802713031E+04  0.25500000920E-02 0.  1.
       -2    1    3    3    0  502 -0.35092576532E+03 -0.32692290013E+03  0.29193261859E+03  0.56147317763E+03  0.25500000920E-02 0. -1.
</event>
<event>
 5   0  0.1443750E-04  0.1497345E+04  0.7818609E-02  0.8886220E-01
        1   -1    0    0  501    0  0.00000000000E+00  0.00000000000E+00  0.57942745282E+03  0.57942745284E+03  0.50400001928E-02 0.  1.
       -1   -1    0    0    0  501  0.00000000000E+00  0.00000000000E+00 -0.96735261365E+03  0.96735261366E+03  0.50400001928E-02 0. -1.
    10030    2    1    2    0    0  0.00000000000E+00  0.00000000000E+00 -0.38792516083E+03  0.15467800665E+04  0.14973451986E+04 0.  0.
        2    1    3    3  502    0  0.99764876536E+02 -0.27171704198E+03  0.51928732939E+03  0.59451031275E+03  0.25500000920E-02 0.  1.
       -2    1    3    3    0  502 -0.99764876536E+02  0.27171704198E+03 -0.90721249022E+03  0.95226975375E+03  0.25500000920E-02 0. -1.
</event>
<event>
 5   0  0.2696040E-04  0.1445684E+04  0.7818609E-02  0.8921398E-01
        2   -1    0    0  501    0  0.00000000000E+00  0.00000000000E+00  0.90130834560E+03  0.90130834560E+03  0.25500000920E-02 0.  1.
       -2   -1    0    0    0  501  0.00000000000E+00  0.00000000000E+00 -0.57971376619E+03  0.57971376620E+03  0.25500000920E-02 0. -1.
    10030    2    1    2    0    0  0.00000000000E+00  0.00000000000E+00  0.32159457941E+03  0.14810221118E+04  0.14456844130E+04 0.  0.
        2    1    3    3  502    0  0.35845299939E+02 -0.29958825552E+03 -0.51211699323E+03  0.59439197768E+03  0.25500000920E-02 0. -1.
       -2    1    3    3    0  502 -0.35845299939E+02  0.29958825552E+03  0.83371157263E+03  0.88663013412E+03  0.25500000920E-02 0.  1.
</event>
<event>
 5   0  0.1484251E-04  0.1500453E+04  0.7818609E-02  0.8884152E-01
        1   -1    0    0  501    0  0.00000000000E+00  0.00000000000E+00  0.73836882423E+03  0.73836882424E+03  0.50400001928E-02 0. -1.
       -1   -1    0    0    0  501  0.00000000000E+00  0.00000000000E+00 -0.76227415708E+03  0.76227415710E+03  0.50400001928E-02 0.  1.
    10030    2    1    2    0    0  0.00000000000E+00  0.00000000000E+00 -0.23905332859E+02  0.15006429813E+04  0.15004525626E+04 0.  0.
        5    1    3    3  502    0  0.13675071462E+03  0.30518805984E+03 -0.68358600786E+03  0.76102065016E+03  0.46999998093E+01 0.  1.
       -5    1    3    3    0  502 -0.13675071462E+03 -0.30518805984E+03  0.65968067500E+03  0.73962233119E+03  0.46999998093E+01 0. -1.
</event>
<event>
 5   0  0.2641347E-04  0.1502816E+04  0.7818609E-02  0.8882582E-01
        2   -1    0    0  501    0  0.00000000000E+00  0.00000000000E+00  0.12987460637E+04  0.12987460637E+04  0.25500000920E-02 0.  1.
       -2   -1    0    0    0  501  0.00000000000E+00  0.00000000000E+00 -0.43473802883E+03  0.43473802884E+03  0.25500000920E-02 0. -1.
    10030    2    1    2    0    0  0.00000000000E+00  0.00000000000E+00  0.86400803484E+03  0.17334840925E+04  0.15028164275E+04 0.  0.
        4    1    3    3  502    0  0.14716811175E+03 -0.65201869602E+03  0.82794844194E+03  0.10640897840E+04  0.12699999809E+01 0.  1.
       -4    1    3    3    0  502 -0.14716811175E+03  0.65201869602E+03  0.36059592900E+02  0.66939430848E+03  0.12699999809E+01 0. -1.
</event>
<event>
 5   0  0.1426929E-04  0.1496437E+04  0.7818609E-02  0.8886825E-01
       -1   -1    0    0    0  501  0.00000000000E+00  0.00000000000E+00  0.34334826784E+03  0.34334826788E+03  0.50400001928E-02 0. -1.
        1   -1    0    0  501    0  0.00000000000E+00  0.00000000000E+00 -0.16305053525E+04  0.16305053525E+04  0.50400001928E-02 0.  1.
    10030    2    1    2    0    0  0.00000000000E+00  0.00000000000E+00 -0.12871570847E+04  0.19738536204E+04  0.14964373539E+04 0.  0.
        1    1    3    3  502    0 -0.90235990152E+02 -0.50120946634E+03 -0.13666189080E+04  0.14584240477E+04  0.50400001928E-02 0.  1.
       -1    1    3    3    0  502  0.90235990152E+02  0.50120946634E+03  0.79461823323E+02  0.51542957274E+03  0.50400001928E-02 0. -1.
</event>
<event>
 5   0  0.1484251E-04  0.1501365E+04  0.7818609E-02  0.8883546E-01
       -1   -1    0    0    0  501  0.00000000000E+00  0.00000000000E+00  0.31792259637E+03  0.31792259641E+03  0.50400001928E-02 0.  1.
        1   -1    0    0  501    0  0.00000000000E+00  0.00000000000E+00 -0.17725205970E+04  0.17725205970E+04  0.50400001928E-02 0. -1.
    10030    2    1    2    0    0  0.00000000000E+00  0.00000000000E+00 -0.14545980006E+04  0.20904431934E+04  0.15013651793E+04 0.  0.
        5    1    3    3  502    0 -0.43862435695E+03 -0.16778484089E+03  0.88105770055E+02  0.47783657882E+03  0.46999998093E+01 0.  1.
       -5    1    3    3    0  502  0.43862435695E+03  0.16778484089E+03 -0.15427037707E+04  0.16126066146E+04  0.46999998093E+01 0. -1.
</event>
<event>
 5   0  0.1427609E-04  0.1508638E+04  0.7818609E-02  0.8878729E-01
       -1   -1    0    0    0  501  0.00000000000E+00  0.00000000000E+00  0.70247178757E+03  0.70247178759E+03  0.50400001928E-02 0.  1.
        1   -1    0    0  501    0  0.00000000000E+00  0.00000000000E+00 -0.80999304309E+03  0.80999304310E+03  0.50400001928E-02 0. -1.
    10030    2    1    2    0    0  0.00000000000E+00  0.00000000000E+00 -0.10752125552E+03  0.15124648307E+04  0.15086381421E+04 0.  0.
        4    1    3    3  502    0 -0.57363218985E+03  0.13673808517E+03 -0.52532001919E+03  0.78975561323E+03  0.12699999809E+01 0. -1.
       -4    1    3    3    0  502  0.57363218985E+03 -0.13673808517E+03  0.41779876368E+03  0.72270921746E+03  0.12699999809E+01 0.  1.
</event>
<event>
 5   0  0.2696040E-04  0.1498557E+04  0.7818609E-02  0.8885413E-01
       -2   -1    0    0    0  501  0.00000000000E+00  0.00000000000E+00  0.93868872282E+03  0.93868872282E+03  0.25500000920E-02 0. -1.
        2   -1    0    0  501    0  0.00000000000E+00  0.00000000000E+00 -0.59808774875E+03  0.59808774875E+03  0.25500000920E-02 0.  1.
    10030    2    1    2    0    0  0.00000000000E+00  0.00000000000E+00  0.34060097407E+03  0.15367764716E+04  0.14985569392E+04 0.  0.
        2    1    3    3  502    0  0.33807717053E+03  0.15756628597E+03  0.83671643385E+03  0.91608825906E+03  0.25500000920E-02 0. -1.
       -2    1    3    3    0  502 -0.33807717053E+03 -0.15756628597E+03 -0.49611545978E+03  0.62068821251E+03  0.25500000920E-02 0.  1.
</event>
<event>
 5   0  0.2646718E-04  0.1485034E+04  0.7818609E-02  0.8894466E-01
       -2   -1    0    0    0  501  0.00000000000E+00  0.00000000000E+00  0.67453381979E+03  0.67453381980E+03  0.25500000920E-02 0.  1.
        2   -1    0    0  501    0  0.00000000000E+00  0.00000000000E+00 -0.81735219198E+03  0.81735219198E+03  0.25500000920E-02 0. -1.
    10030    2    1    2    0    0  0.00000000000E+00  0.00000000000E+00 -0.14281837219E+03  0.14918860118E+04  0.14850342706E+04 0.  0.
        3    1    3    3  502    0 -0.30566121038E+03  0.20052600134E+03  0.57786384776E+03  0.68378804427E+03  0.10100000352E+00 0.  1.
       -3    1    3    3    0  502  0.30566121038E+03 -0.20052600134E+03 -0.72068221994E+03  0.80809796751E+03  0.10100000352E+00 0. -1.
</event>
<event>
 5   0  0.1484251E-04  0.1500432E+04  0.7818609E-02  0.8884165E-01
       -1   -1    0    0    0  501  0.00000000000E+00  0.00000000000E+00  0.66376355074E+03  0.66376355076E+03  0.50400001928E-02 0.  1.
        1   -1    0    0  501    0  0.00000000000E+00  0.00000000000E+00 -0.84792890761E+03  0.84792890762E+03  0.50400001928E-02 0. -1.
    10030    2    1    2    0    0  0.00000000000E+00  0.00000000000E+00 -0.18416535687E+03  0.15116924584E+04  0.15004323411E+04 0.  0.
        5    1    3    3  502    0 -0.15277093637E+03  0.53486094814E+03 -0.59923592685E+03  0.81763132209E+03  0.46999998093E+01 0. -1.
       -5    1    3    3    0  502  0.15277093637E+03 -0.53486094814E+03  0.41507056998E+03  0.69406113629E+03  0.46999998093E+01 0.  1.
</event>
<event>
 5   0  0.2734072E-04  0.1500294E+04  0.7818609E-02  0.8884257E-01
        2   -1    0    0  501    0  0.00000000000E+00  0.00000000000E+00  0.29467976288E+04  0.29467976288E+04  0.25500000920E-02 0. -1.
       -2   -1    0    0    0  501  0.00000000000E+00  0.00000000000E+00 -0.19096011803E+03  0.19096011805E+03  0.25500000920E-02 0.  1.
    10030    2    1    2    0    0  0.00000000000E+00  0.00000000000E+00  0.27558375108E+04  0.31377577469E+04  0.15002944018E+04 0.  0.
        5    1    3    3  502    0 -0.55392526907E+03  0.38001182847E+03  0.67969326565E+03  0.95563969092E+03  0.46999998093E+01 0.  1.
       -5    1    3    3    0  502  0.55392526907E+03 -0.38001182847E+03  0.20761442452E+04  0.21821180560E+04  0.46999998093E+01 0. -1.
</event>
<event>
 5   0  0.2734072E-04  0.1501952E+04  0.7818609E-02  0.8883156E-01
        2   -1    0    0  501    0  0.00000000000E+00  0.00000000000E+00  0.12038052885E+04  0.12038052885E+04  0.25500000920E-02 0.  1.
       -2   -1    0    0    0  501  0.00000000000E+00  0.00000000000E+00 -0.46848537779E+03  0.46848537780E+03  0.25500000920E-02 0. -1.
    10030    2    1    2    0    0  0.00000000000E+00  0.00000000000E+00  0.73531991074E+03  0.16722906663E+04  0.15019522967E+04 0.  0.
        5    1    3    3  502    0 -0.64027085269E+03 -0.37271366232E+03  0.23092848427E+03  0.77602338478E+03  0.46999998093E+01 0. -1.
       -5    1    3    3    0  502  0.64027085269E+03  0.37271366232E+03  0.50439142647E+03  0.89626728155E+03  0.46999998093E+01 0.  1.
</event>
<event>
 5   0  0.2734072E-04  0.1501078E+04  0.7818609E-02  0.8883736E-01
        2   -1    0    0  501    0  0.00000000000E+00  0.00000000000E+00  0.16657711352E+04  0.16657711352E+04  0.25500000920E-02 0. -1.
       -2   -1    0    0    0  501  0.00000000000E+00  0.00000000000E+00 -0.33816709746E+03  0.33816709747E+03  0.25500000920E-02 0.  1.
    10030    2    1    2    0    0  0.00000000000E+00  0.00000000000E+00  0.13276040377E+04  0.20039382326E+04  0.15010782656E+04 0.  0.
        5    1    3    3  502    0 -0.34370420921E+02 -0.13511120303E+03  0.16483134774E+04  0.16542054808E+04  0.46999998093E+01 0. -1.
       -5    1    3    3    0  502  0.34370420921E+02  0.13511120303E+03 -0.32070943967E+03  0.34973275184E+03  0.46999998093E+01 0.  1.
</event>
<event>
 5   0  0.1427609E-04  0.1508152E+04  0.7818609E-02  0.8879050E-01
        1   -1    0    0  501    0  0.00000000000E+00  0.00000000000E+00  0.11783219016E+04  0.11783219016E+04  0.50400001928E-02 0.  1.
       -1   -1    0    0    0  501  0.00000000000E+00  0.00000000000E+00 -0.48257673159E+03  0.48257673162E+03  0.50400001928E-02 0. -1.
    10030    2    1    2    0    0  0.00000000000E+00  0.00000000000E+00  0.69574516999E+03  0.16608986332E+04  0.15081521569E+04 0.  0.
        4    1    3    3  502    0  0.10931782462E+02  0.59263617084E+02  0.11756645523E+04  0.11772087464E+04  0.12699999809E+01 0.  1.
       -4    1    3    3    0  502 -0.10931782462E+02 -0.59263617084E+02 -0.47991938231E+03  0.48368988681E+03  0.12699999809E+01 0. -1.
</event>
<event>
 5   0  0.2641347E-04  0.1499388E+04  0.7818609E-02  0.8884860E-01
        2   -1    0    0  501    0  0.00000000000E+00  0.00000000000E+00  0.81141435500E+03  0.81141435501E+03  0.25500000920E-02 0.  1.
       -2   -1    0    0    0  501  0.00000000000E+00  0.00000000000E+00 -0.69266834508E+03  0.69266834509E+03  0.25500000920E-02 0. -1.
    10030    2    1    2    0    0  0.00000000000E+00  0.00000000000E+00  0.11874600992E+03  0.15040827001E+04  0.14993879264E+04 0.  0.
        4    1    3    3  502    0 -0.59815967551E+03  0.24004742053E+03 -0.32473802530E+03  0.72171612112E+03  0.12699999809E+01 0. -1.
       -4    1    3    3    0  502  0.59815967551E+03 -0.24004742053E+03  0.44348403522E+03  0.78236657898E+03  0.12699999809E+01 0.  1.
</event>
<event>
 5   0  0.1426929E-04  0.1498033E+04  0.7818609E-02  0.8885762E-01
        1   -1    0    0  501    0  0.00000000000E+00  0.00000000000E+00  0.16626042326E+04  0.16626042326E+04  0.50400001928E-02 0. -1.
       -1   -1    0    0    0  501  0.00000000000E+00  0.00000000000E+00 -0.33743804099E+03  0.33743804102E+03  0.50400001928E-02 0.  1.
    10030    2    1    2    0    0  0.00000000000E+00  0.00000000000E+00  0.13251661916E+04  0.20000422736E+04  0.14980332643E+04 0.  0.
        1    1    3    3  502    0  0.16177947904E+03 -0.42035861632E+02  0.16373852484E+04  0.16458949132E+04  0.50400001928E-02 0. -1.
       -1    1    3    3    0  502 -0.16177947904E+03  0.42035861632E+02 -0.31221905676E+03  0.35414736048E+03  0.50400001928E-02 0.  1.
</event>
<event>
 5   0  0.1426929E-04  0.1490651E+04  0.7818609E-02  0.8890694E-01
        1   -1    0    0  501    0  0.00000000000E+00  0.00000000000E+00  0.45803649672E+03  0.45803649675E+03  0.50400001928E-02 0. -1.
       -1   -1    0    0    0  501  0.00000000000E+00  0.00000000000E+00 -0.12128078488E+04  0.12128078488E+04  0.50400001928E-02 0.  1.
    10030    2    1    2    0    0  0.00000000000E+00  0.00000000000E+00 -0.75477135211E+03  0.16708443456E+04  0.14906512111E+04 0.  0.
        1    1    3    3  502    0 -0.18436677419E+02  0.32892448945E+03 -0.11267681452E+04  0.11739410905E+04  0.50400001928E-02 0.  1.
       -1    1    3    3    0  502  0.18436677419E+02 -0.32892448945E+03  0.37199679310E+03  0.49690325511E+03  0.50400001928E-02 0. -1.
</event>
<event>
 5   0  0.1443750E-04  0.1493836E+04  0.7818609E-02  0.8888562E-01
       -1   -1    0    0    0  501  0.00000000000E+00  0.00000000000E+00  0.27216129244E+03  0.27216129249E+03  0.50400001928E-02 0.  1.
        1   -1    0    0  501    0  0.00000000000E+00  0.00000000000E+00 -0.20498389665E+04  0.20498389665E+04  0.50400001928E-02 0. -1.
    10030    2    1    2    0    0  0.00000000000E+00  0.00000000000E+00 -0.17776776741E+04  0.23220002590E+04  0.14938364335E+04 0.  0.
        2    1    3    3  502    0 -0.39415552606E+03 -0.20622485456E+03 -0.18214705894E+04  0.18750046340E+04  0.25500000920E-02 0. -1.
       -2    1    3    3    0  502  0.39415552606E+03  0.20622485456E+03  0.43792915326E+02  0.44699562504E+03  0.25500000920E-02 0.  1.
</event>
<event>
 5   0  0.2641347E-04  0.1505651E+04  0.7818609E-02  0.8880704E-01
       -2   -1    0    0    0  501  0.00000000000E+00  0.00000000000E+00  0.24574483313E+03  0.24574483314E+03  0.25500000920E-02 0.  1.
        2   -1    0    0  501    0  0.00000000000E+00  0.00000000000E+00 -0.23062384648E+04  0.23062384648E+04  0.25500000920E-02 0. -1.
    10030    2    1    2    0    0  0.00000000000E+00  0.00000000000E+00 -0.20604936317E+04  0.25519832979E+04  0.15056509379E+04 0.  0.
        4    1    3    3  502    0  0.13652208215E+03  0.47685287755E+03 -0.70371232854E+02  0.50097970922E+03  0.12699999809E+01 0.  1.
       -4    1    3    3    0  502 -0.13652208215E+03 -0.47685287755E+03 -0.19901223988E+04  0.20510035887E+04  0.12699999809E+01 0. -1.
</event>
<event>
 5   0  0.1427609E-04  0.1495332E+04  0.7818609E-02  0.8887563E-01
        1   -1    0    0  501    0  0.00000000000E+00  0.00000000000E+00  0.81163475051E+03  0.81163475053E+03  0.50400001928E-02 0. -1.
       -1   -1    0    0    0  501  0.00000000000E+00  0.00000000000E+00 -0.68873902170E+03  0.68873902172E+03  0.50400001928E-02 0.  1.
    10030    2    1    2    0    0  0.00000000000E+00  0.00000000000E+00  0.12289572881E+03  0.15003737722E+04  0.14953321023E+04 0.  0.
        4    1    3    3  502    0  0.13604799404E+01  0.52924917625E+03 -0.46843910201E+03  0.70678380475E+03  0.12699999809E+01 0.  1.
       -4    1    3    3    0  502 -0.13604799404E+01 -0.52924917625E+03  0.59133483082E+03  0.79358996750E+03  0.12699999809E+01 0. -1.
</event>
<event>
 5   0  0.1474203E-04  0.1495014E+04  0.7818609E-02  0.8887775E-01
       -1   -1    0    0    0  501  0.00000000000E+00  0.00000000000E+00  0.10492023809E+04  0.10492023809E+04  0.50400001928E-02 0.  1.
        1   -1    0    0  501    0  0.00000000000E+00  0.00000000000E+00 -0.53256346781E+03  0.53256346783E+03  0.50400001928E-02 0. -1.
    10030    2    1    2    0    0  0.00000000000E+00  0.00000000000E+00  0.51663891308E+03  0.15817658487E+04  0.14950141918E+04 0.  0.
        3    1    3    3  502    0 -0.61920659936E+03 -0.26865027031E+03 -0.81531479188E+02  0.67988026352E+03  0.10100000352E+00 0. -1.
       -3    1    3    3    0  502  0.61920659936E+03  0.26865027031E+03  0.59817039227E+03  0.90188558521E+03  0.10100000352E+00 0.  1.
</event>
<event>
 5   0  0.2618901E-04  0.1510806E+04  0.7818609E-02  0.8877299E-01
       -2   -1    0    0    0  501  0.00000000000E+00  0.00000000000E+00  0.57326413398E+03  0.57326413399E+03  0.25500000920E-02 0.  1.
        2   -1    0    0  501    0  0.00000000000E+00  0.00000000000E+00 -0.99541091046E+03  0.99541091047E+03  0.25500000920E-02 0. -1.
    10030    2    1    2    0    0  0.00000000000E+00  0.00000000000E+00 -0.42214677648E+03  0.15686750445E+04  0.15108055779E+04 0.  0.
        1    1    3    3  502    0 -0.34240586201E+03  0.55683820468E+03 -0.60415440407E+03  0.89011971358E+03  0.50400001928E-02 0. -1.
       -1    1    3    3    0  502  0.34240586201E+03 -0.55683820468E+03  0.18200762759E+03  0.67855533087E+03  0.50400001928E-02 0.  1.
</event>
<event>
 5   0  0.2734072E-04  0.1500139E+04  0.7818609E-02  0.8884361E-01
        2   -1    0    0  501    0  0.00000000000E+00  0.00000000000E+00  0.11501202693E+04  0.11501202693E+04  0.25500000920E-02 0.  1.
       -2   -1    0    0    0  501  0.00000000000E+00  0.00000000000E+00 -0.48916975690E+03  0.48916975691E+03  0.25500000920E-02 0. -1.
    10030    2    1    2    0    0  0.00000000000E+00  0.00000000000E+00  0.66095051235E+03  0.16392900262E+04  0.15001387303E+04 0.  0.
        5    1    3    3  502    0 -0.61696328813E+03 -0.37890130596E+03  0.11641701500E+03  0.73333819616E+03  0.46999998093E+01 0.  1.
       -5    1    3    3    0  502  0.61696328813E+03  0.37890130596E+03  0.54453349735E+03  0.90595183001E+03  0.46999998093E+01 0. -1.
</event>
<event>
 5   0  0.1427609E-04  0.1495772E+04  0.7818609E-02  0.8887270E-01
        1   -1    0    0  501    0  0.00000000000E+00  0.00000000000E+00  0.58394278077E+03  0.58394278079E+03  0.50400001928E-02 0. -1.
       -1   -1    0    0    0  501  0.00000000000E+00  0.00000000000E+00 -0.95785600673E+03  0.95785600674E+03  0.50400001928E-02 0.  1.
    10030    2    1    2    0    0  0.00000000000E+00  0.00000000000E+00 -0.37391322596E+03  0.15417987875E+04  0.14957715068E+04 0.  0.
        4    1    3    3  502    0 -0.20917732115E+03  0.81807891377E+02  0.54835556471E+03  0.59257330435E+03  0.12699999809E+01 0. -1.
       -4    1    3    3    0  502  0.20917732115E+03 -0.81807891377E+02 -0.92226879067E+03  0.94922548318E+03  0.12699999809E+01 0.  1.
</event>
<event>
 5   0  0.2641347E-04  0.1507385E+04  0.7818609E-02  0.8879557E-01
        2   -1    0    0  501    0  0.00000000000E+00  0.00000000000E+00  0.44166472311E+03  0.44166472312E+03  0.25500000920E-02 0. -1.
       -2   -1    0    0    0  501  0.00000000000E+00  0.00000000000E+00 -0.12861617838E+04  0.12861617838E+04  0.25500000920E-02 0.  1.
    10030    2    1    2    0    0  0.00000000000E+00  0.00000000000E+00 -0.84449706073E+03  0.17278265070E+04  0.15073848721E+04 0.  0.
        4    1    3    3  502    0 -0.44262635158E+03  0.44052464393E+03 -0.90594411488E+03  0.11003255887E+04  0.12699999809E+01 0.  1.
       -4    1    3    3    0  502  0.44262635158E+03 -0.44052464393E+03  0.61447054149E+02  0.62750091824E+03  0.12699999809E+01 0. -1.
</event>
<event>
 5   0  0.2696040E-04  0.1495772E+04  0.7818609E-02  0.8887269E-01
        2   -1    0    0  501    0  0.00000000000E+00  0.00000000000E+00  0.13675540647E+04  0.13675540647E+04  0.25500000920E-02 0. -1.
       -2   -1    0    0    0  501  0.00000000000E+00  0.00000000000E+00 -0.40900303328E+03  0.40900303329E+03  0.25500000920E-02 0.  1.
    10030    2    1    2    0    0  0.00000000000E+00  0.00000000000E+00  0.95855103143E+03  0.17765570980E+04  0.14957723900E+04 0.  0.
        2    1    3    3  502    0 -0.59161700856E+03 -0.67937932868E+02 -0.58103308599E+02  0.59833288562E+03  0.25500000920E-02 0.  1.
       -2    1    3    3    0  502  0.59161700856E+03  0.67937932868E+02  0.10166543400E+04  0.11782242124E+04  0.25500000920E-02 0. -1.
</event>
<event>
 5   0  0.1426929E-04  0.1507789E+04  0.7818609E-02  0.8879290E-01
        1   -1    0    0  501    0  0.00000000000E+00  0.00000000000E+00  0.98680472849E+03  0.98680472850E+03  0.50400001928E-02 0. -1.
       -1   -1    0    0    0  501  0.00000000000E+00  0.00000000000E+00 -0.57595667821E+03  0.57595667823E+03  0.50400001928E-02 0.  1.
    10030    2    1    2    0    0  0.00000000000E+00  0.00000000000E+00  0.41084805028E+03  0.15627614067E+04  0.15077888095E+04 0.  0.
        1    1    3    3  502    0 -0.56124349708E+03  0.18867047503E+03  0.68909180934E+03  0.90853636850E+03  0.50400001928E-02 0. -1.
       -1    1    3    3    0  502  0.56124349708E+03 -0.18867047503E+03 -0.27824375906E+03  0.65422503823E+03  0.50400001928E-02 0.  1.
</event>
<event>
 5   0  0.2696040E-04  0.1499783E+04  0.7818609E-02  0.8884597E-01
        2   -1    0    0  501    0  0.00000000000E+00  0.00000000000E+00  0.11176385341E+04  0.11176385341E+04  0.25500000920E-02 0.  1.
       -2   -1    0    0    0  501  0.00000000000E+00  0.00000000000E+00 -0.50314778067E+03  0.50314778068E+03  0.25500000920E-02 0. -1.
    10030    2    1    2    0    0  0.00000000000E+00  0.00000000000E+00  0.61449075343E+03  0.16207863148E+04  0.14997831150E+04 0.  0.
        2    1    3    3  502    0  0.48896589020E+03 -0.55741153813E+03  0.42827234197E+03  0.85627826290E+03  0.25500000920E-02 0. -1.
       -2    1    3    3    0  502 -0.48896589020E+03  0.55741153813E+03  0.18621841146E+03  0.76450805188E+03  0.25500000920E-02 0.  1.
</event>
<event>
 5   0  0.1443750E-04  0.1486413E+04  0.7818609E-02  0.8893538E-01
       -1   -1    0    0    0  501  0.00000000000E+00  0.00000000000E+00  0.96109760013E+03  0.96109760014E+03  0.50400001928E-02 0. -1.
        1   -1    0    0  501    0  0.00000000000E+00  0.00000000000E+00 -0.57471399539E+03  0.57471399541E+03  0.50400001928E-02 0.  1.
    10030    2    1    2    0    0  0.00000000000E+00  0.00000000000E+00  0.38638360474E+03  0.15358115956E+04  0.14864134576E+04 0.  0.
        2    1    3    3  502    0 -0.37688436264E+03  0.36012533057E+03 -0.35415280901E+03  0.63020337087E+03  0.25500000920E-02 0.  1.
       -2    1    3    3    0  502  0.37688436264E+03 -0.36012533057E+03  0.74053641375E+03  0.90560822469E+03  0.25500000920E-02 0. -1.
</event>
<event>
 5   0  0.1427609E-04  0.1500325E+04  0.7818609E-02  0.8884237E-01
        1   -1    0    0  501    0  0.00000000000E+00  0.00000000000E+00  0.11039638837E+04  0.11039638837E+04  0.50400001928E-02 0. -1.
       -1   -1    0    0    0  501  0.00000000000E+00  0.00000000000E+00 -0.50974865554E+03  0.50974865557E+03  0.50400001928E-02 0.  1.
    10030    2    1    2    0    0  0.00000000000E+00  0.00000000000E+00  0.59421522815E+03  0.16137125393E+04  0.15003254387E+04 0.  0.
        4    1    3    3  502    0  0.18326988731E+03 -0.19764902552E+03 -0.45586364820E+03  0.52959066035E+03  0.12699999809E+01 0.  1.
       -4    1    3    3    0  502 -0.18326988731E+03  0.19764902552E+03  0.10500788763E+04  0.10841218789E+04  0.12699999809E+01 0. -1.
</event>
<event>
 5   0  0.2618901E-04  0.1509645E+04  0.7818609E-02  0.8878064E-01
       -2   -1    0    0    0  501  0.00000000000E+00  0.00000000000E+00  0.22131515456E+03  0.22131515457E+03  0.25500000920E-02 0. -1.
        2   -1    0    0  501    0  0.00000000000E+00  0.00000000000E+00 -0.25744157904E+04  0.25744157904E+04  0.25500000920E-02 0.  1.
    10030    2    1    2    0    0  0.00000000000E+00  0.00000000000E+00 -0.23531006358E+04  0.27957309450E+04  0.15096452942E+04 0.  0.
        1    1    3    3  502    0  0.72180381716E+02  0.24333438462E+03 -0.24930186076E+04  0.25059057061E+04  0.50400001928E-02 0.  1.
       -1    1    3    3    0  502 -0.72180381716E+02 -0.24333438462E+03  0.13991797172E+03  0.28982523886E+03  0.50400001928E-02 0. -1.
</event>
<event>
 5   0  0.2696040E-04  0.1503109E+04  0.7818609E-02  0.8882388E-01
        2   -1    0    0  501    0  0.00000000000E+00  0.00000000000E+00  0.66307022009E+03  0.66307022010E+03  0.25500000920E-02 0.  1.
       -2   -1    0    0    0  501  0.00000000000E+00  0.00000000000E+00 -0.85184704987E+03  0.85184704988E+03  0.25500000920E-02 0. -1.
    10030    2    1    2    0    0  0.00000000000E+00  0.00000000000E+00 -0.18877682978E+03  0.15149172700E+04  0.15031093252E+04 0.  0.
        2    1    3    3  502    0  0.25861080439E+03 -0.38042914733E+03  0.50461077120E+03  0.68281616465E+03  0.25500000920E-02 0.  1.
       -2    1    3    3    0  502 -0.25861080439E+03  0.38042914733E+03 -0.69338760098E+03  0.83210110533E+03  0.25500000920E-02 0. -1.
</event>
<event>
 5   0  0.1426929E-04  0.1502306E+04  0.7818609E-02  0.8882921E-01
        1   -1    0    0  501    0  0.00000000000E+00  0.00000000000E+00  0.79142885762E+03  0.79142885763E+03  0.50400001928E-02 0.  1.
       -1   -1    0    0    0  501  0.00000000000E+00  0.00000000000E+00 -0.71292676185E+03  0.71292676187E+03  0.50400001928E-02 0. -1.
    10030    2    1    2    0    0  0.00000000000E+00  0.00000000000E+00  0.78502095769E+02  0.15043556195E+04  0.15023059778E+04 0.  0.
        1    1    3    3  502    0  0.71387463525E+03  0.23290737856E+03  0.20042309960E+02  0.75117543627E+03  0.50400001928E-02 0. -1.
       -1    1    3    3    0  502 -0.71387463525E+03 -0.23290737856E+03  0.58459785809E+02  0.75318018323E+03  0.50400001928E-02 0.  1.
</event>
<event>
 5   0  0.1443750E-04  0.1497479E+04  0.7818609E-02  0.8886131E-01
        1   -1    0    0  501    0  0.00000000000E+00  0.00000000000E+00  0.13830959652E+04  0.13830959653E+04  0.50400001928E-02 0.  1.
       -1   -1    0    0    0  501  0.00000000000E+00  0.00000000000E+00 -0.40533048683E+03  0.40533048687E+03  0.50400001928E-02 0. -1.
    10030    2    1    2    0    0  0.00000000000E+00  0.00000000000E+00  0.97776547841E+03  0.17884264521E+04  0.14974791631E+04 0.  0.
        2    1    3    3  502    0 -0.42212902066E+03 -0.41807919587E+03 -0.55310430315E+02  0.59669285886E+03  0.25500000920E-02 0. -1.
       -2    1    3    3    0  502  0.42212902066E+03  0.41807919587E+03  0.10330759087E+04  0.11917335933E+04  0.25500000920E-02 0.  1.
</event>
<event>
 5   0  0.2618901E-04  0.1451418E+04  0.7818609E-02  0.8917418E-01
        2   -1    0    0  501    0  0.00000000000E+00  0.00000000000E+00  0.10863067054E+04  0.10863067054E+04  0.25500000920E-02 0.  1.
       -2   -1    0    0    0  501  0.00000000000E+00  0.00000000000E+00 -0.48481133950E+03  0.48481133951E+03  0.25500000920E-02 0. -1.
    10030    2    1    2    0    0  0.00000000000E+00  0.00000000000E+00  0.60149536585E+03  0.15711180449E+04  0.14514183531E+04 0.  0.
        1    1    3    3  502    0  0.30772507969E+03  0.94520175988E+02  0.10047907625E+04  0.10550986990E+04  0.50400001928E-02 0.  1.
       -1    1    3    3    0  502 -0.30772507969E+03 -0.94520175988E+02 -0.40329539660E+03  0.51601934584E+03  0.50400001928E-02 0. -1.
</event>
<event>
 5   0  0.1443750E-04  0.1503634E+04  0.7818609E-02  0.8882040E-01
        1   -1    0    0  501    0  0.00000000000E+00  0.00000000000E+00  0.71303564016E+03  0.71303564017E+03  0.50400001928E-02 0. -1.
       -1   -1    0    0    0  501  0.00000000000E+00  0.00000000000E+00 -0.79270795059E+03  0.79270795060E+03  0.50400001928E-02 0.  1.
    10030    2    1    2    0    0  0.00000000000E+00  0.00000000000E+00 -0.79672310431E+02  0.15057435908E+04  0.15036342920E+04 0.  0.
        2    1    3    3  502    0 -0.20919425343E+03 -0.69753069192E+03  0.14728881127E+03  0.74297058876E+03  0.25500000920E-02 0.  1.
       -2    1    3    3    0  502  0.20919425343E+03  0.69753069192E+03 -0.22696112170E+03  0.76277300201E+03  0.25500000920E-02 0. -1.
</event>
<event>
 5   0  0.1474203E-04  0.1492302E+04  0.7818609E-02  0.8889588E-01
        1   -1    0    0  501    0  0.00000000000E+00  0.00000000000E+00  0.12506639504E+04  0.12506639504E+04  0.50400001928E-02 0. -1.
       -1   -1    0    0    0  501  0.00000000000E+00  0.00000000000E+00 -0.44515667411E+03  0.44515667414E+03  0.50400001928E-02 0.  1.
    10030    2    1    2    0    0  0.00000000000E+00  0.00000000000E+00  0.80550727626E+03  0.16958206245E+04  0.14923021204E+04 0.  0.
        3    1    3    3  502    0 -0.54076498302E+03 -0.16200402082E+03 -0.15171230650E+03  0.58454144743E+03  0.10100000352E+00 0.  1.
       -3    1    3    3    0  502  0.54076498302E+03  0.16200402082E+03  0.95721958276E+03  0.11112791771E+04  0.10100000352E+00 0. -1.
</event>
<event>
 5   0  0.2641347E-04  0.1504234E+04  0.7818609E-02  0.8881642E-01
        2   -1    0    0  501    0  0.00000000000E+00  0.00000000000E+00  0.22035241917E+04  0.22035241917E+04  0.25500000920E-02 0.  1.
       -2   -1    0    0    0  501  0.00000000000E+00  0.00000000000E+00 -0.25671610964E+03  0.25671610966E+03  0.25500000920E-02 0. -1.
    10030    2    1    2    0    0  0.00000000000E+00  0.00000000000E+00  0.19468080821E+04  0.24602403014E+04  0.15042342344E+04 0.  0.
        4    1    3    3  502    0 -0.19923019918E+03 -0.59248403125E+03  0.28930776207E+03  0.68878922294E+03  0.12699999809E+01 0. -1.
       -4    1    3    3    0  502  0.19923019918E+03  0.59248403125E+03  0.16575003200E+04  0.17714510784E+04  0.12699999809E+01 0.  1.
</event>
<event>
 5   0  0.2641347E-04  0.1493117E+04  0.7818609E-02  0.8889043E-01
       -2   -1    0    0    0  501  0.00000000000E+00  0.00000000000E+00  0.76110595317E+03  0.76110595317E+03  0.25500000920E-02 0.  1.
        2   -1    0    0  501    0  0.00000000000E+00  0.00000000000E+00 -0.73228894095E+03  0.73228894095E+03  0.25500000920E-02 0. -1.
    10030    2    1    2    0    0  0.00000000000E+00  0.00000000000E+00  0.28817012220E+02  0.14933948941E+04  0.14931168372E+04 0.  0.
        4    1    3    3  502    0  0.21496562140E+03 -0.48130576433E+03  0.54316790859E+03  0.75690055290E+03  0.12699999809E+01 0.  1.
       -4    1    3    3    0  502 -0.21496562140E+03  0.48130576433E+03 -0.51435089637E+03  0.73649434123E+03  0.12699999809E+01 0. -1.
</event>
<event>
 5   0  0.2641347E-04  0.1491819E+04  0.7818609E-02  0.8889911E-01
       -2   -1    0    0    0  501  0.00000000000E+00  0.00000000000E+00  0.11519675620E+04  0.11519675620E+04  0.25500000920E-02 0.  1.
        2   -1    0    0  501    0  0.00000000000E+00  0.00000000000E+00 -0.48298324714E+03  0.48298324715E+03  0.25500000920E-02 0. -1.
    10030    2    1    2    0    0  0.00000000000E+00  0.00000000000E+00  0.66898431481E+03  0.16349508091E+04  0.14918190690E+04 0.  0.
        4    1    3    3  502    0  0.66592298279E+03  0.33485591855E+03  0.30354233731E+03  0.80481144911E+03  0.12699999809E+01 0. -1.
       -4    1    3    3    0  502 -0.66592298279E+03 -0.33485591855E+03  0.36544197751E+03  0.83013935999E+03  0.12699999809E+01 0.  1.
</event>
<event>
 5   0  0.2646718E-04  0.1500265E+04  0.7818609E-02  0.8884277E-01
        2   -1    0    0  501    0  0.00000000000E+00  0.00000000000E+00  0.80763442090E+03  0.80763442091E+03  0.25500000920E-02 0.  1.
       -2   -1    0    0    0  501  0.00000000000E+00  0.00000000000E+00 -0.69672448806E+03  0.69672448807E+03  0.25500000920E-02 0. -1.
    10030    2    1    2    0    0  0.00000000000E+00  0.00000000000E+00  0.11090993284E+03  0.15043589090E+04  0.15002648812E+04 0.  0.
        3    1    3    3  502    0  0.34387092485E+03  0.23901587146E+03  0.67950597415E+03  0.79818805984E+03  0.10100000352E+00 0.  1.
       -3    1    3    3    0  502 -0.34387092485E+03 -0.23901587146E+03 -0.56859604131E+03  0.70617084913E+03  0.10100000352E+00 0. -1.
</event>
<event>
 5   0  0.1426929E-04  0.1505159E+04  0.7818609E-02  0.8881029E-01
       -1   -1    0    0    0  501  0.00000000000E+00  0.00000000000E+00  0.55205607424E+03  0.55205607427E+03  0.50400001928E-02 0. -1.
        1   -1    0    0  501    0  0.00000000000E+00  0.00000000000E+00 -0.10259394792E+04  0.10259394793E+04  0.50400001928E-02 0.  1.
    10030    2    1    2    0    0  0.00000000000E+00  0.00000000000E+00 -0.47388340499E+03  0.15779955535E+04  0.15051592890E+04 0.  0.
        1    1    3    3  502    0  0.33015861942E+03  0.60452444229E+03 -0.55479894666E+03  0.88445259146E+03  0.50400001928E-02 0.  1.
       -1    1    3    3    0  502 -0.33015861942E+03 -0.60452444229E+03  0.80915541665E+02  0.69354296205E+03  0.50400001928E-02 0. -1.
</event>
<event>
 5   0  0.2696040E-04  0.1496391E+04  0.7818609E-02  0.8886856E-01
       -2   -1    0    0    0  501  0.00000000000E+00  0.00000000000E+00  0.49045985779E+03  0.49045985780E+03  0.25500000920E-02 0. -1.
        2   -1    0    0  501    0  0.00000000000E+00  0.00000000000E+00 -0.11413709406E+04  0.11413709406E+04  0.25500000920E-02 0.  1.
    10030    2    1    2    0    0  0.00000000000E+00  0.00000000000E+00 -0.65091108280E+03  0.16318307984E+04  0.14963911644E+04 0.  0.
        2    1    3    3  502    0 -0.85789103725E+02 -0.61774412338E+03  0.12526864349E+03  0.63612876475E+03  0.25500000920E-02 0. -1.
       -2    1    3    3    0  502  0.85789103725E+02  0.61774412338E+03 -0.77617972630E+03  0.99570203365E+03  0.25500000920E-02 0.  1.
</event>
<event>
 5   0  0.2618901E-04  0.1501582E+04  0.7818609E-02  0.8883402E-01
       -2   -1    0    0    0  501  0.00000000000E+00  0.00000000000E+00  0.64710476063E+03  0.64710476063E+03  0.25500000920E-02 0. -1.
        2   -1    0    0  501    0  0.00000000000E+00  0.00000000000E+00 -0.87109045335E+03  0.87109045335E+03  0.25500000920E-02 0.  1.
    10030    2    1    2    0    0  0.00000000000E+00  0.00000000000E+00 -0.22398569272E+03  0.15181952140E+04  0.15015815387E+04 0.  0.
        1    1    3    3  502    0  0.52614529983E+03 -0.21300115565E+03  0.38485892702E+03  0.68579498582E+03  0.50400001928E-02 0. -1.
       -1    1    3    3    0  502 -0.52614529983E+03  0.21300115565E+03 -0.60884461974E+03  0.83240022817E+03  0.50400001928E-02 0.  1.
</event>
<event>
 5   0  0.1443750E-04  0.1502613E+04  0.7818609E-02  0.8882717E-01
       -1   -1    0    0    0  501  0.00000000000E+00  0.00000000000E+00  0.45176513778E+03  0.45176513781E+03  0.50400001928E-02 0.  1.
        1   -1    0    0  501    0  0.00000000000E+00  0.00000000000E+00 -0.12494570131E+04  0.12494570131E+04  0.50400001928E-02 0. -1.
    10030    2    1    2    0    0  0.00000000000E+00  0.00000000000E+00 -0.79769187534E+03  0.17012221509E+04  0.15026125511E+04 0.  0.
        2    1    3    3  502    0  0.25046487877E+03  0.59727425452E+03  0.32261912176E+02  0.64846744065E+03  0.25500000920E-02 0.  1.
       -2    1    3    3    0  502 -0.25046487877E+03 -0.59727425452E+03 -0.82995378752E+03  0.10527547103E+04  0.25500000920E-02 0. -1.
</event>
<event>
 5   0  0.1443750E-04  0.1504602E+04  0.7818609E-02  0.8881398E-01
       -1   -1    0    0    0  501  0.00000000000E+00  0.00000000000E+00  0.36189519890E+03  0.36189519894E+03  0.50400001928E-02 0. -1.
        1   -1    0    0  501    0  0.00000000000E+00  0.00000000000E+00 -0.15638702729E+04  0.15638702729E+04  0.50400001928E-02 0.  1.
    10030    2    1    2    0    0  0.00000000000E+00  0.00000000000E+00 -0.12019750740E+04  0.19257654718E+04  0.15046024638E+04 0.  0.
        2    1    3    3  502    0 -0.40456352592E+03  0.38131103588E+03 -0.12497011642E+04  0.13677802281E+04  0.25500000920E-02 0.  1.
       -2    1    3    3    0  502  0.40456352592E+03 -0.38131103588E+03  0.47726090165E+02  0.55798524378E+03  0.25500000920E-02 0. -1.
</event>
<event>
 5   0  0.2641347E-04  0.1497469E+04  0.7818609E-02  0.8886137E-01
       -2   -1    0    0    0  501  0.00000000000E+00  0.00000000000E+00  0.53071862728E+03  0.53071862729E+03  0.25500000920E-02 0.  1.
        2   -1    0    0  501    0  0.00000000000E+00  0.00000000000E+00 -0.10563104910E+04  0.10563104910E+04  0.25500000920E-02 0. -1.
    10030    2    1    2    0    0  0.00000000000E+00  0.00000000000E+00 -0.52559186374E+03  0.15870291183E+04  0.14974694037E+04 0.  0.
        4    1    3    3  502    0 -0.69694090759E+03  0.21535287421E+03 -0.83884400541E+02  0.73426268778E+03  0.12699999809E+01 0.  1.
       -4    1    3    3    0  502  0.69694090759E+03 -0.21535287421E+03 -0.44170746320E+03  0.85276643054E+03  0.12699999809E+01 0. -1.
</event>
<event>
 5   0  0.2641347E-04  0.1472090E+04  0.7818609E-02  0.8903228E-01
        2   -1    0    0  501    0  0.00000000000E+00  0.00000000000E+00  0.70049071313E+03  0.70049071314E+03  0.25500000920E-02 0.  1.
       -2   -1    0    0    0  501  0.00000000000E+00  0.00000000000E+00 -0.77340415794E+03  0.77340415795E+03  0.25500000920E-02 0. -1.
    10030    2    1    2    0    0  0.00000000000E+00  0.00000000000E+00 -0.72913444808E+02  0.14738948711E+04  0.14720902556E+04 0.  0.
        4    1    3    3  502    0 -0.33387446139E+03  0.96321162887E+02 -0.68610566657E+03  0.76908550954E+03  0.12699999809E+01 0. -1.
       -4    1    3    3    0  502  0.33387446139E+03 -0.96321162887E+02  0.61319222176E+03  0.70480936154E+03  0.12699999809E+01 0.  1.
</event>
<event>
 5   0  0.2641347E-04  0.1499151E+04  0.7818609E-02  0.8885018E-01
       -2   -1    0    0    0  501  0.00000000000E+00  0.00000000000E+00  0.82627660487E+03  0.82627660488E+03  0.25500000920E-02 0. -1.
        2   -1    0    0  501    0  0.00000000000E+00  0.00000000000E+00 -0.67999441834E+03  0.67999441834E+03  0.25500000920E-02 0.  1.
    10030    2    1    2    0    0  0.00000000000E+00  0.00000000000E+00  0.14628218653E+03  0.15062710232E+04  0.14991510655E+04 0.  0.
        4    1    3    3  502    0 -0.47103606709E+03 -0.85093091788E+02  0.65272214915E+03  0.80942178601E+03  0.12699999809E+01 0. -1.
       -4    1    3    3    0  502  0.47103606709E+03  0.85093091788E+02 -0.50643996262E+03  0.69684923721E+03  0.12699999809E+01 0.  1.
</event>
<event>
 5   0  0.1474203E-04  0.1495889E+04  0.7818609E-02  0.8887191E-01
       -1   -1    0    0    0  501  0.00000000000E+00  0.00000000000E+00  0.71438955937E+03  0.71438955939E+03  0.50400001928E-02 0.  1.
        1   -1    0    0  501    0  0.00000000000E+00  0.00000000000E+00 -0.78307563279E+03  0.78307563281E+03  0.50400001928E-02 0. -1.
    10030    2    1    2    0    0  0.00000000000E+00  0.00000000000E+00 -0.68686073425E+02  0.14974651922E+04  0.14958891086E+04 0.  0.
        3    1    3    3  502    0 -0.58435975488E+03  0.10579697100E+03  0.42083563672E+03  0.72785435736E+03  0.10100000352E+00 0.  1.
       -3    1    3    3    0  502  0.58435975488E+03 -0.10579697100E+03 -0.48952171014E+03  0.76961083483E+03  0.10100000352E+00 0. -1.
</event>
<event>
 5   0  0.1474203E-04  0.1504439E+04  0.7818609E-02  0.8881506E-01
        1   -1    0    0  501    0  0.00000000000E+00  0.00000000000E+00  0.13777398210E+04  0.13777398210E+04  0.50400001928E-02 0. -1.
       -1   -1    0    0    0  501  0.00000000000E+00  0.00000000000E+00 -0.41069760577E+03  0.41069760580E+03  0.50400001928E-02 0.  1.
    10030    2    1    2    0    0  0.00000000000E+00  0.00000000000E+00  0.96704221521E+03  0.17884374268E+04  0.15044393585E+04 0.  0.
        3    1    3    3  502    0  0.27829330520E+01  0.36530595111E+03  0.12652046787E+04  0.13168899239E+04  0.10100000352E+00 0. -1.
       -3    1    3    3    0  502 -0.27829330520E+01 -0.36530595111E+03 -0.29816246345E+03  0.47154750285E+03  0.10100000352E+00 0.  1.
</event>
<event>
 5   0  0.2696040E-04  0.1498012E+04  0.7818609E-02  0.8885776E-01
       -2   -1    0    0    0  501  0.00000000000E+00  0.00000000000E+00  0.58397768658E+03  0.58397768659E+03  0.25500000920E-02 0. -1.
        2   -1    0    0  501    0  0.00000000000E+00  0.00000000000E+00 -0.96067070625E+03  0.96067070625E+03  0.25500000920E-02 0.  1.
    10030    2    1    2    0    0  0.00000000000E+00  0.00000000000E+00 -0.37669301967E+03  0.15446483928E+04  0.14980123586E+04 0.  0.
        2    1    3    3  502    0 -0.32615936138E+03 -0.27020714923E+03  0.44863805304E+03  0.61698292938E+03  0.25500000920E-02 0. -1.
       -2    1    3    3    0  502  0.32615936138E+03  0.27020714923E+03 -0.82533107271E+03  0.92766546346E+03  0.25500000920E-02 0.  1.
</event>
<event>
 5   0  0.1443750E-04  0.1500994E+04  0.7818609E-02  0.8883792E-01
        1   -1    0    0  501    0  0.00000000000E+00  0.00000000000E+00  0.11512251876E+04  0.11512251876E+04  0.50400001928E-02 0.  1.
       -1   -1    0    0    0  501  0.00000000000E+00  0.00000000000E+00 -0.48925740645E+03  0.48925740648E+03  0.50400001928E-02 0. -1.
    10030    2    1    2    0    0  0.00000000000E+00  0.00000000000E+00  0.66196778118E+03  0.16404825941E+04  0.15009936037E+04 0.  0.
        2    1    3    3  502    0 -0.40106181906E+03  0.15935377301E+03 -0.34008047166E+03  0.54945330547E+03  0.25500000920E-02 0. -1.
       -2    1    3    3    0  502  0.40106181906E+03 -0.15935377301E+03  0.10020482528E+04  0.10910292887E+04  0.25500000920E-02 0.  1.
</event>
<event>
 5   0  0.1443750E-04  0.1505714E+04  0.7818609E-02  0.8880662E-01
       -1   -1    0    0    0  501  0.00000000000E+00  0.00000000000E+00  0.13284351399E+04  0.13284351399E+04  0.50400001928E-02 0. -1.
        1   -1    0    0  501    0  0.00000000000E+00  0.00000000000E+00 -0.42666281875E+03  0.42666281878E+03  0.50400001928E-02 0.  1.
    10030    2    1    2    0    0  0.00000000000E+00  0.00000000000E+00  0.90177232113E+03  0.17550979587E+04  0.15057142907E+04 0.  0.
        2    1    3    3  502    0  0.55661247305E+03 -0.21684652116E+03 -0.83211761779E+02  0.60312855695E+03  0.25500000920E-02 0. -1.
       -2    1    3    3    0  502 -0.55661247305E+03  0.21684652116E+03  0.98498408291E+03  0.11519694017E+04  0.25500000920E-02 0.  1.
</event>
<event>
 5   0  0.1426929E-04  0.1507518E+04  0.7818609E-02  0.8879469E-01
       -1   -1    0    0    0  501  0.00000000000E+00  0.00000000000E+00  0.99885878588E+03  0.99885878589E+03  0.50400001928E-02 0. -1.
        1   -1    0    0  501    0  0.00000000000E+00  0.00000000000E+00 -0.56880149765E+03  0.56880149767E+03  0.50400001928E-02 0.  1.
    10030    2    1    2    0    0  0.00000000000E+00  0.00000000000E+00  0.43005728823E+03  0.15676602836E+04  0.15075176594E+04 0.  0.
        1    1    3    3  502    0  0.42401927749E+02 -0.36719176092E+03  0.89814134050E+03  0.97122890211E+03  0.50400001928E-02 0. -1.
       -1    1    3    3    0  502 -0.42401927749E+02  0.36719176092E+03 -0.46808405227E+03  0.59643138145E+03  0.50400001928E-02 0.  1.
</event>
<event>
 5   0  0.2696040E-04  0.1501982E+04  0.7818609E-02  0.8883136E-01
       -2   -1    0    0    0  501  0.00000000000E+00  0.00000000000E+00  0.70797210370E+03  0.70797210371E+03  0.25500000920E-02 0. -1.
        2   -1    0    0  501    0  0.00000000000E+00  0.00000000000E+00 -0.79662346378E+03  0.79662346378E+03  0.25500000920E-02 0.  1.
    10030    2    1    2    0    0  0.00000000000E+00  0.00000000000E+00 -0.88651360073E+02  0.15045955675E+04  0.15019816104E+04 0.  0.
        2    1    3    3  502    0  0.73808913833E+03  0.96457158973E+02 -0.14403598616E+03  0.75817275403E+03  0.25500000920E-02 0.  1.
       -2    1    3    3    0  502 -0.73808913833E+03 -0.96457158973E+02  0.55384626087E+02  0.74642281346E+03  0.25500000920E-02 0. -1.
</event>
<event>
 5   0  0.2641347E-04  0.1506467E+04  0.7818609E-02  0.8880164E-01
        2   -1    0    0  501    0  0.00000000000E+00  0.00000000000E+00  0.45687857120E+03  0.45687857120E+03  0.25500000920E-02 0.  1.
       -2   -1    0    0    0  501  0.00000000000E+00  0.00000000000E+00 -0.12418190889E+04  0.12418190889E+04  0.25500000920E-02 0. -1.
    10030    2    1    2    0    0  0.00000000000E+00  0.00000000000E+00 -0.78494051767E+03  0.16986976601E+04  0.15064667683E+04 0.  0.
        4    1    3    3  502    0 -0.28505430508E+03  0.46194408058E+03  0.19638365260E+03  0.57724902974E+03  0.12699999809E+01 0.  1.
       -4    1    3    3    0  502  0.28505430508E+03 -0.46194408058E+03 -0.98132417027E+03  0.11214486303E+04  0.12699999809E+01 0. -1.
</event>
<event>
 5   0  0.1426929E-04  0.1502997E+04  0.7818609E-02  0.8882463E-01
        1   -1    0    0  501    0  0.00000000000E+00  0.00000000000E+00  0.50489561215E+03  0.50489561217E+03  0.50400001928E-02 0. -1.
       -1   -1    0    0    0  501  0.00000000000E+00  0.00000000000E+00 -0.11185474059E+04  0.11185474059E+04  0.50400001928E-02 0.  1.
    10030    2    1    2    0    0  0.00000000000E+00  0.00000000000E+00 -0.61365179374E+03  0.16234430181E+04  0.15029965765E+04 0.  0.
        1    1    3    3  502    0  0.64388221184E+03  0.38448562774E+03 -0.35903327571E+03  0.83145558736E+03  0.50400001928E-02 0.  1.
       -1    1    3    3    0  502 -0.64388221184E+03 -0.38448562774E+03 -0.25461851803E+03  0.79198743071E+03  0.50400001928E-02 0. -1.
</event>
<event>
 5   0  0.2618901E-04  0.1507433E+04  0.7818609E-02  0.8879525E-01
        2   -1    0    0  501    0  0.00000000000E+00  0.00000000000E+00  0.77935059605E+03  0.77935059605E+03  0.25500000920E-02 0.  1.
       -2   -1    0    0    0  501  0.00000000000E+00  0.00000000000E+00 -0.72892537312E+03  0.72892537312E+03  0.25500000920E-02 0. -1.
    10030    2    1    2    0    0  0.00000000000E+00  0.00000000000E+00  0.50425222926E+02  0.15082759692E+04  0.15074328164E+04 0.  0.
        1    1    3    3  502    0  0.42632215352E+03 -0.32741807877E+03 -0.50341541655E+03  0.73646470284E+03  0.50400001928E-02 0. -1.
       -1    1    3    3    0  502 -0.42632215352E+03  0.32741807877E+03  0.55384063947E+03  0.77181126634E+03  0.50400001928E-02 0.  1.
</event>
<event>
 5   0  0.1443750E-04  0.1501929E+04  0.7818609E-02  0.8883171E-01
        1   -1    0    0  501    0  0.00000000000E+00  0.00000000000E+00  0.77048594743E+03  0.77048594745E+03  0.50400001928E-02 0. -1.
       -1   -1    0    0    0  501  0.00000000000E+00  0.00000000000E+00 -0.73193755787E+03  0.73193755788E+03  0.50400001928E-02 0.  1.
    10030    2    1    2    0    0  0.00000000000E+00  0.00000000000E+00  0.38548389567E+02  0.15024235053E+04  0.15019288968E+04 0.  0.
        2    1    3    3  502    0 -0.29247948419E+03 -0.67466051295E+03 -0.13321138873E+03  0.74729935802E+03  0.25500000920E-02 0.  1.
       -2    1    3    3    0  502  0.29247948419E+03  0.67466051295E+03  0.17175977829E+03  0.75512414731E+03  0.25500000920E-02 0. -1.
</event>
<event>
 5   0  0.1427609E-04  0.1502675E+04  0.7818609E-02  0.8882676E-01
        1   -1    0    0  501    0  0.00000000000E+00  0.00000000000E+00  0.91013604092E+03  0.91013604093E+03  0.50400001928E-02 0. -1.
       -1   -1    0    0    0  501  0.00000000000E+00  0.00000000000E+00 -0.62024606927E+03  0.62024606929E+03  0.50400001928E-02 0.  1.
    10030    2    1    2    0    0  0.00000000000E+00  0.00000000000E+00  0.28988997165E+03  0.15303821102E+04  0.15026753500E+04 0.  0.
        4    1    3    3  502    0 -0.98246179942E+02 -0.56809001812E+03 -0.34573527134E+03  0.67224480013E+03  0.12699999809E+01 0.  1.
       -4    1    3    3    0  502  0.98246179942E+02  0.56809001812E+03  0.63562524299E+03  0.85813731010E+03  0.12699999809E+01 0. -1.
</event>
<event>
 5   0  0.1426929E-04  0.1501532E+04  0.7818609E-02  0.8883435E-01
       -1   -1    0    0    0  501  0.00000000000E+00  0.00000000000E+00  0.20194820934E+04  0.20194820934E+04  0.50400001928E-02 0. -1.
        1   -1    0    0  501    0  0.00000000000E+00  0.00000000000E+00 -0.27910589623E+03  0.27910589628E+03  0.50400001928E-02 0.  1.
    10030    2    1    2    0    0  0.00000000000E+00  0.00000000000E+00  0.17403761971E+04  0.22985879897E+04  0.15015316975E+04 0.  0.
        1    1    3    3  502    0  0.55908056749E+03  0.18582473449E+03  0.15825540642E+04  0.16886619789E+04  0.50400001928E-02 0. -1.
       -1    1    3    3    0  502 -0.55908056749E+03 -0.18582473449E+03  0.15782213292E+03  0.60992601072E+03  0.50400001928E-02 0.  1.
</event>
<event>
 5   0  0.1426929E-04  0.1499769E+04  0.7818609E-02  0.8884607E-01
       -1   -1    0    0    0  501  0.00000000000E+00  0.00000000000E+00  0.33752507609E+03  0.33752507613E+03  0.50400001928E-02 0. -1.
        1   -1    0    0  501    0  0.00000000000E+00  0.00000000000E+00 -0.16660286895E+04  0.16660286895E+04  0.50400001928E-02 0.  1.
    10030    2    1    2    0    0  0.00000000000E+00  0.00000000000E+00 -0.13285036134E+04  0.20035537656E+04  0.14997685958E+04 0.  0.
        1    1    3    3  502    0 -0.73595988061E+03  0.11245614246E+03 -0.54444284627E+03  0.92233472379E+03  0.50400001928E-02 0. -1.
       -1    1    3    3    0  502  0.73595988061E+03 -0.11245614246E+03 -0.78406076714E+03  0.10812190418E+04  0.50400001928E-02 0.  1.
</event>
<event>
 5   0  0.1426929E-04  0.1502186E+04  0.7818609E-02  0.8883000E-01
       -1   -1    0    0    0  501  0.00000000000E+00  0.00000000000E+00  0.49691472270E+03  0.49691472273E+03  0.50400001928E-02 0.  1.
        1   -1    0    0  501    0  0.00000000000E+00  0.00000000000E+00 -0.11352872982E+04  0.11352872983E+04  0.50400001928E-02 0. -1.
    10030    2    1    2    0    0  0.00000000000E+00  0.00000000000E+00 -0.63837257554E+03  0.16322020210E+04  0.15021863706E+04 0.  0.
        1    1    3    3  502    0  0.45310081621E+03  0.35794047746E+03  0.20271936202E+03  0.61197783851E+03  0.50400001928E-02 0.  1.
       -1    1    3    3    0  502 -0.45310081621E+03 -0.35794047746E+03 -0.84109193756E+03  0.10202241825E+04  0.50400001928E-02 0. -1.
</event>
<event>
 5   0  0.1443750E-04  0.1473274E+04  0.7818609E-02  0.8902423E-01
        1   -1    0    0  501    0  0.00000000000E+00  0.00000000000E+00  0.11283934139E+04  0.11283934140E+04  0.50400001928E-02 0. -1.
       -1   -1    0    0    0  501  0.00000000000E+00  0.00000000000E+00 -0.48089080206E+03  0.48089080209E+03  0.50400001928E-02 0.  1.
    10030    2    1    2    0    0  0.00000000000E+00  0.00000000000E+00  0.64750261188E+03  0.16092842161E+04  0.14732739242E+04 0.  0.
        2    1    3    3  502    0  0.66467828995E+03 -0.22175606375E+03  0.57202504926E+03  0.90453614517E+03  0.25500000920E-02 0. -1.
       -2    1    3    3    0  502 -0.66467828995E+03  0.22175606375E+03  0.75477562620E+02  0.70474807088E+03  0.25500000920E-02 0.  1.
</event>
<event>
 5   0  0.1427609E-04  0.1493361E+04  0.7818609E-02  0.8888880E-01
        1   -1    0    0  501    0  0.00000000000E+00  0.00000000000E+00  0.20376316518E+04  0.20376316519E+04  0.50400001928E-02 0.  1.
       -1   -1    0    0    0  501  0.00000000000E+00  0.00000000000E+00 -0.27361736704E+03  0.27361736708E+03  0.50400001928E-02 0. -1.
    10030    2    1    2    0    0  0.00000000000E+00  0.00000000000E+00  0.17640142848E+04  0.23112490189E+04  0.14933605159E+04 0.  0.
        4    1    3    3  502    0 -0.61953525938E+03  0.18886075967E+03  0.30699029190E+03  0.71675447427E+03  0.12699999809E+01 0.  1.
       -4    1    3    3    0  502  0.61953525938E+03 -0.18886075967E+03  0.14570239929E+04  0.15944945447E+04  0.12699999809E+01 0. -1.
</event>
<event>
 5   0  0.2696040E-04  0.1489613E+04  0.7818609E-02  0.8891390E-01
        2   -1    0    0  501    0  0.00000000000E+00  0.00000000000E+00  0.73297090148E+03  0.73297090148E+03  0.25500000920E-02 0. -1.
       -2   -1    0    0    0  501  0.00000000000E+00  0.00000000000E+00 -0.75683346789E+03  0.75683346789E+03  0.25500000920E-02 0.  1.
    10030    2    1    2    0    0  0.00000000000E+00  0.00000000000E+00 -0.23862566407E+02  0.14898043694E+04  0.14896132508E+04 0.  0.
        2    1    3    3  502    0  0.39269625029E+03 -0.18637856221E+03  0.59295173359E+03  0.73521362325E+03  0.25500000920E-02 0. -1.
       -2    1    3    3    0  502 -0.39269625029E+03  0.18637856221E+03 -0.61681430000E+03  0.75459074612E+03  0.25500000920E-02 0.  1.
</event>
<event>
 5   0  0.1443750E-04  0.1500880E+04  0.7818609E-02  0.8883868E-01
        1   -1    0    0  501    0  0.00000000000E+00  0.00000000000E+00  0.70364775445E+03  0.70364775447E+03  0.50400001928E-02 0. -1.
       -1   -1    0    0    0  501  0.00000000000E+00  0.00000000000E+00 -0.80034416624E+03  0.80034416625E+03  0.50400001928E-02 0.  1.
    10030    2    1    2    0    0  0.00000000000E+00  0.00000000000E+00 -0.96696411792E+02  0.15039919207E+04  0.15008802422E+04 0.  0.
        2    1    3    3  502    0  0.37000186796E+03  0.11829529512E+03 -0.69175821064E+03  0.79336283070E+03  0.25500000920E-02 0.  1.
       -2    1    3    3    0  502 -0.37000186796E+03 -0.11829529512E+03  0.59506179885E+03  0.71062909003E+03  0.25500000920E-02 0. -1.
</event>
<event>
 5   0  0.1484251E-04  0.1493532E+04  0.7818609E-02  0.8888765E-01
        1   -1    0    0  501    0  0.00000000000E+00  0.00000000000E+00  0.79866784650E+03  0.79866784652E+03  0.50400001928E-02 0.  1.
       -1   -1    0    0    0  501  0.00000000000E+00  0.00000000000E+00 -0.69823737331E+03  0.69823737333E+03  0.50400001928E-02 0. -1.
    10030    2    1    2    0    0  0.00000000000E+00  0.00000000000E+00  0.10043047318E+03  0.14969052198E+04  0.14935323757E+04 0.  0.
        5    1    3    3  502    0 -0.15295229940E+03  0.71527521325E+03 -0.10053924743E+03  0.73833817919E+03  0.46999998093E+01 0.  1.
       -5    1    3    3    0  502  0.15295229940E+03 -0.71527521325E+03  0.20096972062E+03  0.75856704066E+03  0.46999998093E+01 0. -1.
</event>
<event>
 5   0  0.2618901E-04  0.1496720E+04  0.7818609E-02  0.8886637E-01
        2   -1    0    0  501    0  0.00000000000E+00  0.00000000000E+00  0.72481240086E+03  0.72481240086E+03  0.25500000920E-02 0. -1.
       -2   -1    0    0    0  501  0.00000000000E+00  0.00000000000E+00 -0.77267311979E+03  0.77267311980E+03  0.25500000920E-02 0.  1.
    10030    2    1    2    0    0  0.00000000000E+00  0.00000000000E+00 -0.47860718934E+02  0.14974855207E+04  0.14967204937E+04 0.  0.
        1    1    3    3  502    0  0.22012872653E+03  0.15975051575E+03  0.67361045930E+03  0.72644885190E+03  0.50400001928E-02 0. -1.
       -1    1    3    3    0  502 -0.22012872653E+03 -0.15975051575E+03 -0.72147117823E+03  0.77103666876E+03  0.50400001928E-02 0.  1.
</event>
<event>
 5   0  0.2618901E-04  0.1501764E+04  0.7818609E-02  0.8883280E-01
        2   -1    0    0  501    0  0.00000000000E+00  0.00000000000E+00  0.82214885369E+03  0.82214885369E+03  0.25500000920E-02 0.  1.
       -2   -1    0    0    0  501  0.00000000000E+00  0.00000000000E+00 -0.68579320676E+03  0.68579320677E+03  0.25500000920E-02 0. -1.
    10030    2    1    2    0    0  0.00000000000E+00  0.00000000000E+00  0.13635564692E+03  0.15079420605E+04  0.15017644274E+04 0.  0.
        1    1    3    3  502    0  0.50495463245E+03  0.55488388350E+03  0.99107028607E+02  0.75676780332E+03  0.50400001928E-02 0.  1.
       -1    1    3    3    0  502 -0.50495463245E+03 -0.55488388350E+03  0.37248618318E+02  0.75117425714E+03  0.50400001928E-02 0. -1.
</event>
<event>
 5   0  0.2696040E-04  0.1498133E+04  0.7818609E-02  0.8885695E-01
       -2   -1    0    0    0  501  0.00000000000E+00  0.00000000000E+00  0.46191149361E+03  0.46191149362E+03  0.25500000920E-02 0.  1.
        2   -1    0    0  501    0  0.00000000000E+00  0.00000000000E+00 -0.12147369671E+04  0.12147369671E+04  0.25500000920E-02 0. -1.
    10030    2    1    2    0    0  0.00000000000E+00  0.00000000000E+00 -0.75282547350E+03  0.16766484607E+04  0.14981334611E+04 0.  0.
        2    1    3    3  502    0 -0.27031882970E+03 -0.18222876257E+03  0.37835259529E+03  0.49942995302E+03  0.25500000920E-02 0.  1.
       -2    1    3    3    0  502  0.27031882970E+03  0.18222876257E+03 -0.11311780688E+04  0.11772185077E+04  0.25500000920E-02 0. -1.
</event>
<event>
 5   0  0.2734072E-04  0.1500758E+04  0.7818609E-02  0.8883949E-01
        2   -1    0    0  501    0  0.00000000000E+00  0.00000000000E+00  0.11555673571E+04  0.11555673571E+04  0.25500000920E-02 0. -1.
       -2   -1    0    0    0  501  0.00000000000E+00  0.00000000000E+00 -0.48726622636E+03  0.48726622637E+03  0.25500000920E-02 0.  1.
    10030    2    1    2    0    0  0.00000000000E+00  0.00000000000E+00  0.66830113074E+03  0.16428335835E+04  0.15007584022E+04 0.  0.
        5    1    3    3  502    0 -0.27387002612E+03  0.20038229261E+03  0.10667523757E+04  0.11194376157E+04  0.46999998093E+01 0. -1.
       -5    1    3    3    0  502  0.27387002612E+03 -0.20038229261E+03 -0.39845124499E+03  0.52339596773E+03  0.46999998093E+01 0.  1.
</event>
<event>
 5   0  0.1427609E-04  0.1477136E+04  0.7818609E-02  0.8899801E-01
       -1   -1    0    0    0  501  0.00000000000E+00  0.00000000000E+00  0.29306004656E+03  0.29306004660E+03  0.50400001928E-02 0.  1.
        1   -1    0    0  501    0  0.00000000000E+00  0.00000000000E+00 -0.18613339103E+04  0.18613339103E+04  0.50400001928E-02 0. -1.
    10030    2    1    2    0    0  0.00000000000E+00  0.00000000000E+00 -0.15682738638E+04  0.21543939569E+04  0.14771358807E+04 0.  0.
        4    1    3    3  502    0 -0.30848682291E+03 -0.63789889012E+03 -0.48028715360E+03  0.85601196063E+03  0.12699999809E+01 0. -1.
       -4    1    3    3    0  502  0.30848682291E+03  0.63789889012E+03 -0.10879867102E+04  0.12983819963E+04  0.12699999809E+01 0.  1.
</event>
<event>
 5   0  0.2618901E-04  0.1498389E+04  0.7818609E-02  0.8885525E-01
        2   -1    0    0  501    0  0.00000000000E+00  0.00000000000E+00  0.54496201194E+03  0.54496201194E+03  0.25500000920E-02 0.  1.
       -2   -1    0    0    0  501  0.00000000000E+00  0.00000000000E+00 -0.10299667271E+04  0.10299667271E+04  0.25500000920E-02 0. -1.
    10030    2    1    2    0    0  0.00000000000E+00  0.00000000000E+00 -0.48500471519E+03  0.15749287391E+04  0.14983894552E+04 0.  0.
        1    1    3    3  502    0 -0.33622205622E+03 -0.27531095811E+03  0.39895970069E+03  0.58992392522E+03  0.50400001928E-02 0.  1.
       -1    1    3    3    0  502  0.33622205622E+03  0.27531095811E+03 -0.88396441588E+03  0.98500481385E+03  0.50400001928E-02 0. -1.
</event>
<event>
 5   0  0.1426929E-04  0.1501565E+04  0.7818609E-02  0.8883413E-01
       -1   -1    0    0    0  501  0.00000000000E+00  0.00000000000E+00  0.60360894190E+03  0.60360894192E+03  0.50400001928E-02 0.  1.
        1   -1    0    0  501    0  0.00000000000E+00  0.00000000000E+00 -0.93384029565E+03  0.93384029566E+03  0.50400001928E-02 0. -1.
    10030    2    1    2    0    0  0.00000000000E+00  0.00000000000E+00 -0.33023135375E+03  0.15374492376E+04  0.15015649873E+04 0.  0.
        1    1    3    3  502    0  0.32902012957E+03  0.64985382033E+03 -0.35142604552E+03  0.80874254183E+03  0.50400001928E-02 0. -1.
       -1    1    3    3    0  502 -0.32902012957E+03 -0.64985382033E+03  0.21194691771E+02  0.72870669576E+03  0.50400001928E-02 0.  1.
</event>
<event>
 5   0  0.1004313E-04  0.1486687E+04  0.7818609E-02  0.8893354E-01
        4   -1    0    0  501    0  0.00000000000E+00  0.00000000000E+00  0.49187393151E+03  0.49187557105E+03  0.12699999809E+01 0. -1.
       -4   -1    0    0    0  501  0.00000000000E+00  0.00000000000E+00 -0.11233731634E+04  0.11233738812E+04  0.12699999809E+01 0.  1.
    10030    2    1    2    0    0  0.00000000000E+00  0.00000000000E+00 -0.63149923185E+03  0.16152494523E+04  0.14866874296E+04 0.  0.
        5    1    3    3  502    0  0.53751493028E+03  0.68983385220E+02  0.23702705482E+03  0.59151071202E+03  0.46999998093E+01 0. -1.
       -5    1    3    3    0  502 -0.53751493028E+03 -0.68983385220E+02 -0.86852628667E+03  0.10237387403E+04  0.46999998093E+01 0.  1.
</event>
<event>
 5   0  0.1426929E-04  0.1501711E+04  0.7818609E-02  0.8883316E-01
       -1   -1    0    0    0  501  0.00000000000E+00  0.00000000000E+00  0.58682837890E+03  0.58682837892E+03  0.50400001928E-02 0. -1.
        1   -1    0    0  501    0  0.00000000000E+00  0.00000000000E+00 -0.96073005967E+03  0.96073005969E+03  0.50400001928E-02 0.  1.
    10030    2    1    2    0    0  0.00000000000E+00  0.00000000000E+00 -0.37390168078E+03  0.15475584386E+04  0.15017105760E+04 0.  0.
        1    1    3    3  502    0 -0.23569220475E+01 -0.14820619092E+03  0.57160148197E+03  0.59050731098E+03  0.50400001928E-02 0. -1.
       -1    1    3    3    0  502  0.23569220475E+01  0.14820619092E+03 -0.94550316274E+03  0.95705112763E+03  0.50400001928E-02 0.  1.
</event>
<event>
 5   0  0.1484251E-04  0.1495961E+04  0.7818609E-02  0.8887143E-01
       -1   -1    0    0    0  501  0.00000000000E+00  0.00000000000E+00  0.58782739854E+03  0.58782739857E+03  0.50400001928E-02 0.  1.
        1   -1    0    0  501    0  0.00000000000E+00  0.00000000000E+00 -0.95176753577E+03  0.95176753578E+03  0.50400001928E-02 0. -1.
    10030    2    1    2    0    0  0.00000000000E+00  0.00000000000E+00 -0.36394013722E+03  0.15395949343E+04  0.14959612757E+04 0.  0.
        5    1    3    3  502    0 -0.42534701930E+02 -0.62029907952E+03  0.24593698911E+03  0.66864582668E+03  0.46999998093E+01 0.  1.
       -5    1    3    3    0  502  0.42534701930E+02  0.62029907952E+03 -0.60987712633E+03  0.87094910767E+03  0.46999998093E+01 0. -1.
</event>
<event>
 5   0  0.1443750E-04  0.1494251E+04  0.7818609E-02  0.8888285E-01
        1   -1    0    0  501    0  0.00000000000E+00  0.00000000000E+00  0.14768705920E+04  0.14768705920E+04  0.50400001928E-02 0. -1.
       -1   -1    0    0    0  501  0.00000000000E+00  0.00000000000E+00 -0.37795895982E+03  0.37795895985E+03  0.50400001928E-02 0.  1.
    10030    2    1    2    0    0  0.00000000000E+00  0.00000000000E+00  0.10989116322E+04  0.18548295518E+04  0.14942509465E+04 0.  0.
        2    1    3    3  502    0 -0.29912159972E+03  0.54322237333E+02 -0.29770737805E+03  0.42550478239E+03  0.25500000920E-02 0.  1.
       -2    1    3    3    0  502  0.29912159972E+03 -0.54322237333E+02  0.13966190102E+04  0.14293247695E+04  0.25500000920E-02 0. -1.
</event>
<event>
 5   0  0.2618901E-04  0.1497946E+04  0.7818609E-02  0.8885820E-01
       -2   -1    0    0    0  501  0.00000000000E+00  0.00000000000E+00  0.90722227734E+03  0.90722227734E+03  0.25500000920E-02 0.  1.
        2   -1    0    0  501    0  0.00000000000E+00  0.00000000000E+00 -0.61832730897E+03  0.61832730898E+03  0.25500000920E-02 0. -1.
    10030    2    1    2    0    0  0.00000000000E+00  0.00000000000E+00  0.28889496837E+03  0.15255495863E+04  0.14979456724E+04 0.  0.
        1    1    3    3  502    0  0.45203183416E+03  0.24460444215E+03 -0.41038187225E+03  0.65770616031E+03  0.50400001928E-02 0. -1.
       -1    1    3    3    0  502 -0.45203183416E+03 -0.24460444215E+03  0.69927684062E+03  0.86784342601E+03  0.50400001928E-02 0.  1.
</event>
<event>
 5   0  0.2646718E-04  0.1498703E+04  0.7818609E-02  0.8885316E-01
        2   -1    0    0  501    0  0.00000000000E+00  0.00000000000E+00  0.31375760323E+04  0.31375760323E+04  0.25500000920E-02 0.  1.
       -2   -1    0    0    0  501  0.00000000000E+00  0.00000000000E+00 -0.17896850878E+03  0.17896850880E+03  0.25500000920E-02 0. -1.
    10030    2    1    2    0    0  0.00000000000E+00  0.00000000000E+00  0.29586075235E+04  0.33165445411E+04  0.14987025105E+04 0.  0.
        3    1    3    3  502    0  0.30408004370E+03  0.62689964179E+03  0.20896088874E+04  0.22027104091E+04  0.10100000352E+00 0.  1.
       -3    1    3    3    0  502 -0.30408004370E+03 -0.62689964179E+03  0.86899863616E+03  0.11138341320E+04  0.10100000352E+00 0. -1.
</event>
<event>
 5   0  0.1426929E-04  0.1498000E+04  0.7818609E-02  0.8885784E-01
        1   -1    0    0  501    0  0.00000000000E+00  0.00000000000E+00  0.51067700762E+03  0.51067700764E+03  0.50400001928E-02 0. -1.
       -1   -1    0    0    0  501  0.00000000000E+00  0.00000000000E+00 -0.10985435441E+04  0.10985435441E+04  0.50400001928E-02 0.  1.
    10030    2    1    2    0    0  0.00000000000E+00  0.00000000000E+00 -0.58786653644E+03  0.16092205517E+04  0.14979999063E+04 0.  0.
        1    1    3    3  502    0  0.41524177372E+03 -0.20655912636E+03  0.33787370933E+03  0.57380401428E+03  0.50400001928E-02 0. -1.
       -1    1    3    3    0  502 -0.41524177372E+03  0.20655912636E+03 -0.92574024577E+03  0.10354165374E+04  0.50400001928E-02 0.  1.
</event>
<event>
 5   0  0.1443750E-04  0.1498814E+04  0.7818609E-02  0.8885242E-01
       -1   -1    0    0    0  501  0.00000000000E+00  0.00000000000E+00  0.15502377537E+04  0.15502377537E+04  0.50400001928E-02 0. -1.
        1   -1    0    0  501    0  0.00000000000E+00  0.00000000000E+00 -0.36227391856E+03  0.36227391859E+03  0.50400001928E-02 0.  1.
    10030    2    1    2    0    0  0.00000000000E+00  0.00000000000E+00  0.11879638351E+04  0.19125116723E+04  0.14988138053E+04 0.  0.
        2    1    3    3  502    0 -0.33193622547E+03  0.31556755462E+03  0.13508720118E+04  0.14264009715E+04  0.25500000920E-02 0. -1.
       -2    1    3    3    0  502  0.33193622547E+03 -0.31556755462E+03 -0.16290817671E+03  0.48611070072E+03  0.25500000920E-02 0.  1.
</event>
<event>
 5   0  0.1004313E-04  0.1482881E+04  0.7818609E-02  0.8895917E-01
        3   -1    0    0  501    0  0.00000000000E+00  0.00000000000E+00  0.72432406722E+03  0.72432407426E+03  0.10100000352E+00 0.  1.
       -3   -1    0    0    0  501  0.00000000000E+00  0.00000000000E+00 -0.75896164456E+03  0.75896165128E+03  0.10100000352E+00 0. -1.
    10030    2    1    2    0    0  0.00000000000E+00  0.00000000000E+00 -0.34637577335E+02  0.14832857255E+04  0.14828812433E+04 0.  0.
        3    1    3    3  502    0 -0.46902419603E+03 -0.51206287229E+03 -0.27727831487E+03  0.74771341819E+03  0.10100000352E+00 0. -1.
       -3    1    3    3    0  502  0.46902419603E+03  0.51206287229E+03  0.24264073754E+03  0.73557230736E+03  0.10100000352E+00 0.  1.
</event>
<event>
 5   0  0.1427609E-04  0.1512483E+04  0.7818609E-02  0.8876194E-01
       -1   -1    0    0    0  501  0.00000000000E+00  0.00000000000E+00  0.59618535945E+03  0.59618535948E+03  0.50400001928E-02 0.  1.
        1   -1    0    0  501    0  0.00000000000E+00  0.00000000000E+00 -0.95926721158E+03  0.95926721159E+03  0.50400001928E-02 0. -1.
    10030    2    1    2    0    0  0.00000000000E+00  0.00000000000E+00 -0.36308185212E+03  0.15554525711E+04  0.15124828163E+04 0.  0.
        4    1    3    3  502    0  0.38138200500E+03 -0.25148961272E+03 -0.80132349914E+03  0.92239916643E+03  0.12699999809E+01 0. -1.
       -4    1    3    3    0  502 -0.38138200500E+03  0.25148961272E+03  0.43824164702E+03  0.63305340464E+03  0.12699999809E+01 0.  1.
</event>
<event>
 5   0  0.1443750E-04  0.1499294E+04  0.7818609E-02  0.8884923E-01
       -1   -1    0    0    0  501  0.00000000000E+00  0.00000000000E+00  0.85226865051E+03  0.85226865053E+03  0.50400001928E-02 0.  1.
        1   -1    0    0  501    0  0.00000000000E+00  0.00000000000E+00 -0.65938165180E+03  0.65938165182E+03  0.50400001928E-02 0. -1.
    10030    2    1    2    0    0  0.00000000000E+00  0.00000000000E+00  0.19288699871E+03  0.15116503023E+04  0.14992935811E+04 0.  0.
        2    1    3    3  502    0  0.37072135366E+03 -0.38897026864E+03  0.62347345036E+03  0.82307431940E+03  0.25500000920E-02 0.  1.
       -2    1    3    3    0  502 -0.37072135366E+03  0.38897026864E+03 -0.43058645164E+03  0.68857598295E+03  0.25500000920E-02 0. -1.
</event>
<event>
 5   0  0.1474203E-04  0.1497961E+04  0.7818609E-02  0.8885810E-01
       -1   -1    0    0    0  501  0.00000000000E+00  0.00000000000E+00  0.15904294996E+03  0.15904295004E+03  0.50400001928E-02 0. -1.
        1   -1    0    0  501    0  0.00000000000E+00  0.00000000000E+00 -0.35271722232E+04  0.35271722232E+04  0.50400001928E-02 0.  1.
    10030    2    1    2    0    0  0.00000000000E+00  0.00000000000E+00 -0.33681292732E+04  0.36862151732E+04  0.14979611150E+04 0.  0.
        3    1    3    3  502    0  0.13900695833E+03 -0.54824845461E+03 -0.47582233946E+03  0.73912530154E+03  0.10100000352E+00 0. -1.
       -3    1    3    3    0  502 -0.13900695833E+03  0.54824845461E+03 -0.28923069338E+04  0.29470898717E+04  0.10100000352E+00 0.  1.
</event>
<event>
 5   0  0.2618901E-04  0.1500930E+04  0.7818609E-02  0.8883835E-01
        2   -1    0    0  501    0  0.00000000000E+00  0.00000000000E+00  0.11676608158E+04  0.11676608158E+04  0.25500000920E-02 0.  1.
       -2   -1    0    0    0  501  0.00000000000E+00  0.00000000000E+00 -0.48232983926E+03  0.48232983927E+03  0.25500000920E-02 0. -1.
    10030    2    1    2    0    0  0.00000000000E+00  0.00000000000E+00  0.68533097656E+03  0.16499906551E+04  0.15009299166E+04 0.  0.
        1    1    3    3  502    0  0.10779033308E+03 -0.55314447823E+03  0.88747435517E+03  0.10512841199E+04  0.50400001928E-02 0.  1.
       -1    1    3    3    0  502 -0.10779033308E+03  0.55314447823E+03 -0.20214337861E+03  0.59870653516E+03  0.50400001928E-02 0. -1.
</event>
<event>
 5   0  0.1484251E-04  0.1507952E+04  0.7818609E-02  0.8879182E-01
        1   -1    0    0  501    0  0.00000000000E+00  0.00000000000E+00  0.12087480741E+04  0.12087480741E+04  0.50400001928E-02 0.  1.
       -1   -1    0    0    0  501  0.00000000000E+00  0.00000000000E+00 -0.47030458229E+03  0.47030458231E+03  0.50400001928E-02 0. -1.
    10030    2    1    2    0    0  0.00000000000E+00  0.00000000000E+00  0.73844349183E+03  0.16790526564E+04  0.15079519331E+04 0.  0.
        5    1    3    3  502    0  0.31578158333E+03  0.15022443131E+03  0.11129736836E+04  0.11666267177E+04  0.46999998093E+01 0.  1.
       -5    1    3    3    0  502 -0.31578158333E+03 -0.15022443131E+03 -0.37453019176E+03  0.51242593872E+03  0.46999998093E+01 0. -1.
</event>
<event>
 5   0  0.2696040E-04  0.1497519E+04  0.7818609E-02  0.8886105E-01
       -2   -1    0    0    0  501  0.00000000000E+00  0.00000000000E+00  0.11887471229E+04  0.11887471229E+04  0.25500000920E-02 0.  1.
        2   -1    0    0  501    0  0.00000000000E+00  0.00000000000E+00 -0.47162315091E+03  0.47162315091E+03  0.25500000920E-02 0. -1.
    10030    2    1    2    0    0  0.00000000000E+00  0.00000000000E+00  0.71712397204E+03  0.16603702739E+04  0.14975188330E+04 0.  0.
        2    1    3    3  502    0 -0.25382500991E+02  0.74737767379E+03  0.40038698005E+03  0.84824960503E+03  0.25500000920E-02 0.  1.
       -2    1    3    3    0  502  0.25382500991E+02 -0.74737767379E+03  0.31673699199E+03  0.81212066883E+03  0.25500000920E-02 0. -1.
</event>
<event>
 5   0  0.1443750E-04  0.1486261E+04  0.7818609E-02  0.8893641E-01
       -1   -1    0    0    0  501  0.00000000000E+00  0.00000000000E+00  0.52878135549E+03  0.52878135552E+03  0.50400001928E-02 0.  1.
        1   -1    0    0  501    0  0.00000000000E+00  0.00000000000E+00 -0.10443695513E+04  0.10443695513E+04  0.50400001928E-02 0. -1.
    10030    2    1    2    0    0  0.00000000000E+00  0.00000000000E+00 -0.51558819578E+03  0.15731509068E+04  0.14862612785E+04 0.  0.
        2    1    3    3  502    0 -0.47087546813E+03  0.29552032073E+03  0.26417592332E+03  0.61550376516E+03  0.25500000920E-02 0.  1.
       -2    1    3    3    0  502  0.47087546813E+03 -0.29552032073E+03 -0.77976411910E+03  0.95764714164E+03  0.25500000920E-02 0. -1.
</event>
<event>
 5   0  0.2646718E-04  0.1498404E+04  0.7818609E-02  0.8885515E-01
       -2   -1    0    0    0  501  0.00000000000E+00  0.00000000000E+00  0.37137988135E+03  0.37137988136E+03  0.25500000920E-02 0. -1.
        2   -1    0    0  501    0  0.00000000000E+00  0.00000000000E+00 -0.15113998111E+04  0.15113998111E+04  0.25500000920E-02 0.  1.
    10030    2    1    2    0    0  0.00000000000E+00  0.00000000000E+00 -0.11400199298E+04  0.18827796925E+04  0.14984037941E+04 0.  0.
        3    1    3    3  502    0  0.36343836123E+03 -0.19461965510E+03 -0.13560548187E+04  0.14173386801E+04  0.10100000352E+00 0.  1.
       -3    1    3    3    0  502 -0.36343836123E+03  0.19461965510E+03  0.21603488893E+03  0.46544101238E+03  0.10100000352E+00 0. -1.
</event>
<event>
 5   0  0.1426929E-04  0.1504716E+04  0.7818609E-02  0.8881323E-01
        1   -1    0    0  501    0  0.00000000000E+00  0.00000000000E+00  0.18209229211E+04  0.18209229211E+04  0.50400001928E-02 0. -1.
       -1   -1    0    0    0  501  0.00000000000E+00  0.00000000000E+00 -0.31085458654E+03  0.31085458658E+03  0.50400001928E-02 0.  1.
    10030    2    1    2    0    0  0.00000000000E+00  0.00000000000E+00  0.15100683346E+04  0.21317775077E+04  0.15047155769E+04 0.  0.
        1    1    3    3  502    0  0.45817098090E+03 -0.46844386472E+03  0.12788070688E+04  0.14369091207E+04  0.50400001928E-02 0. -1.
       -1    1    3    3    0  502 -0.45817098090E+03  0.46844386472E+03  0.23126126583E+03  0.69486838699E+03  0.50400001928E-02 0.  1.
</event>
<event>
 5   0  0.2646718E-04  0.1504380E+04  0.7818609E-02  0.8881545E-01
        2   -1    0    0  501    0  0.00000000000E+00  0.00000000000E+00  0.83088736492E+03  0.83088736492E+03  0.25500000920E-02 0. -1.
       -2   -1    0    0    0  501  0.00000000000E+00  0.00000000000E+00 -0.68094687909E+03  0.68094687910E+03  0.25500000920E-02 0.  1.
    10030    2    1    2    0    0  0.00000000000E+00  0.00000000000E+00  0.14994048582E+03  0.15118342440E+04  0.15043804812E+04 0.  0.
        3    1    3    3  502    0 -0.63326913687E+02  0.24176417253E+03 -0.63800240356E+03  0.68520602031E+03  0.10100000352E+00 0.  1.
       -3    1    3    3    0  502  0.63326913687E+02 -0.24176417253E+03  0.78794288938E+03  0.82662822372E+03  0.10100000352E+00 0. -1.
</event>
<event>
 5   0  0.1474203E-04  0.1496285E+04  0.7818609E-02  0.8886927E-01
        1   -1    0    0  501    0  0.00000000000E+00  0.00000000000E+00  0.19981373884E+04  0.19981373884E+04  0.50400001928E-02 0. -1.
       -1   -1    0    0    0  501  0.00000000000E+00  0.00000000000E+00 -0.28011964634E+03  0.28011964638E+03  0.50400001928E-02 0.  1.
    10030    2    1    2    0    0  0.00000000000E+00  0.00000000000E+00  0.17180177420E+04  0.22782570348E+04  0.14962854522E+04 0.  0.
        3    1    3    3  502    0  0.50089319305E+02  0.35817961111E+03  0.18561907255E+04  0.18910963998E+04  0.10100000352E+00 0. -1.
       -3    1    3    3    0  502 -0.50089319305E+02 -0.35817961111E+03 -0.13817298344E+03  0.38716063498E+03  0.10100000352E+00 0.  1.
</event>
<event>
 5   0  0.1484251E-04  0.1505941E+04  0.7818609E-02  0.8880512E-01
        1   -1    0    0  501    0  0.00000000000E+00  0.00000000000E+00  0.10779491605E+04  0.10779491605E+04  0.50400001928E-02 0.  1.
       -1   -1    0    0    0  501  0.00000000000E+00  0.00000000000E+00 -0.52596601659E+03  0.52596601662E+03  0.50400001928E-02 0. -1.
    10030    2    1    2    0    0  0.00000000000E+00  0.00000000000E+00  0.55198314389E+03  0.16039151771E+04  0.15059410693E+04 0.  0.
        5    1    3    3  502    0  0.28444304036E+03  0.24358785187E+03 -0.41972854866E+03  0.56252735875E+03  0.46999998093E+01 0. -1.
       -5    1    3    3    0  502 -0.28444304036E+03 -0.24358785187E+03  0.97171169255E+03  0.10413878184E+04  0.46999998093E+01 0.  1.
</event>
<event>
 5   0  0.1474203E-04  0.1502007E+04  0.7818609E-02  0.8883120E-01
       -1   -1    0    0    0  501  0.00000000000E+00  0.00000000000E+00  0.57094562275E+03  0.57094562278E+03  0.50400001928E-02 0.  1.
        1   -1    0    0  501    0  0.00000000000E+00  0.00000000000E+00 -0.98784558270E+03  0.98784558271E+03  0.50400001928E-02 0. -1.
    10030    2    1    2    0    0  0.00000000000E+00  0.00000000000E+00 -0.41689995994E+03  0.15587912055E+04  0.15020068061E+04 0.  0.
        3    1    3    3  502    0  0.13544053956E+03  0.73425551522E+03 -0.29231854893E+03  0.80182631887E+03  0.10100000352E+00 0.  1.
       -3    1    3    3    0  502 -0.13544053956E+03 -0.73425551522E+03 -0.12458141101E+03  0.75696488661E+03  0.10100000352E+00 0. -1.
</event>
<event>
 5   0  0.2734072E-04  0.1507239E+04  0.7818609E-02  0.8879653E-01
       -2   -1    0    0    0  501  0.00000000000E+00  0.00000000000E+00  0.41211536411E+03  0.41211536412E+03  0.25500000920E-02 0.  1.
        2   -1    0    0  501    0  0.00000000000E+00  0.00000000000E+00 -0.13781151562E+04  0.13781151562E+04  0.25500000920E-02 0. -1.
    10030    2    1    2    0    0  0.00000000000E+00  0.00000000000E+00 -0.96599979210E+03  0.17902305203E+04  0.15072391043E+04 0.  0.
        5    1    3    3  502    0  0.78440777855E+02 -0.64098984397E+03 -0.21607359051E+02  0.64615006280E+03  0.46999998093E+01 0.  1.
       -5    1    3    3    0  502 -0.78440777855E+02  0.64098984397E+03 -0.94439243305E+03  0.11440804575E+04  0.46999998093E+01 0. -1.
</event>
<event>
 5   0  0.2618901E-04  0.1485264E+04  0.7818609E-02  0.8894312E-01
       -2   -1    0    0    0  501  0.00000000000E+00  0.00000000000E+00  0.30482188374E+03  0.30482188375E+03  0.25500000920E-02 0.  1.
        2   -1    0    0  501    0  0.00000000000E+00  0.00000000000E+00 -0.18092606785E+04  0.18092606785E+04  0.25500000920E-02 0. -1.
    10030    2    1    2    0    0  0.00000000000E+00  0.00000000000E+00 -0.15044387948E+04  0.21140825623E+04  0.14852639472E+04 0.  0.
        1    1    3    3  502    0  0.71752858723E+03  0.12346169895E+03 -0.54393881471E+03  0.90882313944E+03  0.50400001928E-02 0.  1.
       -1    1    3    3    0  502 -0.71752858723E+03 -0.12346169895E+03 -0.96049998005E+03  0.12052594228E+04  0.50400001928E-02 0. -1.
</event>
<event>
 5   0  0.2618901E-04  0.1492862E+04  0.7818609E-02  0.8889214E-01
        2   -1    0    0  501    0  0.00000000000E+00  0.00000000000E+00  0.13663312992E+04  0.13663312992E+04  0.25500000920E-02 0.  1.
       -2   -1    0    0    0  501  0.00000000000E+00  0.00000000000E+00 -0.40777737827E+03  0.40777737828E+03  0.25500000920E-02 0. -1.
    10030    2    1    2    0    0  0.00000000000E+00  0.00000000000E+00  0.95855392097E+03  0.17741086775E+04  0.14928616749E+04 0.  0.
        1    1    3    3  502    0 -0.46673380995E+03 -0.14711601278E+03 -0.19053432519E+03  0.52515416752E+03  0.50400001928E-02 0. -1.
       -1    1    3    3    0  502  0.46673380995E+03  0.14711601278E+03  0.11490882462E+04  0.12489545100E+04  0.50400001928E-02 0.  1.
</event>
<event>
 5   0  0.1443750E-04  0.1503945E+04  0.7818609E-02  0.8881833E-01
        1   -1    0    0  501    0  0.00000000000E+00  0.00000000000E+00  0.90616844617E+03  0.90616844618E+03  0.50400001928E-02 0. -1.
       -1   -1    0    0    0  501  0.00000000000E+00  0.00000000000E+00 -0.62401529897E+03  0.62401529899E+03  0.50400001928E-02 0.  1.
    10030    2    1    2    0    0  0.00000000000E+00  0.00000000000E+00  0.28215314720E+03  0.15301837452E+04  0.15039454430E+04 0.  0.
        2    1    3    3  502    0 -0.45134990340E+03 -0.22619420993E+03  0.70809860753E+03  0.86964601643E+03  0.25500000920E-02 0. -1.
       -2    1    3    3    0  502  0.45134990340E+03  0.22619420993E+03 -0.42594546033E+03  0.66053772874E+03  0.25500000920E-02 0.  1.
</event>
<event>
 5   0  0.1004313E-04  0.1499335E+04  0.7818609E-02  0.8884896E-01
        4   -1    0    0  501    0  0.00000000000E+00  0.00000000000E+00  0.79934454515E+03  0.79934555404E+03  0.12699999809E+01 0.  1.
       -4   -1    0    0    0  501  0.00000000000E+00  0.00000000000E+00 -0.70307536498E+03  0.70307651201E+03  0.12699999809E+01 0. -1.
    10030    2    1    2    0    0  0.00000000000E+00  0.00000000000E+00  0.96269180172E+02  0.15024220661E+04  0.14993346223E+04 0.  0.
        2    1    3    3  502    0  0.23846010509E+03 -0.49024705817E+03  0.56377723755E+03  0.78425134577E+03  0.25500000920E-02 0.  1.
       -2    1    3    3    0  502 -0.23846010509E+03  0.49024705817E+03 -0.46750805737E+03  0.71817072028E+03  0.25500000920E-02 0. -1.
</event>
<event>
 5   0  0.2696040E-04  0.1474606E+04  0.7818609E-02  0.8901518E-01
        2   -1    0    0  501    0  0.00000000000E+00  0.00000000000E+00  0.10050089322E+04  0.10050089323E+04  0.25500000920E-02 0.  1.
       -2   -1    0    0    0  501  0.00000000000E+00  0.00000000000E+00 -0.54090628007E+03  0.54090628008E+03  0.25500000920E-02 0. -1.
    10030    2    1    2    0    0  0.00000000000E+00  0.00000000000E+00  0.46410265218E+03  0.15459152123E+04  0.14746059039E+04 0.  0.
        2    1    3    3  502    0 -0.78383221778E+02 -0.70039543189E+03  0.45913150520E+03  0.84112985296E+03  0.25500000920E-02 0.  1.
       -2    1    3    3    0  502  0.78383221778E+02  0.70039543189E+03  0.49711469742E+01  0.70478535937E+03  0.25500000920E-02 0. -1.
</event>
<event>
 5   0  0.1484251E-04  0.1495591E+04  0.7818609E-02  0.8887390E-01
        1   -1    0    0  501    0  0.00000000000E+00  0.00000000000E+00  0.85044354557E+03  0.85044354559E+03  0.50400001928E-02 0.  1.
       -1   -1    0    0    0  501  0.00000000000E+00  0.00000000000E+00 -0.65753672839E+03  0.65753672841E+03  0.50400001928E-02 0. -1.
    10030    2    1    2    0    0  0.00000000000E+00  0.00000000000E+00  0.19290681718E+03  0.15079802740E+04  0.14955906748E+04 0.  0.
        5    1    3    3  502    0 -0.52396676684E+03 -0.21215289996E+03 -0.39711761502E+03  0.69085057420E+03  0.46999998093E+01 0. -1.
       -5    1    3    3    0  502  0.52396676684E+03  0.21215289996E+03  0.59002443220E+03  0.81712969980E+03  0.46999998093E+01 0.  1.
</event>
<event>
 5   0  0.1427609E-04  0.1562668E+04  0.7818609E-02  0.8843816E-01
       -1   -1    0    0    0  501  0.00000000000E+00  0.00000000000E+00  0.12815499538E+04  0.12815499538E+04  0.50400001928E-02 0.  1.
        1   -1    0    0  501    0  0.00000000000E+00  0.00000000000E+00 -0.47636289690E+03  0.47636289693E+03  0.50400001928E-02 0. -1.
    10030    2    1    2    0    0  0.00000000000E+00  0.00000000000E+00  0.80518705691E+03  0.17579128507E+04  0.15626680371E+04 0.  0.
        4    1    3    3  502    0 -0.68888281990E+03 -0.35966002131E+03  0.49375117978E+03  0.92070989510E+03  0.12699999809E+01 0. -1.
       -4    1    3    3    0  502  0.68888281990E+03  0.35966002131E+03  0.31143587712E+03  0.83720295565E+03  0.12699999809E+01 0.  1.
</event>
<event>
 5   0  0.1474203E-04  0.1499196E+04  0.7818609E-02  0.8884988E-01
        1   -1    0    0  501    0  0.00000000000E+00  0.00000000000E+00  0.16196744028E+04  0.16196744029E+04  0.50400001928E-02 0. -1.
       -1   -1    0    0    0  501  0.00000000000E+00  0.00000000000E+00 -0.34691970651E+03  0.34691970655E+03  0.50400001928E-02 0.  1.
    10030    2    1    2    0    0  0.00000000000E+00  0.00000000000E+00  0.12727546963E+04  0.19665941094E+04  0.14991957424E+04 0.  0.
        3    1    3    3  502    0  0.46164501126E+03  0.51786202931E+03  0.10087890077E+04  0.12243171444E+04  0.10100000352E+00 0. -1.
       -3    1    3    3    0  502 -0.46164501126E+03 -0.51786202931E+03  0.26396568867E+03  0.74227696503E+03  0.10100000352E+00 0.  1.
</event>
<event>
 5   0  0.1484251E-04  0.1505030E+04  0.7818609E-02  0.8881115E-01
        1   -1    0    0  501    0  0.00000000000E+00  0.00000000000E+00  0.72200819794E+03  0.72200819796E+03  0.50400001928E-02 0. -1.
       -1   -1    0    0    0  501  0.00000000000E+00  0.00000000000E+00 -0.78431066210E+03  0.78431066211E+03  0.50400001928E-02 0.  1.
    10030    2    1    2    0    0  0.00000000000E+00  0.00000000000E+00 -0.62302464151E+02  0.15063188601E+04  0.15050298705E+04 0.  0.
        5    1    3    3  502    0 -0.42049556849E+03  0.41045057641E+03  0.43932629483E+03  0.73370013093E+03  0.46999998093E+01 0. -1.
       -5    1    3    3    0  502  0.42049556849E+03 -0.41045057641E+03 -0.50162875898E+03  0.77261872915E+03  0.46999998093E+01 0.  1.
</event>
<event>
 5   0  0.2696040E-04  0.1488999E+04  0.7818609E-02  0.8891802E-01
        2   -1    0    0  501    0  0.00000000000E+00  0.00000000000E+00  0.17063125461E+04  0.17063125461E+04  0.25500000920E-02 0.  1.
       -2   -1    0    0    0  501  0.00000000000E+00  0.00000000000E+00 -0.32484050640E+03  0.32484050641E+03  0.25500000920E-02 0. -1.
    10030    2    1    2    0    0  0.00000000000E+00  0.00000000000E+00  0.13814720397E+04  0.20311530525E+04  0.14889989007E+04 0.  0.
        2    1    3    3  502    0 -0.16410348370E+03 -0.59731854025E+03  0.12737484050E+03  0.63241105452E+03  0.25500000920E-02 0. -1.
       -2    1    3    3    0  502  0.16410348370E+03  0.59731854025E+03  0.12540971992E+04  0.13987419980E+04  0.25500000920E-02 0.  1.
</event>
<event>
 5   0  0.2696040E-04  0.1504181E+04  0.7818609E-02  0.8881677E-01
        2   -1    0    0  501    0  0.00000000000E+00  0.00000000000E+00  0.11662227075E+04  0.11662227075E+04  0.25500000920E-02 0.  1.
       -2   -1    0    0    0  501  0.00000000000E+00  0.00000000000E+00 -0.48501888757E+03  0.48501888757E+03  0.25500000920E-02 0. -1.
    10030    2    1    2    0    0  0.00000000000E+00  0.00000000000E+00  0.68120381988E+03  0.16512415950E+04  0.15041808937E+04 0.  0.
        2    1    3    3  502    0 -0.47865698133E+03 -0.41850648046E+03 -0.10039466823E+03  0.64369190563E+03  0.25500000920E-02 0. -1.
       -2    1    3    3    0  502  0.47865698133E+03  0.41850648046E+03  0.78159848811E+03  0.10075496894E+04  0.25500000920E-02 0.  1.
</event>
<event>
 5   0  0.1427609E-04  0.1497799E+04  0.7818609E-02  0.8885918E-01
        1   -1    0    0  501    0  0.00000000000E+00  0.00000000000E+00  0.15421183238E+04  0.15421183238E+04  0.50400001928E-02 0.  1.
       -1   -1    0    0    0  501  0.00000000000E+00  0.00000000000E+00 -0.36368838501E+03  0.36368838504E+03  0.50400001928E-02 0. -1.
    10030    2    1    2    0    0  0.00000000000E+00  0.00000000000E+00  0.11784299388E+04  0.19058067089E+04  0.14977990823E+04 0.  0.
        4    1    3    3  502    0 -0.10753716313E+02 -0.64508709856E+03  0.10537328136E+03  0.65372635596E+03  0.12699999809E+01 0. -1.
       -4    1    3    3    0  502  0.10753716313E+02  0.64508709856E+03  0.10730566574E+04  0.12520803529E+04  0.12699999809E+01 0.  1.
</event>
<event>
 5   0  0.1426929E-04  0.1497183E+04  0.7818609E-02  0.8886329E-01
        1   -1    0    0  501    0  0.00000000000E+00  0.00000000000E+00  0.22226943394E+04  0.22226943394E+04  0.50400001928E-02 0. -1.
       -1   -1    0    0    0  501  0.00000000000E+00  0.00000000000E+00 -0.25212146331E+03  0.25212146336E+03  0.50400001928E-02 0.  1.
    10030    2    1    2    0    0  0.00000000000E+00  0.00000000000E+00  0.19705728760E+04  0.24748158027E+04  0.14971826200E+04 0.  0.
        1    1    3    3  502    0 -0.20997527318E+03  0.66378599383E+03  0.14400442315E+04  0.15995089402E+04  0.50400001928E-02 0. -1.
       -1    1    3    3    0  502  0.20997527318E+03 -0.66378599383E+03  0.53052864454E+03  0.87530686256E+03  0.50400001928E-02 0.  1.
</event>
<event>
 5   0  0.1426929E-04  0.1502569E+04  0.7818609E-02  0.8882747E-01
        1   -1    0    0  501    0  0.00000000000E+00  0.00000000000E+00  0.69508048530E+03  0.69508048532E+03  0.50400001928E-02 0.  1.
       -1   -1    0    0    0  501  0.00000000000E+00  0.00000000000E+00 -0.81203285498E+03  0.81203285500E+03  0.50400001928E-02 0. -1.
    10030    2    1    2    0    0  0.00000000000E+00  0.00000000000E+00 -0.11695236968E+03  0.15071133403E+04  0.15025687218E+04 0.  0.
        1    1    3    3  502    0  0.40603764301E+03  0.59569263175E+03 -0.27056764898E+03  0.77001502047E+03  0.50400001928E-02 0. -1.
       -1    1    3    3    0  502 -0.40603764301E+03 -0.59569263175E+03  0.15361527930E+03  0.73709831984E+03  0.50400001928E-02 0.  1.
</event>
<event>
 5   0  0.1004313E-04  0.1550259E+04  0.7818609E-02  0.8851702E-01
       -3   -1    0    0    0  501  0.00000000000E+00  0.00000000000E+00  0.13751635154E+04  0.13751635192E+04  0.10100000352E+00 0.  1.
        3   -1    0    0  501    0  0.00000000000E+00  0.00000000000E+00 -0.43691225430E+03  0.43691226598E+03  0.10100000352E+00 0. -1.
    10030    2    1    2    0    0  0.00000000000E+00  0.00000000000E+00  0.93825126114E+03  0.18120757851E+04  0.15502590822E+04 0.  0.
        5    1    3    3  502    0 -0.24627059893E+03  0.72147266476E+03  0.63290192655E+03  0.99083750057E+03  0.46999998093E+01 0.  1.
       -5    1    3    3    0  502  0.24627059893E+03 -0.72147266476E+03  0.30534933459E+03  0.82123828456E+03  0.46999998093E+01 0. -1.
</event>
<event>
 5   0  0.1484251E-04  0.1501572E+04  0.7818609E-02  0.8883409E-01
        1   -1    0    0  501    0  0.00000000000E+00  0.00000000000E+00  0.82083548690E+03  0.82083548692E+03  0.50400001928E-02 0. -1.
       -1   -1    0    0    0  501  0.00000000000E+00  0.00000000000E+00 -0.68671408209E+03  0.68671408211E+03  0.50400001928E-02 0.  1.
    10030    2    1    2    0    0  0.00000000000E+00  0.00000000000E+00  0.13412140481E+03  0.15075495690E+04  0.15015715607E+04 0.  0.
        5    1    3    3  502    0 -0.68039994524E+02 -0.28042607632E+03 -0.62879963204E+03  0.69186652787E+03  0.46999998093E+01 0.  1.
       -5    1    3    3    0  502  0.68039994524E+02  0.28042607632E+03  0.76292103686E+03  0.81568304115E+03  0.46999998093E+01 0. -1.
</event>
<event>
 5   0  0.2641347E-04  0.1497209E+04  0.7818609E-02  0.8886311E-01
       -2   -1    0    0    0  501  0.00000000000E+00  0.00000000000E+00  0.50777609769E+03  0.50777609769E+03  0.25500000920E-02 0. -1.
        2   -1    0    0  501    0  0.00000000000E+00  0.00000000000E+00 -0.11036527849E+04  0.11036527849E+04  0.25500000920E-02 0.  1.
    10030    2    1    2    0    0  0.00000000000E+00  0.00000000000E+00 -0.59587668724E+03  0.16114288826E+04  0.14972087421E+04 0.  0.
        4    1    3    3  502    0  0.23526025140E+03  0.33068641079E+03 -0.97497956097E+03  0.10560717993E+04  0.12699999809E+01 0.  1.
       -4    1    3    3    0  502 -0.23526025140E+03 -0.33068641079E+03  0.37910287373E+03  0.55535708327E+03  0.12699999809E+01 0. -1.
</event>
<event>
 5   0  0.2646718E-04  0.1495120E+04  0.7818609E-02  0.8887705E-01
        2   -1    0    0  501    0  0.00000000000E+00  0.00000000000E+00  0.22526872266E+04  0.22526872266E+04  0.25500000920E-02 0. -1.
       -2   -1    0    0    0  501  0.00000000000E+00  0.00000000000E+00 -0.24807959680E+03  0.24807959681E+03  0.25500000920E-02 0.  1.
    10030    2    1    2    0    0  0.00000000000E+00  0.00000000000E+00  0.20046076298E+04  0.25007668234E+04  0.14951197128E+04 0.  0.
        3    1    3    3  502    0  0.26713794154E+03  0.67251094647E+03  0.68843870186E+03  0.99879002265E+03  0.10100000352E+00 0.  1.
       -3    1    3    3    0  502 -0.26713794154E+03 -0.67251094647E+03  0.13161689279E+04  0.15019768007E+04  0.10100000352E+00 0. -1.
</event>
<event>
 5   0  0.2618901E-04  0.1514406E+04  0.7818609E-02  0.8874929E-01
        2   -1    0    0  501    0  0.00000000000E+00  0.00000000000E+00  0.11593630851E+04  0.11593630851E+04  0.25500000920E-02 0. -1.
       -2   -1    0    0    0  501  0.00000000000E+00  0.00000000000E+00 -0.49454404647E+03  0.49454404648E+03  0.25500000920E-02 0.  1.
    10030    2    1    2    0    0  0.00000000000E+00  0.00000000000E+00  0.66481903858E+03  0.16539071315E+04  0.15144056411E+04 0.  0.
        1    1    3    3  502    0 -0.43617025266E+03  0.10914897984E+03  0.99779265060E+03  0.10944168140E+04  0.50400001928E-02 0. -1.
       -1    1    3    3    0  502  0.43617025266E+03 -0.10914897984E+03 -0.33297361202E+03  0.55949031755E+03  0.50400001928E-02 0.  1.
</event>
<event>
 5   0  0.2646718E-04  0.1509013E+04  0.7818609E-02  0.8878481E-01
       -2   -1    0    0    0  501  0.00000000000E+00  0.00000000000E+00  0.60984585247E+03  0.60984585247E+03  0.25500000920E-02 0.  1.
        2   -1    0    0  501    0  0.00000000000E+00  0.00000000000E+00 -0.93348220636E+03  0.93348220637E+03  0.25500000920E-02 0. -1.
    10030    2    1    2    0    0  0.00000000000E+00  0.00000000000E+00 -0.32363635390E+03  0.15433280588E+04  0.15090132563E+04 0.  0.
        3    1    3    3  502    0 -0.45630068379E+03 -0.51733240678E+03  0.15080767802E+03  0.70610629446E+03  0.10100000352E+00 0.  1.
       -3    1    3    3    0  502  0.45630068379E+03  0.51733240678E+03 -0.47444403191E+03  0.83722176438E+03  0.10100000352E+00 0. -1.
</event>
<event>
 5   0  0.2734072E-04  0.1496631E+04  0.7818609E-02  0.8886696E-01
        2   -1    0    0  501    0  0.00000000000E+00  0.00000000000E+00  0.10641481722E+04  0.10641481722E+04  0.25500000920E-02 0.  1.
       -2   -1    0    0    0  501  0.00000000000E+00  0.00000000000E+00 -0.52622021778E+03  0.52622021779E+03  0.25500000920E-02 0. -1.
    10030    2    1    2    0    0  0.00000000000E+00  0.00000000000E+00  0.53792795438E+03  0.15903683899E+04  0.14966312611E+04 0.  0.
        5    1    3    3  502    0  0.18358643538E+03  0.55391636928E+03 -0.22880500011E+03  0.62681826831E+03  0.46999998093E+01 0. -1.
       -5    1    3    3    0  502 -0.18358643538E+03 -0.55391636928E+03  0.76673295449E+03  0.96355012164E+03  0.46999998093E+01 0.  1.
</event>
<event>
 5   0  0.1004313E-04  0.1498795E+04  0.7818609E-02  0.8885255E-01
       -4   -1    0    0    0  501  0.00000000000E+00  0.00000000000E+00  0.57975323331E+03  0.57975462433E+03  0.12699999809E+01 0.  1.
        4   -1    0    0  501    0  0.00000000000E+00  0.00000000000E+00 -0.96867860620E+03  0.96867943872E+03  0.12699999809E+01 0. -1.
    10030    2    1    2    0    0  0.00000000000E+00  0.00000000000E+00 -0.38892537289E+03  0.15484340631E+04  0.14987945496E+04 0.  0.
        2    1    3    3  502    0 -0.14480443005E+03  0.66238533493E+03  0.13528479111E+03  0.69139325250E+03  0.25500000920E-02 0.  1.
       -2    1    3    3    0  502  0.14480443005E+03 -0.66238533493E+03 -0.52421016400E+03  0.85704081055E+03  0.25500000920E-02 0. -1.
</event>
<event>
 5   0  0.1426929E-04  0.1499212E+04  0.7818609E-02  0.8884977E-01
       -1   -1    0    0    0  501  0.00000000000E+00  0.00000000000E+00  0.37450365842E+03  0.37450365845E+03  0.50400001928E-02 0. -1.
        1   -1    0    0  501    0  0.00000000000E+00  0.00000000000E+00 -0.15004107232E+04  0.15004107232E+04  0.50400001928E-02 0.  1.
    10030    2    1    2    0    0  0.00000000000E+00  0.00000000000E+00 -0.11259070648E+04  0.18749143816E+04  0.14992121998E+04 0.  0.
        1    1    3    3  502    0 -0.75119331136E+02  0.14616905191E+03 -0.14776037402E+04  0.14867148747E+04  0.50400001928E-02 0.  1.
       -1    1    3    3    0  502  0.75119331136E+02 -0.14616905191E+03  0.35169667542E+03  0.38819950693E+03  0.50400001928E-02 0. -1.
</event>
<event>
 5   0  0.2618901E-04  0.1498719E+04  0.7818609E-02  0.8885305E-01
       -2   -1    0    0    0  501  0.00000000000E+00  0.00000000000E+00  0.53884107772E+03  0.53884107773E+03  0.25500000920E-02 0.  1.
        2   -1    0    0  501    0  0.00000000000E+00  0.00000000000E+00 -0.10421243037E+04  0.10421243037E+04  0.25500000920E-02 0. -1.
    10030    2    1    2    0    0  0.00000000000E+00  0.00000000000E+00 -0.50328322598E+03  0.15809653814E+04  0.14987186299E+04 0.  0.
        1    1    3    3  502    0 -0.44224457966E+03 -0.60153523769E+03 -0.18397735308E+03  0.76894250558E+03  0.50400001928E-02 0.  1.
       -1    1    3    3    0  502  0.44224457966E+03  0.60153523769E+03 -0.31930587290E+03  0.81202287586E+03  0.50400001928E-02 0. -1.
</event>
<event>
 5   0  0.1474203E-04  0.1490670E+04  0.7818609E-02  0.8890681E-01
       -1   -1    0    0    0  501  0.00000000000E+00  0.00000000000E+00  0.49539048801E+03  0.49539048804E+03  0.50400001928E-02 0. -1.
        1   -1    0    0  501    0  0.00000000000E+00  0.00000000000E+00 -0.11213873083E+04  0.11213873084E+04  0.50400001928E-02 0.  1.
    10030    2    1    2    0    0  0.00000000000E+00  0.00000000000E+00 -0.62599682033E+03  0.16167777964E+04  0.14906704612E+04 0.  0.
        3    1    3    3  502    0  0.16399653691E+03  0.30704015497E+03  0.40181327036E+03  0.53162245562E+03  0.10100000352E+00 0. -1.
       -3    1    3    3    0  502 -0.16399653691E+03 -0.30704015497E+03 -0.10278100907E+04  0.10851553408E+04  0.10100000352E+00 0.  1.
</event>
<event>
 5   0  0.1443750E-04  0.1496655E+04  0.7818609E-02  0.8886680E-01
        1   -1    0    0  501    0  0.00000000000E+00  0.00000000000E+00  0.10870800492E+04  0.10870800492E+04  0.50400001928E-02 0. -1.
       -1   -1    0    0    0  501  0.00000000000E+00  0.00000000000E+00 -0.51513619206E+03  0.51513619209E+03  0.50400001928E-02 0.  1.
    10030    2    1    2    0    0  0.00000000000E+00  0.00000000000E+00  0.57194385716E+03  0.16022162413E+04  0.14966553071E+04 0.  0.
        2    1    3    3  502    0 -0.35902227666E+03  0.16732190251E+03 -0.39371058357E+03  0.55848154653E+03  0.25500000920E-02 0.  1.
       -2    1    3    3    0  502  0.35902227666E+03 -0.16732190251E+03  0.96565444073E+03  0.10437346948E+04  0.25500000920E-02 0. -1.
</event>
<event>
 5   0  0.1427609E-04  0.1502941E+04  0.7818609E-02  0.8882500E-01
        1   -1    0    0  501    0  0.00000000000E+00  0.00000000000E+00  0.50953248054E+03  0.50953248057E+03  0.50400001928E-02 0. -1.
       -1   -1    0    0    0  501  0.00000000000E+00  0.00000000000E+00 -0.11082856555E+04  0.11082856555E+04  0.50400001928E-02 0.  1.
    10030    2    1    2    0    0  0.00000000000E+00  0.00000000000E+00 -0.59875317497E+03  0.16178181361E+04  0.15029405035E+04 0.  0.
        4    1    3    3  502    0 -0.42318460967E+03 -0.50976196361E+03  0.82361187126E+02  0.66762822847E+03  0.12699999809E+01 0. -1.
       -4    1    3    3    0  502  0.42318460967E+03  0.50976196361E+03 -0.68111436209E+03  0.95018990762E+03  0.12699999809E+01 0.  1.
</event>
<event>
 5   0  0.2641347E-04  0.1511367E+04  0.7818609E-02  0.8876929E-01
       -2   -1    0    0    0  501  0.00000000000E+00  0.00000000000E+00  0.15990539410E+04  0.15990539410E+04  0.25500000920E-02 0. -1.
        2   -1    0    0  501    0  0.00000000000E+00  0.00000000000E+00 -0.35712191217E+03  0.35712191218E+03  0.25500000920E-02 0.  1.
    10030    2    1    2    0    0  0.00000000000E+00  0.00000000000E+00  0.12419320288E+04  0.19561758531E+04  0.15113665354E+04 0.  0.
        4    1    3    3  502    0  0.61339966385E+03 -0.33798023982E+03  0.98834427070E+03  0.12113281143E+04  0.12699999809E+01 0. -1.
       -4    1    3    3    0  502 -0.61339966385E+03  0.33798023982E+03  0.25358775808E+03  0.74484773885E+03  0.12699999809E+01 0.  1.
</event>
<event>
 5   0  0.1484251E-04  0.1500274E+04  0.7818609E-02  0.8884271E-01
       -1   -1    0    0    0  501  0.00000000000E+00  0.00000000000E+00  0.66855500265E+03  0.66855500267E+03  0.50400001928E-02 0. -1.
        1   -1    0    0  501    0  0.00000000000E+00  0.00000000000E+00 -0.84167398664E+03  0.84167398665E+03  0.50400001928E-02 0.  1.
    10030    2    1    2    0    0  0.00000000000E+00  0.00000000000E+00 -0.17311898398E+03  0.15102289893E+04  0.15002737809E+04 0.  0.
        5    1    3    3  502    0 -0.69927303949E+03 -0.25313329821E+03 -0.18531251650E+03  0.76643464769E+03  0.46999998093E+01 0.  1.
       -5    1    3    3    0  502  0.69927303949E+03  0.25313329821E+03  0.12193532515E+02  0.74379434163E+03  0.46999998093E+01 0. -1.
</event>
<event>
 5   0  0.1484251E-04  0.1505586E+04  0.7818609E-02  0.8880747E-01
        1   -1    0    0  501    0  0.00000000000E+00  0.00000000000E+00  0.66675144788E+03  0.66675144790E+03  0.50400001928E-02 0.  1.
       -1   -1    0    0    0  501  0.00000000000E+00  0.00000000000E+00 -0.84993768655E+03  0.84993768656E+03  0.50400001928E-02 0. -1.
    10030    2    1    2    0    0  0.00000000000E+00  0.00000000000E+00 -0.18318623867E+03  0.15166891345E+04  0.15055858436E+04 0.  0.
        5    1    3    3  502    0  0.40785579847E+03  0.50331941310E+03 -0.47782420296E+03  0.80499369121E+03  0.46999998093E+01 0. -1.
       -5    1    3    3    0  502 -0.40785579847E+03 -0.50331941310E+03  0.29463796429E+03  0.71169544326E+03  0.46999998093E+01 0.  1.
</event>
<event>
 5   0  0.1484251E-04  0.1489085E+04  0.7818609E-02  0.8891744E-01
       -1   -1    0    0    0  501  0.00000000000E+00  0.00000000000E+00  0.76170235114E+03  0.76170235116E+03  0.50400001928E-02 0.  1.
        1   -1    0    0  501    0  0.00000000000E+00  0.00000000000E+00 -0.72776914684E+03  0.72776914685E+03  0.50400001928E-02 0. -1.
    10030    2    1    2    0    0  0.00000000000E+00  0.00000000000E+00  0.33933204303E+02  0.14894714980E+04  0.14890849140E+04 0.  0.
        5    1    3    3  502    0 -0.52092808694E+03 -0.24894905568E+03 -0.45324019165E+03  0.73402347742E+03  0.46999998093E+01 0. -1.
       -5    1    3    3    0  502  0.52092808694E+03  0.24894905568E+03  0.48717339595E+03  0.75544802059E+03  0.46999998093E+01 0.  1.
</event>
<event>
 5   0  0.2734072E-04  0.1502464E+04  0.7818609E-02  0.8882816E-01
        2   -1    0    0  501    0  0.00000000000E+00  0.00000000000E+00  0.22749573467E+04  0.22749573467E+04  0.25500000920E-02 0.  1.
       -2   -1    0    0    0  501  0.00000000000E+00  0.00000000000E+00 -0.24807045203E+03  0.24807045204E+03  0.25500000920E-02 0. -1.
    10030    2    1    2    0    0  0.00000000000E+00  0.00000000000E+00  0.20268868947E+04  0.25230277987E+04  0.15024642390E+04 0.  0.
        5    1    3    3  502    0  0.30893962033E+03  0.66992237545E+03  0.12514481162E+04  0.14527161304E+04  0.46999998093E+01 0.  1.
       -5    1    3    3    0  502 -0.30893962033E+03 -0.66992237545E+03  0.77543877851E+03  0.10703116683E+04  0.46999998093E+01 0. -1.
</event>
<event>
 5   0  0.2618901E-04  0.1495827E+04  0.7818609E-02  0.8887233E-01
        2   -1    0    0  501    0  0.00000000000E+00  0.00000000000E+00  0.10791937937E+04  0.10791937937E+04  0.25500000920E-02 0.  1.
       -2   -1    0    0    0  501  0.00000000000E+00  0.00000000000E+00 -0.51832629103E+03  0.51832629104E+03  0.25500000920E-02 0. -1.
    10030    2    1    2    0    0  0.00000000000E+00  0.00000000000E+00  0.56086750268E+03  0.15975200848E+04  0.14958268836E+04 0.  0.
        1    1    3    3  502    0  0.41071587629E+03  0.62141895705E+03  0.20858874192E+03  0.77353623994E+03  0.50400001928E-02 0.  1.
       -1    1    3    3    0  502 -0.41071587629E+03 -0.62141895705E+03  0.35227876076E+03  0.82398384482E+03  0.50400001928E-02 0. -1.
</event>
<event>
 5   0  0.1443750E-04  0.1471315E+04  0.7818609E-02  0.8903756E-01
        1   -1    0    0  501    0  0.00000000000E+00  0.00000000000E+00  0.10259932673E+04  0.10259932673E+04  0.50400001928E-02 0. -1.
       -1   -1    0    0    0  501  0.00000000000E+00  0.00000000000E+00 -0.52748073131E+03  0.52748073134E+03  0.50400001928E-02 0.  1.
    10030    2    1    2    0    0  0.00000000000E+00  0.00000000000E+00  0.49851253598E+03  0.15534739986E+04  0.14713146217E+04 0.  0.
        2    1    3    3  502    0 -0.64221678458E+03  0.26937495002E+03  0.49952932952E+03  0.85705006455E+03  0.25500000920E-02 0. -1.
       -2    1    3    3    0  502  0.64221678458E+03 -0.26937495002E+03 -0.10167935470E+01  0.69642393408E+03  0.25500000920E-02 0.  1.
</event>
<event>
 5   0  0.2734072E-04  0.1501351E+04  0.7818609E-02  0.8883555E-01
        2   -1    0    0  501    0  0.00000000000E+00  0.00000000000E+00  0.10802458077E+04  0.10802458077E+04  0.25500000920E-02 0. -1.
       -2   -1    0    0    0  501  0.00000000000E+00  0.00000000000E+00 -0.52165342472E+03  0.52165342473E+03  0.25500000920E-02 0.  1.
    10030    2    1    2    0    0  0.00000000000E+00  0.00000000000E+00  0.55859238294E+03  0.16018992324E+04  0.15013512915E+04 0.  0.
        5    1    3    3  502    0  0.12618847097E+03 -0.12336301472E+03 -0.49919095824E+03  0.52948622871E+03  0.46999998093E+01 0.  1.
       -5    1    3    3    0  502 -0.12618847097E+03  0.12336301472E+03  0.10577833412E+04  0.10724130037E+04  0.46999998093E+01 0. -1.
</event>
<event>
 5   0  0.2618901E-04  0.1503340E+04  0.7818609E-02  0.8882235E-01
        2   -1    0    0  501    0  0.00000000000E+00  0.00000000000E+00  0.17427386663E+04  0.17427386663E+04  0.25500000920E-02 0. -1.
       -2   -1    0    0    0  501  0.00000000000E+00  0.00000000000E+00 -0.32420668821E+03  0.32420668822E+03  0.25500000920E-02 0.  1.
    10030    2    1    2    0    0  0.00000000000E+00  0.00000000000E+00  0.14185319781E+04  0.20669453545E+04  0.15033396575E+04 0.  0.
        1    1    3    3  502    0  0.71101901479E+03  0.20283806176E+03  0.89534171415E+03  0.11611753114E+04  0.50400001928E-02 0. -1.
       -1    1    3    3    0  502 -0.71101901479E+03 -0.20283806176E+03  0.52319026393E+03  0.90577004310E+03  0.50400001928E-02 0.  1.
</event>
<event>
 5   0  0.1004313E-04  0.1499082E+04  0.7818609E-02  0.8885064E-01
       -3   -1    0    0    0  501  0.00000000000E+00  0.00000000000E+00  0.83271826539E+03  0.83271827151E+03  0.10100000352E+00 0.  1.
        3   -1    0    0  501    0  0.00000000000E+00  0.00000000000E+00 -0.67467213443E+03  0.67467214199E+03  0.10100000352E+00 0. -1.
    10030    2    1    2    0    0  0.00000000000E+00  0.00000000000E+00  0.15804613096E+03  0.15073904135E+04  0.14990821456E+04 0.  0.
        1    1    3    3  502    0  0.42630306303E+03  0.45647826640E+03  0.49569277326E+03  0.79738198797E+03  0.50400001928E-02 0.  1.
       -1    1    3    3    0  502 -0.42630306303E+03 -0.45647826640E+03 -0.33764664230E+03  0.71000842553E+03  0.50400001928E-02 0. -1.
</event>
<event>
 5   0  0.2618901E-04  0.1484359E+04  0.7818609E-02  0.8894921E-01
        2   -1    0    0  501    0  0.00000000000E+00  0.00000000000E+00  0.92805505380E+03  0.92805505380E+03  0.25500000920E-02 0. -1.
       -2   -1    0    0    0  501  0.00000000000E+00  0.00000000000E+00 -0.59353242962E+03  0.59353242963E+03  0.25500000920E-02 0.  1.
    10030    2    1    2    0    0  0.00000000000E+00  0.00000000000E+00  0.33452262418E+03  0.15215874834E+04  0.14843594860E+04 0.  0.
        1    1    3    3  502    0 -0.42132230722E+03 -0.30885718841E+03  0.70766966045E+03  0.87960309102E+03  0.50400001928E-02 0.  1.
       -1    1    3    3    0  502  0.42132230722E+03  0.30885718841E+03 -0.37314703627E+03  0.64198439241E+03  0.50400001928E-02 0. -1.
</event>
<event>
 5   0  0.2646718E-04  0.1498922E+04  0.7818609E-02  0.8885170E-01
        2   -1    0    0  501    0  0.00000000000E+00  0.00000000000E+00  0.81912261426E+03  0.81912261426E+03  0.25500000920E-02 0.  1.
       -2   -1    0    0    0  501  0.00000000000E+00  0.00000000000E+00 -0.68572373899E+03  0.68572373899E+03  0.25500000920E-02 0. -1.
    10030    2    1    2    0    0  0.00000000000E+00  0.00000000000E+00  0.13339887527E+03  0.15048463533E+04  0.14989220417E+04 0.  0.
        3    1    3    3  502    0  0.37989351704E+03  0.66345919042E+02 -0.57846862946E+03  0.69523149435E+03  0.10100000352E+00 0. -1.
       -3    1    3    3    0  502 -0.37989351704E+03 -0.66345919042E+02  0.71186750473E+03  0.80961485890E+03  0.10100000352E+00 0.  1.
</event>
<event>
 5   0  0.1427609E-04  0.1524116E+04  0.7818609E-02  0.8868572E-01
       -1   -1    0    0    0  501  0.00000000000E+00  0.00000000000E+00  0.81209428370E+03  0.81209428371E+03  0.50400001928E-02 0.  1.
        1   -1    0    0  501    0  0.00000000000E+00  0.00000000000E+00 -0.71510481548E+03  0.71510481550E+03  0.50400001928E-02 0. -1.
    10030    2    1    2    0    0  0.00000000000E+00  0.00000000000E+00  0.96989468217E+02  0.15271990992E+04  0.15241161805E+04 0.  0.
        4    1    3    3  502    0 -0.24335650242E+03  0.35546608101E+02 -0.67424433341E+03  0.71769978588E+03  0.12699999809E+01 0. -1.
       -4    1    3    3    0  502  0.24335650242E+03 -0.35546608101E+02  0.77123380162E+03  0.80949931333E+03  0.12699999809E+01 0.  1.
</event>
<event>
 5   0  0.1427609E-04  0.1499445E+04  0.7818609E-02  0.8884822E-01
        1   -1    0    0  501    0  0.00000000000E+00  0.00000000000E+00  0.13219171851E+04  0.13219171851E+04  0.50400001928E-02 0. -1.
       -1   -1    0    0    0  501  0.00000000000E+00  0.00000000000E+00 -0.42520365573E+03  0.42520365576E+03  0.50400001928E-02 0.  1.
    10030    2    1    2    0    0  0.00000000000E+00  0.00000000000E+00  0.89671352939E+03  0.17471208409E+04  0.14994452570E+04 0.  0.
        4    1    3    3  502    0  0.17157963931E+03 -0.60598747700E+03 -0.25545712410E+02  0.63032895477E+03  0.12699999809E+01 0.  1.
       -4    1    3    3    0  502 -0.17157963931E+03  0.60598747700E+03  0.92225924180E+03  0.11167918861E+04  0.12699999809E+01 0. -1.
</event>
<event>
 5   0  0.1426929E-04  0.1507494E+04  0.7818609E-02  0.8879485E-01
        1   -1    0    0  501    0  0.00000000000E+00  0.00000000000E+00  0.96807689313E+03  0.96807689314E+03  0.50400001928E-02 0.  1.
       -1   -1    0    0    0  501  0.00000000000E+00  0.00000000000E+00 -0.58686884976E+03  0.58686884978E+03  0.50400001928E-02 0. -1.
    10030    2    1    2    0    0  0.00000000000E+00  0.00000000000E+00  0.38120804337E+03  0.15549457429E+04  0.15074935128E+04 0.  0.
        1    1    3    3  502    0  0.11557180284E+02  0.50663227716E+03  0.76613184747E+03  0.91856836458E+03  0.50400001928E-02 0.  1.
       -1    1    3    3    0  502 -0.11557180284E+02 -0.50663227716E+03 -0.38492380410E+03  0.63637737834E+03  0.50400001928E-02 0. -1.
</event>
<event>
 5   0  0.2734072E-04  0.1489937E+04  0.7818609E-02  0.8891172E-01
       -2   -1    0    0    0  501  0.00000000000E+00  0.00000000000E+00  0.56013749944E+03  0.56013749945E+03  0.25500000920E-02 0. -1.
        2   -1    0    0  501    0  0.00000000000E+00  0.00000000000E+00 -0.99078943288E+03  0.99078943289E+03  0.25500000920E-02 0.  1.
    10030    2    1    2    0    0  0.00000000000E+00  0.00000000000E+00 -0.43065193344E+03  0.15509269323E+04  0.14899373348E+04 0.  0.
        5    1    3    3  502    0 -0.53713848856E+03 -0.50004785102E+03 -0.82059471717E+02  0.73845883846E+03  0.46999998093E+01 0.  1.
       -5    1    3    3    0  502  0.53713848856E+03  0.50004785102E+03 -0.34859246172E+03  0.81246809388E+03  0.46999998093E+01 0. -1.
</event>
<event>
 5   0  0.1426929E-04  0.1502684E+04  0.7818609E-02  0.8882670E-01
        1   -1    0    0  501    0  0.00000000000E+00  0.00000000000E+00  0.53048205548E+03  0.53048205550E+03  0.50400001928E-02 0. -1.
       -1   -1    0    0    0  501  0.00000000000E+00  0.00000000000E+00 -0.10641544629E+04  0.10641544629E+04  0.50400001928E-02 0.  1.
    10030    2    1    2    0    0  0.00000000000E+00  0.00000000000E+00 -0.53367240740E+03  0.15946365184E+04  0.15026840611E+04 0.  0.
        1    1    3    3  502    0  0.66479079965E+03 -0.91748101718E+02 -0.62537206625E+03  0.91730842292E+03  0.50400001928E-02 0.  1.
       -1    1    3    3    0  502 -0.66479079965E+03  0.91748101718E+02  0.91699658850E+02  0.67732809548E+03  0.50400001928E-02 0. -1.
</event>
<event>
 5   0  0.1004313E-04  0.1500640E+04  0.7818609E-02  0.8884027E-01
        3   -1    0    0  501    0  0.00000000000E+00  0.00000000000E+00  0.28138008610E+03  0.28138010423E+03  0.10100000352E+00 0.  1.
       -3   -1    0    0    0  501  0.00000000000E+00  0.00000000000E+00 -0.20007819922E+04  0.20007819947E+04  0.10100000352E+00 0. -1.
    10030    2    1    2    0    0  0.00000000000E+00  0.00000000000E+00 -0.17194019061E+04  0.22821620989E+04  0.15006401738E+04 0.  0.
        3    1    3    3  502    0 -0.56075703906E+03 -0.48115829881E+03 -0.10580956291E+04  0.12905534223E+04  0.10100000352E+00 0.  1.
       -3    1    3    3    0  502  0.56075703906E+03  0.48115829881E+03 -0.66130627696E+03  0.99160867661E+03  0.10100000352E+00 0. -1.
</event>
<event>
 5   0  0.2734072E-04  0.1488674E+04  0.7818609E-02  0.8892020E-01
       -2   -1    0    0    0  501  0.00000000000E+00  0.00000000000E+00  0.67702746647E+03  0.67702746648E+03  0.25500000920E-02 0.  1.
        2   -1    0    0  501    0  0.00000000000E+00  0.00000000000E+00 -0.81833848892E+03  0.81833848893E+03  0.25500000920E-02 0. -1.
    10030    2    1    2    0    0  0.00000000000E+00  0.00000000000E+00 -0.14131102245E+03  0.14953659554E+04  0.14886740864E+04 0.  0.
        5    1    3    3  502    0  0.33490693107E+03 -0.42568420869E+03 -0.58348532365E+03  0.79614503134E+03  0.46999998093E+01 0. -1.
       -5    1    3    3    0  502 -0.33490693107E+03  0.42568420869E+03  0.44217430120E+03  0.69922092406E+03  0.46999998093E+01 0.  1.
</event>
<event>
 5   0  0.2618901E-04  0.1497860E+04  0.7818609E-02  0.8885877E-01
       -2   -1    0    0    0  501  0.00000000000E+00  0.00000000000E+00  0.84280994036E+03  0.84280994037E+03  0.25500000920E-02 0. -1.
        2   -1    0    0  501    0  0.00000000000E+00  0.00000000000E+00 -0.66550738640E+03  0.66550738640E+03  0.25500000920E-02 0.  1.
    10030    2    1    2    0    0  0.00000000000E+00  0.00000000000E+00  0.17730255396E+03  0.15083173268E+04  0.14978601278E+04 0.  0.
        1    1    3    3  502    0 -0.21048661884E+03 -0.62612936095E+03  0.44403676074E+03  0.79593419218E+03  0.50400001928E-02 0. -1.
       -1    1    3    3    0  502  0.21048661884E+03  0.62612936095E+03 -0.26673420678E+03  0.71238313459E+03  0.50400001928E-02 0.  1.
</event>
<event>
 5   0  0.2641347E-04  0.1501783E+04  0.7818609E-02  0.8883268E-01
       -2   -1    0    0    0  501  0.00000000000E+00  0.00000000000E+00  0.97902853526E+03  0.97902853526E+03  0.25500000920E-02 0.  1.
        2   -1    0    0  501    0  0.00000000000E+00  0.00000000000E+00 -0.57591601729E+03  0.57591601729E+03  0.25500000920E-02 0. -1.
    10030    2    1    2    0    0  0.00000000000E+00  0.00000000000E+00  0.40311251797E+03  0.15549445526E+04  0.15017832265E+04 0.  0.
        4    1    3    3  502    0  0.59499713037E+03 -0.39475065512E+03 -0.39019576230E+02  0.71510405193E+03  0.12699999809E+01 0.  1.
       -4    1    3    3    0  502 -0.59499713037E+03  0.39475065512E+03  0.44213209420E+03  0.83984050062E+03  0.12699999809E+01 0. -1.
</event>
<event>
 5   0  0.2734072E-04  0.1503726E+04  0.7818609E-02  0.8881979E-01
        2   -1    0    0  501    0  0.00000000000E+00  0.00000000000E+00  0.18775003121E+04  0.18775003121E+04  0.25500000920E-02 0. -1.
       -2   -1    0    0    0  501  0.00000000000E+00  0.00000000000E+00 -0.30109054658E+03  0.30109054659E+03  0.25500000920E-02 0.  1.
    10030    2    1    2    0    0  0.00000000000E+00  0.00000000000E+00  0.15764097655E+04  0.21785908586E+04  0.15037255004E+04 0.  0.
        5    1    3    3  502    0  0.26685201333E+03 -0.48158904288E+03  0.15299790259E+04  0.16260368732E+04  0.46999998093E+01 0. -1.
       -5    1    3    3    0  502 -0.26685201333E+03  0.48158904288E+03  0.46430739538E+02  0.55255398543E+03  0.46999998093E+01 0.  1.
</event>
<event>
 5   0  0.1427609E-04  0.1504209E+04  0.7818609E-02  0.8881659E-01
        1   -1    0    0  501    0  0.00000000000E+00  0.00000000000E+00  0.83169977377E+03  0.83169977378E+03  0.50400001928E-02 0. -1.
       -1   -1    0    0    0  501  0.00000000000E+00  0.00000000000E+00 -0.68012620632E+03  0.68012620634E+03  0.50400001928E-02 0.  1.
    10030    2    1    2    0    0  0.00000000000E+00  0.00000000000E+00  0.15157356744E+03  0.15118259801E+04  0.15042085121E+04 0.  0.
        4    1    3    3  502    0 -0.53799391812E+03  0.47941021868E+03  0.29225525271E+03  0.77761581731E+03  0.12699999809E+01 0.  1.
       -4    1    3    3    0  502  0.53799391812E+03 -0.47941021868E+03 -0.14068168526E+03  0.73421016281E+03  0.12699999809E+01 0. -1.
</event>
<event>
 5   0  0.2618901E-04  0.1503189E+04  0.7818609E-02  0.8882335E-01
        2   -1    0    0  501    0  0.00000000000E+00  0.00000000000E+00  0.47954424029E+03  0.47954424030E+03  0.25500000920E-02 0. -1.
       -2   -1    0    0    0  501  0.00000000000E+00  0.00000000000E+00 -0.11779810122E+04  0.11779810122E+04  0.25500000920E-02 0.  1.
    10030    2    1    2    0    0  0.00000000000E+00  0.00000000000E+00 -0.69843677192E+03  0.16575252525E+04  0.15031886237E+04 0.  0.
        1    1    3    3  502    0 -0.35136351282E+03 -0.41935794117E+03  0.21903441316E+03  0.58931610799E+03  0.50400001928E-02 0. -1.
       -1    1    3    3    0  502  0.35136351282E+03  0.41935794117E+03 -0.91747118508E+03  0.10682091445E+04  0.50400001928E-02 0.  1.
</event>
<event>
 5   0  0.1427609E-04  0.1494630E+04  0.7818609E-02  0.8888032E-01
        1   -1    0    0  501    0  0.00000000000E+00  0.00000000000E+00  0.10556113335E+04  0.10556113335E+04  0.50400001928E-02 0. -1.
       -1   -1    0    0    0  501  0.00000000000E+00  0.00000000000E+00 -0.52905829027E+03  0.52905829030E+03  0.50400001928E-02 0.  1.
    10030    2    1    2    0    0  0.00000000000E+00  0.00000000000E+00  0.52655304324E+03  0.15846696238E+04  0.14946302919E+04 0.  0.
        4    1    3    3  502    0 -0.37263775814E+03 -0.62424997628E+03  0.44670566735E+03  0.85328453509E+03  0.12699999809E+01 0. -1.
       -4    1    3    3    0  502  0.37263775814E+03  0.62424997628E+03  0.79847375890E+02  0.73138508873E+03  0.12699999809E+01 0.  1.
</event>
<event>
 5   0  0.1443750E-04  0.1513631E+04  0.7818609E-02  0.8875439E-01
        1   -1    0    0  501    0  0.00000000000E+00  0.00000000000E+00  0.10525110260E+04  0.10525110260E+04  0.50400001928E-02 0.  1.
       -1   -1    0    0    0  501  0.00000000000E+00  0.00000000000E+00 -0.54419373891E+03  0.54419373894E+03  0.50400001928E-02 0. -1.
    10030    2    1    2    0    0  0.00000000000E+00  0.00000000000E+00  0.50831728712E+03  0.15967047650E+04  0.15136312768E+04 0.  0.
        2    1    3    3  502    0 -0.35348421567E+03  0.45878937698E+03 -0.25974521591E+03  0.63474905305E+03  0.25500000920E-02 0. -1.
       -2    1    3    3    0  502  0.35348421567E+03 -0.45878937698E+03  0.76806250303E+03  0.96195571193E+03  0.25500000920E-02 0.  1.
</event>
<event>
 5   0  0.1004313E-04  0.1487345E+04  0.7818609E-02  0.8892912E-01
        4   -1    0    0  501    0  0.00000000000E+00  0.00000000000E+00  0.34475062736E+03  0.34475296658E+03  0.12699999809E+01 0.  1.
       -4   -1    0    0    0  501  0.00000000000E+00  0.00000000000E+00 -0.16041916554E+04  0.16041921581E+04  0.12699999809E+01 0. -1.
    10030    2    1    2    0    0  0.00000000000E+00  0.00000000000E+00 -0.12594410280E+04  0.19489451247E+04  0.14873450830E+04 0.  0.
        3    1    3    3  502    0  0.56378989989E+03 -0.65785638286E+02 -0.12593196611E+04  0.13813300911E+04  0.10100000352E+00 0. -1.
       -3    1    3    3    0  502 -0.56378989989E+03  0.65785638286E+02 -0.12136688351E+00  0.56761503359E+03  0.10100000352E+00 0.  1.
</event>
<event>
 5   0  0.1426929E-04  0.1454158E+04  0.7818609E-02  0.8915523E-01
        1   -1    0    0  501    0  0.00000000000E+00  0.00000000000E+00  0.46809849275E+03  0.46809849278E+03  0.50400001928E-02 0. -1.
       -1   -1    0    0    0  501  0.00000000000E+00  0.00000000000E+00 -0.11293431051E+04  0.11293431051E+04  0.50400001928E-02 0.  1.
    10030    2    1    2    0    0  0.00000000000E+00  0.00000000000E+00 -0.66124461232E+03  0.15974415979E+04  0.14541579080E+04 0.  0.
        1    1    3    3  502    0 -0.14629734847E+03 -0.60649723015E+03  0.79532612231E+02  0.62894136514E+03  0.50400001928E-02 0. -1.
       -1    1    3    3    0  502  0.14629734847E+03  0.60649723015E+03 -0.74077722455E+03  0.96850023272E+03  0.50400001928E-02 0.  1.
</event>
<event>
 5   0  0.1427609E-04  0.1507586E+04  0.7818609E-02  0.8879424E-01
        1   -1    0    0  501    0  0.00000000000E+00  0.00000000000E+00  0.67290459423E+03  0.67290459425E+03  0.50400001928E-02 0.  1.
       -1   -1    0    0    0  501  0.00000000000E+00  0.00000000000E+00 -0.84440446185E+03  0.84440446186E+03  0.50400001928E-02 0. -1.
    10030    2    1    2    0    0  0.00000000000E+00  0.00000000000E+00 -0.17149986761E+03  0.15173090561E+04  0.15075856749E+04 0.  0.
        4    1    3    3  502    0 -0.23042568740E+03  0.62615146611E+03  0.26728352467E+03  0.71875152270E+03  0.12699999809E+01 0.  1.
       -4    1    3    3    0  502  0.23042568740E+03 -0.62615146611E+03 -0.43878339228E+03  0.79855753341E+03  0.12699999809E+01 0. -1.
</event>
<event>
 5   0  0.2641347E-04  0.1436048E+04  0.7818609E-02  0.8928131E-01
       -2   -1    0    0    0  501  0.00000000000E+00  0.00000000000E+00  0.34637240626E+03  0.34637240627E+03  0.25500000920E-02 0. -1.
        2   -1    0    0  501    0  0.00000000000E+00  0.00000000000E+00 -0.14884516817E+04  0.14884516817E+04  0.25500000920E-02 0.  1.
    10030    2    1    2    0    0  0.00000000000E+00  0.00000000000E+00 -0.11420792754E+04  0.18348240880E+04  0.14360481755E+04 0.  0.
        4    1    3    3  502    0  0.33427703653E+03 -0.35887907919E+03 -0.12410921854E+04  0.13344837039E+04  0.12699999809E+01 0.  1.
       -4    1    3    3    0  502 -0.33427703653E+03  0.35887907919E+03  0.99012909946E+02  0.50034038400E+03  0.12699999809E+01 0. -1.
</event>
<event>
 5   0  0.2641347E-04  0.1493461E+04  0.7818609E-02  0.8888813E-01
        2   -1    0    0  501    0  0.00000000000E+00  0.00000000000E+00  0.22870169360E+04  0.22870169360E+04  0.25500000920E-02 0. -1.
       -2   -1    0    0    0  501  0.00000000000E+00  0.00000000000E+00 -0.24381377239E+03  0.24381377240E+03  0.25500000920E-02 0.  1.
    10030    2    1    2    0    0  0.00000000000E+00  0.00000000000E+00  0.20432031636E+04  0.25308307084E+04  0.14934607149E+04 0.  0.
        4    1    3    3  502    0 -0.25517178667E+02  0.23306228425E+03 -0.17982117515E+03  0.29547660259E+03  0.12699999809E+01 0.  1.
       -4    1    3    3    0  502  0.25517178667E+02 -0.23306228425E+03  0.22230243388E+04  0.22353541058E+04  0.12699999809E+01 0. -1.
</event>
<event>
 5   0  0.1484251E-04  0.1500571E+04  0.7818609E-02  0.8884074E-01
       -1   -1    0    0    0  501  0.00000000000E+00  0.00000000000E+00  0.45950637009E+03  0.45950637012E+03  0.50400001928E-02 0. -1.
        1   -1    0    0  501    0  0.00000000000E+00  0.00000000000E+00 -0.12250712659E+04  0.12250712659E+04  0.50400001928E-02 0.  1.
    10030    2    1    2    0    0  0.00000000000E+00  0.00000000000E+00 -0.76556489578E+03  0.16845776360E+04  0.15005706255E+04 0.  0.
        5    1    3    3  502    0 -0.46965906400E+03 -0.56150767177E+03 -0.56736959647E+03  0.92617538882E+03  0.46999998093E+01 0.  1.
       -5    1    3    3    0  502  0.46965906400E+03  0.56150767177E+03 -0.19819529932E+03  0.75840224718E+03  0.46999998093E+01 0. -1.
</event>
<event>
 5   0  0.2696040E-04  0.1495146E+04  0.7818609E-02  0.8887687E-01
       -2   -1    0    0    0  501  0.00000000000E+00  0.00000000000E+00  0.49992394078E+03  0.49992394078E+03  0.25500000920E-02 0.  1.
        2   -1    0    0  501    0  0.00000000000E+00  0.00000000000E+00 -0.11179002302E+04  0.11179002302E+04  0.25500000920E-02 0. -1.
    10030    2    1    2    0    0  0.00000000000E+00  0.00000000000E+00 -0.61797628944E+03  0.16178241710E+04  0.14951455962E+04 0.  0.
        2    1    3    3  502    0 -0.26374406658E+03  0.22806578980E+03 -0.10245261102E+04  0.10822331947E+04  0.25500000920E-02 0. -1.
       -2    1    3    3    0  502  0.26374406658E+03 -0.22806578980E+03  0.40654982078E+03  0.53559097632E+03  0.25500000920E-02 0.  1.
</event>
<event>
 5   0  0.1484251E-04  0.1495462E+04  0.7818609E-02  0.8887476E-01
       -1   -1    0    0    0  501  0.00000000000E+00  0.00000000000E+00  0.39966650395E+03  0.39966650398E+03  0.50400001928E-02 0. -1.
        1   -1    0    0  501    0  0.00000000000E+00  0.00000000000E+00 -0.13989205553E+04  0.13989205553E+04  0.50400001928E-02 0.  1.
    10030    2    1    2    0    0  0.00000000000E+00  0.00000000000E+00 -0.99925405134E+03  0.17985870593E+04  0.14954620526E+04 0.  0.
        5    1    3    3  502    0 -0.42240118434E+02  0.53371210479E+03 -0.11273917245E+04  0.12480653143E+04  0.46999998093E+01 0.  1.
       -5    1    3    3    0  502  0.42240118434E+02 -0.53371210479E+03  0.12813767313E+03  0.55052174497E+03  0.46999998093E+01 0. -1.
</event>
<event>
 5   0  0.2618901E-04  0.1494701E+04  0.7818609E-02  0.8887984E-01
       -2   -1    0    0    0  501  0.00000000000E+00  0.00000000000E+00  0.41732644092E+03  0.41732644093E+03  0.25500000920E-02 0.  1.
        2   -1    0    0  501    0  0.00000000000E+00  0.00000000000E+00 -0.13383595155E+04  0.13383595155E+04  0.25500000920E-02 0. -1.
    10030    2    1    2    0    0  0.00000000000E+00  0.00000000000E+00 -0.92103307454E+03  0.17556859564E+04  0.14947010581E+04 0.  0.
        1    1    3    3  502    0  0.81198968063E+02  0.25889757076E+03  0.35742784680E+03  0.44874925097E+03  0.50400001928E-02 0.  1.
       -1    1    3    3    0  502 -0.81198968063E+02 -0.25889757076E+03 -0.12784609213E+04  0.13069367054E+04  0.50400001928E-02 0. -1.
</event>
<event>
 5   0  0.2641347E-04  0.1497005E+04  0.7818609E-02  0.8886447E-01
       -2   -1    0    0    0  501  0.00000000000E+00  0.00000000000E+00  0.52980217270E+03  0.52980217270E+03  0.25500000920E-02 0. -1.
        2   -1    0    0  501    0  0.00000000000E+00  0.00000000000E+00 -0.10574808516E+04  0.10574808517E+04  0.25500000920E-02 0.  1.
    10030    2    1    2    0    0  0.00000000000E+00  0.00000000000E+00 -0.52767867895E+03  0.15872830244E+04  0.14970045461E+04 0.  0.
        4    1    3    3  502    0 -0.72485653414E+02  0.39750254499E+03  0.40423056721E+03  0.57154738001E+03  0.12699999809E+01 0. -1.
       -4    1    3    3    0  502  0.72485653414E+02 -0.39750254499E+03 -0.93190924616E+03  0.10157356443E+04  0.12699999809E+01 0.  1.
</event>
<event>
 5   0  0.1474203E-04  0.1488024E+04  0.7818609E-02  0.8892456E-01
       -1   -1    0    0    0  501  0.00000000000E+00  0.00000000000E+00  0.55924919819E+03  0.55924919821E+03  0.50400001928E-02 0. -1.
        1   -1    0    0  501    0  0.00000000000E+00  0.00000000000E+00 -0.98981642327E+03  0.98981642328E+03  0.50400001928E-02 0.  1.
    10030    2    1    2    0    0  0.00000000000E+00  0.00000000000E+00 -0.43056722508E+03  0.15490656215E+04  0.14880242486E+04 0.  0.
        3    1    3    3  502    0 -0.34765007183E+03 -0.36957430710E+03 -0.78176427649E+03  0.93198773335E+03  0.10100000352E+00 0.  1.
       -3    1    3    3    0  502  0.34765007183E+03  0.36957430710E+03  0.35119705141E+03  0.61707788814E+03  0.10100000352E+00 0. -1.
</event>
<event>
 5   0  0.2641347E-04  0.1506869E+04  0.7818609E-02  0.8879898E-01
       -2   -1    0    0    0  501  0.00000000000E+00  0.00000000000E+00  0.48981275568E+03  0.48981275569E+03  0.25500000920E-02 0.  1.
        2   -1    0    0  501    0  0.00000000000E+00  0.00000000000E+00 -0.11589398639E+04  0.11589398639E+04  0.25500000920E-02 0. -1.
    10030    2    1    2    0    0  0.00000000000E+00  0.00000000000E+00 -0.66912710825E+03  0.16487526196E+04  0.15068689770E+04 0.  0.
        4    1    3    3  502    0  0.72444689338E+03  0.12292532521E+03 -0.15236743919E+03  0.75043413190E+03  0.12699999809E+01 0. -1.
       -4    1    3    3    0  502 -0.72444689338E+03 -0.12292532521E+03 -0.51675966906E+03  0.89831848771E+03  0.12699999809E+01 0.  1.
</event>
<event>
 5   0  0.2734072E-04  0.1500499E+04  0.7818609E-02  0.8884121E-01
        2   -1    0    0  501    0  0.00000000000E+00  0.00000000000E+00  0.16348770521E+04  0.16348770521E+04  0.25500000920E-02 0. -1.
       -2   -1    0    0    0  501  0.00000000000E+00  0.00000000000E+00 -0.34429131653E+03  0.34429131654E+03  0.25500000920E-02 0.  1.
    10030    2    1    2    0    0  0.00000000000E+00  0.00000000000E+00  0.12905857356E+04  0.19791683687E+04  0.15004985473E+04 0.  0.
        5    1    3    3  502    0 -0.32921550247E+03  0.27767467771E+03 -0.16497466342E+03  0.46122099180E+03  0.46999998093E+01 0.  1.
       -5    1    3    3    0  502  0.32921550247E+03 -0.27767467771E+03  0.14555603990E+04  0.15179473768E+04  0.46999998093E+01 0. -1.
</event>
<event>
 5   0  0.2618901E-04  0.1496974E+04  0.7818609E-02  0.8886468E-01
        2   -1    0    0  501    0  0.00000000000E+00  0.00000000000E+00  0.14994509219E+04  0.14994509219E+04  0.25500000920E-02 0.  1.
       -2   -1    0    0    0  501  0.00000000000E+00  0.00000000000E+00 -0.37362517685E+03  0.37362517686E+03  0.25500000920E-02 0. -1.
    10030    2    1    2    0    0  0.00000000000E+00  0.00000000000E+00  0.11258257451E+04  0.18730760988E+04  0.14969737685E+04 0.  0.
        1    1    3    3  502    0  0.29673765227E+03  0.66329593989E+03  0.78750250080E+03  0.10715292469E+04  0.50400001928E-02 0.  1.
       -1    1    3    3    0  502 -0.29673765227E+03 -0.66329593989E+03  0.33832324425E+03  0.80154685189E+03  0.50400001928E-02 0. -1.
</event>
<event>
 5   0  0.1427609E-04  0.1500357E+04  0.7818609E-02  0.8884215E-01
       -1   -1    0    0    0  501  0.00000000000E+00  0.00000000000E+00  0.60228607561E+03  0.60228607563E+03  0.50400001928E-02 0.  1.
        1   -1    0    0  501    0  0.00000000000E+00  0.00000000000E+00 -0.93438674140E+03  0.93438674141E+03  0.50400001928E-02 0. -1.
    10030    2    1    2    0    0  0.00000000000E+00  0.00000000000E+00 -0.33210066579E+03  0.15366728170E+04  0.15003574555E+04 0.  0.
        4    1    3    3  502    0 -0.26685507517E+03  0.53583902926E+03  0.29703442290E+03  0.66825605699E+03  0.12699999809E+01 0.  1.
       -4    1    3    3    0  502  0.26685507517E+03 -0.53583902926E+03 -0.62913508869E+03  0.86841676005E+03  0.12699999809E+01 0. -1.
</event>
<event>
 5   0  0.2618901E-04  0.1500762E+04  0.7818609E-02  0.8883946E-01
       -2   -1    0    0    0  501  0.00000000000E+00  0.00000000000E+00  0.10764358545E+04  0.10764358545E+04  0.25500000920E-02 0.  1.
        2   -1    0    0  501    0  0.00000000000E+00  0.00000000000E+00 -0.52308906110E+03  0.52308906111E+03  0.25500000920E-02 0. -1.
    10030    2    1    2    0    0  0.00000000000E+00  0.00000000000E+00  0.55334679335E+03  0.15995249156E+04  0.15007622336E+04 0.  0.
        1    1    3    3  502    0 -0.43061946473E+03 -0.55921369726E+03  0.51144278332E+01  0.70581813522E+03  0.50400001928E-02 0. -1.
       -1    1    3    3    0  502  0.43061946473E+03  0.55921369726E+03  0.54823236552E+03  0.89370678034E+03  0.50400001928E-02 0.  1.
</event>
<event>
 5   0  0.1443750E-04  0.1501370E+04  0.7818609E-02  0.8883542E-01
       -1   -1    0    0    0  501  0.00000000000E+00  0.00000000000E+00  0.29382120350E+03  0.29382120354E+03  0.50400001928E-02 0.  1.
        1   -1    0    0  501    0  0.00000000000E+00  0.00000000000E+00 -0.19179284622E+04  0.19179284622E+04  0.50400001928E-02 0. -1.
    10030    2    1    2    0    0  0.00000000000E+00  0.00000000000E+00 -0.16241072587E+04  0.22117496657E+04  0.15013701063E+04 0.  0.
        2    1    3    3  502    0  0.49031227551E+02  0.35939202114E+03 -0.17802660670E+04  0.18168417530E+04  0.25500000920E-02 0. -1.
       -2    1    3    3    0  502 -0.49031227551E+02 -0.35939202114E+03  0.15615880830E+03  0.39490791275E+03  0.25500000920E-02 0.  1.
</event>
<event>
 5   0  0.2646718E-04  0.1473247E+04  0.7818609E-02  0.8902441E-01
        2   -1    0    0  501    0  0.00000000000E+00  0.00000000000E+00  0.91821418409E+03  0.91821418409E+03  0.25500000920E-02 0. -1.
       -2   -1    0    0    0  501  0.00000000000E+00  0.00000000000E+00 -0.59094509760E+03  0.59094509760E+03  0.25500000920E-02 0.  1.
    10030    2    1    2    0    0  0.00000000000E+00  0.00000000000E+00  0.32726908650E+03  0.15091592817E+04  0.14732469863E+04 0.  0.
        3    1    3    3  502    0 -0.53561790180E+02  0.66900423618E+03  0.47464474525E+03  0.82202383043E+03  0.10100000352E+00 0. -1.
       -3    1    3    3    0  502  0.53561790180E+02 -0.66900423618E+03 -0.14737565875E+03  0.68713545127E+03  0.10100000352E+00 0.  1.
</event>
<event>
 5   0  0.1427609E-04  0.1438464E+04  0.7818609E-02  0.8926437E-01
       -1   -1    0    0    0  501  0.00000000000E+00  0.00000000000E+00  0.49695863148E+03  0.49695863151E+03  0.50400001928E-02 0.  1.
        1   -1    0    0  501    0  0.00000000000E+00  0.00000000000E+00 -0.10409211884E+04  0.10409211885E+04  0.50400001928E-02 0. -1.
    10030    2    1    2    0    0  0.00000000000E+00  0.00000000000E+00 -0.54396255696E+03  0.15378798200E+04  0.14384641383E+04 0.  0.
        4    1    3    3  502    0 -0.22139814193E+03  0.61454171755E+03  0.49845516332E+02  0.65510674569E+03  0.12699999809E+01 0.  1.
       -4    1    3    3    0  502  0.22139814193E+03 -0.61454171755E+03 -0.59380807329E+03  0.88277307427E+03  0.12699999809E+01 0. -1.
</event>
<event>
 5   0  0.1427609E-04  0.1492374E+04  0.7818609E-02  0.8889540E-01
       -1   -1    0    0    0  501  0.00000000000E+00  0.00000000000E+00  0.64947633356E+03  0.64947633358E+03  0.50400001928E-02 0.  1.
        1   -1    0    0  501    0  0.00000000000E+00  0.00000000000E+00 -0.85729800096E+03  0.85729800097E+03  0.50400001928E-02 0. -1.
    10030    2    1    2    0    0  0.00000000000E+00  0.00000000000E+00 -0.20782166740E+03  0.15067743345E+04  0.14923736294E+04 0.  0.
        4    1    3    3  502    0  0.18824845846E+02  0.38401321836E+03 -0.74959147569E+03  0.84244259153E+03  0.12699999809E+01 0. -1.
       -4    1    3    3    0  502 -0.18824845846E+02 -0.38401321836E+03  0.54176980830E+03  0.66433174302E+03  0.12699999809E+01 0.  1.
</event>
<event>
 5   0  0.2618901E-04  0.1498322E+04  0.7818609E-02  0.8885569E-01
       -2   -1    0    0    0  501  0.00000000000E+00  0.00000000000E+00  0.13256678594E+04  0.13256678594E+04  0.25500000920E-02 0. -1.
        2   -1    0    0  501    0  0.00000000000E+00  0.00000000000E+00 -0.42336582464E+03  0.42336582465E+03  0.25500000920E-02 0.  1.
    10030    2    1    2    0    0  0.00000000000E+00  0.00000000000E+00  0.90230203480E+03  0.17490336841E+04  0.14983223505E+04 0.  0.
        1    1    3    3  502    0 -0.19726893703E+03  0.18581616621E+01  0.12948021581E+04  0.13097446755E+04  0.50400001928E-02 0. -1.
       -1    1    3    3    0  502  0.19726893703E+03 -0.18581616621E+01 -0.39250012330E+03  0.43928900862E+03  0.50400001928E-02 0.  1.
</event>
<event>
 5   0  0.2641347E-04  0.1479060E+04  0.7818609E-02  0.8898498E-01
       -2   -1    0    0    0  501  0.00000000000E+00  0.00000000000E+00  0.64930988783E+03  0.64930988784E+03  0.25500000920E-02 0.  1.
        2   -1    0    0  501    0  0.00000000000E+00  0.00000000000E+00 -0.84228616009E+03  0.84228616010E+03  0.25500000920E-02 0. -1.
    10030    2    1    2    0    0  0.00000000000E+00  0.00000000000E+00 -0.19297627226E+03  0.14915960479E+04  0.14790601504E+04 0.  0.
        4    1    3    3  502    0 -0.49253973960E+03 -0.27999037117E+03  0.38284351905E+03  0.68378415894E+03  0.12699999809E+01 0.  1.
       -4    1    3    3    0  502  0.49253973960E+03  0.27999037117E+03 -0.57581979131E+03  0.80781188900E+03  0.12699999809E+01 0. -1.
</event>
<event>
 5   0  0.1484251E-04  0.1499697E+04  0.7818609E-02  0.8884655E-01
       -1   -1    0    0    0  501  0.00000000000E+00  0.00000000000E+00  0.54155213775E+03  0.54155213777E+03  0.50400001928E-02 0. -1.
        1   -1    0    0  501    0  0.00000000000E+00  0.00000000000E+00 -0.10382613164E+04  0.10382613165E+04  0.50400001928E-02 0.  1.
    10030    2    1    2    0    0  0.00000000000E+00  0.00000000000E+00 -0.49670917870E+03  0.15798134542E+04  0.14996968167E+04 0.  0.
        5    1    3    3  502    0  0.31342675046E+03  0.53173266015E+03 -0.69686322673E+03  0.93092233647E+03  0.46999998093E+01 0.  1.
       -5    1    3    3    0  502 -0.31342675046E+03 -0.53173266015E+03  0.20015404803E+03  0.64889111776E+03  0.46999998093E+01 0. -1.
</event>
<event>
 5   0  0.2618901E-04  0.1503373E+04  0.7818609E-02  0.8882213E-01
        2   -1    0    0  501    0  0.00000000000E+00  0.00000000000E+00  0.15267441898E+04  0.15267441898E+04  0.25500000920E-02 0. -1.
       -2   -1    0    0    0  501  0.00000000000E+00  0.00000000000E+00 -0.37008998863E+03  0.37008998864E+03  0.25500000920E-02 0.  1.
    10030    2    1    2    0    0  0.00000000000E+00  0.00000000000E+00  0.11566542012E+04  0.18968341784E+04  0.15033731937E+04 0.  0.
        1    1    3    3  502    0 -0.50698547036E+03  0.53135659419E+03  0.37622100970E+03  0.82517655415E+03  0.50400001928E-02 0.  1.
       -1    1    3    3    0  502  0.50698547036E+03 -0.53135659419E+03  0.78043319146E+03  0.10716576243E+04  0.50400001928E-02 0. -1.
</event>
<event>
 5   0  0.2646718E-04  0.1517778E+04  0.7818609E-02  0.8872716E-01
       -2   -1    0    0    0  501  0.00000000000E+00  0.00000000000E+00  0.17272063843E+04  0.17272063843E+04  0.25500000920E-02 0.  1.
        2   -1    0    0  501    0  0.00000000000E+00  0.00000000000E+00 -0.33343601357E+03  0.33343601358E+03  0.25500000920E-02 0. -1.
    10030    2    1    2    0    0  0.00000000000E+00  0.00000000000E+00  0.13937703707E+04  0.20606423979E+04  0.15177783915E+04 0.  0.
        3    1    3    3  502    0 -0.54464487456E+03  0.18623001910E+03  0.13683393989E+04  0.14844771404E+04  0.10100000352E+00 0.  1.
       -3    1    3    3    0  502  0.54464487456E+03 -0.18623001910E+03  0.25430971757E+02  0.57616525748E+03  0.10100000352E+00 0. -1.
</event>
<event>
 5   0  0.1426929E-04  0.1501371E+04  0.7818609E-02  0.8883542E-01
       -1   -1    0    0    0  501  0.00000000000E+00  0.00000000000E+00  0.48266850922E+03  0.48266850925E+03  0.50400001928E-02 0. -1.
        1   -1    0    0  501    0  0.00000000000E+00  0.00000000000E+00 -0.11675272229E+04  0.11675272229E+04  0.50400001928E-02 0.  1.
    10030    2    1    2    0    0  0.00000000000E+00  0.00000000000E+00 -0.68485871366E+03  0.16501957321E+04  0.15013708725E+04 0.  0.
        1    1    3    3  502    0 -0.45238035807E+03 -0.59642227270E+03 -0.28063238870E+03  0.79945109504E+03  0.50400001928E-02 0.  1.
       -1    1    3    3    0  502  0.45238035807E+03  0.59642227270E+03 -0.40422632496E+03  0.85074463710E+03  0.50400001928E-02 0. -1.
</event>
<event>
 5   0  0.1427609E-04  0.1505028E+04  0.7818609E-02  0.8881116E-01
       -1   -1    0    0    0  501  0.00000000000E+00  0.00000000000E+00  0.48109762529E+03  0.48109762532E+03  0.50400001928E-02 0.  1.
        1   -1    0    0  501    0  0.00000000000E+00  0.00000000000E+00 -0.11770534848E+04  0.11770534848E+04  0.50400001928E-02 0. -1.
    10030    2    1    2    0    0  0.00000000000E+00  0.00000000000E+00 -0.69595585953E+03  0.16581511102E+04  0.15050284202E+04 0.  0.
        4    1    3    3  502    0  0.39518608973E+03  0.24505964840E+03 -0.99982285515E+03  0.11026666003E+04  0.12699999809E+01 0. -1.
       -4    1    3    3    0  502 -0.39518608973E+03 -0.24505964840E+03  0.30386699562E+03  0.55548450988E+03  0.12699999809E+01 0.  1.
</event>
<event>
 5   0  0.1474203E-04  0.1508719E+04  0.7818609E-02  0.8878676E-01
        1   -1    0    0  501    0  0.00000000000E+00  0.00000000000E+00  0.11149847344E+04  0.11149847344E+04  0.50400001928E-02 0. -1.
       -1   -1    0    0    0  501  0.00000000000E+00  0.00000000000E+00 -0.51037288453E+03  0.51037288455E+03  0.50400001928E-02 0.  1.
    10030    2    1    2    0    0  0.00000000000E+00  0.00000000000E+00  0.60461184988E+03  0.16253576190E+04  0.15087186287E+04 0.  0.
        3    1    3    3  502    0 -0.39294208352E+03  0.23570433417E+03  0.94788157619E+03  0.10528245375E+04  0.10100000352E+00 0. -1.
       -3    1    3    3    0  502  0.39294208352E+03 -0.23570433417E+03 -0.34326972631E+03  0.57253308144E+03  0.10100000352E+00 0.  1.
</event>
<event>
 5   0  0.1484251E-04  0.1499302E+04  0.7818609E-02  0.8884917E-01
        1   -1    0    0  501    0  0.00000000000E+00  0.00000000000E+00  0.12179201799E+04  0.12179201799E+04  0.50400001928E-02 0. -1.
       -1   -1    0    0    0  501  0.00000000000E+00  0.00000000000E+00 -0.46142335759E+03  0.46142335762E+03  0.50400001928E-02 0.  1.
    10030    2    1    2    0    0  0.00000000000E+00  0.00000000000E+00  0.75649682232E+03  0.16793435375E+04  0.14993022627E+04 0.  0.
        5    1    3    3  502    0 -0.37626600547E+03  0.63109003219E+03  0.21172100432E+03  0.76465587637E+03  0.46999998093E+01 0.  1.
       -5    1    3    3    0  502  0.37626600547E+03 -0.63109003219E+03  0.54477581800E+03  0.91468766116E+03  0.46999998093E+01 0. -1.
</event>
<event>
 5   0  0.1474203E-04  0.1494524E+04  0.7818609E-02  0.8888102E-01
        1   -1    0    0  501    0  0.00000000000E+00  0.00000000000E+00  0.95038335088E+03  0.95038335090E+03  0.50400001928E-02 0. -1.
       -1   -1    0    0    0  501  0.00000000000E+00  0.00000000000E+00 -0.58755309402E+03  0.58755309405E+03  0.50400001928E-02 0.  1.
    10030    2    1    2    0    0  0.00000000000E+00  0.00000000000E+00  0.36283025686E+03  0.15379364449E+04  0.14945242432E+04 0.  0.
        3    1    3    3  502    0 -0.52209531666E+03 -0.14546901920E+03 -0.34797547099E+03  0.64407429217E+03  0.10100000352E+00 0.  1.
       -3    1    3    3    0  502  0.52209531666E+03  0.14546901920E+03  0.71080572785E+03  0.89386215277E+03  0.10100000352E+00 0. -1.
</event>
<event>
 5   0  0.2641347E-04  0.1497139E+04  0.7818609E-02  0.8886357E-01
        2   -1    0    0  501    0  0.00000000000E+00  0.00000000000E+00  0.14274746748E+04  0.14274746748E+04  0.25500000920E-02 0.  1.
       -2   -1    0    0    0  501  0.00000000000E+00  0.00000000000E+00 -0.39255102309E+03  0.39255102310E+03  0.25500000920E-02 0. -1.
    10030    2    1    2    0    0  0.00000000000E+00  0.00000000000E+00  0.10349236517E+04  0.18200256979E+04  0.14971394645E+04 0.  0.
        4    1    3    3  502    0 -0.40823977300E+03 -0.60790907273E+03  0.70634826890E+03  0.10174196002E+04  0.12699999809E+01 0.  1.
       -4    1    3    3    0  502  0.40823977300E+03  0.60790907273E+03  0.32857538278E+03  0.80260609768E+03  0.12699999809E+01 0. -1.
</event>
<event>
 5   0  0.2618901E-04  0.1493447E+04  0.7818609E-02  0.8888822E-01
        2   -1    0    0  501    0  0.00000000000E+00  0.00000000000E+00  0.16271187730E+04  0.16271187730E+04  0.25500000920E-02 0. -1.
       -2   -1    0    0    0  501  0.00000000000E+00  0.00000000000E+00 -0.34268924563E+03  0.34268924564E+03  0.25500000920E-02 0.  1.
    10030    2    1    2    0    0  0.00000000000E+00  0.00000000000E+00  0.12844295273E+04  0.19698080186E+04  0.14934471599E+04 0.  0.
        1    1    3    3  502    0  0.39813205704E+03  0.62506238864E+03  0.76298479091E+03  0.10636530993E+04  0.50400001928E-02 0. -1.
       -1    1    3    3    0  502 -0.39813205704E+03 -0.62506238864E+03  0.52144473642E+03  0.90615491926E+03  0.50400001928E-02 0.  1.
</event>
<event>
 5   0  0.1443750E-04  0.1496525E+04  0.7818609E-02  0.8886767E-01
        1   -1    0    0  501    0  0.00000000000E+00  0.00000000000E+00  0.84151317298E+03  0.84151317300E+03  0.50400001928E-02 0.  1.
       -1   -1    0    0    0  501  0.00000000000E+00  0.00000000000E+00 -0.66534503590E+03  0.66534503592E+03  0.50400001928E-02 0. -1.
    10030    2    1    2    0    0  0.00000000000E+00  0.00000000000E+00  0.17616813708E+03  0.15068582089E+04  0.14965247907E+04 0.  0.
        2    1    3    3  502    0 -0.21861253380E+03 -0.34877875213E+03  0.71726556767E+03  0.82698727465E+03  0.25500000920E-02 0.  1.
       -2    1    3    3    0  502  0.21861253380E+03  0.34877875213E+03 -0.54109743059E+03  0.67987093427E+03  0.25500000920E-02 0. -1.
</event>
<event>
 5   0  0.2734072E-04  0.1497652E+04  0.7818609E-02  0.8886016E-01
        2   -1    0    0  501    0  0.00000000000E+00  0.00000000000E+00  0.11192137883E+04  0.11192137883E+04  0.25500000920E-02 0. -1.
       -2   -1    0    0    0  501  0.00000000000E+00  0.00000000000E+00 -0.50101245642E+03  0.50101245643E+03  0.25500000920E-02 0.  1.
    10030    2    1    2    0    0  0.00000000000E+00  0.00000000000E+00  0.61820133187E+03  0.16202262447E+04  0.14976515607E+04 0.  0.
        5    1    3    3  502    0 -0.14609894442E+03  0.56692642519E+03  0.81418132329E+03  0.10028278967E+04  0.46999998093E+01 0. -1.
       -5    1    3    3    0  502  0.14609894442E+03 -0.56692642519E+03 -0.19597999143E+03  0.61739834805E+03  0.46999998093E+01 0.  1.
</event>
<event>
 5   0  0.1443750E-04  0.1500352E+04  0.7818609E-02  0.8884219E-01
       -1   -1    0    0    0  501  0.00000000000E+00  0.00000000000E+00  0.59423362938E+03  0.59423362940E+03  0.50400001928E-02 0. -1.
        1   -1    0    0  501    0  0.00000000000E+00  0.00000000000E+00 -0.94704122644E+03  0.94704122645E+03  0.50400001928E-02 0.  1.
    10030    2    1    2    0    0  0.00000000000E+00  0.00000000000E+00 -0.35280759706E+03  0.15412748558E+04  0.15003516190E+04 0.  0.
        2    1    3    3  502    0  0.53818427940E+03  0.48262629980E+03 -0.38235473619E+03  0.81778090474E+03  0.25500000920E-02 0.  1.
       -2    1    3    3    0  502 -0.53818427940E+03 -0.48262629980E+03  0.29547139127E+02  0.72349395111E+03  0.25500000920E-02 0. -1.
</event>
<event>
 5   0  0.2696040E-04  0.1532424E+04  0.7818609E-02  0.8863173E-01
        2   -1    0    0  501    0  0.00000000000E+00  0.00000000000E+00  0.58855744235E+03  0.58855744236E+03  0.25500000920E-02 0.  1.
       -2   -1    0    0    0  501  0.00000000000E+00  0.00000000000E+00 -0.99749062932E+03  0.99749062932E+03  0.25500000920E-02 0. -1.
    10030    2    1    2    0    0  0.00000000000E+00  0.00000000000E+00 -0.40893318697E+03  0.15860480717E+04  0.15324236145E+04 0.  0.
        2    1    3    3  502    0  0.10679920348E+03  0.70485217301E+03 -0.49510971778E+03  0.86796099470E+03  0.25500000920E-02 0. -1.
       -2    1    3    3    0  502 -0.10679920348E+03 -0.70485217301E+03  0.86176530812E+02  0.71808707699E+03  0.25500000920E-02 0.  1.
</event>
<event>
 5   0  0.2646718E-04  0.1504265E+04  0.7818609E-02  0.8881621E-01
        2   -1    0    0  501    0  0.00000000000E+00  0.00000000000E+00  0.10942373526E+04  0.10942373526E+04  0.25500000920E-02 0. -1.
       -2   -1    0    0    0  501  0.00000000000E+00  0.00000000000E+00 -0.51698433334E+03  0.51698433335E+03  0.25500000920E-02 0.  1.
    10030    2    1    2    0    0  0.00000000000E+00  0.00000000000E+00  0.57725301930E+03  0.16112216860E+04  0.15042653599E+04 0.  0.
        3    1    3    3  502    0  0.18235599925E+02  0.12947437356E+03  0.10819707580E+04  0.10898425950E+04  0.10100000352E+00 0. -1.
       -3    1    3    3    0  502 -0.18235599925E+02 -0.12947437356E+03 -0.50471773873E+03  0.52137909097E+03  0.10100000352E+00 0.  1.
</event>
<event>
 5   0  0.1004313E-04  0.1499798E+04  0.7818609E-02  0.8884587E-01
       -3   -1    0    0    0  501  0.00000000000E+00  0.00000000000E+00  0.12397240588E+04  0.12397240630E+04  0.10100000352E+00 0.  1.
        3   -1    0    0  501    0  0.00000000000E+00  0.00000000000E+00 -0.45360800449E+03  0.45360801574E+03  0.10100000352E+00 0. -1.
    10030    2    1    2    0    0  0.00000000000E+00  0.00000000000E+00  0.78611605434E+03  0.16933320787E+04  0.14997983457E+04 0.  0.
        1    1    3    3  502    0 -0.57096986945E+03  0.14050576008E+03  0.91851698662E+03  0.10906062145E+04  0.50400001928E-02 0.  1.
       -1    1    3    3    0  502  0.57096986945E+03 -0.14050576008E+03 -0.13240093228E+03  0.60272586416E+03  0.50400001928E-02 0. -1.
</event>
<event>
 5   0  0.2618901E-04  0.1496088E+04  0.7818609E-02  0.8887059E-01
       -2   -1    0    0    0  501  0.00000000000E+00  0.00000000000E+00  0.67258969374E+03  0.67258969374E+03  0.25500000920E-02 0.  1.
        2   -1    0    0  501    0  0.00000000000E+00  0.00000000000E+00 -0.83196314718E+03  0.83196314719E+03  0.25500000920E-02 0. -1.
    10030    2    1    2    0    0  0.00000000000E+00  0.00000000000E+00 -0.15937345344E+03  0.15045528409E+04  0.14960880166E+04 0.  0.
        1    1    3    3  502    0 -0.96985371723E+02  0.10493441164E+03 -0.81811121439E+03  0.83049584720E+03  0.50400001928E-02 0. -1.
       -1    1    3    3    0  502  0.96985371723E+02 -0.10493441164E+03  0.65873776095E+03  0.67405699373E+03  0.50400001928E-02 0.  1.
</event>
<event>
 5   0  0.2641347E-04  0.1497795E+04  0.7818609E-02  0.8885920E-01
        2   -1    0    0  501    0  0.00000000000E+00  0.00000000000E+00  0.14387736419E+04  0.14387736419E+04  0.25500000920E-02 0. -1.
       -2   -1    0    0    0  501  0.00000000000E+00  0.00000000000E+00 -0.38980959961E+03  0.38980959962E+03  0.25500000920E-02 0.  1.
    10030    2    1    2    0    0  0.00000000000E+00  0.00000000000E+00  0.10489640423E+04  0.18285832415E+04  0.14977954163E+04 0.  0.
        4    1    3    3  502    0 -0.19620147298E+03  0.27604880500E+03 -0.29097638202E+03  0.44650512711E+03  0.12699999809E+01 0.  1.
       -4    1    3    3    0  502  0.19620147298E+03 -0.27604880500E+03  0.13399404243E+04  0.13820781144E+04  0.12699999809E+01 0. -1.
</event>
<event>
 5   0  0.1484251E-04  0.1512749E+04  0.7818609E-02  0.8876019E-01
        1   -1    0    0  501    0  0.00000000000E+00  0.00000000000E+00  0.13214069126E+04  0.13214069126E+04  0.50400001928E-02 0. -1.
       -1   -1    0    0    0  501  0.00000000000E+00  0.00000000000E+00 -0.43294932038E+03  0.43294932041E+03  0.50400001928E-02 0.  1.
    10030    2    1    2    0    0  0.00000000000E+00  0.00000000000E+00  0.88845759218E+03  0.17543562330E+04  0.15127487892E+04 0.  0.
        5    1    3    3  502    0  0.17949065490E+03 -0.36591096069E+03  0.11831518718E+04  0.12513904938E+04  0.46999998093E+01 0. -1.
       -5    1    3    3    0  502 -0.17949065490E+03  0.36591096069E+03 -0.29469427960E+03  0.50296573916E+03  0.46999998093E+01 0.  1.
</event>
<event>
 5   0  0.1443750E-04  0.1496063E+04  0.7818609E-02  0.8887075E-01
       -1   -1    0    0    0  501  0.00000000000E+00  0.00000000000E+00  0.66320313724E+03  0.66320313726E+03  0.50400001928E-02 0. -1.
        1   -1    0    0  501    0  0.00000000000E+00  0.00000000000E+00 -0.84370994239E+03  0.84370994240E+03  0.50400001928E-02 0.  1.
    10030    2    1    2    0    0  0.00000000000E+00  0.00000000000E+00 -0.18050680515E+03  0.15069130797E+04  0.14960629408E+04 0.  0.
        2    1    3    3  502    0  0.52521563875E+03  0.25544034221E+03 -0.56102928699E+03  0.80984881088E+03  0.25500000920E-02 0.  1.
       -2    1    3    3    0  502 -0.52521563875E+03 -0.25544034221E+03  0.38052248185E+03  0.69706426878E+03  0.25500000920E-02 0. -1.
</event>
<event>
 5   0  0.1484251E-04  0.1499006E+04  0.7818609E-02  0.8885114E-01
        1   -1    0    0  501    0  0.00000000000E+00  0.00000000000E+00  0.71757530139E+03  0.71757530141E+03  0.50400001928E-02 0.  1.
       -1   -1    0    0    0  501  0.00000000000E+00  0.00000000000E+00 -0.78285158291E+03  0.78285158292E+03  0.50400001928E-02 0. -1.
    10030    2    1    2    0    0  0.00000000000E+00  0.00000000000E+00 -0.65276281512E+02  0.15004268843E+04  0.14990062849E+04 0.  0.
        5    1    3    3  502    0  0.31031729195E+03 -0.67983614831E+03 -0.89778669971E+02  0.75269934889E+03  0.46999998093E+01 0. -1.
       -5    1    3    3    0  502 -0.31031729195E+03  0.67983614831E+03  0.24502388459E+02  0.74772753545E+03  0.46999998093E+01 0.  1.
</event>
<event>
 5   0  0.2646718E-04  0.1507521E+04  0.7818609E-02  0.8879467E-01
       -2   -1    0    0    0  501  0.00000000000E+00  0.00000000000E+00  0.42987400495E+03  0.42987400496E+03  0.25500000920E-02 0. -1.
        2   -1    0    0  501    0  0.00000000000E+00  0.00000000000E+00 -0.13216785034E+04  0.13216785034E+04  0.25500000920E-02 0.  1.
    10030    2    1    2    0    0  0.00000000000E+00  0.00000000000E+00 -0.89180449844E+03  0.17515525084E+04  0.15075214513E+04 0.  0.
        3    1    3    3  502    0  0.70409956574E+03  0.71653616612E+02 -0.14456450678E+03  0.72234987788E+03  0.10100000352E+00 0. -1.
       -3    1    3    3    0  502 -0.70409956574E+03 -0.71653616612E+02 -0.74723999166E+03  0.10292026305E+04  0.10100000352E+00 0.  1.
</event>
<event>
 5   0  0.2696040E-04  0.1486437E+04  0.7818609E-02  0.8893523E-01
       -2   -1    0    0    0  501  0.00000000000E+00  0.00000000000E+00  0.10260858273E+04  0.10260858273E+04  0.25500000920E-02 0. -1.
        2   -1    0    0  501    0  0.00000000000E+00  0.00000000000E+00 -0.53833077544E+03  0.53833077545E+03  0.25500000920E-02 0.  1.
    10030    2    1    2    0    0  0.00000000000E+00  0.00000000000E+00  0.48775505183E+03  0.15644166027E+04  0.14864367852E+04 0.  0.
        2    1    3    3  502    0 -0.52776297533E+03 -0.22543365426E+03 -0.25314649637E+03  0.62724575665E+03  0.25500000920E-02 0.  1.
       -2    1    3    3    0  502  0.52776297533E+03  0.22543365426E+03  0.74090154821E+03  0.93717084608E+03  0.25500000920E-02 0. -1.
</event>
<event>
 5   0  0.2734072E-04  0.1502203E+04  0.7818609E-02  0.8882989E-01
        2   -1    0    0  501    0  0.00000000000E+00  0.00000000000E+00  0.66986915436E+03  0.66986915436E+03  0.25500000920E-02 0. -1.
       -2   -1    0    0    0  501  0.00000000000E+00  0.00000000000E+00 -0.84218424555E+03  0.84218424555E+03  0.25500000920E-02 0.  1.
    10030    2    1    2    0    0  0.00000000000E+00  0.00000000000E+00 -0.17231509119E+03  0.15120533999E+04  0.15022027139E+04 0.  0.
        5    1    3    3  502    0  0.54729054154E+03 -0.40947205510E+03  0.22723095419E+03  0.72031263859E+03  0.46999998093E+01 0. -1.
       -5    1    3    3    0  502 -0.54729054154E+03  0.40947205510E+03 -0.39954604537E+03  0.79174076133E+03  0.46999998093E+01 0.  1.
</event>
<event>
 5   0  0.1427609E-04  0.1500533E+04  0.7818609E-02  0.8884099E-01
        1   -1    0    0  501    0  0.00000000000E+00  0.00000000000E+00  0.14598759579E+04  0.14598759579E+04  0.50400001928E-02 0.  1.
       -1   -1    0    0    0  501  0.00000000000E+00  0.00000000000E+00 -0.38558045524E+03  0.38558045527E+03  0.50400001928E-02 0. -1.
    10030    2    1    2    0    0  0.00000000000E+00  0.00000000000E+00  0.10742955027E+04  0.18454564132E+04  0.15005327540E+04 0.  0.
        4    1    3    3  502    0  0.33423885723E+03  0.11906790410E+03  0.13501685144E+04  0.13960119662E+04  0.12699999809E+01 0.  1.
       -4    1    3    3    0  502 -0.33423885723E+03 -0.11906790410E+03 -0.27587301173E+03  0.44944444703E+03  0.12699999809E+01 0. -1.
</event>
<event>
 5   0  0.1426929E-04  0.1523049E+04  0.7818609E-02  0.8869269E-01
        1   -1    0    0  501    0  0.00000000000E+00  0.00000000000E+00  0.11494442983E+04  0.11494442983E+04  0.50400001928E-02 0. -1.
       -1   -1    0    0    0  501  0.00000000000E+00  0.00000000000E+00 -0.50452146643E+03  0.50452146646E+03  0.50400001928E-02 0.  1.
    10030    2    1    2    0    0  0.00000000000E+00  0.00000000000E+00  0.64492283183E+03  0.16539657647E+04  0.15230486834E+04 0.  0.
        1    1    3    3  502    0  0.22592705949E+03  0.33751799988E+03 -0.37708211032E+03  0.55421327519E+03  0.50400001928E-02 0.  1.
       -1    1    3    3    0  502 -0.22592705949E+03 -0.33751799988E+03  0.10220049421E+04  0.10997524895E+04  0.50400001928E-02 0. -1.
</event>
<event>
 5   0  0.2696040E-04  0.1508859E+04  0.7818609E-02  0.8878583E-01
       -2   -1    0    0    0  501  0.00000000000E+00  0.00000000000E+00  0.28841308322E+03  0.28841308324E+03  0.25500000920E-02 0. -1.
        2   -1    0    0  501    0  0.00000000000E+00  0.00000000000E+00 -0.19734337120E+04  0.19734337120E+04  0.25500000920E-02 0.  1.
    10030    2    1    2    0    0  0.00000000000E+00  0.00000000000E+00 -0.16850206288E+04  0.22618467953E+04  0.15088593062E+04 0.  0.
        2    1    3    3  502    0  0.12742448501E+03 -0.47876056044E+03  0.10385804197E+02  0.49553661676E+03  0.25500000920E-02 0. -1.
       -2    1    3    3    0  502 -0.12742448501E+03  0.47876056044E+03 -0.16954064330E+04  0.17663101785E+04  0.25500000920E-02 0.  1.
</event>
<event>
 5   0  0.1004313E-04  0.1496568E+04  0.7818609E-02  0.8886738E-01
       -3   -1    0    0    0  501  0.00000000000E+00  0.00000000000E+00  0.14963833540E+04  0.14963833574E+04  0.10100000352E+00 0.  1.
        3   -1    0    0  501    0  0.00000000000E+00  0.00000000000E+00 -0.37418828055E+03  0.37418829418E+03  0.10100000352E+00 0. -1.
    10030    2    1    2    0    0  0.00000000000E+00  0.00000000000E+00  0.11221950734E+04  0.18705716516E+04  0.14965682480E+04 0.  0.
        4    1    3    3  502    0  0.93651822489E+02 -0.58615316743E+03 -0.83739105850E+01  0.59364798898E+03  0.12699999809E+01 0. -1.
       -4    1    3    3    0  502 -0.93651822489E+02  0.58615316743E+03  0.11305689840E+04  0.12769236626E+04  0.12699999809E+01 0.  1.
</event>
<event>
 5   0  0.1427609E-04  0.1502042E+04  0.7818609E-02  0.8883096E-01
       -1   -1    0    0    0  501  0.00000000000E+00  0.00000000000E+00  0.93207565878E+03  0.93207565879E+03  0.50400001928E-02 0.  1.
        1   -1    0    0  501    0  0.00000000000E+00  0.00000000000E+00 -0.60513603216E+03  0.60513603218E+03  0.50400001928E-02 0. -1.
    10030    2    1    2    0    0  0.00000000000E+00  0.00000000000E+00  0.32693962662E+03  0.15372116910E+04  0.15020420312E+04 0.  0.
        4    1    3    3  502    0  0.43340679213E+03  0.36079447977E+02 -0.46314727561E+03  0.63533470379E+03  0.12699999809E+01 0. -1.
       -4    1    3    3    0  502 -0.43340679213E+03 -0.36079447977E+02  0.79008690223E+03  0.90187698718E+03  0.12699999809E+01 0.  1.
</event>
<event>
 5   0  0.2641347E-04  0.1502009E+04  0.7818609E-02  0.8883118E-01
       -2   -1    0    0    0  501  0.00000000000E+00  0.00000000000E+00  0.48620236499E+03  0.48620236499E+03  0.25500000920E-02 0. -1.
        2   -1    0    0  501    0  0.00000000000E+00  0.00000000000E+00 -0.11600270439E+04  0.11600270439E+04  0.25500000920E-02 0.  1.
    10030    2    1    2    0    0  0.00000000000E+00  0.00000000000E+00 -0.67382467896E+03  0.16462294089E+04  0.15020091774E+04 0.  0.
        4    1    3    3  502    0  0.51926127514E+03 -0.50898364362E+02  0.25512354787E+03  0.58078615077E+03  0.12699999809E+01 0. -1.
       -4    1    3    3    0  502 -0.51926127514E+03  0.50898364362E+02 -0.92894822683E+03  0.10654432582E+04  0.12699999809E+01 0.  1.
</event>
<event>
 5   0  0.1484251E-04  0.1501855E+04  0.7818609E-02  0.8883220E-01
        1   -1    0    0  501    0  0.00000000000E+00  0.00000000000E+00  0.15716541106E+04  0.15716541106E+04  0.50400001928E-02 0.  1.
       -1   -1    0    0    0  501  0.00000000000E+00  0.00000000000E+00 -0.35878916152E+03  0.35878916155E+03  0.50400001928E-02 0. -1.
    10030    2    1    2    0    0  0.00000000000E+00  0.00000000000E+00  0.12128649491E+04  0.19304432721E+04  0.15018554665E+04 0.  0.
        5    1    3    3  502    0  0.74920120389E+03 -0.38563555332E+02  0.56417560469E+03  0.93867235745E+03  0.46999998093E+01 0.  1.
       -5    1    3    3    0  502 -0.74920120389E+03  0.38563555332E+02  0.64868934437E+03  0.99177091469E+03  0.46999998093E+01 0. -1.
</event>
<event>
 5   0  0.2646718E-04  0.1605515E+04  0.7818609E-02  0.8817167E-01
       -2   -1    0    0    0  501  0.00000000000E+00  0.00000000000E+00  0.93105492810E+03  0.93105492810E+03  0.25500000920E-02 0. -1.
        2   -1    0    0  501    0  0.00000000000E+00  0.00000000000E+00 -0.69213889233E+03  0.69213889233E+03  0.25500000920E-02 0.  1.
    10030    2    1    2    0    0  0.00000000000E+00  0.00000000000E+00  0.23891603577E+03  0.16231938204E+04  0.16055146547E+04 0.  0.
        3    1    3    3  502    0  0.14940069365E+03  0.70596249419E+03 -0.23614752802E+03  0.75925573798E+03  0.10100000352E+00 0.  1.
       -3    1    3    3    0  502 -0.14940069365E+03 -0.70596249419E+03  0.47506356379E+03  0.86393808245E+03  0.10100000352E+00 0. -1.
</event>
<event>
 5   0  0.2618901E-04  0.1490531E+04  0.7818609E-02  0.8890774E-01
        2   -1    0    0  501    0  0.00000000000E+00  0.00000000000E+00  0.23430591649E+04  0.23430591649E+04  0.25500000920E-02 0.  1.
       -2   -1    0    0    0  501  0.00000000000E+00  0.00000000000E+00 -0.23704943799E+03  0.23704943800E+03  0.25500000920E-02 0. -1.
    10030    2    1    2    0    0  0.00000000000E+00  0.00000000000E+00  0.21060097269E+04  0.25801086029E+04  0.14905312586E+04 0.  0.
        1    1    3    3  502    0  0.60325037597E+03 -0.29689912434E+03  0.49649261294E+03  0.83580202253E+03  0.50400001928E-02 0. -1.
       -1    1    3    3    0  502 -0.60325037597E+03  0.29689912434E+03  0.16095171139E+04  0.17443065803E+04  0.50400001928E-02 0.  1.
</event>
<event>
 5   0  0.1426929E-04  0.1484982E+04  0.7818609E-02  0.8894502E-01
        1   -1    0    0  501    0  0.00000000000E+00  0.00000000000E+00  0.13121447987E+04  0.13121447987E+04  0.50400001928E-02 0. -1.
       -1   -1    0    0    0  501  0.00000000000E+00  0.00000000000E+00 -0.42014640655E+03  0.42014640658E+03  0.50400001928E-02 0.  1.
    10030    2    1    2    0    0  0.00000000000E+00  0.00000000000E+00  0.89199839214E+03  0.17322912053E+04  0.14849820498E+04 0.  0.
        1    1    3    3  502    0  0.35459182217E+03 -0.24517718095E+02 -0.31445297774E+03  0.47457049433E+03  0.50400001928E-02 0.  1.
       -1    1    3    3    0  502 -0.35459182217E+03  0.24517718095E+02  0.12064513699E+04  0.12577207110E+04  0.50400001928E-02 0. -1.
</event>
<event>
 5   0  0.1443750E-04  0.1495679E+04  0.7818609E-02  0.8887331E-01
        1   -1    0    0  501    0  0.00000000000E+00  0.00000000000E+00  0.38578637841E+03  0.38578637844E+03  0.50400001928E-02 0. -1.
       -1   -1    0    0    0  501  0.00000000000E+00  0.00000000000E+00 -0.14496725012E+04  0.14496725012E+04  0.50400001928E-02 0.  1.
    10030    2    1    2    0    0  0.00000000000E+00  0.00000000000E+00 -0.10638861228E+04  0.18354588796E+04  0.14956789818E+04 0.  0.
        2    1    3    3  502    0 -0.48748822783E+03 -0.46947295622E+03 -0.14152746968E+03  0.69143304345E+03  0.25500000920E-02 0.  1.
       -2    1    3    3    0  502  0.48748822783E+03  0.46947295622E+03 -0.92235865309E+03  0.11440258362E+04  0.25500000920E-02 0. -1.
</event>
<event>
 5   0  0.1427609E-04  0.1508053E+04  0.7818609E-02  0.8879115E-01
       -1   -1    0    0    0  501  0.00000000000E+00  0.00000000000E+00  0.58107495246E+03  0.58107495248E+03  0.50400001928E-02 0. -1.
        1   -1    0    0  501    0  0.00000000000E+00  0.00000000000E+00 -0.97845532366E+03  0.97845532368E+03  0.50400001928E-02 0.  1.
    10030    2    1    2    0    0  0.00000000000E+00  0.00000000000E+00 -0.39738037120E+03  0.15595302762E+04  0.15080528913E+04 0.  0.
        4    1    3    3  502    0  0.30022120367E+03 -0.26090947099E+03  0.46376005503E+03  0.61096769532E+03  0.12699999809E+01 0. -1.
       -4    1    3    3    0  502 -0.30022120367E+03  0.26090947099E+03 -0.86114042623E+03  0.94856258084E+03  0.12699999809E+01 0.  1.
</event>
<event>
 5   0  0.1427609E-04  0.1499568E+04  0.7818609E-02  0.8884740E-01
        1   -1    0    0  501    0  0.00000000000E+00  0.00000000000E+00  0.11882517916E+04  0.11882517916E+04  0.50400001928E-02 0. -1.
       -1   -1    0    0    0  501  0.00000000000E+00  0.00000000000E+00 -0.47311219007E+03  0.47311219010E+03  0.50400001928E-02 0.  1.
    10030    2    1    2    0    0  0.00000000000E+00  0.00000000000E+00  0.71513960156E+03  0.16613639817E+04  0.14995684813E+04 0.  0.
        4    1    3    3  502    0  0.12499187938E+03  0.56138517995E+03  0.89051034491E+03  0.10600880046E+04  0.12699999809E+01 0. -1.
       -4    1    3    3    0  502 -0.12499187938E+03 -0.56138517995E+03 -0.17537074335E+03  0.60127597715E+03  0.12699999809E+01 0.  1.
</event>
<event>
 5   0  0.1426929E-04  0.1509020E+04  0.7818609E-02  0.8878477E-01
       -1   -1    0    0    0  501  0.00000000000E+00  0.00000000000E+00  0.29578279236E+03  0.29578279241E+03  0.50400001928E-02 0.  1.
        1   -1    0    0  501    0  0.00000000000E+00  0.00000000000E+00 -0.19246732519E+04  0.19246732519E+04  0.50400001928E-02 0. -1.
    10030    2    1    2    0    0  0.00000000000E+00  0.00000000000E+00 -0.16288904595E+04  0.22204560443E+04  0.15090198526E+04 0.  0.
        1    1    3    3  502    0 -0.29267736747E+03  0.46798246610E+03 -0.57513711929E+02  0.55495536495E+03  0.50400001928E-02 0.  1.
       -1    1    3    3    0  502  0.29267736747E+03 -0.46798246610E+03 -0.15713767476E+04  0.16655006793E+04  0.50400001928E-02 0. -1.
</event>
<event>
 5   0  0.2734072E-04  0.1501671E+04  0.7818609E-02  0.8883342E-01
        2   -1    0    0  501    0  0.00000000000E+00  0.00000000000E+00  0.17614461811E+04  0.17614461811E+04  0.25500000920E-02 0. -1.
       -2   -1    0    0    0  501  0.00000000000E+00  0.00000000000E+00 -0.32005177607E+03  0.32005177608E+03  0.25500000920E-02 0.  1.
    10030    2    1    2    0    0  0.00000000000E+00  0.00000000000E+00  0.14413944050E+04  0.20814979571E+04  0.15016710408E+04 0.  0.
        5    1    3    3  502    0 -0.41881167218E+01  0.69906286687E+03  0.34102788043E+03  0.77783580362E+03  0.46999998093E+01 0. -1.
       -5    1    3    3    0  502  0.41881167218E+01 -0.69906286687E+03  0.11003665246E+04  0.13036621535E+04  0.46999998093E+01 0.  1.
</event>
<event>
 5   0  0.2696040E-04  0.1479158E+04  0.7818609E-02  0.8898432E-01
       -2   -1    0    0    0  501  0.00000000000E+00  0.00000000000E+00  0.49434015982E+03  0.49434015983E+03  0.25500000920E-02 0. -1.
        2   -1    0    0  501    0  0.00000000000E+00  0.00000000000E+00 -0.11064791779E+04  0.11064791779E+04  0.25500000920E-02 0.  1.
    10030    2    1    2    0    0  0.00000000000E+00  0.00000000000E+00 -0.61213901806E+03  0.16008193377E+04  0.14791579951E+04 0.  0.
        2    1    3    3  502    0 -0.43303224455E+03 -0.38680021236E+03  0.18969777104E+03  0.61083268858E+03  0.25500000920E-02 0. -1.
       -2    1    3    3    0  502  0.43303224455E+03  0.38680021236E+03 -0.80183678910E+03  0.98998664913E+03  0.25500000920E-02 0.  1.
</event>
<event>
 5   0  0.1443750E-04  0.1506177E+04  0.7818609E-02  0.8880356E-01
       -1   -1    0    0    0  501  0.00000000000E+00  0.00000000000E+00  0.84412891085E+03  0.84412891087E+03  0.50400001928E-02 0. -1.
        1   -1    0    0  501    0  0.00000000000E+00  0.00000000000E+00 -0.67186708808E+03  0.67186708810E+03  0.50400001928E-02 0.  1.
    10030    2    1    2    0    0  0.00000000000E+00  0.00000000000E+00  0.17226182277E+03  0.15159959990E+04  0.15061771919E+04 0.  0.
        2    1    3    3  502    0  0.90813542223E+02  0.21137017253E+03  0.80789558018E+03  0.84001173669E+03  0.25500000920E-02 0. -1.
       -2    1    3    3    0  502 -0.90813542223E+02 -0.21137017253E+03 -0.63563375741E+03  0.67598426228E+03  0.25500000920E-02 0.  1.
</event>
<event>
 5   0  0.1426929E-04  0.1498695E+04  0.7818609E-02  0.8885321E-01
       -1   -1    0    0    0  501  0.00000000000E+00  0.00000000000E+00  0.31277705814E+03  0.31277705818E+03  0.50400001928E-02 0. -1.
        1   -1    0    0  501    0  0.00000000000E+00  0.00000000000E+00 -0.17952768912E+04  0.17952768912E+04  0.50400001928E-02 0.  1.
    10030    2    1    2    0    0  0.00000000000E+00  0.00000000000E+00 -0.14824998331E+04  0.21080539494E+04  0.14986946649E+04 0.  0.
        1    1    3    3  502    0 -0.29837263960E+03 -0.28835504723E+03 -0.16189309844E+04  0.16712607210E+04  0.50400001928E-02 0.  1.
       -1    1    3    3    0  502  0.29837263960E+03  0.28835504723E+03  0.13643115130E+03  0.43679322842E+03  0.50400001928E-02 0. -1.
</event>
<event>
 5   0  0.1474203E-04  0.1501086E+04  0.7818609E-02  0.8883731E-01
       -1   -1    0    0    0  501  0.00000000000E+00  0.00000000000E+00  0.11211677345E+04  0.11211677345E+04  0.50400001928E-02 0.  1.
        1   -1    0    0  501    0  0.00000000000E+00  0.00000000000E+00 -0.50243592101E+03  0.50243592104E+03  0.50400001928E-02 0. -1.
    10030    2    1    2    0    0  0.00000000000E+00  0.00000000000E+00  0.61873181347E+03  0.16236036555E+04  0.15010861978E+04 0.  0.
        3    1    3    3  502    0 -0.19479346620E+03 -0.70160780256E+03  0.11253222134E+03  0.73679136404E+03  0.10100000352E+00 0. -1.
       -3    1    3    3    0  502  0.19479346620E+03  0.70160780256E+03  0.50619959213E+03  0.88681229150E+03  0.10100000352E+00 0.  1.
</event>
<event>
 5   0  0.1426929E-04  0.1496572E+04  0.7818609E-02  0.8886736E-01
       -1   -1    0    0    0  501  0.00000000000E+00  0.00000000000E+00  0.62264706051E+03  0.62264706053E+03  0.50400001928E-02 0.  1.
        1   -1    0    0  501    0  0.00000000000E+00  0.00000000000E+00 -0.89927660333E+03  0.89927660334E+03  0.50400001928E-02 0. -1.
    10030    2    1    2    0    0  0.00000000000E+00  0.00000000000E+00 -0.27662954282E+03  0.15219236639E+04  0.14965719945E+04 0.  0.
        1    1    3    3  502    0 -0.10813948178E+03 -0.12578562465E+03 -0.88034348007E+03  0.89583526042E+03  0.50400001928E-02 0. -1.
       -1    1    3    3    0  502  0.10813948178E+03  0.12578562465E+03  0.60371393725E+03  0.62608840345E+03  0.50400001928E-02 0.  1.
</event>
<event>
 5   0  0.1427609E-04  0.1494560E+04  0.7818609E-02  0.8888078E-01
       -1   -1    0    0    0  501  0.00000000000E+00  0.00000000000E+00  0.30742672587E+03  0.30742672591E+03  0.50400001928E-02 0. -1.
        1   -1    0    0  501    0  0.00000000000E+00  0.00000000000E+00 -0.18164576015E+04  0.18164576015E+04  0.50400001928E-02 0.  1.
    10030    2    1    2    0    0  0.00000000000E+00  0.00000000000E+00 -0.15090308756E+04  0.21238843274E+04  0.14945602874E+04 0.  0.
        4    1    3    3  502    0  0.14953196434E+03 -0.76016871462E+02  0.28032447095E+03  0.32668301918E+03  0.12699999809E+01 0. -1.
       -4    1    3    3    0  502 -0.14953196434E+03  0.76016871462E+02 -0.17893553466E+04  0.17972013082E+04  0.12699999809E+01 0.  1.
</event>
<event>
 5   0  0.1427609E-04  0.1479455E+04  0.7818609E-02  0.8898231E-01
        1   -1    0    0  501    0  0.00000000000E+00  0.00000000000E+00  0.11881477927E+04  0.11881477927E+04  0.50400001928E-02 0. -1.
       -1   -1    0    0    0  501  0.00000000000E+00  0.00000000000E+00 -0.46054625754E+03  0.46054625756E+03  0.50400001928E-02 0.  1.
    10030    2    1    2    0    0  0.00000000000E+00  0.00000000000E+00  0.72760153516E+03  0.16486940503E+04  0.14794553313E+04 0.  0.
        4    1    3    3  502    0  0.61900747260E+03  0.37323354758E+03  0.53901884484E+03  0.90167425391E+03  0.12699999809E+01 0. -1.
       -4    1    3    3    0  502 -0.61900747260E+03 -0.37323354758E+03  0.18858269032E+03  0.74701979636E+03  0.12699999809E+01 0.  1.
</event>
<event>
 5   0  0.1474203E-04  0.1504776E+04  0.7818609E-02  0.8881283E-01
        1   -1    0    0  501    0  0.00000000000E+00  0.00000000000E+00  0.19226220072E+04  0.19226220073E+04  0.50400001928E-02 0.  1.
       -1   -1    0    0    0  501  0.00000000000E+00  0.00000000000E+00 -0.29443517300E+03  0.29443517305E+03  0.50400001928E-02 0. -1.
    10030    2    1    2    0    0  0.00000000000E+00  0.00000000000E+00  0.16281868342E+04  0.22170571803E+04  0.15047757885E+04 0.  0.
        3    1    3    3  502    0  0.11702998258E+03 -0.39126851353E+03  0.17451048371E+04  0.17922549956E+04  0.10100000352E+00 0.  1.
       -3    1    3    3    0  502 -0.11702998258E+03  0.39126851353E+03 -0.11691800291E+03  0.42480218468E+03  0.10100000352E+00 0. -1.
</event>
<event>
 5   0  0.2696040E-04  0.1499305E+04  0.7818609E-02  0.8884915E-01
       -2   -1    0    0    0  501  0.00000000000E+00  0.00000000000E+00  0.52588068026E+03  0.52588068027E+03  0.25500000920E-02 0. -1.
        2   -1    0    0  501    0  0.00000000000E+00  0.00000000000E+00 -0.10686428803E+04  0.10686428804E+04  0.25500000920E-02 0.  1.
    10030    2    1    2    0    0  0.00000000000E+00  0.00000000000E+00 -0.54276220008E+03  0.15945235606E+04  0.14993046987E+04 0.  0.
        2    1    3    3  502    0  0.46873304188E+03  0.50831658080E+03  0.36636854758E+02  0.69241509949E+03  0.25500000920E-02 0. -1.
       -2    1    3    3    0  502 -0.46873304188E+03 -0.50831658080E+03 -0.57939905484E+03  0.90210846113E+03  0.25500000920E-02 0.  1.
</event>
<event>
 5   0  0.1484251E-04  0.1500246E+04  0.7818609E-02  0.8884289E-01
        1   -1    0    0  501    0  0.00000000000E+00  0.00000000000E+00  0.96666240723E+03  0.96666240724E+03  0.50400001928E-02 0. -1.
       -1   -1    0    0    0  501  0.00000000000E+00  0.00000000000E+00 -0.58209037920E+03  0.58209037922E+03  0.50400001928E-02 0.  1.
    10030    2    1    2    0    0  0.00000000000E+00  0.00000000000E+00  0.38457202803E+03  0.15487527865E+04  0.15002464960E+04 0.  0.
        5    1    3    3  502    0  0.17699075661E+03  0.51354457852E+03  0.72632119192E+03  0.90698309018E+03  0.46999998093E+01 0. -1.
       -5    1    3    3    0  502 -0.17699075661E+03 -0.51354457852E+03 -0.34174916389E+03  0.64176969628E+03  0.46999998093E+01 0.  1.
</event>
<event>
 5   0  0.2618901E-04  0.1486136E+04  0.7818609E-02  0.8893725E-01
        2   -1    0    0  501    0  0.00000000000E+00  0.00000000000E+00  0.87763330336E+03  0.87763330336E+03  0.25500000920E-02 0. -1.
       -2   -1    0    0    0  501  0.00000000000E+00  0.00000000000E+00 -0.62913529814E+03  0.62913529815E+03  0.25500000920E-02 0.  1.
    10030    2    1    2    0    0  0.00000000000E+00  0.00000000000E+00  0.24849800522E+03  0.15067686015E+04  0.14861360503E+04 0.  0.
        1    1    3    3  502    0  0.13019485173E+03 -0.67908867119E+03 -0.15162783274E+03  0.70788637679E+03  0.50400001928E-02 0.  1.
       -1    1    3    3    0  502 -0.13019485173E+03  0.67908867119E+03  0.40012583795E+03  0.79888222472E+03  0.50400001928E-02 0. -1.
</event>
<event>
 5   0  0.1474203E-04  0.1502055E+04  0.7818609E-02  0.8883087E-01
       -1   -1    0    0    0  501  0.00000000000E+00  0.00000000000E+00  0.59973545510E+03  0.59973545512E+03  0.50400001928E-02 0. -1.
        1   -1    0    0  501    0  0.00000000000E+00  0.00000000000E+00 -0.94048529918E+03  0.94048529920E+03  0.50400001928E-02 0.  1.
    10030    2    1    2    0    0  0.00000000000E+00  0.00000000000E+00 -0.34074984408E+03  0.15402207543E+04  0.15020550975E+04 0.  0.
        3    1    3    3  502    0 -0.66095931924E+03  0.25822993079E+03 -0.42257643898E+03  0.82590603329E+03  0.10100000352E+00 0.  1.
       -3    1    3    3    0  502  0.66095931924E+03 -0.25822993079E+03  0.81826594897E+02  0.71431472103E+03  0.10100000352E+00 0. -1.
</event>
<event>
 5   0  0.2618901E-04  0.1495711E+04  0.7818609E-02  0.8887310E-01
        2   -1    0    0  501    0  0.00000000000E+00  0.00000000000E+00  0.58217877288E+03  0.58217877288E+03  0.25500000920E-02 0. -1.
       -2   -1    0    0    0  501  0.00000000000E+00  0.00000000000E+00 -0.96068080680E+03  0.96068080680E+03  0.25500000920E-02 0.  1.
    10030    2    1    2    0    0  0.00000000000E+00  0.00000000000E+00 -0.37850203392E+03  0.15428595797E+04  0.14957111663E+04 0.  0.
        1    1    3    3  502    0 -0.34904480257E+03  0.64371707743E+03 -0.32527410500E+02  0.73298157032E+03  0.50400001928E-02 0. -1.
       -1    1    3    3    0  502  0.34904480257E+03 -0.64371707743E+03 -0.34597462342E+03  0.80987800936E+03  0.50400001928E-02 0.  1.
</event>
<event>
 5   0  0.1426929E-04  0.1501930E+04  0.7818609E-02  0.8883170E-01
        1   -1    0    0  501    0  0.00000000000E+00  0.00000000000E+00  0.87928836906E+03  0.87928836908E+03  0.50400001928E-02 0.  1.
       -1   -1    0    0    0  501  0.00000000000E+00  0.00000000000E+00 -0.64136924064E+03  0.64136924066E+03  0.50400001928E-02 0. -1.
    10030    2    1    2    0    0  0.00000000000E+00  0.00000000000E+00  0.23791912842E+03  0.15206576097E+04  0.15019301097E+04 0.  0.
        1    1    3    3  502    0 -0.21632088288E+03 -0.53507898000E+03 -0.36749386514E+03  0.68421924859E+03  0.50400001928E-02 0. -1.
       -1    1    3    3    0  502  0.21632088288E+03  0.53507898000E+03  0.60541299355E+03  0.83643836115E+03  0.50400001928E-02 0.  1.
</event>
<event>
 5   0  0.2734072E-04  0.1501344E+04  0.7818609E-02  0.8883560E-01
       -2   -1    0    0    0  501  0.00000000000E+00  0.00000000000E+00  0.10724368456E+04  0.10724368456E+04  0.25500000920E-02 0.  1.
        2   -1    0    0  501    0  0.00000000000E+00  0.00000000000E+00 -0.52544665841E+03  0.52544665842E+03  0.25500000920E-02 0. -1.
    10030    2    1    2    0    0  0.00000000000E+00  0.00000000000E+00  0.54699018722E+03  0.15978835041E+04  0.15013438739E+04 0.  0.
        5    1    3    3  502    0  0.77627207820E+02 -0.47071689117E+03 -0.34332827449E+03  0.58778973203E+03  0.46999998093E+01 0. -1.
       -5    1    3    3    0  502 -0.77627207820E+02  0.47071689117E+03  0.89031846171E+03  0.10100937720E+04  0.46999998093E+01 0.  1.
</event>
<event>
 5   0  0.1443750E-04  0.1497689E+04  0.7818609E-02  0.8885991E-01
        1   -1    0    0  501    0  0.00000000000E+00  0.00000000000E+00  0.13414633017E+04  0.13414633017E+04  0.50400001928E-02 0.  1.
       -1   -1    0    0    0  501  0.00000000000E+00  0.00000000000E+00 -0.41802698290E+03  0.41802698293E+03  0.50400001928E-02 0. -1.
    10030    2    1    2    0    0  0.00000000000E+00  0.00000000000E+00  0.92343631878E+03  0.17594902846E+04  0.14976886949E+04 0.  0.
        2    1    3    3  502    0 -0.81454072382E+02  0.21329541659E+03  0.12995749418E+04  0.13194789616E+04  0.25500000920E-02 0.  1.
       -2    1    3    3    0  502  0.81454072382E+02 -0.21329541659E+03 -0.37613862304E+03  0.44001132303E+03  0.25500000920E-02 0. -1.
</event>
<event>
 5   0  0.2646718E-04  0.1492529E+04  0.7818609E-02  0.8889436E-01
        2   -1    0    0  501    0  0.00000000000E+00  0.00000000000E+00  0.10852219214E+04  0.10852219214E+04  0.25500000920E-02 0. -1.
       -2   -1    0    0    0  501  0.00000000000E+00  0.00000000000E+00 -0.51317676902E+03  0.51317676903E+03  0.25500000920E-02 0.  1.
    10030    2    1    2    0    0  0.00000000000E+00  0.00000000000E+00  0.57204515234E+03  0.15983986904E+04  0.14925289669E+04 0.  0.
        3    1    3    3  502    0  0.56510205303E+03  0.15611714881E+03 -0.20846305913E+03  0.62222966155E+03  0.10100000352E+00 0.  1.
       -3    1    3    3    0  502 -0.56510205303E+03 -0.15611714881E+03  0.78050821148E+03  0.97616902884E+03  0.10100000352E+00 0. -1.
</event>
<event>
 5   0  0.2696040E-04  0.1497487E+04  0.7818609E-02  0.8886126E-01
       -2   -1    0    0    0  501  0.00000000000E+00  0.00000000000E+00  0.45557345753E+03  0.45557345754E+03  0.25500000920E-02 0. -1.
        2   -1    0    0  501    0  0.00000000000E+00  0.00000000000E+00 -0.12305732664E+04  0.12305732664E+04  0.25500000920E-02 0.  1.
    10030    2    1    2    0    0  0.00000000000E+00  0.00000000000E+00 -0.77499980882E+03  0.16861467239E+04  0.14974865845E+04 0.  0.
        2    1    3    3  502    0 -0.50605326081E+03  0.34840958430E+03  0.94360140651E+02  0.62159711821E+03  0.25500000920E-02 0. -1.
       -2    1    3    3    0  502  0.50605326081E+03 -0.34840958430E+03 -0.86935994948E+03  0.10645496057E+04  0.25500000920E-02 0.  1.
</event>
<event>
 5   0  0.1004313E-04  0.1503483E+04  0.7818609E-02  0.8882140E-01
        4   -1    0    0  501    0  0.00000000000E+00  0.00000000000E+00  0.88024324270E+03  0.88024415886E+03  0.12699999809E+01 0. -1.
       -4   -1    0    0    0  501  0.00000000000E+00  0.00000000000E+00 -0.64199716974E+03  0.64199842590E+03  0.12699999809E+01 0.  1.
    10030    2    1    2    0    0  0.00000000000E+00  0.00000000000E+00  0.23824607296E+03  0.15222425848E+04  0.15034830546E+04 0.  0.
        5    1    3    3  502    0 -0.19554481782E+03 -0.70340438133E+03 -0.62214275356E+02  0.73274020328E+03  0.46999998093E+01 0.  1.
       -5    1    3    3    0  502  0.19554481782E+03  0.70340438133E+03  0.30046034831E+03  0.78950238148E+03  0.46999998093E+01 0. -1.
</event>
<event>
 5   0  0.2734072E-04  0.1499957E+04  0.7818609E-02  0.8884481E-01
       -2   -1    0    0    0  501  0.00000000000E+00  0.00000000000E+00  0.49450244762E+03  0.49450244763E+03  0.25500000920E-02 0.  1.
        2   -1    0    0  501    0  0.00000000000E+00  0.00000000000E+00 -0.11374422719E+04  0.11374422719E+04  0.25500000920E-02 0. -1.
    10030    2    1    2    0    0  0.00000000000E+00  0.00000000000E+00 -0.64293982423E+03  0.16319447195E+04  0.14999573160E+04 0.  0.
        5    1    3    3  502    0 -0.63517208554E+03 -0.39403058477E+03 -0.38802650091E+03  0.84219376356E+03  0.46999998093E+01 0. -1.
       -5    1    3    3    0  502  0.63517208554E+03  0.39403058477E+03 -0.25491332332E+03  0.78975095592E+03  0.46999998093E+01 0.  1.
</event>
<event>
 5   0  0.2734072E-04  0.1495450E+04  0.7818609E-02  0.8887484E-01
        2   -1    0    0  501    0  0.00000000000E+00  0.00000000000E+00  0.57770661059E+03  0.57770661060E+03  0.25500000920E-02 0. -1.
       -2   -1    0    0    0  501  0.00000000000E+00  0.00000000000E+00 -0.96777977973E+03  0.96777977974E+03  0.25500000920E-02 0.  1.
    10030    2    1    2    0    0  0.00000000000E+00  0.00000000000E+00 -0.39007316914E+03  0.15454863903E+04  0.14954501347E+04 0.  0.
        5    1    3    3  502    0 -0.38750168528E+03  0.16910477049E+03  0.44229574718E+03  0.61188364700E+03  0.46999998093E+01 0. -1.
       -5    1    3    3    0  502  0.38750168528E+03 -0.16910477049E+03 -0.83236891632E+03  0.93360274333E+03  0.46999998093E+01 0.  1.
</event>
<event>
 5   0  0.2646718E-04  0.1499965E+04  0.7818609E-02  0.8884476E-01
       -2   -1    0    0    0  501  0.00000000000E+00  0.00000000000E+00  0.51848030733E+03  0.51848030734E+03  0.25500000920E-02 0.  1.
        2   -1    0    0  501    0  0.00000000000E+00  0.00000000000E+00 -0.10848505832E+04  0.10848505832E+04  0.25500000920E-02 0. -1.
    10030    2    1    2    0    0  0.00000000000E+00  0.00000000000E+00 -0.56637027585E+03  0.16033308905E+04  0.14999648846E+04 0.  0.
        3    1    3    3  502    0 -0.17684420511E+03 -0.15251392285E+03 -0.10449974183E+04  0.10707726108E+04  0.10100000352E+00 0. -1.
       -3    1    3    3    0  502  0.17684420511E+03  0.15251392285E+03  0.47862714249E+03  0.53255827970E+03  0.10100000352E+00 0.  1.
</event>
<event>
 5   0  0.2618901E-04  0.1497759E+04  0.7818609E-02  0.8885944E-01
        2   -1    0    0  501    0  0.00000000000E+00  0.00000000000E+00  0.74795456075E+03  0.74795456075E+03  0.25500000920E-02 0. -1.
       -2   -1    0    0    0  501  0.00000000000E+00  0.00000000000E+00 -0.74980605145E+03  0.74980605145E+03  0.25500000920E-02 0.  1.
    10030    2    1    2    0    0  0.00000000000E+00  0.00000000000E+00 -0.18514907020E+01  0.14977606122E+04  0.14977594678E+04 0.  0.
        1    1    3    3  502    0 -0.51331396259E+03  0.21006940306E+03  0.50226493865E+03  0.74825827554E+03  0.50400001928E-02 0. -1.
       -1    1    3    3    0  502  0.51331396259E+03 -0.21006940306E+03 -0.50411642936E+03  0.74950233666E+03  0.50400001928E-02 0.  1.
</event>
<event>
 5   0  0.1484251E-04  0.1497502E+04  0.7818609E-02  0.8886115E-01
        1   -1    0    0  501    0  0.00000000000E+00  0.00000000000E+00  0.17341766219E+04  0.17341766219E+04  0.50400001928E-02 0. -1.
       -1   -1    0    0    0  501  0.00000000000E+00  0.00000000000E+00 -0.32328219550E+03  0.32328219554E+03  0.50400001928E-02 0.  1.
    10030    2    1    2    0    0  0.00000000000E+00  0.00000000000E+00  0.14108944264E+04  0.20574588174E+04  0.14975024885E+04 0.  0.
        5    1    3    3  502    0 -0.77899502652E+02 -0.38259488188E+03 -0.17231801320E+03  0.42680529967E+03  0.46999998093E+01 0.  1.
       -5    1    3    3    0  502  0.77899502652E+02  0.38259488188E+03  0.15832124396E+04  0.16306535178E+04  0.46999998093E+01 0. -1.
</event>
<event>
 5   0  0.1426929E-04  0.1496698E+04  0.7818609E-02  0.8886652E-01
        1   -1    0    0  501    0  0.00000000000E+00  0.00000000000E+00  0.56516764130E+03  0.56516764132E+03  0.50400001928E-02 0.  1.
       -1   -1    0    0    0  501  0.00000000000E+00  0.00000000000E+00 -0.99090242993E+03  0.99090242995E+03  0.50400001928E-02 0. -1.
    10030    2    1    2    0    0  0.00000000000E+00  0.00000000000E+00 -0.42573478863E+03  0.15560700713E+04  0.14966976837E+04 0.  0.
        1    1    3    3  502    0  0.78063366754E+02  0.46161476662E+03 -0.81984522719E+03  0.94410183697E+03  0.50400001928E-02 0. -1.
       -1    1    3    3    0  502 -0.78063366754E+02 -0.46161476662E+03  0.39411043856E+03  0.61196823430E+03  0.50400001928E-02 0.  1.
</event>
<event>
 5   0  0.1004313E-04  0.1508439E+04  0.7818609E-02  0.8878860E-01
       -3   -1    0    0    0  501  0.00000000000E+00  0.00000000000E+00  0.42350334517E+03  0.42350335722E+03  0.10100000352E+00 0. -1.
        3   -1    0    0  501    0  0.00000000000E+00  0.00000000000E+00 -0.13431945418E+04  0.13431945456E+04  0.10100000352E+00 0.  1.
    10030    2    1    2    0    0  0.00000000000E+00  0.00000000000E+00 -0.91969119663E+03  0.17666979028E+04  0.15084394528E+04 0.  0.
        5    1    3    3  502    0  0.21659325312E+03 -0.79550941328E+02  0.38113167531E+03  0.44556080784E+03  0.46999998093E+01 0. -1.
       -5    1    3    3    0  502 -0.21659325312E+03  0.79550941328E+02 -0.13008228719E+04  0.13211370950E+04  0.46999998093E+01 0.  1.
</event>
<event>
 5   0  0.2696040E-04  0.1498695E+04  0.7818609E-02  0.8885322E-01
       -2   -1    0    0    0  501  0.00000000000E+00  0.00000000000E+00  0.64398562092E+03  0.64398562093E+03  0.25500000920E-02 0. -1.
        2   -1    0    0  501    0  0.00000000000E+00  0.00000000000E+00 -0.87194699662E+03  0.87194699662E+03  0.25500000920E-02 0.  1.
    10030    2    1    2    0    0  0.00000000000E+00  0.00000000000E+00 -0.22796137570E+03  0.15159326175E+04  0.14986945360E+04 0.  0.
        2    1    3    3  502    0 -0.72001289294E+02 -0.17083857942E+03  0.62042228071E+03  0.64752900497E+03  0.25500000920E-02 0. -1.
       -2    1    3    3    0  502  0.72001289294E+02  0.17083857942E+03 -0.84838365640E+03  0.86840361257E+03  0.25500000920E-02 0.  1.
</event>
<event>
 5   0  0.1443750E-04  0.1500835E+04  0.7818609E-02  0.8883898E-01
       -1   -1    0    0    0  501  0.00000000000E+00  0.00000000000E+00  0.53080852857E+03  0.53080852860E+03  0.50400001928E-02 0.  1.
        1   -1    0    0  501    0  0.00000000000E+00  0.00000000000E+00 -0.10608837537E+04  0.10608837538E+04  0.50400001928E-02 0. -1.
    10030    2    1    2    0    0  0.00000000000E+00  0.00000000000E+00 -0.53007522517E+03  0.15916922824E+04  0.15008346269E+04 0.  0.
        2    1    3    3  502    0 -0.56923437870E+03 -0.45014944206E+03 -0.62522467366E+02  0.72840329284E+03  0.25500000920E-02 0. -1.
       -2    1    3    3    0  502  0.56923437870E+03  0.45014944206E+03 -0.46755275780E+03  0.86328898952E+03  0.25500000920E-02 0.  1.
</event>
<event>
 5   0  0.2618901E-04  0.1508119E+04  0.7818609E-02  0.8879072E-01
       -2   -1    0    0    0  501  0.00000000000E+00  0.00000000000E+00  0.84318213088E+03  0.84318213088E+03  0.25500000920E-02 0.  1.
        2   -1    0    0  501    0  0.00000000000E+00  0.00000000000E+00 -0.67435673384E+03  0.67435673385E+03  0.25500000920E-02 0. -1.
    10030    2    1    2    0    0  0.00000000000E+00  0.00000000000E+00  0.16882539704E+03  0.15175388647E+04  0.15081187590E+04 0.  0.
        1    1    3    3  502    0  0.48512989985E+03  0.42552121103E+03 -0.30813456610E+03  0.71509875655E+03  0.50400001928E-02 0. -1.
       -1    1    3    3    0  502 -0.48512989985E+03 -0.42552121103E+03  0.47695996314E+03  0.80244010819E+03  0.50400001928E-02 0.  1.
</event>
<event>
 5   0  0.2734072E-04  0.1429308E+04  0.7818609E-02  0.8932873E-01
        2   -1    0    0  501    0  0.00000000000E+00  0.00000000000E+00  0.10572356006E+04  0.10572356006E+04  0.25500000920E-02 0. -1.
       -2   -1    0    0    0  501  0.00000000000E+00  0.00000000000E+00 -0.48308098866E+03  0.48308098866E+03  0.25500000920E-02 0.  1.
    10030    2    1    2    0    0  0.00000000000E+00  0.00000000000E+00  0.57415461195E+03  0.15403165893E+04  0.14293081112E+04 0.  0.
        5    1    3    3  502    0 -0.58864476416E+02 -0.67580617373E+03  0.44831730566E+02  0.67986100425E+03  0.46999998093E+01 0.  1.
       -5    1    3    3    0  502  0.58864476416E+02  0.67580617373E+03  0.52932288138E+03  0.86045558502E+03  0.46999998093E+01 0. -1.
</event>
<event>
 5   0  0.1004313E-04  0.1491730E+04  0.7818609E-02  0.8889971E-01
       -3   -1    0    0    0  501  0.00000000000E+00  0.00000000000E+00  0.78786357048E+03  0.78786357695E+03  0.10100000352E+00 0.  1.
        3   -1    0    0  501    0  0.00000000000E+00  0.00000000000E+00 -0.70610494990E+03  0.70610495712E+03  0.10100000352E+00 0. -1.
    10030    2    1    2    0    0  0.00000000000E+00  0.00000000000E+00  0.81758620581E+02  0.14939685341E+04  0.14917297037E+04 0.  0.
        5    1    3    3  502    0  0.72800144742E+02 -0.65149362234E+03 -0.31539112964E+03  0.72748708282E+03  0.46999998093E+01 0. -1.
       -5    1    3    3    0  502 -0.72800144742E+02  0.65149362234E+03  0.39714975022E+03  0.76648145126E+03  0.46999998093E+01 0.  1.
</event>
<event>
 5   0  0.1474203E-04  0.1494451E+04  0.7818609E-02  0.8888151E-01
        1   -1    0    0  501    0  0.00000000000E+00  0.00000000000E+00  0.10897450212E+04  0.10897450213E+04  0.50400001928E-02 0. -1.
       -1   -1    0    0    0  501  0.00000000000E+00  0.00000000000E+00 -0.51236412600E+03  0.51236412603E+03  0.50400001928E-02 0.  1.
    10030    2    1    2    0    0  0.00000000000E+00  0.00000000000E+00  0.57738089524E+03  0.16021091473E+04  0.14944514116E+04 0.  0.
        3    1    3    3  502    0  0.55714198242E+03 -0.49618491726E+03  0.24397752420E+03  0.78494057304E+03  0.10100000352E+00 0. -1.
       -3    1    3    3    0  502 -0.55714198242E+03  0.49618491726E+03  0.33340337105E+03  0.81716857424E+03  0.10100000352E+00 0.  1.
</event>
<event>
 5   0  0.1484251E-04  0.1499527E+04  0.7818609E-02  0.8884768E-01
        1   -1    0    0  501    0  0.00000000000E+00  0.00000000000E+00  0.54067438534E+03  0.54067438536E+03  0.50400001928E-02 0.  1.
       -1   -1    0    0    0  501  0.00000000000E+00  0.00000000000E+00 -0.10397111687E+04  0.10397111687E+04  0.50400001928E-02 0. -1.
    10030    2    1    2    0    0  0.00000000000E+00  0.00000000000E+00 -0.49903678338E+03  0.15803855541E+04  0.14995268548E+04 0.  0.
        5    1    3    3  502    0  0.67532504341E+03 -0.16012725908E+03 -0.54839137766E+03  0.88456760423E+03  0.46999998093E+01 0. -1.
       -5    1    3    3    0  502 -0.67532504341E+03  0.16012725908E+03  0.49354594286E+02  0.69581794985E+03  0.46999998093E+01 0.  1.
</event>
<event>
 5   0  0.2618901E-04  0.1490415E+04  0.7818609E-02  0.8890852E-01
       -2   -1    0    0    0  501  0.00000000000E+00  0.00000000000E+00  0.60013447265E+03  0.60013447265E+03  0.25500000920E-02 0.  1.
        2   -1    0    0  501    0  0.00000000000E+00  0.00000000000E+00 -0.92534914586E+03  0.92534914586E+03  0.25500000920E-02 0. -1.
    10030    2    1    2    0    0  0.00000000000E+00  0.00000000000E+00 -0.32521467321E+03  0.15254836185E+04  0.14904146023E+04 0.  0.
        1    1    3    3  502    0 -0.13167395493E+03  0.20117694117E+03 -0.88455771960E+03  0.91665290672E+03  0.50400001928E-02 0. -1.
       -1    1    3    3    0  502  0.13167395493E+03 -0.20117694117E+03  0.55934304639E+03  0.60883071180E+03  0.50400001928E-02 0.  1.
</event>
<event>
 5   0  0.2641347E-04  0.1506475E+04  0.7818609E-02  0.8880159E-01
       -2   -1    0    0    0  501  0.00000000000E+00  0.00000000000E+00  0.45797438995E+03  0.45797438995E+03  0.25500000920E-02 0.  1.
        2   -1    0    0  501    0  0.00000000000E+00  0.00000000000E+00 -0.12388605888E+04  0.12388605888E+04  0.25500000920E-02 0. -1.
    10030    2    1    2    0    0  0.00000000000E+00  0.00000000000E+00 -0.78088619889E+03  0.16968349788E+04  0.15064745898E+04 0.  0.
        4    1    3    3  502    0 -0.55341440901E+03  0.19213121330E+03  0.14286605342E+03  0.60298775556E+03  0.12699999809E+01 0. -1.
       -4    1    3    3    0  502  0.55341440901E+03 -0.19213121330E+03 -0.92375225231E+03  0.10938472232E+04  0.12699999809E+01 0.  1.
</event>
<event>
 5   0  0.1004313E-04  0.1529999E+04  0.7818609E-02  0.8864745E-01
        4   -1    0    0  501    0  0.00000000000E+00  0.00000000000E+00  0.47367071808E+03  0.47367242063E+03  0.12699999809E+01 0. -1.
       -4   -1    0    0    0  501  0.00000000000E+00  0.00000000000E+00 -0.12355041936E+04  0.12355048463E+04  0.12699999809E+01 0.  1.
    10030    2    1    2    0    0  0.00000000000E+00  0.00000000000E+00 -0.76183347551E+03  0.17091772670E+04  0.15299989168E+04 0.  0.
        1    1    3    3  502    0 -0.49535202008E+03 -0.31456580647E+03  0.16737713645E+03  0.61019699788E+03  0.50400001928E-02 0. -1.
       -1    1    3    3    0  502  0.49535202008E+03  0.31456580647E+03 -0.92921061196E+03  0.10989802691E+04  0.50400001928E-02 0.  1.
</event>
<event>
 5   0  0.1427609E-04  0.1499649E+04  0.7818609E-02  0.8884687E-01
       -1   -1    0    0    0  501  0.00000000000E+00  0.00000000000E+00  0.41465111315E+03  0.41465111318E+03  0.50400001928E-02 0. -1.
        1   -1    0    0  501    0  0.00000000000E+00  0.00000000000E+00 -0.13559266177E+04  0.13559266177E+04  0.50400001928E-02 0.  1.
    10030    2    1    2    0    0  0.00000000000E+00  0.00000000000E+00 -0.94127550457E+03  0.17705777309E+04  0.14996486007E+04 0.  0.
        4    1    3    3  502    0 -0.42233663970E+03 -0.61628785745E+03 -0.39544611512E+03  0.84531544605E+03  0.12699999809E+01 0. -1.
       -4    1    3    3    0  502  0.42233663970E+03  0.61628785745E+03 -0.54582938945E+03  0.92526228485E+03  0.12699999809E+01 0.  1.
</event>
<event>
 5   0  0.2646718E-04  0.1499589E+04  0.7818609E-02  0.8884726E-01
       -2   -1    0    0    0  501  0.00000000000E+00  0.00000000000E+00  0.67859973350E+03  0.67859973351E+03  0.25500000920E-02 0.  1.
        2   -1    0    0  501    0  0.00000000000E+00  0.00000000000E+00 -0.82845831691E+03  0.82845831691E+03  0.25500000920E-02 0. -1.
    10030    2    1    2    0    0  0.00000000000E+00  0.00000000000E+00 -0.14985858340E+03  0.15070580504E+04  0.14995887344E+04 0.  0.
        3    1    3    3  502    0 -0.15306039520E+03 -0.36877235666E+03  0.56287426128E+03  0.69010722343E+03  0.10100000352E+00 0.  1.
       -3    1    3    3    0  502  0.15306039520E+03  0.36877235666E+03 -0.71273284469E+03  0.81695082699E+03  0.10100000352E+00 0. -1.
</event>
<event>
 5   0  0.1426929E-04  0.1506346E+04  0.7818609E-02  0.8880244E-01
       -1   -1    0    0    0  501  0.00000000000E+00  0.00000000000E+00  0.70717177058E+03  0.70717177060E+03  0.50400001928E-02 0.  1.
        1   -1    0    0  501    0  0.00000000000E+00  0.00000000000E+00 -0.80216669468E+03  0.80216669469E+03  0.50400001928E-02 0. -1.
    10030    2    1    2    0    0  0.00000000000E+00  0.00000000000E+00 -0.94994924096E+02  0.15093384653E+04  0.15063460981E+04 0.  0.
        1    1    3    3  502    0  0.34534616897E+03  0.22049353009E+03  0.58572968509E+03  0.71481510704E+03  0.50400001928E-02 0.  1.
       -1    1    3    3    0  502 -0.34534616897E+03 -0.22049353009E+03 -0.68072460918E+03  0.79452335825E+03  0.50400001928E-02 0. -1.
</event>
<event>
 5   0  0.2646718E-04  0.1492488E+04  0.7818609E-02  0.8889463E-01
       -2   -1    0    0    0  501  0.00000000000E+00  0.00000000000E+00  0.23652194454E+03  0.23652194455E+03  0.25500000920E-02 0.  1.
        2   -1    0    0  501    0  0.00000000000E+00  0.00000000000E+00 -0.23544558174E+04  0.23544558174E+04  0.25500000920E-02 0. -1.
    10030    2    1    2    0    0  0.00000000000E+00  0.00000000000E+00 -0.21179338729E+04  0.25909777620E+04  0.14924884834E+04 0.  0.
        3    1    3    3  502    0  0.70259871435E+03 -0.18620523953E+03 -0.76557007123E+03  0.10556585096E+04  0.10100000352E+00 0. -1.
       -3    1    3    3    0  502 -0.70259871435E+03  0.18620523953E+03 -0.13523638017E+04  0.15353192524E+04  0.10100000352E+00 0.  1.
</event>
<event>
 5   0  0.1443750E-04  0.1494874E+04  0.7818609E-02  0.8887869E-01
       -1   -1    0    0    0  501  0.00000000000E+00  0.00000000000E+00  0.59426973193E+03  0.59426973195E+03  0.50400001928E-02 0.  1.
        1   -1    0    0  501    0  0.00000000000E+00  0.00000000000E+00 -0.94008116715E+03  0.94008116717E+03  0.50400001928E-02 0. -1.
    10030    2    1    2    0    0  0.00000000000E+00  0.00000000000E+00 -0.34581143522E+03  0.15343508991E+04  0.14948736177E+04 0.  0.
        2    1    3    3  502    0 -0.47327300902E+02  0.37668320682E+03 -0.83374990384E+03  0.91611626657E+03  0.25500000920E-02 0. -1.
       -2    1    3    3    0  502  0.47327300902E+02 -0.37668320682E+03  0.48793846862E+03  0.61823463255E+03  0.25500000920E-02 0.  1.
</event>
<event>
 5   0  0.2618901E-04  0.1500537E+04  0.7818609E-02  0.8884096E-01
        2   -1    0    0  501    0  0.00000000000E+00  0.00000000000E+00  0.20911040373E+04  0.20911040373E+04  0.25500000920E-02 0. -1.
       -2   -1    0    0    0  501  0.00000000000E+00  0.00000000000E+00 -0.26918931827E+03  0.26918931828E+03  0.25500000920E-02 0.  1.
    10030    2    1    2    0    0  0.00000000000E+00  0.00000000000E+00  0.18219147190E+04  0.23602933556E+04  0.15005370642E+04 0.  0.
        1    1    3    3  502    0  0.45876436624E+03  0.43822234429E+03  0.28098644958E+03  0.69387099063E+03  0.50400001928E-02 0.  1.
       -1    1    3    3    0  502 -0.45876436624E+03 -0.43822234429E+03  0.15409282694E+04  0.16664223649E+04  0.50400001928E-02 0. -1.
</event>
<event>
 5   0  0.2696040E-04  0.1498158E+04  0.7818609E-02  0.8885679E-01
       -2   -1    0    0    0  501  0.00000000000E+00  0.00000000000E+00  0.64061446803E+03  0.64061446803E+03  0.25500000920E-02 0. -1.
        2   -1    0    0  501    0  0.00000000000E+00  0.00000000000E+00 -0.87590824769E+03  0.87590824769E+03  0.25500000920E-02 0.  1.
    10030    2    1    2    0    0  0.00000000000E+00  0.00000000000E+00 -0.23529377966E+03  0.15165227157E+04  0.14981581974E+04 0.  0.
        2    1    3    3  502    0  0.68197865903E+03  0.29456098524E+03 -0.21504710940E+03  0.77337334106E+03  0.25500000920E-02 0. -1.
       -2    1    3    3    0  502 -0.68197865903E+03 -0.29456098524E+03 -0.20246670262E+02  0.74314937466E+03  0.25500000920E-02 0.  1.
</event>
<event>
 5   0  0.1004313E-04  0.1507948E+04  0.7818609E-02  0.8879184E-01
        3   -1    0    0  501    0  0.00000000000E+00  0.00000000000E+00  0.69857969337E+03  0.69857970067E+03  0.10100000352E+00 0. -1.
       -3   -1    0    0    0  501  0.00000000000E+00  0.00000000000E+00 -0.81376125559E+03  0.81376126185E+03  0.10100000352E+00 0.  1.
    10030    2    1    2    0    0  0.00000000000E+00  0.00000000000E+00 -0.11518156222E+03  0.15123409625E+04  0.15079484058E+04 0.  0.
        2    1    3    3  502    0  0.29553848784E+03  0.34037847823E+03  0.54855090718E+03  0.71000605914E+03  0.25500000920E-02 0. -1.
       -2    1    3    3    0  502 -0.29553848784E+03 -0.34037847823E+03 -0.66373246940E+03  0.80233490338E+03  0.25500000920E-02 0.  1.
</event>
<event>
 5   0  0.1427609E-04  0.1502211E+04  0.7818609E-02  0.8882984E-01
       -1   -1    0    0    0  501  0.00000000000E+00  0.00000000000E+00  0.10259854542E+04  0.10259854542E+04  0.50400001928E-02 0. -1.
        1   -1    0    0  501    0  0.00000000000E+00  0.00000000000E+00 -0.54987087128E+03  0.54987087131E+03  0.50400001928E-02 0.  1.
    10030    2    1    2    0    0  0.00000000000E+00  0.00000000000E+00  0.47611458290E+03  0.15758563255E+04  0.15022110579E+04 0.  0.
        4    1    3    3  502    0  0.51079056107E+03 -0.53651485490E+03  0.36824929716E+03  0.82726316524E+03  0.12699999809E+01 0. -1.
       -4    1    3    3    0  502 -0.51079056107E+03  0.53651485490E+03  0.10786528574E+03  0.74859316025E+03  0.12699999809E+01 0.  1.
</event>
<event>
 5   0  0.1004313E-04  0.1498802E+04  0.7818609E-02  0.8885250E-01
        3   -1    0    0  501    0  0.00000000000E+00  0.00000000000E+00  0.11062410227E+04  0.11062410273E+04  0.10100000352E+00 0.  1.
       -3   -1    0    0    0  501  0.00000000000E+00  0.00000000000E+00 -0.50766712062E+03  0.50766713067E+03  0.10100000352E+00 0. -1.
    10030    2    1    2    0    0  0.00000000000E+00  0.00000000000E+00  0.59857390208E+03  0.16139081580E+04  0.14988024640E+04 0.  0.
        3    1    3    3  502    0  0.22041699802E+03  0.17875041141E+03 -0.44756948283E+03  0.52995642723E+03  0.10100000352E+00 0. -1.
       -3    1    3    3    0  502 -0.22041699802E+03 -0.17875041141E+03  0.10461433849E+04  0.10839517308E+04  0.10100000352E+00 0.  1.
</event>
<event>
 5   0  0.2641347E-04  0.1497862E+04  0.7818609E-02  0.8885876E-01
       -2   -1    0    0    0  501  0.00000000000E+00  0.00000000000E+00  0.56331491820E+03  0.56331491821E+03  0.25500000920E-02 0.  1.
        2   -1    0    0  501    0  0.00000000000E+00  0.00000000000E+00 -0.99570935757E+03  0.99570935757E+03  0.25500000920E-02 0. -1.
    10030    2    1    2    0    0  0.00000000000E+00  0.00000000000E+00 -0.43239443937E+03  0.15590242758E+04  0.14978623906E+04 0.  0.
        4    1    3    3  502    0 -0.37375188482E+03 -0.47864983197E+03  0.23999183161E+03  0.65298838060E+03  0.12699999809E+01 0.  1.
       -4    1    3    3    0  502  0.37375188482E+03  0.47864983197E+03 -0.67238627098E+03  0.90603589518E+03  0.12699999809E+01 0. -1.
</event>
<event>
 5   0  0.2734072E-04  0.1498972E+04  0.7818609E-02  0.8885137E-01
        2   -1    0    0  501    0  0.00000000000E+00  0.00000000000E+00  0.17502720331E+04  0.17502720331E+04  0.25500000920E-02 0. -1.
       -2   -1    0    0    0  501  0.00000000000E+00  0.00000000000E+00 -0.32093823190E+03  0.32093823191E+03  0.25500000920E-02 0.  1.
    10030    2    1    2    0    0  0.00000000000E+00  0.00000000000E+00  0.14293338012E+04  0.20712102651E+04  0.14989719299E+04 0.  0.
        5    1    3    3  502    0  0.29541913725E+03  0.50426697313E+03  0.13629870456E+04  0.14830082344E+04  0.46999998093E+01 0. -1.
       -5    1    3    3    0  502 -0.29541913725E+03 -0.50426697313E+03  0.66346755592E+02  0.58820203061E+03  0.46999998093E+01 0.  1.
</event>
<event>
 5   0  0.1426929E-04  0.1494126E+04  0.7818609E-02  0.8888368E-01
        1   -1    0    0  501    0  0.00000000000E+00  0.00000000000E+00  0.18138486391E+04  0.18138486391E+04  0.50400001928E-02 0. -1.
       -1   -1    0    0    0  501  0.00000000000E+00  0.00000000000E+00 -0.30769017826E+03  0.30769017830E+03  0.50400001928E-02 0.  1.
    10030    2    1    2    0    0  0.00000000000E+00  0.00000000000E+00  0.15061584608E+04  0.21215388174E+04  0.14941263817E+04 0.  0.
        1    1    3    3  502    0 -0.48327022815E+03  0.56957721852E+03  0.73657577057E+03  0.10490529954E+04  0.50400001928E-02 0. -1.
       -1    1    3    3    0  502  0.48327022815E+03 -0.56957721852E+03  0.76958269023E+03  0.10724858220E+04  0.50400001928E-02 0.  1.
</event>
<event>
 5   0  0.2641347E-04  0.1499775E+04  0.7818609E-02  0.8884603E-01
       -2   -1    0    0    0  501  0.00000000000E+00  0.00000000000E+00  0.62178285697E+03  0.62178285697E+03  0.25500000920E-02 0.  1.
        2   -1    0    0  501    0  0.00000000000E+00  0.00000000000E+00 -0.90438470586E+03  0.90438470587E+03  0.25500000920E-02 0. -1.
    10030    2    1    2    0    0  0.00000000000E+00  0.00000000000E+00 -0.28260184889E+03  0.15261675628E+04  0.14997745247E+04 0.  0.
        4    1    3    3  502    0  0.74704984943E+03  0.56969530119E+02 -0.17348483904E+03  0.76904330643E+03  0.12699999809E+01 0. -1.
       -4    1    3    3    0  502 -0.74704984943E+03 -0.56969530119E+02 -0.10911700986E+03  0.75712425641E+03  0.12699999809E+01 0.  1.
</event>
<event>
 5   0  0.1004313E-04  0.1500523E+04  0.7818609E-02  0.8884105E-01
        3   -1    0    0  501    0  0.00000000000E+00  0.00000000000E+00  0.34161287845E+03  0.34161289338E+03  0.10100000352E+00 0. -1.
       -3   -1    0    0    0  501  0.00000000000E+00  0.00000000000E+00 -0.16477486223E+04  0.16477486254E+04  0.10100000352E+00 0.  1.
    10030    2    1    2    0    0  0.00000000000E+00  0.00000000000E+00 -0.13061357439E+04  0.19893615188E+04  0.15005227992E+04 0.  0.
        1    1    3    3  502    0 -0.14185552973E+03  0.19792140036E+03  0.28776477233E+03  0.37696742069E+03  0.50400001928E-02 0. -1.
       -1    1    3    3    0  502  0.14185552973E+03 -0.19792140036E+03 -0.15939005162E+04  0.16123940981E+04  0.50400001928E-02 0.  1.
</event>
<event>
 5   0  0.1474203E-04  0.1499965E+04  0.7818609E-02  0.8884476E-01
        1   -1    0    0  501    0  0.00000000000E+00  0.00000000000E+00  0.46188418943E+03  0.46188418946E+03  0.50400001928E-02 0.  1.
       -1   -1    0    0    0  501  0.00000000000E+00  0.00000000000E+00 -0.12177814629E+04  0.12177814629E+04  0.50400001928E-02 0. -1.
    10030    2    1    2    0    0  0.00000000000E+00  0.00000000000E+00 -0.75589727346E+03  0.16796656524E+04  0.14999653382E+04 0.  0.
        3    1    3    3  502    0 -0.46597971421E+03 -0.52783104492E+03 -0.88676655087E+02  0.70965221440E+03  0.10100000352E+00 0.  1.
       -3    1    3    3    0  502  0.46597971421E+03  0.52783104492E+03 -0.66722061837E+03  0.97001343796E+03  0.10100000352E+00 0. -1.
</event>
<event>
 5   0  0.1443750E-04  0.1502281E+04  0.7818609E-02  0.8882938E-01
        1   -1    0    0  501    0  0.00000000000E+00  0.00000000000E+00  0.71249131482E+03  0.71249131484E+03  0.50400001928E-02 0. -1.
       -1   -1    0    0    0  501  0.00000000000E+00  0.00000000000E+00 -0.79188586993E+03  0.79188586994E+03  0.50400001928E-02 0.  1.
    10030    2    1    2    0    0  0.00000000000E+00  0.00000000000E+00 -0.79394555105E+02  0.15043771848E+04  0.15022806724E+04 0.  0.
        2    1    3    3  502    0  0.45284286876E+03 -0.26383602813E+03  0.49913885697E+03  0.72375113960E+03  0.25500000920E-02 0. -1.
       -2    1    3    3    0  502 -0.45284286876E+03  0.26383602813E+03 -0.57853341207E+03  0.78062604518E+03  0.25500000920E-02 0.  1.
</event>
<event>
 5   0  0.1443750E-04  0.1494787E+04  0.7818609E-02  0.8887927E-01
       -1   -1    0    0    0  501  0.00000000000E+00  0.00000000000E+00  0.66803056619E+03  0.66803056621E+03  0.50400001928E-02 0.  1.
        1   -1    0    0  501    0  0.00000000000E+00  0.00000000000E+00 -0.83618476069E+03  0.83618476071E+03  0.50400001928E-02 0. -1.
    10030    2    1    2    0    0  0.00000000000E+00  0.00000000000E+00 -0.16815419451E+03  0.15042153269E+04  0.14947869134E+04 0.  0.
        2    1    3    3  502    0  0.33562692281E+03  0.64172382215E+03  0.10186414804E+03  0.73132154343E+03  0.25500000920E-02 0. -1.
       -2    1    3    3    0  502 -0.33562692281E+03 -0.64172382215E+03 -0.27001834254E+03  0.77289378348E+03  0.25500000920E-02 0.  1.
</event>
<event>
 5   0  0.1426929E-04  0.1485867E+04  0.7818609E-02  0.8893906E-01
       -1   -1    0    0    0  501  0.00000000000E+00  0.00000000000E+00  0.91383283048E+03  0.91383283050E+03  0.50400001928E-02 0. -1.
        1   -1    0    0  501    0  0.00000000000E+00  0.00000000000E+00 -0.60399466533E+03  0.60399466535E+03  0.50400001928E-02 0.  1.
    10030    2    1    2    0    0  0.00000000000E+00  0.00000000000E+00  0.30983816516E+03  0.15178274958E+04  0.14858669586E+04 0.  0.
        1    1    3    3  502    0  0.24536494746E+03 -0.25320110842E+03 -0.51308530208E+03  0.62255223555E+03  0.50400001928E-02 0.  1.
       -1    1    3    3    0  502 -0.24536494746E+03  0.25320110842E+03  0.82292346724E+03  0.89527526030E+03  0.50400001928E-02 0. -1.
</event>
<event>
 5   0  0.1484251E-04  0.1501238E+04  0.7818609E-02  0.8883630E-01
        1   -1    0    0  501    0  0.00000000000E+00  0.00000000000E+00  0.10302092674E+04  0.10302092674E+04  0.50400001928E-02 0. -1.
       -1   -1    0    0    0  501  0.00000000000E+00  0.00000000000E+00 -0.54690710821E+03  0.54690710824E+03  0.50400001928E-02 0.  1.
    10030    2    1    2    0    0  0.00000000000E+00  0.00000000000E+00  0.48330215917E+03  0.15771163756E+04  0.15012378510E+04 0.  0.
        5    1    3    3  502    0 -0.56857162471E+03  0.44262565621E+03  0.20748091357E+02  0.72086318900E+03  0.46999998093E+01 0.  1.
       -5    1    3    3    0  502  0.56857162471E+03 -0.44262565621E+03  0.46255406781E+03  0.85625318663E+03  0.46999998093E+01 0. -1.
</event>
<event>
 5   0  0.1443750E-04  0.1496641E+04  0.7818609E-02  0.8886690E-01
        1   -1    0    0  501    0  0.00000000000E+00  0.00000000000E+00  0.13574176775E+04  0.13574176775E+04  0.50400001928E-02 0. -1.
       -1   -1    0    0    0  501  0.00000000000E+00  0.00000000000E+00 -0.41253595193E+03  0.41253595196E+03  0.50400001928E-02 0.  1.
    10030    2    1    2    0    0  0.00000000000E+00  0.00000000000E+00  0.94488172556E+03  0.17699536295E+04  0.14966410308E+04 0.  0.
        2    1    3    3  502    0  0.55997027138E+03 -0.13972621241E+03  0.10357609580E+04  0.11857026952E+04  0.25500000920E-02 0. -1.
       -2    1    3    3    0  502 -0.55997027138E+03  0.13972621241E+03 -0.90879232461E+02  0.58425093425E+03  0.25500000920E-02 0.  1.
</event>
<event>
 5   0  0.2641347E-04  0.1498386E+04  0.7818609E-02  0.8885527E-01
       -2   -1    0    0    0  501  0.00000000000E+00  0.00000000000E+00  0.62367092539E+03  0.62367092539E+03  0.25500000920E-02 0. -1.
        2   -1    0    0  501    0  0.00000000000E+00  0.00000000000E+00 -0.89997793169E+03  0.89997793169E+03  0.25500000920E-02 0.  1.
    10030    2    1    2    0    0  0.00000000000E+00  0.00000000000E+00 -0.27630700630E+03  0.15236488571E+04  0.14983858909E+04 0.  0.
        4    1    3    3  502    0 -0.12900905408E+03 -0.54779903115E+03  0.36471579316E+03  0.67063129754E+03  0.12699999809E+01 0. -1.
       -4    1    3    3    0  502  0.12900905408E+03  0.54779903115E+03 -0.64102279946E+03  0.85301755954E+03  0.12699999809E+01 0.  1.
</event>
<event>
 5   0  0.2641347E-04  0.1501106E+04  0.7818609E-02  0.8883718E-01
        2   -1    0    0  501    0  0.00000000000E+00  0.00000000000E+00  0.10600964254E+04  0.10600964254E+04  0.25500000920E-02 0.  1.
       -2   -1    0    0    0  501  0.00000000000E+00  0.00000000000E+00 -0.53139499865E+03  0.53139499865E+03  0.25500000920E-02 0. -1.
    10030    2    1    2    0    0  0.00000000000E+00  0.00000000000E+00  0.52870142672E+03  0.15914914240E+04  0.15011061768E+04 0.  0.
        4    1    3    3  502    0 -0.34264929902E+03  0.28898350000E+03  0.90260239914E+03  0.10077761206E+04  0.12699999809E+01 0.  1.
       -4    1    3    3    0  502  0.34264929902E+03 -0.28898350000E+03 -0.37390097242E+03  0.58371530344E+03  0.12699999809E+01 0. -1.
</event>
<event>
 5   0  0.2618901E-04  0.1496474E+04  0.7818609E-02  0.8886801E-01
        2   -1    0    0  501    0  0.00000000000E+00  0.00000000000E+00  0.18902709305E+04  0.18902709305E+04  0.25500000920E-02 0.  1.
       -2   -1    0    0    0  501  0.00000000000E+00  0.00000000000E+00 -0.29617920047E+03  0.29617920048E+03  0.25500000920E-02 0. -1.
    10030    2    1    2    0    0  0.00000000000E+00  0.00000000000E+00  0.15940917300E+04  0.21864501310E+04  0.14964744340E+04 0.  0.
        1    1    3    3  502    0 -0.10901430888E+03 -0.15637528231E+03  0.18541981933E+04  0.18639711073E+04  0.50400001928E-02 0.  1.
       -1    1    3    3    0  502  0.10901430888E+03  0.15637528231E+03 -0.26010646331E+03  0.32247902372E+03  0.50400001928E-02 0. -1.
</event>
<event>
 5   0  0.1427609E-04  0.1497801E+04  0.7818609E-02  0.8885916E-01
        1   -1    0    0  501    0  0.00000000000E+00  0.00000000000E+00  0.54213484947E+03  0.54213484950E+03  0.50400001928E-02 0. -1.
       -1   -1    0    0    0  501  0.00000000000E+00  0.00000000000E+00 -0.10345249288E+04  0.10345249288E+04  0.50400001928E-02 0.  1.
    10030    2    1    2    0    0  0.00000000000E+00  0.00000000000E+00 -0.49239007928E+03  0.15766597783E+04  0.14978010770E+04 0.  0.
        4    1    3    3  502    0  0.49454804119E+03 -0.43619937685E+03  0.12746258492E+03  0.67163679534E+03  0.12699999809E+01 0. -1.
       -4    1    3    3    0  502 -0.49454804119E+03  0.43619937685E+03 -0.61985266420E+03  0.90502298292E+03  0.12699999809E+01 0.  1.
</event>
<event>
 5   0  0.1427609E-04  0.1563956E+04  0.7818609E-02  0.8843002E-01
        1   -1    0    0  501    0  0.00000000000E+00  0.00000000000E+00  0.64580764455E+03  0.64580764457E+03  0.50400001928E-02 0. -1.
       -1   -1    0    0    0  501  0.00000000000E+00  0.00000000000E+00 -0.94686068732E+03  0.94686068734E+03  0.50400001928E-02 0.  1.
    10030    2    1    2    0    0  0.00000000000E+00  0.00000000000E+00 -0.30105304277E+03  0.15926683319E+04  0.15639563552E+04 0.  0.
        4    1    3    3  502    0 -0.35140397779E+03  0.43671710874E+03  0.40471863742E+03  0.69137932935E+03  0.12699999809E+01 0. -1.
       -4    1    3    3    0  502  0.35140397779E+03 -0.43671710874E+03 -0.70577168019E+03  0.90128900256E+03  0.12699999809E+01 0.  1.
</event>
<event>
 5   0  0.2734072E-04  0.1502590E+04  0.7818609E-02  0.8882732E-01
       -2   -1    0    0    0  501  0.00000000000E+00  0.00000000000E+00  0.52739665660E+03  0.52739665661E+03  0.25500000920E-02 0.  1.
        2   -1    0    0  501    0  0.00000000000E+00  0.00000000000E+00 -0.10702464922E+04  0.10702464922E+04  0.25500000920E-02 0. -1.
    10030    2    1    2    0    0  0.00000000000E+00  0.00000000000E+00 -0.54284983564E+03  0.15976431488E+04  0.15025903257E+04 0.  0.
        5    1    3    3  502    0 -0.66649334024E+02 -0.59130227263E+03  0.21621809646E+03  0.63312942324E+03  0.46999998093E+01 0.  1.
       -5    1    3    3    0  502  0.66649334024E+02  0.59130227263E+03 -0.75906793210E+03  0.96451372561E+03  0.46999998093E+01 0. -1.
</event>
<event>
 5   0  0.1484251E-04  0.1501337E+04  0.7818609E-02  0.8883564E-01
        1   -1    0    0  501    0  0.00000000000E+00  0.00000000000E+00  0.12048924751E+04  0.12048924751E+04  0.50400001928E-02 0. -1.
       -1   -1    0    0    0  501  0.00000000000E+00  0.00000000000E+00 -0.46767938793E+03  0.46767938795E+03  0.50400001928E-02 0.  1.
    10030    2    1    2    0    0  0.00000000000E+00  0.00000000000E+00  0.73721308715E+03  0.16725718630E+04  0.15013372377E+04 0.  0.
        5    1    3    3  502    0  0.59958713208E+03  0.35483775647E+03  0.67987814819E+03  0.97348392322E+03  0.46999998093E+01 0. -1.
       -5    1    3    3    0  502 -0.59958713208E+03 -0.35483775647E+03  0.57334938958E+02  0.69908793982E+03  0.46999998093E+01 0.  1.
</event>
<event>
 5   0  0.1484251E-04  0.1494938E+04  0.7818609E-02  0.8887826E-01
        1   -1    0    0  501    0  0.00000000000E+00  0.00000000000E+00  0.94847215886E+03  0.94847215888E+03  0.50400001928E-02 0.  1.
       -1   -1    0    0    0  501  0.00000000000E+00  0.00000000000E+00 -0.58906301029E+03  0.58906301032E+03  0.50400001928E-02 0. -1.
    10030    2    1    2    0    0  0.00000000000E+00  0.00000000000E+00  0.35940914857E+03  0.15375351692E+04  0.14949379453E+04 0.  0.
        5    1    3    3  502    0 -0.36881197105E+03  0.28948469084E+03 -0.41900290791E+03  0.62881569879E+03  0.46999998093E+01 0. -1.
       -5    1    3    3    0  502  0.36881197105E+03 -0.28948469084E+03  0.77841205648E+03  0.90871947040E+03  0.46999998093E+01 0.  1.
</event>
<event>
 5   0  0.2696040E-04  0.1501465E+04  0.7818609E-02  0.8883479E-01
       -2   -1    0    0    0  501  0.00000000000E+00  0.00000000000E+00  0.48548262693E+03  0.48548262693E+03  0.25500000920E-02 0.  1.
        2   -1    0    0  501    0  0.00000000000E+00  0.00000000000E+00 -0.11609057073E+04  0.11609057073E+04  0.25500000920E-02 0. -1.
    10030    2    1    2    0    0  0.00000000000E+00  0.00000000000E+00 -0.67542308038E+03  0.16463883342E+04  0.15014653541E+04 0.  0.
        2    1    3    3  502    0 -0.50723757419E+03  0.53899728405E+03 -0.19991796122E+03  0.76666499862E+03  0.25500000920E-02 0.  1.
       -2    1    3    3    0  502  0.50723757419E+03 -0.53899728405E+03 -0.47550511916E+03  0.87972333562E+03  0.25500000920E-02 0. -1.
</event>
<event>
 5   0  0.1474203E-04  0.1492023E+04  0.7818609E-02  0.8889775E-01
       -1   -1    0    0    0  501  0.00000000000E+00  0.00000000000E+00  0.77356171405E+03  0.77356171407E+03  0.50400001928E-02 0. -1.
        1   -1    0    0  501    0  0.00000000000E+00  0.00000000000E+00 -0.71944215879E+03  0.71944215880E+03  0.50400001928E-02 0.  1.
    10030    2    1    2    0    0  0.00000000000E+00  0.00000000000E+00  0.54119555262E+02  0.14930038729E+04  0.14920226668E+04 0.  0.
        3    1    3    3  502    0 -0.13817976880E+03  0.58130477013E+03  0.47403464184E+03  0.76270422586E+03  0.10100000352E+00 0. -1.
       -3    1    3    3    0  502  0.13817976880E+03 -0.58130477013E+03 -0.41991508658E+03  0.73029964701E+03  0.10100000352E+00 0.  1.
</event>
<event>
 5   0  0.2646718E-04  0.1490994E+04  0.7818609E-02  0.8890464E-01
        2   -1    0    0  501    0  0.00000000000E+00  0.00000000000E+00  0.77467608866E+03  0.77467608866E+03  0.25500000920E-02 0.  1.
       -2   -1    0    0    0  501  0.00000000000E+00  0.00000000000E+00 -0.71741729549E+03  0.71741729550E+03  0.25500000920E-02 0. -1.
    10030    2    1    2    0    0  0.00000000000E+00  0.00000000000E+00  0.57258793165E+02  0.14920933842E+04  0.14909943319E+04 0.  0.
        3    1    3    3  502    0 -0.69747947612E+03 -0.24927426071E+03 -0.55994970120E+02  0.74279924848E+03  0.10100000352E+00 0. -1.
       -3    1    3    3    0  502  0.69747947612E+03  0.24927426071E+03  0.11325376328E+03  0.74929413568E+03  0.10100000352E+00 0.  1.
</event>
<event>
 5   0  0.1004313E-04  0.1497286E+04  0.7818609E-02  0.8886260E-01
       -3   -1    0    0    0  501  0.00000000000E+00  0.00000000000E+00  0.55406988144E+03  0.55406989065E+03  0.10100000352E+00 0.  1.
        3   -1    0    0  501    0  0.00000000000E+00  0.00000000000E+00 -0.10115438066E+04  0.10115438117E+04  0.10100000352E+00 0. -1.
    10030    2    1    2    0    0  0.00000000000E+00  0.00000000000E+00 -0.45747392521E+03  0.15656137023E+04  0.14972855014E+04 0.  0.
        3    1    3    3  502    0 -0.21226492998E+03 -0.29110630518E+02 -0.97880196860E+03  0.10019766131E+04  0.10100000352E+00 0. -1.
       -3    1    3    3    0  502  0.21226492998E+03  0.29110630518E+02  0.52132804340E+03  0.56363708922E+03  0.10100000352E+00 0.  1.
</event>
<event>
 5   0  0.2641347E-04  0.1482049E+04  0.7818609E-02  0.8896479E-01
        2   -1    0    0  501    0  0.00000000000E+00  0.00000000000E+00  0.10915717298E+04  0.10915717298E+04  0.25500000920E-02 0. -1.
       -2   -1    0    0    0  501  0.00000000000E+00  0.00000000000E+00 -0.50305179219E+03  0.50305179220E+03  0.25500000920E-02 0.  1.
    10030    2    1    2    0    0  0.00000000000E+00  0.00000000000E+00  0.58851993761E+03  0.15946235220E+04  0.14820487374E+04 0.  0.
        4    1    3    3  502    0  0.42472606183E+03  0.36142783581E+03  0.81927189725E+03  0.99107535668E+03  0.12699999809E+01 0. -1.
       -4    1    3    3    0  502 -0.42472606183E+03 -0.36142783581E+03 -0.23075195963E+03  0.60354816533E+03  0.12699999809E+01 0.  1.
</event>
<event>
 5   0  0.2641347E-04  0.1496022E+04  0.7818609E-02  0.8887103E-01
       -2   -1    0    0    0  501  0.00000000000E+00  0.00000000000E+00  0.37928391230E+03  0.37928391231E+03  0.25500000920E-02 0. -1.
        2   -1    0    0  501    0  0.00000000000E+00  0.00000000000E+00 -0.14752015743E+04  0.14752015743E+04  0.25500000920E-02 0.  1.
    10030    2    1    2    0    0  0.00000000000E+00  0.00000000000E+00 -0.10959176620E+04  0.18544854866E+04  0.14960216904E+04 0.  0.
        4    1    3    3  502    0  0.63904861468E+03  0.37223794343E+03 -0.68696339724E+03  0.10093882011E+04  0.12699999809E+01 0.  1.
       -4    1    3    3    0  502 -0.63904861468E+03 -0.37223794343E+03 -0.40895426477E+03  0.84509728554E+03  0.12699999809E+01 0. -1.
</event>
<event>
 5   0  0.1443750E-04  0.1500460E+04  0.7818609E-02  0.8884147E-01
        1   -1    0    0  501    0  0.00000000000E+00  0.00000000000E+00  0.15289217363E+04  0.15289217363E+04  0.50400001928E-02 0.  1.
       -1   -1    0    0    0  501  0.00000000000E+00  0.00000000000E+00 -0.36813196499E+03  0.36813196502E+03  0.50400001928E-02 0. -1.
    10030    2    1    2    0    0  0.00000000000E+00  0.00000000000E+00  0.11607897713E+04  0.18970537013E+04  0.15004598803E+04 0.  0.
        2    1    3    3  502    0 -0.40707429913E+03  0.62726735181E+03  0.50379005569E+03  0.90165305737E+03  0.25500000920E-02 0.  1.
       -2    1    3    3    0  502  0.40707429913E+03 -0.62726735181E+03  0.65699971561E+03  0.99540064395E+03  0.25500000920E-02 0. -1.
</event>
<event>
 5   0  0.2618901E-04  0.1511298E+04  0.7818609E-02  0.8876974E-01
       -2   -1    0    0    0  501  0.00000000000E+00  0.00000000000E+00  0.39054488413E+03  0.39054488414E+03  0.25500000920E-02 0. -1.
        2   -1    0    0  501    0  0.00000000000E+00  0.00000000000E+00 -0.14620745263E+04  0.14620745263E+04  0.25500000920E-02 0.  1.
    10030    2    1    2    0    0  0.00000000000E+00  0.00000000000E+00 -0.10715296421E+04  0.18526194104E+04  0.15112984172E+04 0.  0.
        1    1    3    3  502    0 -0.21190601036E+03 -0.35093589113E+03  0.24237774883E+03  0.47624272179E+03  0.50400001928E-02 0. -1.
       -1    1    3    3    0  502  0.21190601036E+03  0.35093589113E+03 -0.13139073910E+04  0.13763766886E+04  0.50400001928E-02 0.  1.
</event>
<event>
 5   0  0.1426929E-04  0.1483949E+04  0.7818609E-02  0.8895197E-01
       -1   -1    0    0    0  501  0.00000000000E+00  0.00000000000E+00  0.46692415056E+03  0.46692415058E+03  0.50400001928E-02 0. -1.
        1   -1    0    0  501    0  0.00000000000E+00  0.00000000000E+00 -0.11790483814E+04  0.11790483815E+04  0.50400001928E-02 0.  1.
    10030    2    1    2    0    0  0.00000000000E+00  0.00000000000E+00 -0.71212423089E+03  0.16459725320E+04  0.14839490072E+04 0.  0.
        1    1    3    3  502    0  0.33830824202E+03 -0.53688229228E+03  0.70405946396E+02  0.63847635797E+03  0.50400001928E-02 0. -1.
       -1    1    3    3    0  502 -0.33830824202E+03  0.53688229228E+03 -0.78253017728E+03  0.10074961741E+04  0.50400001928E-02 0.  1.
</event>
<event>
 5   0  0.1484251E-04  0.1486975E+04  0.7818609E-02  0.8893161E-01
        1   -1    0    0  501    0  0.00000000000E+00  0.00000000000E+00  0.64411865397E+03  0.64411865399E+03  0.50400001928E-02 0.  1.
       -1   -1    0    0    0  501  0.00000000000E+00  0.00000000000E+00 -0.85818563733E+03  0.85818563735E+03  0.50400001928E-02 0. -1.
    10030    2    1    2    0    0  0.00000000000E+00  0.00000000000E+00 -0.21406698336E+03  0.15023042913E+04  0.14869746166E+04 0.  0.
        5    1    3    3  502    0 -0.60236963091E+03  0.36029567548E+03  0.14062450342E+03  0.71586275708E+03  0.46999998093E+01 0.  1.
       -5    1    3    3    0  502  0.60236963091E+03 -0.36029567548E+03 -0.35469148678E+03  0.78644153426E+03  0.46999998093E+01 0. -1.
</event>
<event>
 5   0  0.2618901E-04  0.1498260E+04  0.7818609E-02  0.8885611E-01
       -2   -1    0    0    0  501  0.00000000000E+00  0.00000000000E+00  0.49951419831E+03  0.49951419831E+03  0.25500000920E-02 0. -1.
        2   -1    0    0  501    0  0.00000000000E+00  0.00000000000E+00 -0.11234832736E+04  0.11234832736E+04  0.25500000920E-02 0.  1.
    10030    2    1    2    0    0  0.00000000000E+00  0.00000000000E+00 -0.62396907527E+03  0.16229974719E+04  0.14982601199E+04 0.  0.
        1    1    3    3  502    0  0.23446619246E+03 -0.52416423875E+03 -0.83315653998E+03  0.10118657839E+04  0.50400001928E-02 0.  1.
       -1    1    3    3    0  502 -0.23446619246E+03  0.52416423875E+03  0.20918746471E+03  0.61113168794E+03  0.50400001928E-02 0. -1.
</event>
<event>
 5   0  0.1484251E-04  0.1499167E+04  0.7818609E-02  0.8885007E-01
       -1   -1    0    0    0  501  0.00000000000E+00  0.00000000000E+00  0.16350954868E+04  0.16350954868E+04  0.50400001928E-02 0.  1.
        1   -1    0    0  501    0  0.00000000000E+00  0.00000000000E+00 -0.34363446070E+03  0.34363446074E+03  0.50400001928E-02 0. -1.
    10030    2    1    2    0    0  0.00000000000E+00  0.00000000000E+00  0.12914610261E+04  0.19787299475E+04  0.14991666430E+04 0.  0.
        5    1    3    3  502    0  0.72417207677E+03 -0.20834479445E+02  0.39186655290E+03  0.82367515295E+03  0.46999998093E+01 0. -1.
       -5    1    3    3    0  502 -0.72417207677E+03  0.20834479445E+02  0.89959447317E+03  0.11550547946E+04  0.46999998093E+01 0.  1.
</event>
<event>
 5   0  0.1474203E-04  0.1497647E+04  0.7818609E-02  0.8886019E-01
        1   -1    0    0  501    0  0.00000000000E+00  0.00000000000E+00  0.10029564914E+04  0.10029564914E+04  0.50400001928E-02 0. -1.
       -1   -1    0    0    0  501  0.00000000000E+00  0.00000000000E+00 -0.55908366035E+03  0.55908366037E+03  0.50400001928E-02 0.  1.
    10030    2    1    2    0    0  0.00000000000E+00  0.00000000000E+00  0.44387283108E+03  0.15620401518E+04  0.14976469363E+04 0.  0.
        3    1    3    3  502    0 -0.47362370383E+03  0.46623253999E+03  0.58179942138E+03  0.88327955433E+03  0.10100000352E+00 0.  1.
       -3    1    3    3    0  502  0.47362370383E+03 -0.46623253999E+03 -0.13792659030E+03  0.67876059748E+03  0.10100000352E+00 0. -1.
</event>
<event>
 5   0  0.1427609E-04  0.1502541E+04  0.7818609E-02  0.8882765E-01
        1   -1    0    0  501    0  0.00000000000E+00  0.00000000000E+00  0.63262183301E+03  0.63262183303E+03  0.50400001928E-02 0. -1.
       -1   -1    0    0    0  501  0.00000000000E+00  0.00000000000E+00 -0.89217126228E+03  0.89217126229E+03  0.50400001928E-02 0.  1.
    10030    2    1    2    0    0  0.00000000000E+00  0.00000000000E+00 -0.25954942927E+03  0.15247930953E+04  0.15025405410E+04 0.  0.
        4    1    3    3  502    0  0.73749520185E+02  0.44787282306E+03 -0.73728605361E+03  0.86580678856E+03  0.12699999809E+01 0.  1.
       -4    1    3    3    0  502 -0.73749520185E+02 -0.44787282306E+03  0.47773662435E+03  0.65898630677E+03  0.12699999809E+01 0. -1.
</event>
<event>
 5   0  0.2734072E-04  0.1496943E+04  0.7818609E-02  0.8886489E-01
       -2   -1    0    0    0  501  0.00000000000E+00  0.00000000000E+00  0.10295972674E+04  0.10295972674E+04  0.25500000920E-02 0. -1.
        2   -1    0    0  501    0  0.00000000000E+00  0.00000000000E+00 -0.54410526759E+03  0.54410526759E+03  0.25500000920E-02 0.  1.
    10030    2    1    2    0    0  0.00000000000E+00  0.00000000000E+00  0.48549199978E+03  0.15737025350E+04  0.14969426130E+04 0.  0.
        5    1    3    3  502    0  0.14758086962E+03 -0.58360044744E+03 -0.22482758659E+03  0.64260339948E+03  0.46999998093E+01 0.  1.
       -5    1    3    3    0  502 -0.14758086962E+03  0.58360044744E+03  0.71031958638E+03  0.93109913549E+03  0.46999998093E+01 0. -1.
</event>
<event>
 5   0  0.2618901E-04  0.1497796E+04  0.7818609E-02  0.8885920E-01
        2   -1    0    0  501    0  0.00000000000E+00  0.00000000000E+00  0.32551087383E+03  0.32551087384E+03  0.25500000920E-02 0. -1.
       -2   -1    0    0    0  501  0.00000000000E+00  0.00000000000E+00 -0.17229786962E+04  0.17229786962E+04  0.25500000920E-02 0.  1.
    10030    2    1    2    0    0  0.00000000000E+00  0.00000000000E+00 -0.13974678224E+04  0.20484895701E+04  0.14977961157E+04 0.  0.
        1    1    3    3  502    0  0.12619656933E+03  0.33146995489E+03 -0.16008259316E+04  0.16396467816E+04  0.50400001928E-02 0.  1.
       -1    1    3    3    0  502 -0.12619656933E+03 -0.33146995489E+03  0.20335810919E+03  0.40884278849E+03  0.50400001928E-02 0. -1.
</event>
<event>
 5   0  0.1443750E-04  0.1511397E+04  0.7818609E-02  0.8876909E-01
        1   -1    0    0  501    0  0.00000000000E+00  0.00000000000E+00  0.82642762438E+03  0.82642762439E+03  0.50400001928E-02 0.  1.
       -1   -1    0    0    0  501  0.00000000000E+00  0.00000000000E+00 -0.69102243653E+03  0.69102243655E+03  0.50400001928E-02 0. -1.
    10030    2    1    2    0    0  0.00000000000E+00  0.00000000000E+00  0.13540518784E+03  0.15174500609E+04  0.15113967456E+04 0.  0.
        2    1    3    3  502    0 -0.52360857550E+03 -0.44953359712E+03 -0.24148148636E+03  0.73113589950E+03  0.25500000920E-02 0. -1.
       -2    1    3    3    0  502  0.52360857550E+03  0.44953359712E+03  0.37688667421E+03  0.78631416144E+03  0.25500000920E-02 0.  1.
</event>
<event>
 5   0  0.1484251E-04  0.1500762E+04  0.7818609E-02  0.8883946E-01
       -1   -1    0    0    0  501  0.00000000000E+00  0.00000000000E+00  0.94002588009E+03  0.94002588010E+03  0.50400001928E-02 0.  1.
        1   -1    0    0  501    0  0.00000000000E+00  0.00000000000E+00 -0.59899606324E+03  0.59899606326E+03  0.50400001928E-02 0. -1.
    10030    2    1    2    0    0  0.00000000000E+00  0.00000000000E+00  0.34102981685E+03  0.15390219434E+04  0.15007622084E+04 0.  0.
        5    1    3    3  502    0  0.42405698163E+03  0.42271053381E+03 -0.29327716175E+03  0.66673990631E+03  0.46999998093E+01 0. -1.
       -5    1    3    3    0  502 -0.42405698163E+03 -0.42271053381E+03  0.63430697860E+03  0.87228203705E+03  0.46999998093E+01 0.  1.
</event>
<event>
 5   0  0.2646718E-04  0.1501883E+04  0.7818609E-02  0.8883202E-01
       -2   -1    0    0    0  501  0.00000000000E+00  0.00000000000E+00  0.25965678824E+03  0.25965678826E+03  0.25500000920E-02 0.  1.
        2   -1    0    0  501    0  0.00000000000E+00  0.00000000000E+00 -0.21717626414E+04  0.21717626414E+04  0.25500000920E-02 0. -1.
    10030    2    1    2    0    0  0.00000000000E+00  0.00000000000E+00 -0.19121058531E+04  0.24314194296E+04  0.15018827015E+04 0.  0.
        3    1    3    3  502    0  0.12316173018E+02  0.74203619993E+03 -0.11416534727E+04  0.13616688555E+04  0.10100000352E+00 0. -1.
       -3    1    3    3    0  502 -0.12316173018E+02 -0.74203619993E+03 -0.77045238044E+03  0.10697505741E+04  0.10100000352E+00 0.  1.
</event>
<event>
 5   0  0.2618901E-04  0.1499375E+04  0.7818609E-02  0.8884868E-01
        2   -1    0    0  501    0  0.00000000000E+00  0.00000000000E+00  0.88522113055E+03  0.88522113055E+03  0.25500000920E-02 0. -1.
       -2   -1    0    0    0  501  0.00000000000E+00  0.00000000000E+00 -0.63490527801E+03  0.63490527802E+03  0.25500000920E-02 0.  1.
    10030    2    1    2    0    0  0.00000000000E+00  0.00000000000E+00  0.25031585254E+03  0.15201264086E+04  0.14993752939E+04 0.  0.
        1    1    3    3  502    0  0.40288813435E+02 -0.27518436962E+03  0.83098412310E+03  0.87629004253E+03  0.50400001928E-02 0. -1.
       -1    1    3    3    0  502 -0.40288813435E+02  0.27518436962E+03 -0.58066827056E+03  0.64383636604E+03  0.50400001928E-02 0.  1.
</event>
<event>
 5   0  0.1484251E-04  0.1502541E+04  0.7818609E-02  0.8882765E-01
       -1   -1    0    0    0  501  0.00000000000E+00  0.00000000000E+00  0.10518193030E+04  0.10518193031E+04  0.50400001928E-02 0. -1.
        1   -1    0    0  501    0  0.00000000000E+00  0.00000000000E+00 -0.53660086895E+03  0.53660086898E+03  0.50400001928E-02 0.  1.
    10030    2    1    2    0    0  0.00000000000E+00  0.00000000000E+00  0.51521843409E+03  0.15884201720E+04  0.15025407176E+04 0.  0.
        5    1    3    3  502    0  0.47064904727E+03 -0.28091946379E+03  0.80074349087E+03  0.97038059492E+03  0.46999998093E+01 0. -1.
       -5    1    3    3    0  502 -0.47064904727E+03  0.28091946379E+03 -0.28552505678E+03  0.61803957711E+03  0.46999998093E+01 0.  1.
</event>
<event>
 5   0  0.1443750E-04  0.1506034E+04  0.7818609E-02  0.8880450E-01
       -1   -1    0    0    0  501  0.00000000000E+00  0.00000000000E+00  0.10759931454E+04  0.10759931454E+04  0.50400001928E-02 0. -1.
        1   -1    0    0  501    0  0.00000000000E+00  0.00000000000E+00 -0.52698739631E+03  0.52698739633E+03  0.50400001928E-02 0.  1.
    10030    2    1    2    0    0  0.00000000000E+00  0.00000000000E+00  0.54900574908E+03  0.16029805417E+04  0.15060342973E+04 0.  0.
        2    1    3    3  502    0 -0.12291686313E+03  0.19023183987E+02  0.10649839876E+04  0.10722226125E+04  0.25500000920E-02 0. -1.
       -2    1    3    3    0  502  0.12291686313E+03 -0.19023183987E+02 -0.51597823857E+03  0.53075792924E+03  0.25500000920E-02 0.  1.
</event>
<event>
 5   0  0.1484251E-04  0.1501017E+04  0.7818609E-02  0.8883777E-01
        1   -1    0    0  501    0  0.00000000000E+00  0.00000000000E+00  0.92290295269E+03  0.92290295270E+03  0.50400001928E-02 0.  1.
       -1   -1    0    0    0  501  0.00000000000E+00  0.00000000000E+00 -0.61031649796E+03  0.61031649799E+03  0.50400001928E-02 0. -1.
    10030    2    1    2    0    0  0.00000000000E+00  0.00000000000E+00  0.31258645472E+03  0.15332194507E+04  0.15010168528E+04 0.  0.
        5    1    3    3  502    0 -0.10119893902E+03 -0.52214416702E+03  0.69714802952E+03  0.87687697055E+03  0.46999998093E+01 0.  1.
       -5    1    3    3    0  502  0.10119893902E+03  0.52214416702E+03 -0.38456157480E+03  0.65634248013E+03  0.46999998093E+01 0. -1.
</event>
<event>
 5   0  0.1443750E-04  0.1495799E+04  0.7818609E-02  0.8887251E-01
        1   -1    0    0  501    0  0.00000000000E+00  0.00000000000E+00  0.14189372872E+04  0.14189372872E+04  0.50400001928E-02 0.  1.
       -1   -1    0    0    0  501  0.00000000000E+00  0.00000000000E+00 -0.39420605725E+03  0.39420605728E+03  0.50400001928E-02 0. -1.
    10030    2    1    2    0    0  0.00000000000E+00  0.00000000000E+00  0.10247312300E+04  0.18131433445E+04  0.14957990153E+04 0.  0.
        2    1    3    3  502    0  0.58485155635E+03 -0.54660651762E+02 -0.48791817019E+02  0.58942325305E+03  0.25500000920E-02 0.  1.
       -2    1    3    3    0  502 -0.58485155635E+03  0.54660651762E+02  0.10735230470E+04  0.12237200915E+04  0.25500000920E-02 0. -1.
</event>
<event>
 5   0  0.1484251E-04  0.1494737E+04  0.7818609E-02  0.8887960E-01
        1   -1    0    0  501    0  0.00000000000E+00  0.00000000000E+00  0.12324702041E+04  0.12324702042E+04  0.50400001928E-02 0.  1.
       -1   -1    0    0    0  501  0.00000000000E+00  0.00000000000E+00 -0.45320357857E+03  0.45320357860E+03  0.50400001928E-02 0. -1.
    10030    2    1    2    0    0  0.00000000000E+00  0.00000000000E+00  0.77926662557E+03  0.16856737828E+04  0.14947373107E+04 0.  0.
        5    1    3    3  502    0  0.51280480743E+03 -0.33659830964E+03  0.87110083612E+03  0.10654135109E+04  0.46999998093E+01 0.  1.
       -5    1    3    3    0  502 -0.51280480743E+03  0.33659830964E+03 -0.91834210554E+02  0.62026027182E+03  0.46999998093E+01 0. -1.
</event>
<event>
 5   0  0.1004313E-04  0.1499869E+04  0.7818609E-02  0.8884540E-01
       -4   -1    0    0    0  501  0.00000000000E+00  0.00000000000E+00  0.86831020910E+03  0.86831113785E+03  0.12699999809E+01 0. -1.
        4   -1    0    0  501    0  0.00000000000E+00  0.00000000000E+00 -0.64769526837E+03  0.64769651348E+03  0.12699999809E+01 0.  1.
    10030    2    1    2    0    0  0.00000000000E+00  0.00000000000E+00  0.22061494072E+03  0.15160076513E+04  0.14998694099E+04 0.  0.
        5    1    3    3  502    0 -0.73092830938E+03 -0.11541034271E+03  0.23328927818E+03  0.77590058511E+03  0.46999998093E+01 0.  1.
       -5    1    3    3    0  502  0.73092830938E+03  0.11541034271E+03 -0.12674337461E+02  0.74010706623E+03  0.46999998093E+01 0. -1.
</event>
<event>
 5   0  0.2646718E-04  0.1481791E+04  0.7818609E-02  0.8896653E-01
        2   -1    0    0  501    0  0.00000000000E+00  0.00000000000E+00  0.12876851339E+04  0.12876851339E+04  0.25500000920E-02 0. -1.
       -2   -1    0    0    0  501  0.00000000000E+00  0.00000000000E+00 -0.42628885485E+03  0.42628885486E+03  0.25500000920E-02 0.  1.
    10030    2    1    2    0    0  0.00000000000E+00  0.00000000000E+00  0.86139627904E+03  0.17139739888E+04  0.14817905670E+04 0.  0.
        3    1    3    3  502    0 -0.45015803435E+03  0.18048860854E+03 -0.21715981371E+03  0.53139137045E+03  0.10100000352E+00 0.  1.
       -3    1    3    3    0  502  0.45015803435E+03 -0.18048860854E+03  0.10785560928E+04  0.11825826183E+04  0.10100000352E+00 0. -1.
</event>
<event>
 5   0  0.2696040E-04  0.1504669E+04  0.7818609E-02  0.8881354E-01
        2   -1    0    0  501    0  0.00000000000E+00  0.00000000000E+00  0.22337362426E+04  0.22337362426E+04  0.25500000920E-02 0. -1.
       -2   -1    0    0    0  501  0.00000000000E+00  0.00000000000E+00 -0.25339048817E+03  0.25339048819E+03  0.25500000920E-02 0.  1.
    10030    2    1    2    0    0  0.00000000000E+00  0.00000000000E+00  0.19803457544E+04  0.24871267308E+04  0.15046694215E+04 0.  0.
        2    1    3    3  502    0 -0.42720259601E+03  0.55518302369E+03  0.14436848405E+04  0.16046669955E+04  0.25500000920E-02 0. -1.
       -2    1    3    3    0  502  0.42720259601E+03 -0.55518302369E+03  0.53666091396E+03  0.88245973530E+03  0.25500000920E-02 0.  1.
</event>
<event>
 5   0  0.2618901E-04  0.1514005E+04  0.7818609E-02  0.8875193E-01
       -2   -1    0    0    0  501  0.00000000000E+00  0.00000000000E+00  0.57802057116E+03  0.57802057116E+03  0.25500000920E-02 0.  1.
        2   -1    0    0  501    0  0.00000000000E+00  0.00000000000E+00 -0.99140603989E+03  0.99140603990E+03  0.25500000920E-02 0. -1.
    10030    2    1    2    0    0  0.00000000000E+00  0.00000000000E+00 -0.41338546874E+03  0.15694266111E+04  0.15140053969E+04 0.  0.
        1    1    3    3  502    0 -0.64544531757E+03  0.36771807458E+03 -0.35775590238E+03  0.82450319954E+03  0.50400001928E-02 0. -1.
       -1    1    3    3    0  502  0.64544531757E+03 -0.36771807458E+03 -0.55629566360E+02  0.74492341152E+03  0.50400001928E-02 0.  1.
</event>
<event>
 5   0  0.1443750E-04  0.1491229E+04  0.7818609E-02  0.8890307E-01
       -1   -1    0    0    0  501  0.00000000000E+00  0.00000000000E+00  0.52240206004E+03  0.52240206006E+03  0.50400001928E-02 0. -1.
        1   -1    0    0  501    0  0.00000000000E+00  0.00000000000E+00 -0.10642008653E+04  0.10642008653E+04  0.50400001928E-02 0.  1.
    10030    2    1    2    0    0  0.00000000000E+00  0.00000000000E+00 -0.54179880524E+03  0.15866029253E+04  0.14912286536E+04 0.  0.
        2    1    3    3  502    0 -0.54867875859E+02  0.10471997998E+03 -0.10541652978E+04  0.10607738840E+04  0.25500000920E-02 0.  1.
       -2    1    3    3    0  502  0.54867875859E+02 -0.10471997998E+03  0.51236649254E+03  0.52582904131E+03  0.25500000920E-02 0. -1.
</event>
<event>
 5   0  0.2641347E-04  0.1499769E+04  0.7818609E-02  0.8884607E-01
       -2   -1    0    0    0  501  0.00000000000E+00  0.00000000000E+00  0.11792571974E+04  0.11792571974E+04  0.25500000920E-02 0.  1.
        2   -1    0    0  501    0  0.00000000000E+00  0.00000000000E+00 -0.47684820189E+03  0.47684820190E+03  0.25500000920E-02 0. -1.
    10030    2    1    2    0    0  0.00000000000E+00  0.00000000000E+00  0.70240899552E+03  0.16561053993E+04  0.14997688811E+04 0.  0.
        4    1    3    3  502    0 -0.57687806247E+03 -0.26397821716E+03 -0.90287696631E+02  0.64080127899E+03  0.12699999809E+01 0. -1.
       -4    1    3    3    0  502  0.57687806247E+03  0.26397821716E+03  0.79269669215E+03  0.10153041203E+04  0.12699999809E+01 0.  1.
</event>
<event>
 5   0  0.1426929E-04  0.1542086E+04  0.7818609E-02  0.8856939E-01
        1   -1    0    0  501    0  0.00000000000E+00  0.00000000000E+00  0.41761738051E+03  0.41761738054E+03  0.50400001928E-02 0. -1.
       -1   -1    0    0    0  501  0.00000000000E+00  0.00000000000E+00 -0.14235694077E+04  0.14235694077E+04  0.50400001928E-02 0.  1.
    10030    2    1    2    0    0  0.00000000000E+00  0.00000000000E+00 -0.10059520271E+04  0.18411867882E+04  0.15420860249E+04 0.  0.
        1    1    3    3  502    0  0.48310888036E+03 -0.51572103285E+02 -0.12178107261E+04  0.13111509588E+04  0.50400001928E-02 0.  1.
       -1    1    3    3    0  502 -0.48310888036E+03  0.51572103285E+02  0.21185869895E+03  0.53003582941E+03  0.50400001928E-02 0. -1.
</event>
<event>
 5   0  0.1427609E-04  0.1500712E+04  0.7818609E-02  0.8883980E-01
       -1   -1    0    0    0  501  0.00000000000E+00  0.00000000000E+00  0.32956672764E+03  0.32956672768E+03  0.50400001928E-02 0.  1.
        1   -1    0    0  501    0  0.00000000000E+00  0.00000000000E+00 -0.17084072909E+04  0.17084072909E+04  0.50400001928E-02 0. -1.
    10030    2    1    2    0    0  0.00000000000E+00  0.00000000000E+00 -0.13788405633E+04  0.20379740186E+04  0.15007120982E+04 0.  0.
        4    1    3    3  502    0  0.63363692803E+03  0.25677343691E+03 -0.26952613531E+03  0.73489747923E+03  0.12699999809E+01 0. -1.
       -4    1    3    3    0  502 -0.63363692803E+03 -0.25677343691E+03 -0.11093144280E+04  0.13030765394E+04  0.12699999809E+01 0.  1.
</event>
<event>
 5   0  0.2646718E-04  0.1505119E+04  0.7818609E-02  0.8881056E-01
        2   -1    0    0  501    0  0.00000000000E+00  0.00000000000E+00  0.29061915958E+04  0.29061915958E+04  0.25500000920E-02 0.  1.
       -2   -1    0    0    0  501  0.00000000000E+00  0.00000000000E+00 -0.19487559010E+03  0.19487559011E+03  0.25500000920E-02 0. -1.
    10030    2    1    2    0    0  0.00000000000E+00  0.00000000000E+00  0.27113160057E+04  0.31010671859E+04  0.15051190015E+04 0.  0.
        3    1    3    3  502    0 -0.49715882243E+03 -0.75593593602E+02  0.25092029546E+04  0.25590976464E+04  0.10100000352E+00 0.  1.
       -3    1    3    3    0  502  0.49715882243E+03  0.75593593602E+02  0.20211305104E+03  0.54196953948E+03  0.10100000352E+00 0. -1.
</event>
<event>
 5   0  0.1484251E-04  0.1500094E+04  0.7818609E-02  0.8884390E-01
       -1   -1    0    0    0  501  0.00000000000E+00  0.00000000000E+00  0.50655440326E+03  0.50655440328E+03  0.50400001928E-02 0.  1.
        1   -1    0    0  501    0  0.00000000000E+00  0.00000000000E+00 -0.11105826314E+04  0.11105826314E+04  0.50400001928E-02 0. -1.
    10030    2    1    2    0    0  0.00000000000E+00  0.00000000000E+00 -0.60402822817E+03  0.16171370347E+04  0.15000940266E+04 0.  0.
        5    1    3    3  502    0  0.33253089494E+03 -0.16863378877E+03  0.39955849629E+03  0.54651919706E+03  0.46999998093E+01 0.  1.
       -5    1    3    3    0  502 -0.33253089494E+03  0.16863378877E+03 -0.10035867245E+04  0.10706178377E+04  0.46999998093E+01 0. -1.
</event>
<event>
 5   0  0.2646718E-04  0.1512967E+04  0.7818609E-02  0.8875876E-01
        2   -1    0    0  501    0  0.00000000000E+00  0.00000000000E+00  0.78561105663E+03  0.78561105663E+03  0.25500000920E-02 0. -1.
       -2   -1    0    0    0  501  0.00000000000E+00  0.00000000000E+00 -0.72843572037E+03  0.72843572038E+03  0.25500000920E-02 0.  1.
    10030    2    1    2    0    0  0.00000000000E+00  0.00000000000E+00  0.57175336253E+02  0.15140467770E+04  0.15129668284E+04 0.  0.
        3    1    3    3  502    0 -0.13891290508E+03  0.45616848268E+03 -0.55909693273E+03  0.73483050439E+03  0.10100000352E+00 0.  1.
       -3    1    3    3    0  502  0.13891290508E+03 -0.45616848268E+03  0.61627226898E+03  0.77921627262E+03  0.10100000352E+00 0. -1.
</event>
<event>
 5   0  0.1427609E-04  0.1502141E+04  0.7818609E-02  0.8883030E-01
       -1   -1    0    0    0  501  0.00000000000E+00  0.00000000000E+00  0.65213102817E+03  0.65213102819E+03  0.50400001928E-02 0. -1.
        1   -1    0    0  501    0  0.00000000000E+00  0.00000000000E+00 -0.86502110682E+03  0.86502110683E+03  0.50400001928E-02 0.  1.
    10030    2    1    2    0    0  0.00000000000E+00  0.00000000000E+00 -0.21289007865E+03  0.15171521350E+04  0.15021412767E+04 0.  0.
        4    1    3    3  502    0 -0.21838136152E+03  0.35473239770E+02 -0.83136162733E+03  0.86029793565E+03  0.12699999809E+01 0.  1.
       -4    1    3    3    0  502  0.21838136152E+03 -0.35473239770E+02  0.61847154868E+03  0.65685419936E+03  0.12699999809E+01 0. -1.
</event>
<event>
 5   0  0.1484251E-04  0.1494057E+04  0.7818609E-02  0.8888414E-01
        1   -1    0    0  501    0  0.00000000000E+00  0.00000000000E+00  0.35952319415E+03  0.35952319418E+03  0.50400001928E-02 0. -1.
       -1   -1    0    0    0  501  0.00000000000E+00  0.00000000000E+00 -0.15521995116E+04  0.15521995116E+04  0.50400001928E-02 0.  1.
    10030    2    1    2    0    0  0.00000000000E+00  0.00000000000E+00 -0.11926763174E+04  0.19117227057E+04  0.14940571962E+04 0.  0.
        5    1    3    3  502    0 -0.94268226377E+02  0.19317283526E+03  0.31907982016E+03  0.38475481078E+03  0.46999998093E+01 0. -1.
       -5    1    3    3    0  502  0.94268226377E+02 -0.19317283526E+03 -0.15117561376E+04  0.15269678950E+04  0.46999998093E+01 0.  1.
</event>
<event>
 5   0  0.2734072E-04  0.1502192E+04  0.7818609E-02  0.8882996E-01
        2   -1    0    0  501    0  0.00000000000E+00  0.00000000000E+00  0.23612355640E+04  0.23612355640E+04  0.25500000920E-02 0. -1.
       -2   -1    0    0    0  501  0.00000000000E+00  0.00000000000E+00 -0.23891962211E+03  0.23891962213E+03  0.25500000920E-02 0.  1.
    10030    2    1    2    0    0  0.00000000000E+00  0.00000000000E+00  0.21223159419E+04  0.26001551862E+04  0.15021924094E+04 0.  0.
        5    1    3    3  502    0  0.48676461320E+03 -0.54911086180E+03  0.78388369756E+03  0.10737589434E+04  0.46999998093E+01 0.  1.
       -5    1    3    3    0  502 -0.48676461320E+03  0.54911086180E+03  0.13384322444E+04  0.15263962428E+04  0.46999998093E+01 0. -1.
</event>
<event>
 5   0  0.1426929E-04  0.1504191E+04  0.7818609E-02  0.8881671E-01
       -1   -1    0    0    0  501  0.00000000000E+00  0.00000000000E+00  0.16563108655E+04  0.16563108655E+04  0.50400001928E-02 0. -1.
        1   -1    0    0  501    0  0.00000000000E+00  0.00000000000E+00 -0.34151057706E+03  0.34151057710E+03  0.50400001928E-02 0.  1.
    10030    2    1    2    0    0  0.00000000000E+00  0.00000000000E+00  0.13148002885E+04  0.19978214426E+04  0.15041910511E+04 0.  0.
        1    1    3    3  502    0 -0.70085574969E+03 -0.14881781567E+03  0.35365211927E+03  0.79900897718E+03  0.50400001928E-02 0.  1.
       -1    1    3    3    0  502  0.70085574969E+03  0.14881781567E+03  0.96114816921E+03  0.11988124655E+04  0.50400001928E-02 0. -1.
</event>
<event>
 5   0  0.2734072E-04  0.1507092E+04  0.7818609E-02  0.8879750E-01
        2   -1    0    0  501    0  0.00000000000E+00  0.00000000000E+00  0.12806341861E+04  0.12806341861E+04  0.25500000920E-02 0.  1.
       -2   -1    0    0    0  501  0.00000000000E+00  0.00000000000E+00 -0.44339884622E+03  0.44339884623E+03  0.25500000920E-02 0. -1.
    10030    2    1    2    0    0  0.00000000000E+00  0.00000000000E+00  0.83723533990E+03  0.17240330324E+04  0.15070921944E+04 0.  0.
        5    1    3    3  502    0  0.60743669639E+02  0.74869617993E+03  0.48700489392E+03  0.89522713316E+03  0.46999998093E+01 0.  1.
       -5    1    3    3    0  502 -0.60743669639E+02 -0.74869617993E+03  0.35023044597E+03  0.82880589919E+03  0.46999998093E+01 0. -1.
</event>
<event>
 5   0  0.1443750E-04  0.1502701E+04  0.7818609E-02  0.8882659E-01
        1   -1    0    0  501    0  0.00000000000E+00  0.00000000000E+00  0.11497998666E+04  0.11497998666E+04  0.50400001928E-02 0. -1.
       -1   -1    0    0    0  501  0.00000000000E+00  0.00000000000E+00 -0.49097893145E+03  0.49097893148E+03  0.50400001928E-02 0.  1.
    10030    2    1    2    0    0  0.00000000000E+00  0.00000000000E+00  0.65882093513E+03  0.16407787981E+04  0.15027009149E+04 0.  0.
        2    1    3    3  502    0  0.65953353162E+03  0.21022302181E+03  0.64840078163E+03  0.94847339016E+03  0.25500000920E-02 0. -1.
       -2    1    3    3    0  502 -0.65953353162E+03 -0.21022302181E+03  0.10420153502E+02  0.69230540792E+03  0.25500000920E-02 0.  1.
</event>
<event>
 5   0  0.1474203E-04  0.1516911E+04  0.7818609E-02  0.8873284E-01
        1   -1    0    0  501    0  0.00000000000E+00  0.00000000000E+00  0.11452830191E+04  0.11452830191E+04  0.50400001928E-02 0. -1.
       -1   -1    0    0    0  501  0.00000000000E+00  0.00000000000E+00 -0.50228199074E+03  0.50228199076E+03  0.50400001928E-02 0.  1.
    10030    2    1    2    0    0  0.00000000000E+00  0.00000000000E+00  0.64300102839E+03  0.16475650099E+04  0.15169113815E+04 0.  0.
        3    1    3    3  502    0 -0.77193079238E+02  0.71446738901E+03  0.58054651357E+02  0.72096655553E+03  0.10100000352E+00 0.  1.
       -3    1    3    3    0  502  0.77193079238E+02 -0.71446738901E+03  0.58494637703E+03  0.92659845437E+03  0.10100000352E+00 0. -1.
</event>
<event>
 5   0  0.1484251E-04  0.1496602E+04  0.7818609E-02  0.8886716E-01
       -1   -1    0    0    0  501  0.00000000000E+00  0.00000000000E+00  0.10892778612E+04  0.10892778612E+04  0.50400001928E-02 0. -1.
        1   -1    0    0  501    0  0.00000000000E+00  0.00000000000E+00 -0.51405994690E+03  0.51405994692E+03  0.50400001928E-02 0.  1.
    10030    2    1    2    0    0  0.00000000000E+00  0.00000000000E+00  0.57521791433E+03  0.16033378082E+04  0.14966016431E+04 0.  0.
        5    1    3    3  502    0  0.74241459616E+03 -0.34505166710E+02  0.38077054397E+03  0.83509181308E+03  0.46999998093E+01 0. -1.
       -5    1    3    3    0  502 -0.74241459616E+03  0.34505166710E+02  0.19444737036E+03  0.76824599508E+03  0.46999998093E+01 0.  1.
</event>
<event>
 5   0  0.2696040E-04  0.1506465E+04  0.7818609E-02  0.8880165E-01
       -2   -1    0    0    0  501  0.00000000000E+00  0.00000000000E+00  0.20135406399E+03  0.20135406400E+03  0.25500000920E-02 0.  1.
        2   -1    0    0  501    0  0.00000000000E+00  0.00000000000E+00 -0.28177202713E+04  0.28177202713E+04  0.25500000920E-02 0. -1.
    10030    2    1    2    0    0  0.00000000000E+00  0.00000000000E+00 -0.26163662073E+04  0.30190743353E+04  0.15064653037E+04 0.  0.
        2    1    3    3  502    0 -0.56186147288E+03  0.36290849362E+03 -0.61404104971E+03  0.90798529734E+03  0.25500000920E-02 0.  1.
       -2    1    3    3    0  502  0.56186147288E+03 -0.36290849362E+03 -0.20023251576E+04  0.21110890379E+04  0.25500000920E-02 0. -1.
</event>
<event>
 5   0  0.2618901E-04  0.1504641E+04  0.7818609E-02  0.8881373E-01
       -2   -1    0    0    0  501  0.00000000000E+00  0.00000000000E+00  0.51852680369E+03  0.51852680370E+03  0.25500000920E-02 0.  1.
        2   -1    0    0  501    0  0.00000000000E+00  0.00000000000E+00 -0.10915269730E+04  0.10915269730E+04  0.25500000920E-02 0. -1.
    10030    2    1    2    0    0  0.00000000000E+00  0.00000000000E+00 -0.57300016934E+03  0.16100537767E+04  0.15046408109E+04 0.  0.
        1    1    3    3  502    0  0.71587227627E+03  0.11606586642E+03 -0.50062302989E+03  0.88123085474E+03  0.50400001928E-02 0. -1.
       -1    1    3    3    0  502 -0.71587227627E+03 -0.11606586642E+03 -0.72377139454E+02  0.72882292199E+03  0.50400001928E-02 0.  1.
</event>
<event>
 5   0  0.1426929E-04  0.1499920E+04  0.7818609E-02  0.8884506E-01
        1   -1    0    0  501    0  0.00000000000E+00  0.00000000000E+00  0.62495701062E+03  0.62495701064E+03  0.50400001928E-02 0. -1.
       -1   -1    0    0    0  501  0.00000000000E+00  0.00000000000E+00 -0.89996608849E+03  0.89996608850E+03  0.50400001928E-02 0.  1.
    10030    2    1    2    0    0  0.00000000000E+00  0.00000000000E+00 -0.27500907787E+03  0.15249230991E+04  0.14999201530E+04 0.  0.
        1    1    3    3  502    0 -0.43046903892E+03  0.48863779048E+03 -0.51568596617E+03  0.83066389081E+03  0.50400001928E-02 0.  1.
       -1    1    3    3    0  502  0.43046903892E+03 -0.48863779048E+03  0.24067688831E+03  0.69425920833E+03  0.50400001928E-02 0. -1.
</event>
<event>
 5   0  0.1474203E-04  0.1499441E+04  0.7818609E-02  0.8884825E-01
       -1   -1    0    0    0  501  0.00000000000E+00  0.00000000000E+00  0.76354447784E+03  0.76354447786E+03  0.50400001928E-02 0. -1.
        1   -1    0    0  501    0  0.00000000000E+00  0.00000000000E+00 -0.73614683944E+03  0.73614683946E+03  0.50400001928E-02 0.  1.
    10030    2    1    2    0    0  0.00000000000E+00  0.00000000000E+00  0.27397638404E+02  0.14996913173E+04  0.14994410347E+04 0.  0.
        3    1    3    3  502    0 -0.48329404436E+02  0.34338521505E+03  0.67851399479E+03  0.76199106857E+03  0.10100000352E+00 0. -1.
       -3    1    3    3    0  502  0.48329404436E+02 -0.34338521505E+03 -0.65111635639E+03  0.73770024875E+03  0.10100000352E+00 0.  1.
</event>
<event>
 5   0  0.1474203E-04  0.1495954E+04  0.7818609E-02  0.8887148E-01
       -1   -1    0    0    0  501  0.00000000000E+00  0.00000000000E+00  0.38467259988E+03  0.38467259992E+03  0.50400001928E-02 0.  1.
        1   -1    0    0  501    0  0.00000000000E+00  0.00000000000E+00 -0.14544036876E+04  0.14544036876E+04  0.50400001928E-02 0. -1.
    10030    2    1    2    0    0  0.00000000000E+00  0.00000000000E+00 -0.10697310877E+04  0.18390762875E+04  0.14959535391E+04 0.  0.
        3    1    3    3  502    0 -0.11247510107E+03 -0.40826658714E+03 -0.12928349926E+04  0.13604244128E+04  0.10100000352E+00 0. -1.
       -3    1    3    3    0  502  0.11247510107E+03  0.40826658714E+03  0.22310390496E+03  0.47865187469E+03  0.10100000352E+00 0.  1.
</event>
<event>
 5   0  0.1443750E-04  0.1498909E+04  0.7818609E-02  0.8885179E-01
        1   -1    0    0  501    0  0.00000000000E+00  0.00000000000E+00  0.10770787874E+04  0.10770787874E+04  0.50400001928E-02 0. -1.
       -1   -1    0    0    0  501  0.00000000000E+00  0.00000000000E+00 -0.52148669581E+03  0.52148669584E+03  0.50400001928E-02 0.  1.
    10030    2    1    2    0    0  0.00000000000E+00  0.00000000000E+00  0.55559209156E+03  0.15985654832E+04  0.14989092808E+04 0.  0.
        2    1    3    3  502    0 -0.24986548866E+03  0.58021751534E+03 -0.15224659598E+03  0.64981855431E+03  0.25500000920E-02 0. -1.
       -2    1    3    3    0  502  0.24986548866E+03 -0.58021751534E+03  0.70783868754E+03  0.94874692891E+03  0.25500000920E-02 0.  1.
</event>
<event>
 5   0  0.2618901E-04  0.1493113E+04  0.7818609E-02  0.8889046E-01
        2   -1    0    0  501    0  0.00000000000E+00  0.00000000000E+00  0.12151498580E+04  0.12151498580E+04  0.25500000920E-02 0. -1.
       -2   -1    0    0    0  501  0.00000000000E+00  0.00000000000E+00 -0.45866468566E+03  0.45866468567E+03  0.25500000920E-02 0.  1.
    10030    2    1    2    0    0  0.00000000000E+00  0.00000000000E+00  0.75648517236E+03  0.16738145437E+04  0.14931126249E+04 0.  0.
        1    1    3    3  502    0 -0.16321298989E+03  0.72445418372E+03  0.29232518703E+03  0.79807666260E+03  0.50400001928E-02 0.  1.
       -1    1    3    3    0  502  0.16321298989E+03 -0.72445418372E+03  0.46415998533E+03  0.87573788110E+03  0.50400001928E-02 0. -1.
</event>
<event>
 5   0  0.2646718E-04  0.1499428E+04  0.7818609E-02  0.8884833E-01
       -2   -1    0    0    0  501  0.00000000000E+00  0.00000000000E+00  0.23396880289E+03  0.23396880290E+03  0.25500000920E-02 0.  1.
        2   -1    0    0  501    0  0.00000000000E+00  0.00000000000E+00 -0.24023335293E+04  0.24023335293E+04  0.25500000920E-02 0. -1.
    10030    2    1    2    0    0  0.00000000000E+00  0.00000000000E+00 -0.21683647264E+04  0.26363023322E+04  0.14994280243E+04 0.  0.
        3    1    3    3  502    0 -0.54337702388E+03 -0.50842536968E+03 -0.12445181879E+04  0.14500277504E+04  0.10100000352E+00 0.  1.
       -3    1    3    3    0  502  0.54337702388E+03  0.50842536968E+03 -0.92384653848E+03  0.11862745818E+04  0.10100000352E+00 0. -1.
</event>
<event>
 5   0  0.1474203E-04  0.1492236E+04  0.7818609E-02  0.8889632E-01
       -1   -1    0    0    0  501  0.00000000000E+00  0.00000000000E+00  0.65646731794E+03  0.65646731796E+03  0.50400001928E-02 0. -1.
        1   -1    0    0  501    0  0.00000000000E+00  0.00000000000E+00 -0.84801197586E+03  0.84801197587E+03  0.50400001928E-02 0.  1.
    10030    2    1    2    0    0  0.00000000000E+00  0.00000000000E+00 -0.19154465792E+03  0.15044792938E+04  0.14922361038E+04 0.  0.
        3    1    3    3  502    0 -0.61312359430E+03 -0.35420525733E+03  0.14133851030E+03  0.72205158465E+03  0.10100000352E+00 0.  1.
       -3    1    3    3    0  502  0.61312359430E+03  0.35420525733E+03 -0.33288316822E+03  0.78242770918E+03  0.10100000352E+00 0. -1.
</event>
<event>
 5   0  0.2641347E-04  0.1492659E+04  0.7818609E-02  0.8889349E-01
        2   -1    0    0  501    0  0.00000000000E+00  0.00000000000E+00  0.69046245763E+03  0.69046245764E+03  0.25500000920E-02 0.  1.
       -2   -1    0    0    0  501  0.00000000000E+00  0.00000000000E+00 -0.80671704152E+03  0.80671704153E+03  0.25500000920E-02 0. -1.
    10030    2    1    2    0    0  0.00000000000E+00  0.00000000000E+00 -0.11625458389E+03  0.14971794992E+04  0.14926591454E+04 0.  0.
        4    1    3    3  502    0  0.12484648336E+03  0.72471512416E+03  0.69567175042E+02  0.73867439399E+03  0.12699999809E+01 0. -1.
       -4    1    3    3    0  502 -0.12484648336E+03 -0.72471512416E+03 -0.18582175893E+03  0.75850510518E+03  0.12699999809E+01 0.  1.
</event>
<event>
 5   0  0.1474203E-04  0.1496211E+04  0.7818609E-02  0.8886976E-01
        1   -1    0    0  501    0  0.00000000000E+00  0.00000000000E+00  0.15777552587E+04  0.15777552587E+04  0.50400001928E-02 0. -1.
       -1   -1    0    0    0  501  0.00000000000E+00  0.00000000000E+00 -0.35472051323E+03  0.35472051326E+03  0.50400001928E-02 0.  1.
    10030    2    1    2    0    0  0.00000000000E+00  0.00000000000E+00  0.12230347455E+04  0.19324757720E+04  0.14962114225E+04 0.  0.
        3    1    3    3  502    0  0.51847573999E+03  0.93085638623E+02  0.12976124378E+04  0.14004570961E+04  0.10100000352E+00 0. -1.
       -3    1    3    3    0  502 -0.51847573999E+03 -0.93085638623E+02 -0.74577692332E+02  0.53201867587E+03  0.10100000352E+00 0.  1.
</event>
<event>
 5   0  0.1474203E-04  0.1505847E+04  0.7818609E-02  0.8880574E-01
        1   -1    0    0  501    0  0.00000000000E+00  0.00000000000E+00  0.59379542637E+03  0.59379542639E+03  0.50400001928E-02 0. -1.
       -1   -1    0    0    0  501  0.00000000000E+00  0.00000000000E+00 -0.95469595408E+03  0.95469595409E+03  0.50400001928E-02 0.  1.
    10030    2    1    2    0    0  0.00000000000E+00  0.00000000000E+00 -0.36090052771E+03  0.15484913805E+04  0.15058473909E+04 0.  0.
        3    1    3    3  502    0 -0.66418413255E+03  0.16243974135E+03 -0.50460217875E+03  0.84979444603E+03  0.10100000352E+00 0.  1.
       -3    1    3    3    0  502  0.66418413255E+03 -0.16243974135E+03  0.14370165104E+03  0.69869693445E+03  0.10100000352E+00 0. -1.
</event>
<event>
 5   0  0.2646718E-04  0.1499138E+04  0.7818609E-02  0.8885026E-01
        2   -1    0    0  501    0  0.00000000000E+00  0.00000000000E+00  0.68546291548E+03  0.68546291548E+03  0.25500000920E-02 0. -1.
       -2   -1    0    0    0  501  0.00000000000E+00  0.00000000000E+00 -0.81967042016E+03  0.81967042017E+03  0.25500000920E-02 0.  1.
    10030    2    1    2    0    0  0.00000000000E+00  0.00000000000E+00 -0.13420750469E+03  0.15051333357E+04  0.14991379869E+04 0.  0.
        3    1    3    3  502    0  0.59816642969E+03 -0.51283227456E+02  0.38349016881E+03  0.71238877504E+03  0.10100000352E+00 0. -1.
       -3    1    3    3    0  502 -0.59816642969E+03  0.51283227456E+02 -0.51769767350E+03  0.79274456061E+03  0.10100000352E+00 0.  1.
</event>
<event>
 5   0  0.1427609E-04  0.1502390E+04  0.7818609E-02  0.8882865E-01
       -1   -1    0    0    0  501  0.00000000000E+00  0.00000000000E+00  0.48689435677E+03  0.48689435680E+03  0.50400001928E-02 0.  1.
        1   -1    0    0  501    0  0.00000000000E+00  0.00000000000E+00 -0.11589652675E+04  0.11589652675E+04  0.50400001928E-02 0. -1.
    10030    2    1    2    0    0  0.00000000000E+00  0.00000000000E+00 -0.67207091072E+03  0.16458596243E+04  0.15023896278E+04 0.  0.
        4    1    3    3  502    0 -0.58678834471E+03 -0.39750884729E+03 -0.60871940587E+03  0.93427767454E+03  0.12699999809E+01 0. -1.
       -4    1    3    3    0  502  0.58678834471E+03  0.39750884729E+03 -0.63351504854E+02  0.71158194976E+03  0.12699999809E+01 0.  1.
</event>
<event>
 5   0  0.1474203E-04  0.1508882E+04  0.7818609E-02  0.8878568E-01
       -1   -1    0    0    0  501  0.00000000000E+00  0.00000000000E+00  0.22947539216E+03  0.22947539222E+03  0.50400001928E-02 0.  1.
        1   -1    0    0  501    0  0.00000000000E+00  0.00000000000E+00 -0.24803587450E+04  0.24803587450E+04  0.50400001928E-02 0. -1.
    10030    2    1    2    0    0  0.00000000000E+00  0.00000000000E+00 -0.22508833528E+04  0.27098341372E+04  0.15088820972E+04 0.  0.
        3    1    3    3  502    0 -0.35916304353E+03  0.15228477234E+02 -0.23166554330E+04  0.23443810279E+04  0.10100000352E+00 0. -1.
       -3    1    3    3    0  502  0.35916304353E+03 -0.15228477234E+02  0.65772080226E+02  0.36545310930E+03  0.10100000352E+00 0.  1.
</event>
<event>
 5   0  0.2696040E-04  0.1503151E+04  0.7818609E-02  0.8882360E-01
       -2   -1    0    0    0  501  0.00000000000E+00  0.00000000000E+00  0.11543880449E+04  0.11543880449E+04  0.25500000920E-02 0.  1.
        2   -1    0    0  501    0  0.00000000000E+00  0.00000000000E+00 -0.48932026761E+03  0.48932026761E+03  0.25500000920E-02 0. -1.
    10030    2    1    2    0    0  0.00000000000E+00  0.00000000000E+00  0.66506777730E+03  0.16437083125E+04  0.15031506472E+04 0.  0.
        2    1    3    3  502    0 -0.98120530779E+02  0.74335638613E+03  0.38892238746E+03  0.84466974543E+03  0.25500000920E-02 0. -1.
       -2    1    3    3    0  502  0.98120530779E+02 -0.74335638613E+03  0.27614538984E+03  0.79903856709E+03  0.25500000920E-02 0.  1.
</event>
<event>
 5   0  0.1427609E-04  0.1494917E+04  0.7818609E-02  0.8887840E-01
        1   -1    0    0  501    0  0.00000000000E+00  0.00000000000E+00  0.17030910901E+04  0.17030910901E+04  0.50400001928E-02 0.  1.
       -1   -1    0    0    0  501  0.00000000000E+00  0.00000000000E+00 -0.32804720501E+03  0.32804720505E+03  0.50400001928E-02 0. -1.
    10030    2    1    2    0    0  0.00000000000E+00  0.00000000000E+00  0.13750438851E+04  0.20311382952E+04  0.14949170840E+04 0.  0.
        4    1    3    3  502    0 -0.58500853872E+03 -0.46355877758E+03  0.63367009625E+03  0.97911242175E+03  0.12699999809E+01 0.  1.
       -4    1    3    3    0  502  0.58500853872E+03  0.46355877758E+03  0.74137378884E+03  0.10520258734E+04  0.12699999809E+01 0. -1.
</event>
<event>
 5   0  0.2618901E-04  0.1497729E+04  0.7818609E-02  0.8885965E-01
        2   -1    0    0  501    0  0.00000000000E+00  0.00000000000E+00  0.10018342546E+04  0.10018342547E+04  0.25500000920E-02 0. -1.
       -2   -1    0    0    0  501  0.00000000000E+00  0.00000000000E+00 -0.55977114929E+03  0.55977114930E+03  0.25500000920E-02 0.  1.
    10030    2    1    2    0    0  0.00000000000E+00  0.00000000000E+00  0.44206310536E+03  0.15616054040E+04  0.14977288301E+04 0.  0.
        1    1    3    3  502    0  0.10241513012E+03 -0.74046509410E+03  0.26789856714E+03  0.79406993190E+03  0.50400001928E-02 0. -1.
       -1    1    3    3    0  502 -0.10241513012E+03  0.74046509410E+03  0.17416453822E+03  0.76753547205E+03  0.50400001928E-02 0.  1.
</event>
<event>
 5   0  0.1004313E-04  0.1502520E+04  0.7818609E-02  0.8882779E-01
        4   -1    0    0  501    0  0.00000000000E+00  0.00000000000E+00  0.25974108250E+04  0.25974111355E+04  0.12699999809E+01 0. -1.
       -4   -1    0    0    0  501  0.00000000000E+00  0.00000000000E+00 -0.21728801940E+03  0.21729173080E+03  0.12699999809E+01 0.  1.
    10030    2    1    2    0    0  0.00000000000E+00  0.00000000000E+00  0.23801228056E+04  0.28147028663E+04  0.15025204344E+04 0.  0.
        5    1    3    3  502    0 -0.19946449423E+03 -0.70321377246E+03  0.15149307251E+04  0.16820620934E+04  0.46999998093E+01 0. -1.
       -5    1    3    3    0  502  0.19946449423E+03  0.70321377246E+03  0.86519208054E+03  0.11326407729E+04  0.46999998093E+01 0.  1.
</event>
<event>
 5   0  0.1427609E-04  0.1502186E+04  0.7818609E-02  0.8883001E-01
        1   -1    0    0  501    0  0.00000000000E+00  0.00000000000E+00  0.45810917793E+03  0.45810917796E+03  0.50400001928E-02 0. -1.
       -1   -1    0    0    0  501  0.00000000000E+00  0.00000000000E+00 -0.12314539542E+04  0.12314539542E+04  0.50400001928E-02 0.  1.
    10030    2    1    2    0    0  0.00000000000E+00  0.00000000000E+00 -0.77334477629E+03  0.16895631322E+04  0.15021855527E+04 0.  0.
        4    1    3    3  502    0 -0.12705793884E+03 -0.59785122205E+03 -0.87766720226E+03  0.10695191136E+04  0.12699999809E+01 0. -1.
       -4    1    3    3    0  502  0.12705793884E+03  0.59785122205E+03  0.10432242597E+03  0.62004401859E+03  0.12699999809E+01 0.  1.
</event>
<event>
 5   0  0.2646718E-04  0.1503580E+04  0.7818609E-02  0.8882076E-01
        2   -1    0    0  501    0  0.00000000000E+00  0.00000000000E+00  0.83459114339E+03  0.83459114339E+03  0.25500000920E-02 0.  1.
       -2   -1    0    0    0  501  0.00000000000E+00  0.00000000000E+00 -0.67720393826E+03  0.67720393827E+03  0.25500000920E-02 0. -1.
    10030    2    1    2    0    0  0.00000000000E+00  0.00000000000E+00  0.15738720512E+03  0.15117950817E+04  0.15035802727E+04 0.  0.
        3    1    3    3  502    0 -0.92376331047E+02  0.52167767923E+03  0.61500015264E+03  0.81173036502E+03  0.10100000352E+00 0.  1.
       -3    1    3    3    0  502  0.92376331047E+02 -0.52167767923E+03 -0.45761294752E+03  0.70006471664E+03  0.10100000352E+00 0. -1.
</event>
<event>
 5   0  0.1474203E-04  0.1421672E+04  0.7818609E-02  0.8938279E-01
       -1   -1    0    0    0  501  0.00000000000E+00  0.00000000000E+00  0.91568985314E+03  0.91568985315E+03  0.50400001928E-02 0.  1.
        1   -1    0    0  501    0  0.00000000000E+00  0.00000000000E+00 -0.55181129580E+03  0.55181129582E+03  0.50400001928E-02 0. -1.
    10030    2    1    2    0    0  0.00000000000E+00  0.00000000000E+00  0.36387855734E+03  0.14675011490E+04  0.14216722610E+04 0.  0.
        3    1    3    3  502    0 -0.30927304627E+03 -0.19525601563E+03 -0.44722799264E+03  0.57774355591E+03  0.10100000352E+00 0. -1.
       -3    1    3    3    0  502  0.30927304627E+03  0.19525601563E+03  0.81110654998E+03  0.88975759306E+03  0.10100000352E+00 0.  1.
</event>
<event>
 5   0  0.2696040E-04  0.1529497E+04  0.7818609E-02  0.8865071E-01
       -2   -1    0    0    0  501  0.00000000000E+00  0.00000000000E+00  0.32678256119E+03  0.32678256120E+03  0.25500000920E-02 0.  1.
        2   -1    0    0  501    0  0.00000000000E+00  0.00000000000E+00 -0.17896931286E+04  0.17896931286E+04  0.25500000920E-02 0. -1.
    10030    2    1    2    0    0  0.00000000000E+00  0.00000000000E+00 -0.14629105674E+04  0.21164756898E+04  0.15294973087E+04 0.  0.
        2    1    3    3  502    0 -0.48189749677E+03  0.10295872140E+02 -0.15530352829E+04  0.16261149382E+04  0.25500000920E-02 0. -1.
       -2    1    3    3    0  502  0.48189749677E+03 -0.10295872140E+02  0.90124715466E+02  0.49036075161E+03  0.25500000920E-02 0.  1.
</event>
<event>
 5   0  0.2646718E-04  0.1500790E+04  0.7818609E-02  0.8883928E-01
       -2   -1    0    0    0  501  0.00000000000E+00  0.00000000000E+00  0.64289181425E+03  0.64289181425E+03  0.25500000920E-02 0. -1.
        2   -1    0    0  501    0  0.00000000000E+00  0.00000000000E+00 -0.87587483479E+03  0.87587483479E+03  0.25500000920E-02 0.  1.
    10030    2    1    2    0    0  0.00000000000E+00  0.00000000000E+00 -0.23298302054E+03  0.15187666490E+04  0.15007901407E+04 0.  0.
        3    1    3    3  502    0  0.49089002814E+03  0.49524995796E+02  0.45567178083E+03  0.67161188716E+03  0.10100000352E+00 0. -1.
       -3    1    3    3    0  502 -0.49089002814E+03 -0.49524995796E+02 -0.68865480137E+03  0.84715476188E+03  0.10100000352E+00 0.  1.
</event>
<event>
 5   0  0.2696040E-04  0.1491540E+04  0.7818609E-02  0.8890098E-01
       -2   -1    0    0    0  501  0.00000000000E+00  0.00000000000E+00  0.36764299590E+03  0.36764299590E+03  0.25500000920E-02 0. -1.
        2   -1    0    0  501    0  0.00000000000E+00  0.00000000000E+00 -0.15128071827E+04  0.15128071827E+04  0.25500000920E-02 0.  1.
    10030    2    1    2    0    0  0.00000000000E+00  0.00000000000E+00 -0.11451641868E+04  0.18804501786E+04  0.14915400965E+04 0.  0.
        2    1    3    3  502    0  0.51105359311E+03 -0.45813438952E+03 -0.20477730832E+03  0.71623783753E+03  0.25500000920E-02 0. -1.
       -2    1    3    3    0  502 -0.51105359311E+03  0.45813438952E+03 -0.94038687850E+03  0.11642123411E+04  0.25500000920E-02 0.  1.
</event>
<event>
 5   0  0.2696040E-04  0.1498907E+04  0.7818609E-02  0.8885180E-01
        2   -1    0    0  501    0  0.00000000000E+00  0.00000000000E+00  0.12586134697E+04  0.12586134697E+04  0.25500000920E-02 0.  1.
       -2   -1    0    0    0  501  0.00000000000E+00  0.00000000000E+00 -0.44626920844E+03  0.44626920845E+03  0.25500000920E-02 0. -1.
    10030    2    1    2    0    0  0.00000000000E+00  0.00000000000E+00  0.81234426131E+03  0.17048826782E+04  0.14989068509E+04 0.  0.
        2    1    3    3  502    0  0.44088012306E+02 -0.32741527667E+03  0.11713217782E+04  0.12170206343E+04  0.25500000920E-02 0.  1.
       -2    1    3    3    0  502 -0.44088012306E+02  0.32741527667E+03 -0.35897751689E+03  0.48786204389E+03  0.25500000920E-02 0. -1.
</event>
<event>
 5   0  0.1484251E-04  0.1497672E+04  0.7818609E-02  0.8886002E-01
       -1   -1    0    0    0  501  0.00000000000E+00  0.00000000000E+00  0.51823714189E+03  0.51823714191E+03  0.50400001928E-02 0.  1.
        1   -1    0    0  501    0  0.00000000000E+00  0.00000000000E+00 -0.10820446419E+04  0.10820446419E+04  0.50400001928E-02 0. -1.
    10030    2    1    2    0    0  0.00000000000E+00  0.00000000000E+00 -0.56380750001E+03  0.16002817838E+04  0.14976724911E+04 0.  0.
        5    1    3    3  502    0  0.40091173856E+03 -0.51906812997E+03  0.10420008599E+03  0.66410969996E+03  0.46999998093E+01 0.  1.
       -5    1    3    3    0  502 -0.40091173856E+03  0.51906812997E+03 -0.66800758600E+03  0.93617208387E+03  0.46999998093E+01 0. -1.
</event>
<event>
 5   0  0.1427609E-04  0.1501555E+04  0.7818609E-02  0.8883419E-01
        1   -1    0    0  501    0  0.00000000000E+00  0.00000000000E+00  0.56794443100E+03  0.56794443102E+03  0.50400001928E-02 0.  1.
       -1   -1    0    0    0  501  0.00000000000E+00  0.00000000000E+00 -0.99246868590E+03  0.99246868592E+03  0.50400001928E-02 0. -1.
    10030    2    1    2    0    0  0.00000000000E+00  0.00000000000E+00 -0.42452425490E+03  0.15604131169E+04  0.15015552779E+04 0.  0.
        4    1    3    3  502    0  0.65828336107E+03 -0.45614903500E+02  0.15989225733E+03  0.67895865098E+03  0.12699999809E+01 0.  1.
       -4    1    3    3    0  502 -0.65828336107E+03  0.45614903500E+02 -0.58441651224E+03  0.88145446596E+03  0.12699999809E+01 0. -1.
</event>
<event>
 5   0  0.2696040E-04  0.1495615E+04  0.7818609E-02  0.8887374E-01
       -2   -1    0    0    0  501  0.00000000000E+00  0.00000000000E+00  0.43789720092E+03  0.43789720093E+03  0.25500000920E-02 0.  1.
        2   -1    0    0  501    0  0.00000000000E+00  0.00000000000E+00 -0.12770492077E+04  0.12770492077E+04  0.25500000920E-02 0. -1.
    10030    2    1    2    0    0  0.00000000000E+00  0.00000000000E+00 -0.83915200678E+03  0.17149464086E+04  0.14956152894E+04 0.  0.
        2    1    3    3  502    0 -0.67259794993E+03 -0.10250458924E+03 -0.77544596342E+03  0.10316063373E+04  0.25500000920E-02 0.  1.
       -2    1    3    3    0  502  0.67259794993E+03  0.10250458924E+03 -0.63706043366E+02  0.68334007129E+03  0.25500000920E-02 0. -1.
</event>
<event>
 5   0  0.2696040E-04  0.1506912E+04  0.7818609E-02  0.8879870E-01
        2   -1    0    0  501    0  0.00000000000E+00  0.00000000000E+00  0.12462574270E+04  0.12462574270E+04  0.25500000920E-02 0. -1.
       -2   -1    0    0    0  501  0.00000000000E+00  0.00000000000E+00 -0.45552046516E+03  0.45552046517E+03  0.25500000920E-02 0.  1.
    10030    2    1    2    0    0  0.00000000000E+00  0.00000000000E+00  0.79073696182E+03  0.17017778922E+04  0.15069117597E+04 0.  0.
        2    1    3    3  502    0 -0.70432245475E+03 -0.52860851735E+02  0.99084431586E+02  0.71321954158E+03  0.25500000920E-02 0.  1.
       -2    1    3    3    0  502  0.70432245475E+03  0.52860851735E+02  0.69165253024E+03  0.98855835058E+03  0.25500000920E-02 0. -1.
</event>
<event>
 5   0  0.1004313E-04  0.1520416E+04  0.7818609E-02  0.8870989E-01
       -3   -1    0    0    0  501  0.00000000000E+00  0.00000000000E+00  0.49764012391E+03  0.49764013416E+03  0.10100000352E+00 0.  1.
        3   -1    0    0  501    0  0.00000000000E+00  0.00000000000E+00 -0.11613142545E+04  0.11613142588E+04  0.10100000352E+00 0. -1.
    10030    2    1    2    0    0  0.00000000000E+00  0.00000000000E+00 -0.66367413054E+03  0.16589543930E+04  0.15204164977E+04 0.  0.
        1    1    3    3  502    0  0.30388188126E+03 -0.30899236792E+03  0.34965009512E+03  0.55684438601E+03  0.50400001928E-02 0.  1.
       -1    1    3    3    0  502 -0.30388188126E+03  0.30899236792E+03 -0.10133242257E+04  0.11021100070E+04  0.50400001928E-02 0. -1.
</event>
<event>
 5   0  0.2646718E-04  0.1500302E+04  0.7818609E-02  0.8884252E-01
        2   -1    0    0  501    0  0.00000000000E+00  0.00000000000E+00  0.15674203660E+04  0.15674203660E+04  0.25500000920E-02 0. -1.
       -2   -1    0    0    0  501  0.00000000000E+00  0.00000000000E+00 -0.35901433071E+03  0.35901433071E+03  0.25500000920E-02 0.  1.
    10030    2    1    2    0    0  0.00000000000E+00  0.00000000000E+00  0.12084060353E+04  0.19264346968E+04  0.15003018012E+04 0.  0.
        3    1    3    3  502    0 -0.30586864227E+03 -0.37107698457E+03 -0.13506085679E+03  0.49949494496E+03  0.10100000352E+00 0.  1.
       -3    1    3    3    0  502  0.30586864227E+03  0.37107698457E+03  0.13434668921E+04  0.14269397518E+04  0.10100000352E+00 0. -1.
</event>
<event>
 5   0  0.1004313E-04  0.1492587E+04  0.7818609E-02  0.8889398E-01
        4   -1    0    0  501    0  0.00000000000E+00  0.00000000000E+00  0.87054316154E+03  0.87054408791E+03  0.12699999809E+01 0. -1.
       -4   -1    0    0    0  501  0.00000000000E+00  0.00000000000E+00 -0.63977532007E+03  0.63977658058E+03  0.12699999809E+01 0.  1.
    10030    2    1    2    0    0  0.00000000000E+00  0.00000000000E+00  0.23076784147E+03  0.15103206685E+04  0.14925865888E+04 0.  0.
        1    1    3    3  502    0  0.36635416635E+03 -0.40484486087E+03 -0.39942307608E+03  0.67650094627E+03  0.50400001928E-02 0.  1.
       -1    1    3    3    0  502 -0.36635416635E+03  0.40484486087E+03  0.63019091756E+03  0.83381972222E+03  0.50400001928E-02 0. -1.
</event>
<event>
 5   0  0.1426929E-04  0.1519114E+04  0.7818609E-02  0.8871841E-01
        1   -1    0    0  501    0  0.00000000000E+00  0.00000000000E+00  0.94105724145E+03  0.94105724147E+03  0.50400001928E-02 0. -1.
       -1   -1    0    0    0  501  0.00000000000E+00  0.00000000000E+00 -0.61306250554E+03  0.61306250556E+03  0.50400001928E-02 0.  1.
    10030    2    1    2    0    0  0.00000000000E+00  0.00000000000E+00  0.32799473591E+03  0.15541197470E+04  0.15191140975E+04 0.  0.
        1    1    3    3  502    0 -0.50750474300E+03 -0.16396436841E+03 -0.38928051412E+03  0.66029137279E+03  0.50400001928E-02 0.  1.
       -1    1    3    3    0  502  0.50750474300E+03  0.16396436841E+03  0.71727525003E+03  0.89382837425E+03  0.50400001928E-02 0. -1.
</event>
<event>
 5   0  0.2696040E-04  0.1500995E+04  0.7818609E-02  0.8883792E-01
       -2   -1    0    0    0  501  0.00000000000E+00  0.00000000000E+00  0.52480122258E+03  0.52480122258E+03  0.25500000920E-02 0. -1.
        2   -1    0    0  501    0  0.00000000000E+00  0.00000000000E+00 -0.10732563806E+04  0.10732563806E+04  0.25500000920E-02 0.  1.
    10030    2    1    2    0    0  0.00000000000E+00  0.00000000000E+00 -0.54845515807E+03  0.15980576032E+04  0.15009946845E+04 0.  0.
        2    1    3    3  502    0 -0.25323730330E+03  0.13821011421E+03 -0.10118612317E+04  0.10521854968E+04  0.25500000920E-02 0.  1.
       -2    1    3    3    0  502  0.25323730330E+03 -0.13821011421E+03  0.46340607365E+03  0.54587210641E+03  0.25500000920E-02 0. -1.
</event>
<event>
 5   0  0.2734072E-04  0.1500393E+04  0.7818609E-02  0.8884191E-01
        2   -1    0    0  501    0  0.00000000000E+00  0.00000000000E+00  0.82313428931E+03  0.82313428931E+03  0.25500000920E-02 0. -1.
       -2   -1    0    0    0  501  0.00000000000E+00  0.00000000000E+00 -0.68372192430E+03  0.68372192431E+03  0.25500000920E-02 0.  1.
    10030    2    1    2    0    0  0.00000000000E+00  0.00000000000E+00  0.13941236500E+03  0.15068562136E+04  0.15003932288E+04 0.  0.
        5    1    3    3  502    0 -0.67456854550E+03  0.87923276290E+02 -0.24788317979E+03  0.72404515461E+03  0.46999998093E+01 0.  1.
       -5    1    3    3    0  502  0.67456854550E+03 -0.87923276290E+02  0.38729554479E+03  0.78281105901E+03  0.46999998093E+01 0. -1.
</event>
<event>
 5   0  0.1004313E-04  0.1537357E+04  0.7818609E-02  0.8859984E-01
       -4   -1    0    0    0  501  0.00000000000E+00  0.00000000000E+00  0.93999720286E+03  0.93999806079E+03  0.12699999809E+01 0. -1.
        4   -1    0    0  501    0  0.00000000000E+00  0.00000000000E+00 -0.62858170212E+03  0.62858298508E+03  0.12699999809E+01 0.  1.
    10030    2    1    2    0    0  0.00000000000E+00  0.00000000000E+00  0.31141550074E+03  0.15685810459E+04  0.15373571099E+04 0.  0.
        4    1    3    3  502    0 -0.33846988431E+03 -0.67931910536E+03  0.31460958597E+02  0.75962340294E+03  0.12699999809E+01 0. -1.
       -4    1    3    3    0  502  0.33846988431E+03  0.67931910536E+03  0.27995454214E+03  0.80895764293E+03  0.12699999809E+01 0.  1.
</event>
<event>
 5   0  0.1484251E-04  0.1500071E+04  0.7818609E-02  0.8884406E-01
        1   -1    0    0  501    0  0.00000000000E+00  0.00000000000E+00  0.83438051603E+03  0.83438051605E+03  0.50400001928E-02 0. -1.
       -1   -1    0    0    0  501  0.00000000000E+00  0.00000000000E+00 -0.67421668305E+03  0.67421668307E+03  0.50400001928E-02 0.  1.
    10030    2    1    2    0    0  0.00000000000E+00  0.00000000000E+00  0.16016383299E+03  0.15085971991E+04  0.15000710169E+04 0.  0.
        5    1    3    3  502    0  0.63660790299E+03 -0.27109580995E+03  0.37115506321E+03  0.78520107696E+03  0.46999998093E+01 0. -1.
       -5    1    3    3    0  502 -0.63660790299E+03  0.27109580995E+03 -0.21099123022E+03  0.72339612215E+03  0.46999998093E+01 0.  1.
</event>
<event>
 5   0  0.2641347E-04  0.1507923E+04  0.7818609E-02  0.8879201E-01
        2   -1    0    0  501    0  0.00000000000E+00  0.00000000000E+00  0.50502590079E+03  0.50502590080E+03  0.25500000920E-02 0. -1.
       -2   -1    0    0    0  501  0.00000000000E+00  0.00000000000E+00 -0.11256017448E+04  0.11256017448E+04  0.25500000920E-02 0.  1.
    10030    2    1    2    0    0  0.00000000000E+00  0.00000000000E+00 -0.62057584405E+03  0.16306276456E+04  0.15079231215E+04 0.  0.
        4    1    3    3  502    0  0.49048863166E+03  0.55265231825E+03 -0.47232345805E+03  0.87698046989E+03  0.12699999809E+01 0. -1.
       -4    1    3    3    0  502 -0.49048863166E+03 -0.55265231825E+03 -0.14825238600E+03  0.75364717574E+03  0.12699999809E+01 0.  1.
</event>
<event>
 5   0  0.1474203E-04  0.1497046E+04  0.7818609E-02  0.8886420E-01
       -1   -1    0    0    0  501  0.00000000000E+00  0.00000000000E+00  0.52443338323E+03  0.52443338325E+03  0.50400001928E-02 0. -1.
        1   -1    0    0  501    0  0.00000000000E+00  0.00000000000E+00 -0.10683655639E+04  0.10683655639E+04  0.50400001928E-02 0.  1.
    10030    2    1    2    0    0  0.00000000000E+00  0.00000000000E+00 -0.54393218070E+03  0.15927989472E+04  0.14970458473E+04 0.  0.
        3    1    3    3  502    0 -0.16992716925E+03  0.33824956727E+03  0.41509147894E+03  0.56177304910E+03  0.10100000352E+00 0. -1.
       -3    1    3    3    0  502  0.16992716925E+03 -0.33824956727E+03 -0.95902365963E+03  0.10310258981E+04  0.10100000352E+00 0.  1.
</event>
<event>
 5   0  0.1443750E-04  0.1444866E+04  0.7818609E-02  0.8921968E-01
        1   -1    0    0  501    0  0.00000000000E+00  0.00000000000E+00  0.10496700251E+04  0.10496700251E+04  0.50400001928E-02 0. -1.
       -1   -1    0    0    0  501  0.00000000000E+00  0.00000000000E+00 -0.49721263413E+03  0.49721263415E+03  0.50400001928E-02 0.  1.
    10030    2    1    2    0    0  0.00000000000E+00  0.00000000000E+00  0.55245739099E+03  0.15468826593E+04  0.14448656660E+04 0.  0.
        2    1    3    3  502    0  0.52633717984E+03  0.17218975074E+02  0.80569952436E+03  0.96253781409E+03  0.25500000920E-02 0.  1.
       -2    1    3    3    0  502 -0.52633717984E+03 -0.17218975074E+02 -0.25324213337E+03  0.58434484520E+03  0.25500000920E-02 0. -1.
</event>
<event>
 5   0  0.2696040E-04  0.1512950E+04  0.7818609E-02  0.8875886E-01
        2   -1    0    0  501    0  0.00000000000E+00  0.00000000000E+00  0.17034188085E+04  0.17034188085E+04  0.25500000920E-02 0.  1.
       -2   -1    0    0    0  501  0.00000000000E+00  0.00000000000E+00 -0.33594479985E+03  0.33594479986E+03  0.25500000920E-02 0. -1.
    10030    2    1    2    0    0  0.00000000000E+00  0.00000000000E+00  0.13674740086E+04  0.20393636083E+04  0.15129503504E+04 0.  0.
        2    1    3    3  502    0  0.12987628604E+03  0.71782453038E+03  0.95371117833E+03  0.12007101723E+04  0.25500000920E-02 0. -1.
       -2    1    3    3    0  502 -0.12987628604E+03 -0.71782453038E+03  0.41376283028E+03  0.83865343606E+03  0.25500000920E-02 0.  1.
</event>
<event>
 5   0  0.2646718E-04  0.1500050E+04  0.7818609E-02  0.8884420E-01
        2   -1    0    0  501    0  0.00000000000E+00  0.00000000000E+00  0.13079824701E+04  0.13079824701E+04  0.25500000920E-02 0.  1.
       -2   -1    0    0    0  501  0.00000000000E+00  0.00000000000E+00 -0.43008040790E+03  0.43008040790E+03  0.25500000920E-02 0. -1.
    10030    2    1    2    0    0  0.00000000000E+00  0.00000000000E+00  0.87790206223E+03  0.17380628780E+04  0.15000501782E+04 0.  0.
        3    1    3    3  502    0 -0.26547765473E+03 -0.33850979203E+03  0.11508217415E+04  0.12285999981E+04  0.10100000352E+00 0.  1.
       -3    1    3    3    0  502  0.26547765473E+03  0.33850979203E+03 -0.27291967928E+03  0.50946287990E+03  0.10100000352E+00 0. -1.
</event>
<event>
 5   0  0.1427609E-04  0.1517230E+04  0.7818609E-02  0.8873075E-01
       -1   -1    0    0    0  501  0.00000000000E+00  0.00000000000E+00  0.75776554340E+03  0.75776554342E+03  0.50400001928E-02 0. -1.
        1   -1    0    0  501    0  0.00000000000E+00  0.00000000000E+00 -0.75946533236E+03  0.75946533237E+03  0.50400001928E-02 0.  1.
    10030    2    1    2    0    0  0.00000000000E+00  0.00000000000E+00 -0.16997889534E+01  0.15172308758E+04  0.15172299236E+04 0.  0.
        4    1    3    3  502    0 -0.40692009485E+03 -0.46766145366E+03 -0.43811879178E+03  0.75910532039E+03  0.12699999809E+01 0.  1.
       -4    1    3    3    0  502  0.40692009485E+03  0.46766145366E+03  0.43641900283E+03  0.75812555540E+03  0.12699999809E+01 0. -1.
</event>
<event>
 5   0  0.2646718E-04  0.1499805E+04  0.7818609E-02  0.8884583E-01
       -2   -1    0    0    0  501  0.00000000000E+00  0.00000000000E+00  0.43086971831E+03  0.43086971832E+03  0.25500000920E-02 0.  1.
        2   -1    0    0  501    0  0.00000000000E+00  0.00000000000E+00 -0.13051598734E+04  0.13051598734E+04  0.25500000920E-02 0. -1.
    10030    2    1    2    0    0  0.00000000000E+00  0.00000000000E+00 -0.87429015508E+03  0.17360295917E+04  0.14998051434E+04 0.  0.
        3    1    3    3  502    0  0.54244757583E+03 -0.33752234159E+03  0.17362100809E+02  0.63911826475E+03  0.10100000352E+00 0.  1.
       -3    1    3    3    0  502 -0.54244757583E+03  0.33752234159E+03 -0.89165225589E+03  0.10969113270E+04  0.10100000352E+00 0. -1.
</event>
<event>
 5   0  0.1474203E-04  0.1489341E+04  0.7818609E-02  0.8891572E-01
        1   -1    0    0  501    0  0.00000000000E+00  0.00000000000E+00  0.63329354244E+03  0.63329354246E+03  0.50400001928E-02 0. -1.
       -1   -1    0    0    0  501  0.00000000000E+00  0.00000000000E+00 -0.87563558092E+03  0.87563558093E+03  0.50400001928E-02 0.  1.
    10030    2    1    2    0    0  0.00000000000E+00  0.00000000000E+00 -0.24234203847E+03  0.15089291234E+04  0.14893412758E+04 0.  0.
        3    1    3    3  502    0 -0.35959259052E+03 -0.62009612398E+03 -0.32558762662E+03  0.78729495549E+03  0.10100000352E+00 0.  1.
       -3    1    3    3    0  502  0.35959259052E+03  0.62009612398E+03  0.83245588144E+02  0.72163416790E+03  0.10100000352E+00 0. -1.
</event>
<event>
 5   0  0.2696040E-04  0.1498865E+04  0.7818609E-02  0.8885208E-01
        2   -1    0    0  501    0  0.00000000000E+00  0.00000000000E+00  0.18398985163E+04  0.18398985163E+04  0.25500000920E-02 0. -1.
       -2   -1    0    0    0  501  0.00000000000E+00  0.00000000000E+00 -0.30526084296E+03  0.30526084297E+03  0.25500000920E-02 0.  1.
    10030    2    1    2    0    0  0.00000000000E+00  0.00000000000E+00  0.15346376733E+04  0.21451593593E+04  0.14988648666E+04 0.  0.
        2    1    3    3  502    0 -0.46033123849E+03 -0.65765673153E+02 -0.73824853498E+02  0.47082914299E+03  0.25500000920E-02 0.  1.
       -2    1    3    3    0  502  0.46033123849E+03  0.65765673153E+02  0.16084625268E+04  0.16743302163E+04  0.25500000920E-02 0. -1.
</event>
<event>
 5   0  0.2646718E-04  0.1516016E+04  0.7818609E-02  0.8873872E-01
        2   -1    0    0  501    0  0.00000000000E+00  0.00000000000E+00  0.11642278563E+04  0.11642278563E+04  0.25500000920E-02 0. -1.
       -2   -1    0    0    0  501  0.00000000000E+00  0.00000000000E+00 -0.49352521635E+03  0.49352521636E+03  0.25500000920E-02 0.  1.
    10030    2    1    2    0    0  0.00000000000E+00  0.00000000000E+00  0.67070263990E+03  0.16577530726E+04  0.15160155733E+04 0.  0.
        3    1    3    3  502    0  0.14385219533E+03  0.62540780794E+03  0.77648805780E+03  0.10073540065E+04  0.10100000352E+00 0. -1.
       -3    1    3    3    0  502 -0.14385219533E+03 -0.62540780794E+03 -0.10578541789E+03  0.65039906610E+03  0.10100000352E+00 0.  1.
</event>
<event>
 5   0  0.2618901E-04  0.1499729E+04  0.7818609E-02  0.8884633E-01
        2   -1    0    0  501    0  0.00000000000E+00  0.00000000000E+00  0.84007110658E+03  0.84007110658E+03  0.25500000920E-02 0. -1.
       -2   -1    0    0    0  501  0.00000000000E+00  0.00000000000E+00 -0.66934444382E+03  0.66934444383E+03  0.25500000920E-02 0.  1.
    10030    2    1    2    0    0  0.00000000000E+00  0.00000000000E+00  0.17072666275E+03  0.15094155504E+04  0.14997292124E+04 0.  0.
        1    1    3    3  502    0 -0.62942913679E+03 -0.30534066756E+02  0.49441614096E+03  0.80097483602E+03  0.50400001928E-02 0. -1.
       -1    1    3    3    0  502  0.62942913679E+03  0.30534066756E+02 -0.32368947820E+03  0.70844071439E+03  0.50400001928E-02 0.  1.
</event>
<event>
 5   0  0.1426929E-04  0.1500879E+04  0.7818609E-02  0.8883869E-01
        1   -1    0    0  501    0  0.00000000000E+00  0.00000000000E+00  0.12414744412E+04  0.12414744412E+04  0.50400001928E-02 0.  1.
       -1   -1    0    0    0  501  0.00000000000E+00  0.00000000000E+00 -0.45362126404E+03  0.45362126407E+03  0.50400001928E-02 0. -1.
    10030    2    1    2    0    0  0.00000000000E+00  0.00000000000E+00  0.78785317719E+03  0.16950957053E+04  0.15008786831E+04 0.  0.
        1    1    3    3  502    0 -0.51693194204E+03  0.51278423322E+03  0.59907062564E+03  0.94289549637E+03  0.50400001928E-02 0.  1.
       -1    1    3    3    0  502  0.51693194204E+03 -0.51278423322E+03  0.18878255155E+03  0.75220020894E+03  0.50400001928E-02 0. -1.
</event>
<event>
 5   0  0.2646718E-04  0.1498214E+04  0.7818609E-02  0.8885641E-01
        2   -1    0    0  501    0  0.00000000000E+00  0.00000000000E+00  0.64993986399E+03  0.64993986400E+03  0.25500000920E-02 0.  1.
       -2   -1    0    0    0  501  0.00000000000E+00  0.00000000000E+00 -0.86340493014E+03  0.86340493014E+03  0.25500000920E-02 0. -1.
    10030    2    1    2    0    0  0.00000000000E+00  0.00000000000E+00 -0.21346506614E+03  0.15133447941E+04  0.14982139805E+04 0.  0.
        3    1    3    3  502    0  0.47431250051E+03 -0.35765992265E+03 -0.56770568540E+03  0.82169503093E+03  0.10100000352E+00 0. -1.
       -3    1    3    3    0  502 -0.47431250051E+03  0.35765992265E+03  0.35424061926E+03  0.69164976321E+03  0.10100000352E+00 0.  1.
</event>
<event>
 5   0  0.1427609E-04  0.1500651E+04  0.7818609E-02  0.8884020E-01
        1   -1    0    0  501    0  0.00000000000E+00  0.00000000000E+00  0.19334909960E+04  0.19334909960E+04  0.50400001928E-02 0.  1.
       -1   -1    0    0    0  501  0.00000000000E+00  0.00000000000E+00 -0.29117722966E+03  0.29117722971E+03  0.50400001928E-02 0. -1.
    10030    2    1    2    0    0  0.00000000000E+00  0.00000000000E+00  0.16423137663E+04  0.22246682257E+04  0.15006512611E+04 0.  0.
        4    1    3    3  502    0  0.18875749457E+03 -0.36512732361E+03  0.17517404965E+04  0.17993175746E+04  0.12699999809E+01 0.  1.
       -4    1    3    3    0  502 -0.18875749457E+03  0.36512732361E+03 -0.10942673021E+03  0.42535065109E+03  0.12699999809E+01 0. -1.
</event>
<event>
 5   0  0.2734072E-04  0.1508905E+04  0.7818609E-02  0.8878553E-01
        2   -1    0    0  501    0  0.00000000000E+00  0.00000000000E+00  0.14579297301E+04  0.14579297301E+04  0.25500000920E-02 0.  1.
       -2   -1    0    0    0  501  0.00000000000E+00  0.00000000000E+00 -0.39041544632E+03  0.39041544633E+03  0.25500000920E-02 0. -1.
    10030    2    1    2    0    0  0.00000000000E+00  0.00000000000E+00  0.10675142838E+04  0.18483451764E+04  0.15089046176E+04 0.  0.
        5    1    3    3  502    0  0.30014931806E+03  0.34421146948E+03 -0.20183518696E+03  0.49933023296E+03  0.46999998093E+01 0. -1.
       -5    1    3    3    0  502 -0.30014931806E+03 -0.34421146948E+03  0.12693494707E+04  0.13490149435E+04  0.46999998093E+01 0.  1.
</event>
<event>
 5   0  0.1427609E-04  0.1410636E+04  0.7818609E-02  0.8946156E-01
        1   -1    0    0  501    0  0.00000000000E+00  0.00000000000E+00  0.49953141413E+03  0.49953141416E+03  0.50400001928E-02 0. -1.
       -1   -1    0    0    0  501  0.00000000000E+00  0.00000000000E+00 -0.99587979128E+03  0.99587979129E+03  0.50400001928E-02 0.  1.
    10030    2    1    2    0    0  0.00000000000E+00  0.00000000000E+00 -0.49634837715E+03  0.14954112055E+04  0.14106356588E+04 0.  0.
        4    1    3    3  502    0  0.69237121724E+02 -0.70173413170E+03 -0.23151152919E+03  0.74217502765E+03  0.12699999809E+01 0. -1.
       -4    1    3    3    0  502 -0.69237121724E+02  0.70173413170E+03 -0.26483684796E+03  0.75323617780E+03  0.12699999809E+01 0.  1.
</event>
<event>
 5   0  0.1474203E-04  0.1499917E+04  0.7818609E-02  0.8884508E-01
       -1   -1    0    0    0  501  0.00000000000E+00  0.00000000000E+00  0.48402511374E+03  0.48402511377E+03  0.50400001928E-02 0. -1.
        1   -1    0    0  501    0  0.00000000000E+00  0.00000000000E+00 -0.11620013561E+04  0.11620013561E+04  0.50400001928E-02 0.  1.
    10030    2    1    2    0    0  0.00000000000E+00  0.00000000000E+00 -0.67797624234E+03  0.16460264699E+04  0.14999171158E+04 0.  0.
        3    1    3    3  502    0 -0.30036042057E+03 -0.52856392257E+03  0.14292632604E+03  0.62451913290E+03  0.10100000352E+00 0. -1.
       -3    1    3    3    0  502  0.30036042057E+03  0.52856392257E+03 -0.82090256838E+03  0.10215073370E+04  0.10100000352E+00 0.  1.
</event>
<event>
 5   0  0.2618901E-04  0.1494561E+04  0.7818609E-02  0.8888078E-01
       -2   -1    0    0    0  501  0.00000000000E+00  0.00000000000E+00  0.45445664594E+03  0.45445664594E+03  0.25500000920E-02 0.  1.
        2   -1    0    0  501    0  0.00000000000E+00  0.00000000000E+00 -0.12287813023E+04  0.12287813023E+04  0.25500000920E-02 0. -1.
    10030    2    1    2    0    0  0.00000000000E+00  0.00000000000E+00 -0.77432465635E+03  0.16832379482E+04  0.14945605765E+04 0.  0.
        1    1    3    3  502    0  0.23665576604E+02  0.70808163281E+03 -0.11948551827E+03  0.71848204385E+03  0.50400001928E-02 0.  1.
       -1    1    3    3    0  502 -0.23665576604E+02 -0.70808163281E+03 -0.65483913808E+03  0.96475590438E+03  0.50400001928E-02 0. -1.
</event>
<event>
 5   0  0.2641347E-04  0.1506550E+04  0.7818609E-02  0.8880109E-01
        2   -1    0    0  501    0  0.00000000000E+00  0.00000000000E+00  0.25673543712E+03  0.25673543713E+03  0.25500000920E-02 0.  1.
       -2   -1    0    0    0  501  0.00000000000E+00  0.00000000000E+00 -0.22101490871E+04  0.22101490871E+04  0.25500000920E-02 0. -1.
    10030    2    1    2    0    0  0.00000000000E+00  0.00000000000E+00 -0.19534136500E+04  0.24668845243E+04  0.15065504864E+04 0.  0.
        4    1    3    3  502    0  0.42777801603E+03  0.59986432186E+03 -0.71993287608E+03  0.10301146512E+04  0.12699999809E+01 0.  1.
       -4    1    3    3    0  502 -0.42777801603E+03 -0.59986432186E+03 -0.12334807739E+04  0.14367698731E+04  0.12699999809E+01 0. -1.
</event>
<event>
 5   0  0.2646718E-04  0.1493950E+04  0.7818609E-02  0.8888486E-01
       -2   -1    0    0    0  501  0.00000000000E+00  0.00000000000E+00  0.11840346224E+04  0.11840346224E+04  0.25500000920E-02 0.  1.
        2   -1    0    0  501    0  0.00000000000E+00  0.00000000000E+00 -0.47124582974E+03  0.47124582974E+03  0.25500000920E-02 0. -1.
    10030    2    1    2    0    0  0.00000000000E+00  0.00000000000E+00  0.71278879263E+03  0.16552804521E+04  0.14939496351E+04 0.  0.
        3    1    3    3  502    0  0.38268379169E+02 -0.71699449372E+03  0.58461277951E+03  0.92591451281E+03  0.10100000352E+00 0.  1.
       -3    1    3    3    0  502 -0.38268379169E+02  0.71699449372E+03  0.12817601312E+03  0.72936593930E+03  0.10100000352E+00 0. -1.
</event>
<event>
 5   0  0.1443750E-04  0.1501402E+04  0.7818609E-02  0.8883521E-01
        1   -1    0    0  501    0  0.00000000000E+00  0.00000000000E+00  0.34640345228E+03  0.34640345232E+03  0.50400001928E-02 0. -1.
       -1   -1    0    0    0  501  0.00000000000E+00  0.00000000000E+00 -0.16268668850E+04  0.16268668850E+04  0.50400001928E-02 0.  1.
    10030    2    1    2    0    0  0.00000000000E+00  0.00000000000E+00 -0.12804634327E+04  0.19732703373E+04  0.15014024183E+04 0.  0.
        2    1    3    3  502    0  0.53620349776E+03 -0.50975863465E+03 -0.80743151475E+03  0.10951318220E+04  0.25500000920E-02 0.  1.
       -2    1    3    3    0  502 -0.53620349776E+03  0.50975863465E+03 -0.47303191798E+03  0.87813851530E+03  0.25500000920E-02 0. -1.
</event>
<event>
 5   0  0.1443750E-04  0.1495942E+04  0.7818609E-02  0.8887156E-01
        1   -1    0    0  501    0  0.00000000000E+00  0.00000000000E+00  0.11092686723E+04  0.11092686723E+04  0.50400001928E-02 0. -1.
       -1   -1    0    0    0  501  0.00000000000E+00  0.00000000000E+00 -0.50435071923E+03  0.50435071926E+03  0.50400001928E-02 0.  1.
    10030    2    1    2    0    0  0.00000000000E+00  0.00000000000E+00  0.60491795308E+03  0.16136193916E+04  0.14959417806E+04 0.  0.
        2    1    3    3  502    0  0.30568067297E+03 -0.28021905543E+03 -0.36900175347E+03  0.55509070153E+03  0.25500000920E-02 0.  1.
       -2    1    3    3    0  502 -0.30568067297E+03  0.28021905543E+03  0.97391970655E+03  0.10585286901E+04  0.25500000920E-02 0. -1.
</event>
<event>
 5   0  0.2734072E-04  0.1507111E+04  0.7818609E-02  0.8879738E-01
       -2   -1    0    0    0  501  0.00000000000E+00  0.00000000000E+00  0.42999689449E+03  0.42999689450E+03  0.25500000920E-02 0.  1.
        2   -1    0    0  501    0  0.00000000000E+00  0.00000000000E+00 -0.13205807161E+04  0.13205807161E+04  0.25500000920E-02 0. -1.
    10030    2    1    2    0    0  0.00000000000E+00  0.00000000000E+00 -0.89058382162E+03  0.17505776106E+04  0.15071106222E+04 0.  0.
        5    1    3    3  502    0 -0.33685340436E+03 -0.36371105552E+03 -0.11044805842E+04  0.12106425562E+04  0.46999998093E+01 0. -1.
       -5    1    3    3    0  502  0.33685340436E+03  0.36371105552E+03  0.21389676260E+03  0.53993505442E+03  0.46999998093E+01 0.  1.
</event>
<event>
 5   0  0.1426929E-04  0.1501601E+04  0.7818609E-02  0.8883389E-01
       -1   -1    0    0    0  501  0.00000000000E+00  0.00000000000E+00  0.10067037477E+04  0.10067037477E+04  0.50400001928E-02 0. -1.
        1   -1    0    0  501    0  0.00000000000E+00  0.00000000000E+00 -0.55994774967E+03  0.55994774970E+03  0.50400001928E-02 0.  1.
    10030    2    1    2    0    0  0.00000000000E+00  0.00000000000E+00  0.44675599805E+03  0.15666514974E+04  0.15016011430E+04 0.  0.
        1    1    3    3  502    0  0.17511122832E+03  0.37338619336E+03  0.87794869009E+03  0.96998716183E+03  0.50400001928E-02 0. -1.
       -1    1    3    3    0  502 -0.17511122832E+03 -0.37338619336E+03 -0.43119269204E+03  0.59666433559E+03  0.50400001928E-02 0.  1.
</event>
<event>
 5   0  0.2646718E-04  0.1508970E+04  0.7818609E-02  0.8878510E-01
        2   -1    0    0  501    0  0.00000000000E+00  0.00000000000E+00  0.10792184130E+04  0.10792184130E+04  0.25500000920E-02 0.  1.
       -2   -1    0    0    0  501  0.00000000000E+00  0.00000000000E+00 -0.52746281287E+03  0.52746281288E+03  0.25500000920E-02 0. -1.
    10030    2    1    2    0    0  0.00000000000E+00  0.00000000000E+00  0.55175560009E+03  0.16066812258E+04  0.15089699531E+04 0.  0.
        3    1    3    3  502    0 -0.28686194783E+03 -0.77404338166E+02  0.10143029471E+04  0.10569255827E+04  0.10100000352E+00 0.  1.
       -3    1    3    3    0  502  0.28686194783E+03  0.77404338166E+02 -0.46254734704E+03  0.54975564311E+03  0.10100000352E+00 0. -1.
</event>
<event>
 5   0  0.1443750E-04  0.1507503E+04  0.7818609E-02  0.8879479E-01
        1   -1    0    0  501    0  0.00000000000E+00  0.00000000000E+00  0.11868691694E+04  0.11868691694E+04  0.50400001928E-02 0.  1.
       -1   -1    0    0    0  501  0.00000000000E+00  0.00000000000E+00 -0.47868910334E+03  0.47868910336E+03  0.50400001928E-02 0. -1.
    10030    2    1    2    0    0  0.00000000000E+00  0.00000000000E+00  0.70818006602E+03  0.16655582727E+04  0.15075030195E+04 0.  0.
        2    1    3    3  502    0 -0.16567017596E+03  0.30609276636E+03  0.10927700489E+04  0.11468590884E+04  0.25500000920E-02 0.  1.
       -2    1    3    3    0  502  0.16567017596E+03 -0.30609276636E+03 -0.38458998293E+03  0.51869918430E+03  0.25500000920E-02 0. -1.
</event>
<event>
 5   0  0.1427609E-04  0.1475309E+04  0.7818609E-02  0.8901040E-01
       -1   -1    0    0    0  501  0.00000000000E+00  0.00000000000E+00  0.37847535654E+03  0.37847535657E+03  0.50400001928E-02 0.  1.
        1   -1    0    0  501    0  0.00000000000E+00  0.00000000000E+00 -0.14377010734E+04  0.14377010734E+04  0.50400001928E-02 0. -1.
    10030    2    1    2    0    0  0.00000000000E+00  0.00000000000E+00 -0.10592257169E+04  0.18161764300E+04  0.14753093593E+04 0.  0.
        4    1    3    3  502    0 -0.34496021368E+03  0.64517784224E+03 -0.64562444933E+03  0.97574819478E+03  0.12699999809E+01 0.  1.
       -4    1    3    3    0  502  0.34496021368E+03 -0.64517784224E+03 -0.41360126757E+03  0.84042823524E+03  0.12699999809E+01 0. -1.
</event>
<event>
 5   0  0.1484251E-04  0.1495430E+04  0.7818609E-02  0.8887498E-01
       -1   -1    0    0    0  501  0.00000000000E+00  0.00000000000E+00  0.46598286719E+03  0.46598286722E+03  0.50400001928E-02 0. -1.
        1   -1    0    0  501    0  0.00000000000E+00  0.00000000000E+00 -0.11997818476E+04  0.11997818476E+04  0.50400001928E-02 0.  1.
    10030    2    1    2    0    0  0.00000000000E+00  0.00000000000E+00 -0.73379898042E+03  0.16657647148E+04  0.14954300858E+04 0.  0.
        5    1    3    3  502    0 -0.48089090801E+03 -0.38511290256E+03 -0.83881567203E+03  0.10407698279E+04  0.46999998093E+01 0.  1.
       -5    1    3    3    0  502  0.48089090801E+03  0.38511290256E+03  0.10501669161E+03  0.62499488689E+03  0.46999998093E+01 0. -1.
</event>
<event>
 5   0  0.2641347E-04  0.1495261E+04  0.7818609E-02  0.8887611E-01
       -2   -1    0    0    0  501  0.00000000000E+00  0.00000000000E+00  0.85850057534E+03  0.85850057534E+03  0.25500000920E-02 0. -1.
        2   -1    0    0  501    0  0.00000000000E+00  0.00000000000E+00 -0.65107819099E+03  0.65107819100E+03  0.25500000920E-02 0.  1.
    10030    2    1    2    0    0  0.00000000000E+00  0.00000000000E+00  0.20742238435E+03  0.15095787663E+04  0.14952605145E+04 0.  0.
        4    1    3    3  502    0 -0.53949112130E+03  0.50893904198E+03  0.19884607296E+03  0.76786131042E+03  0.12699999809E+01 0. -1.
       -4    1    3    3    0  502  0.53949112130E+03 -0.50893904198E+03  0.85763113811E+01  0.74171745592E+03  0.12699999809E+01 0.  1.
</event>
<event>
 5   0  0.1484251E-04  0.1506412E+04  0.7818609E-02  0.8880200E-01
        1   -1    0    0  501    0  0.00000000000E+00  0.00000000000E+00  0.80706488928E+03  0.80706488930E+03  0.50400001928E-02 0.  1.
       -1   -1    0    0    0  501  0.00000000000E+00  0.00000000000E+00 -0.70294175611E+03  0.70294175612E+03  0.50400001928E-02 0. -1.
    10030    2    1    2    0    0  0.00000000000E+00  0.00000000000E+00  0.10412313318E+03  0.15100066454E+04  0.15064124410E+04 0.  0.
        5    1    3    3  502    0 -0.15250191128E+03  0.47739786677E+03  0.61565921179E+03  0.79386643159E+03  0.46999998093E+01 0.  1.
       -5    1    3    3    0  502  0.15250191128E+03 -0.47739786677E+03 -0.51153607862E+03  0.71614021383E+03  0.46999998093E+01 0. -1.
</event>
<event>
 5   0  0.2696040E-04  0.1499523E+04  0.7818609E-02  0.8884770E-01
        2   -1    0    0  501    0  0.00000000000E+00  0.00000000000E+00  0.59863909786E+03  0.59863909787E+03  0.25500000920E-02 0. -1.
       -2   -1    0    0    0  501  0.00000000000E+00  0.00000000000E+00 -0.93903371458E+03  0.93903371458E+03  0.25500000920E-02 0.  1.
    10030    2    1    2    0    0  0.00000000000E+00  0.00000000000E+00 -0.34039461672E+03  0.15376728125E+04  0.14995229852E+04 0.  0.
        2    1    3    3  502    0 -0.46629077461E+03  0.40925098214E+03  0.26149867668E+03  0.67327186988E+03  0.25500000920E-02 0. -1.
       -2    1    3    3    0  502  0.46629077461E+03 -0.40925098214E+03 -0.60189329340E+03  0.86440094257E+03  0.25500000920E-02 0.  1.
</event>
<event>
 5   0  0.1443750E-04  0.1499000E+04  0.7818609E-02  0.8885118E-01
        1   -1    0    0  501    0  0.00000000000E+00  0.00000000000E+00  0.41033515902E+03  0.41033515906E+03  0.50400001928E-02 0.  1.
       -1   -1    0    0    0  501  0.00000000000E+00  0.00000000000E+00 -0.13690038186E+04  0.13690038186E+04  0.50400001928E-02 0. -1.
    10030    2    1    2    0    0  0.00000000000E+00  0.00000000000E+00 -0.95866865960E+03  0.17793389777E+04  0.14990001997E+04 0.  0.
        2    1    3    3  502    0  0.23989306020E+03 -0.53060890852E+03  0.80776681887E+02  0.58789400956E+03  0.25500000920E-02 0.  1.
       -2    1    3    3    0  502 -0.23989306020E+03  0.53060890852E+03 -0.10394453415E+04  0.11914449681E+04  0.25500000920E-02 0. -1.
</event>
<event>
 5   0  0.1426929E-04  0.1500149E+04  0.7818609E-02  0.8884354E-01
        1   -1    0    0  501    0  0.00000000000E+00  0.00000000000E+00  0.19310760585E+04  0.19310760585E+04  0.50400001928E-02 0.  1.
       -1   -1    0    0    0  501  0.00000000000E+00  0.00000000000E+00 -0.29134636154E+03  0.29134636159E+03  0.50400001928E-02 0. -1.
    10030    2    1    2    0    0  0.00000000000E+00  0.00000000000E+00  0.16397296969E+04  0.22224224201E+04  0.15001493040E+04 0.  0.
        1    1    3    3  502    0 -0.18688455261E+03  0.47645359656E+03  0.75151262094E+01  0.51184992217E+03  0.50400001928E-02 0. -1.
       -1    1    3    3    0  502  0.18688455261E+03 -0.47645359656E+03  0.16322145707E+04  0.17105724979E+04  0.50400001928E-02 0.  1.
</event>
<event>
 5   0  0.2696040E-04  0.1490264E+04  0.7818609E-02  0.8890953E-01
        2   -1    0    0  501    0  0.00000000000E+00  0.00000000000E+00  0.16210425969E+04  0.16210425969E+04  0.25500000920E-02 0. -1.
       -2   -1    0    0    0  501  0.00000000000E+00  0.00000000000E+00 -0.34250902727E+03  0.34250902728E+03  0.25500000920E-02 0.  1.
    10030    2    1    2    0    0  0.00000000000E+00  0.00000000000E+00  0.12785335697E+04  0.19635516242E+04  0.14902640344E+04 0.  0.
        2    1    3    3  502    0  0.73068173781E+03 -0.53827792003E+02  0.81813121272E+03  0.10982403719E+04  0.25500000920E-02 0. -1.
       -2    1    3    3    0  502 -0.73068173781E+03  0.53827792003E+02  0.46040235695E+03  0.86531125236E+03  0.25500000920E-02 0.  1.
</event>
<event>
 5   0  0.2641347E-04  0.1492303E+04  0.7818609E-02  0.8889588E-01
       -2   -1    0    0    0  501  0.00000000000E+00  0.00000000000E+00  0.36725773053E+03  0.36725773054E+03  0.25500000920E-02 0. -1.
        2   -1    0    0  501    0  0.00000000000E+00  0.00000000000E+00 -0.15159432376E+04  0.15159432376E+04  0.25500000920E-02 0.  1.
    10030    2    1    2    0    0  0.00000000000E+00  0.00000000000E+00 -0.11486855071E+04  0.18832009681E+04  0.14923027482E+04 0.  0.
        4    1    3    3  502    0  0.11297569043E+03 -0.71125058661E+03 -0.82066211533E+03  0.10918465204E+04  0.12699999809E+01 0.  1.
       -4    1    3    3    0  502 -0.11297569043E+03  0.71125058661E+03 -0.32802339172E+03  0.79135444776E+03  0.12699999809E+01 0. -1.
</event>
<event>
 5   0  0.1443750E-04  0.1503417E+04  0.7818609E-02  0.8882184E-01
       -1   -1    0    0    0  501  0.00000000000E+00  0.00000000000E+00  0.11326746718E+04  0.11326746718E+04  0.50400001928E-02 0.  1.
        1   -1    0    0  501    0  0.00000000000E+00  0.00000000000E+00 -0.49887745456E+03  0.49887745459E+03  0.50400001928E-02 0. -1.
    10030    2    1    2    0    0  0.00000000000E+00  0.00000000000E+00  0.63379721722E+03  0.16315521264E+04  0.15034172503E+04 0.  0.
        2    1    3    3  502    0 -0.10124693489E+03 -0.65534913638E+03 -0.67297662535E+02  0.66653012518E+03  0.25500000920E-02 0. -1.
       -2    1    3    3    0  502  0.10124693489E+03  0.65534913638E+03  0.70109487976E+03  0.96502200121E+03  0.25500000920E-02 0.  1.
</event>
<event>
 5   0  0.1426929E-04  0.1475696E+04  0.7818609E-02  0.8900777E-01
       -1   -1    0    0    0  501  0.00000000000E+00  0.00000000000E+00  0.52003045584E+03  0.52003045586E+03  0.50400001928E-02 0.  1.
        1   -1    0    0  501    0  0.00000000000E+00  0.00000000000E+00 -0.10469000376E+04  0.10469000376E+04  0.50400001928E-02 0. -1.
    10030    2    1    2    0    0  0.00000000000E+00  0.00000000000E+00 -0.52686958177E+03  0.15669304935E+04  0.14756963154E+04 0.  0.
        1    1    3    3  502    0 -0.65610097654E+03 -0.33727597486E+03 -0.24855677171E+03  0.77846261531E+03  0.50400001928E-02 0.  1.
       -1    1    3    3    0  502  0.65610097654E+03  0.33727597486E+03 -0.27831281006E+03  0.78846787817E+03  0.50400001928E-02 0. -1.
</event>
<event>
 5   0  0.1427609E-04  0.1497968E+04  0.7818609E-02  0.8885805E-01
        1   -1    0    0  501    0  0.00000000000E+00  0.00000000000E+00  0.68299016653E+03  0.68299016655E+03  0.50400001928E-02 0.  1.
       -1   -1    0    0    0  501  0.00000000000E+00  0.00000000000E+00 -0.82135420514E+03  0.82135420516E+03  0.50400001928E-02 0. -1.
    10030    2    1    2    0    0  0.00000000000E+00  0.00000000000E+00 -0.13836403862E+03  0.15043443717E+04  0.14979677505E+04 0.  0.
        4    1    3    3  502    0  0.43108021395E+03  0.59993585883E+03  0.54720840310E+02  0.74077605849E+03  0.12699999809E+01 0.  1.
       -4    1    3    3    0  502 -0.43108021395E+03 -0.59993585883E+03 -0.19308487893E+03  0.76356831321E+03  0.12699999809E+01 0. -1.
</event>
<event>
 5   0  0.2641347E-04  0.1499390E+04  0.7818609E-02  0.8884858E-01
        2   -1    0    0  501    0  0.00000000000E+00  0.00000000000E+00  0.14808757231E+04  0.14808757231E+04  0.25500000920E-02 0. -1.
       -2   -1    0    0    0  501  0.00000000000E+00  0.00000000000E+00 -0.37953409860E+03  0.37953409861E+03  0.25500000920E-02 0.  1.
    10030    2    1    2    0    0  0.00000000000E+00  0.00000000000E+00  0.11013416245E+04  0.18604098217E+04  0.14993903197E+04 0.  0.
        4    1    3    3  502    0 -0.11083899566E+03  0.22649129750E+03  0.14266787565E+04  0.14487917304E+04  0.12699999809E+01 0. -1.
       -4    1    3    3    0  502  0.11083899566E+03 -0.22649129750E+03 -0.32533713198E+03  0.41161809137E+03  0.12699999809E+01 0.  1.
</event>
<event>
 5   0  0.1474203E-04  0.1508315E+04  0.7818609E-02  0.8878942E-01
       -1   -1    0    0    0  501  0.00000000000E+00  0.00000000000E+00  0.63228510875E+03  0.63228510877E+03  0.50400001928E-02 0. -1.
        1   -1    0    0  501    0  0.00000000000E+00  0.00000000000E+00 -0.89952092463E+03  0.89952092464E+03  0.50400001928E-02 0.  1.
    10030    2    1    2    0    0  0.00000000000E+00  0.00000000000E+00 -0.26723581588E+03  0.15318060334E+04  0.15083152000E+04 0.  0.
        3    1    3    3  502    0 -0.55750607786E+03 -0.18362627404E+03  0.34727770810E+03  0.68200692966E+03  0.10100000352E+00 0. -1.
       -3    1    3    3    0  502  0.55750607786E+03  0.18362627404E+03 -0.61451352398E+03  0.84979910374E+03  0.10100000352E+00 0.  1.
</event>
<event>
 5   0  0.1426929E-04  0.1501987E+04  0.7818609E-02  0.8883133E-01
       -1   -1    0    0    0  501  0.00000000000E+00  0.00000000000E+00  0.11693992057E+04  0.11693992057E+04  0.50400001928E-02 0.  1.
        1   -1    0    0  501    0  0.00000000000E+00  0.00000000000E+00 -0.48229144540E+03  0.48229144543E+03  0.50400001928E-02 0. -1.
    10030    2    1    2    0    0  0.00000000000E+00  0.00000000000E+00  0.68710776029E+03  0.16516906511E+04  0.15019869949E+04 0.  0.
        1    1    3    3  502    0 -0.29503006684E+03 -0.19923694685E+03  0.10707122422E+04  0.11283451630E+04  0.50400001928E-02 0.  1.
       -1    1    3    3    0  502  0.29503006684E+03  0.19923694685E+03 -0.38360448192E+03  0.52334548809E+03  0.50400001928E-02 0. -1.
</event>
<event>
 5   0  0.1426929E-04  0.1500046E+04  0.7818609E-02  0.8884422E-01
        1   -1    0    0  501    0  0.00000000000E+00  0.00000000000E+00  0.94091416299E+03  0.94091416301E+03  0.50400001928E-02 0.  1.
       -1   -1    0    0    0  501  0.00000000000E+00  0.00000000000E+00 -0.59785964541E+03  0.59785964544E+03  0.50400001928E-02 0. -1.
    10030    2    1    2    0    0  0.00000000000E+00  0.00000000000E+00  0.34305451758E+03  0.15387738084E+04  0.15000461431E+04 0.  0.
        1    1    3    3  502    0 -0.16752132913E+03  0.48865157921E+03 -0.38628635209E+03  0.64502783460E+03  0.50400001928E-02 0. -1.
       -1    1    3    3    0  502  0.16752132913E+03 -0.48865157921E+03  0.72934086967E+03  0.89374597384E+03  0.50400001928E-02 0.  1.
</event>
<event>
 5   0  0.2641347E-04  0.1500916E+04  0.7818609E-02  0.8883844E-01
       -2   -1    0    0    0  501  0.00000000000E+00  0.00000000000E+00  0.17246209827E+04  0.17246209827E+04  0.25500000920E-02 0.  1.
        2   -1    0    0  501    0  0.00000000000E+00  0.00000000000E+00 -0.32655715588E+03  0.32655715589E+03  0.25500000920E-02 0. -1.
    10030    2    1    2    0    0  0.00000000000E+00  0.00000000000E+00  0.13980638269E+04  0.20511781386E+04  0.15009161510E+04 0.  0.
        4    1    3    3  502    0 -0.12148315197E+02 -0.70336268783E+03  0.34182662252E+03  0.78212128532E+03  0.12699999809E+01 0. -1.
       -4    1    3    3    0  502  0.12148315197E+02  0.70336268783E+03  0.10562372043E+04  0.12690568533E+04  0.12699999809E+01 0.  1.
</event>
<event>
 5   0  0.2646718E-04  0.1499996E+04  0.7818609E-02  0.8884456E-01
        2   -1    0    0  501    0  0.00000000000E+00  0.00000000000E+00  0.17854014208E+04  0.17854014208E+04  0.25500000920E-02 0.  1.
       -2   -1    0    0    0  501  0.00000000000E+00  0.00000000000E+00 -0.31505330946E+03  0.31505330947E+03  0.25500000920E-02 0. -1.
    10030    2    1    2    0    0  0.00000000000E+00  0.00000000000E+00  0.14703481114E+04  0.21004547303E+04  0.14999955018E+04 0.  0.
        3    1    3    3  502    0  0.42930675770E+03 -0.59786226512E+03  0.53344698229E+03  0.90901555177E+03  0.10100000352E+00 0.  1.
       -3    1    3    3    0  502 -0.42930675770E+03  0.59786226512E+03  0.93690112908E+03  0.11914391785E+04  0.10100000352E+00 0. -1.
</event>
<event>
 5   0  0.2734072E-04  0.1498653E+04  0.7818609E-02  0.8885349E-01
       -2   -1    0    0    0  501  0.00000000000E+00  0.00000000000E+00  0.63269667267E+03  0.63269667267E+03  0.25500000920E-02 0.  1.
        2   -1    0    0  501    0  0.00000000000E+00  0.00000000000E+00 -0.88745573396E+03  0.88745573396E+03  0.25500000920E-02 0. -1.
    10030    2    1    2    0    0  0.00000000000E+00  0.00000000000E+00 -0.25475906129E+03  0.15201524066E+04  0.14986531153E+04 0.  0.
        5    1    3    3  502    0  0.35448651340E+03 -0.46981457389E+03 -0.59780174249E+03  0.83891324661E+03  0.46999998093E+01 0. -1.
       -5    1    3    3    0  502 -0.35448651340E+03  0.46981457389E+03  0.34304268120E+03  0.68123916002E+03  0.46999998093E+01 0.  1.
</event>
<event>
 5   0  0.2646718E-04  0.1504658E+04  0.7818609E-02  0.8881361E-01
        2   -1    0    0  501    0  0.00000000000E+00  0.00000000000E+00  0.17454745251E+04  0.17454745251E+04  0.25500000920E-02 0. -1.
       -2   -1    0    0    0  501  0.00000000000E+00  0.00000000000E+00 -0.32426644875E+03  0.32426644877E+03  0.25500000920E-02 0.  1.
    10030    2    1    2    0    0  0.00000000000E+00  0.00000000000E+00  0.14212080763E+04  0.20697409738E+04  0.15046578689E+04 0.  0.
        3    1    3    3  502    0  0.27561322908E+03  0.31095342184E+02  0.16725782112E+04  0.16954195514E+04  0.10100000352E+00 0. -1.
       -3    1    3    3    0  502 -0.27561322908E+03 -0.31095342184E+02 -0.25137013494E+03  0.37432142243E+03  0.10100000352E+00 0.  1.
</event>
<event>
 5   0  0.1484251E-04  0.1526228E+04  0.7818609E-02  0.8867197E-01
        1   -1    0    0  501    0  0.00000000000E+00  0.00000000000E+00  0.19491263677E+04  0.19491263677E+04  0.50400001928E-02 0.  1.
       -1   -1    0    0    0  501  0.00000000000E+00  0.00000000000E+00 -0.29877118824E+03  0.29877118828E+03  0.50400001928E-02 0. -1.
    10030    2    1    2    0    0  0.00000000000E+00  0.00000000000E+00  0.16503551795E+04  0.22478975560E+04  0.15262277693E+04 0.  0.
        5    1    3    3  502    0  0.69720671048E+03 -0.25163126499E+03  0.10923487432E+04  0.13200997528E+04  0.46999998093E+01 0.  1.
       -5    1    3    3    0  502 -0.69720671048E+03  0.25163126499E+03  0.55800643629E+03  0.92779780318E+03  0.46999998093E+01 0. -1.
</event>
<event>
 5   0  0.2734072E-04  0.1484040E+04  0.7818609E-02  0.8895136E-01
        2   -1    0    0  501    0  0.00000000000E+00  0.00000000000E+00  0.32775163729E+03  0.32775163730E+03  0.25500000920E-02 0.  1.
       -2   -1    0    0    0  501  0.00000000000E+00  0.00000000000E+00 -0.16799119765E+04  0.16799119765E+04  0.25500000920E-02 0. -1.
    10030    2    1    2    0    0  0.00000000000E+00  0.00000000000E+00 -0.13521603392E+04  0.20076636138E+04  0.14840402970E+04 0.  0.
        5    1    3    3  502    0  0.56711417108E+03 -0.10001699778E+02 -0.13232583073E+04  0.14397059265E+04  0.46999998093E+01 0. -1.
       -5    1    3    3    0  502 -0.56711417108E+03  0.10001699778E+02 -0.28902031874E+02  0.56795768723E+03  0.46999998093E+01 0.  1.
</event>
<event>
 5   0  0.2696040E-04  0.1500646E+04  0.7818609E-02  0.8884024E-01
        2   -1    0    0  501    0  0.00000000000E+00  0.00000000000E+00  0.95757274211E+03  0.95757274211E+03  0.25500000920E-02 0. -1.
       -2   -1    0    0    0  501  0.00000000000E+00  0.00000000000E+00 -0.58792850942E+03  0.58792850942E+03  0.25500000920E-02 0.  1.
    10030    2    1    2    0    0  0.00000000000E+00  0.00000000000E+00  0.36964423269E+03  0.15455012515E+04  0.15006456143E+04 0.  0.
        2    1    3    3  502    0  0.66742059152E+03  0.18550327300E+03 -0.11210563508E+03  0.70173312854E+03  0.25500000920E-02 0.  1.
       -2    1    3    3    0  502 -0.66742059152E+03 -0.18550327300E+03  0.48174986777E+03  0.84376812299E+03  0.25500000920E-02 0. -1.
</event>
<event>
 5   0  0.2734072E-04  0.1496927E+04  0.7818609E-02  0.8886499E-01
        2   -1    0    0  501    0  0.00000000000E+00  0.00000000000E+00  0.59981431648E+03  0.59981431648E+03  0.25500000920E-02 0.  1.
       -2   -1    0    0    0  501  0.00000000000E+00  0.00000000000E+00 -0.93395153636E+03  0.93395153636E+03  0.25500000920E-02 0. -1.
    10030    2    1    2    0    0  0.00000000000E+00  0.00000000000E+00 -0.33413721988E+03  0.15337658528E+04  0.14969268551E+04 0.  0.
        5    1    3    3  502    0 -0.71050581440E+03 -0.20596415911E+03 -0.50534552058E+02  0.74149550105E+03  0.46999998093E+01 0.  1.
       -5    1    3    3    0  502  0.71050581440E+03  0.20596415911E+03 -0.28360266783E+03  0.79227035179E+03  0.46999998093E+01 0. -1.
</event>
<event>
 5   0  0.1426929E-04  0.1498393E+04  0.7818609E-02  0.8885522E-01
        1   -1    0    0  501    0  0.00000000000E+00  0.00000000000E+00  0.17166424332E+04  0.17166424333E+04  0.50400001928E-02 0.  1.
       -1   -1    0    0    0  501  0.00000000000E+00  0.00000000000E+00 -0.32697284824E+03  0.32697284828E+03  0.50400001928E-02 0. -1.
    10030    2    1    2    0    0  0.00000000000E+00  0.00000000000E+00  0.13896695850E+04  0.20436152815E+04  0.14983930938E+04 0.  0.
        1    1    3    3  502    0 -0.41243351336E+03 -0.58671814470E+03  0.39929335717E+03  0.82083784597E+03  0.50400001928E-02 0.  1.
       -1    1    3    3    0  502  0.41243351336E+03  0.58671814470E+03  0.99037622783E+03  0.12227774356E+04  0.50400001928E-02 0. -1.
</event>
<event>
 5   0  0.2696040E-04  0.1497582E+04  0.7818609E-02  0.8886063E-01
       -2   -1    0    0    0  501  0.00000000000E+00  0.00000000000E+00  0.59977073285E+03  0.59977073286E+03  0.25500000920E-02 0. -1.
        2   -1    0    0  501    0  0.00000000000E+00  0.00000000000E+00 -0.93483673381E+03  0.93483673381E+03  0.25500000920E-02 0.  1.
    10030    2    1    2    0    0  0.00000000000E+00  0.00000000000E+00 -0.33506600096E+03  0.15346074667E+04  0.14975816678E+04 0.  0.
        2    1    3    3  502    0  0.22280543488E+02 -0.94382844679E+02 -0.92837443981E+03  0.93342575735E+03  0.25500000920E-02 0.  1.
       -2    1    3    3    0  502 -0.22280543488E+02  0.94382844679E+02  0.59330843886E+03  0.60118170931E+03  0.25500000920E-02 0. -1.
</event>
<event>
 5   0  0.1484251E-04  0.1498351E+04  0.7818609E-02  0.8885550E-01
        1   -1    0    0  501    0  0.00000000000E+00  0.00000000000E+00  0.76735918330E+03  0.76735918332E+03  0.50400001928E-02 0. -1.
       -1   -1    0    0    0  501  0.00000000000E+00  0.00000000000E+00 -0.73142306828E+03  0.73142306830E+03  0.50400001928E-02 0.  1.
    10030    2    1    2    0    0  0.00000000000E+00  0.00000000000E+00  0.35936115023E+02  0.14987822516E+04  0.14983513718E+04 0.  0.
        5    1    3    3  502    0 -0.21581098567E+03 -0.47121568597E+03 -0.52313437029E+03  0.73641718042E+03  0.46999998093E+01 0.  1.
       -5    1    3    3    0  502  0.21581098567E+03  0.47121568597E+03  0.55907048531E+03  0.76236507120E+03  0.46999998093E+01 0. -1.
</event>
<event>
 5   0  0.1474203E-04  0.1495907E+04  0.7818609E-02  0.8887179E-01
        1   -1    0    0  501    0  0.00000000000E+00  0.00000000000E+00  0.78424970932E+03  0.78424970933E+03  0.50400001928E-02 0.  1.
       -1   -1    0    0    0  501  0.00000000000E+00  0.00000000000E+00 -0.71333685124E+03  0.71333685126E+03  0.50400001928E-02 0. -1.
    10030    2    1    2    0    0  0.00000000000E+00  0.00000000000E+00  0.70912858076E+02  0.14975865606E+04  0.14959067060E+04 0.  0.
        3    1    3    3  502    0 -0.74388606201E+03 -0.59457791673E+02 -0.14924091512E+02  0.74640769084E+03  0.10100000352E+00 0.  1.
       -3    1    3    3    0  502  0.74388606201E+03  0.59457791673E+02  0.85836949588E+02  0.75117886975E+03  0.10100000352E+00 0. -1.
</event>
<event>
 5   0  0.2641347E-04  0.1498372E+04  0.7818609E-02  0.8885536E-01
        2   -1    0    0  501    0  0.00000000000E+00  0.00000000000E+00  0.80969920095E+03  0.80969920096E+03  0.25500000920E-02 0.  1.
       -2   -1    0    0    0  501  0.00000000000E+00  0.00000000000E+00 -0.69319510743E+03  0.69319510743E+03  0.25500000920E-02 0. -1.
    10030    2    1    2    0    0  0.00000000000E+00  0.00000000000E+00  0.11650409353E+03  0.15028943084E+04  0.14983718158E+04 0.  0.
        4    1    3    3  502    0  0.72065159432E+03 -0.10473527454E+03  0.23476534852E+03  0.76513043325E+03  0.12699999809E+01 0.  1.
       -4    1    3    3    0  502 -0.72065159432E+03  0.10473527454E+03 -0.11826125500E+03  0.73776387514E+03  0.12699999809E+01 0. -1.
</event>
<event>
 5   0  0.1474203E-04  0.1503995E+04  0.7818609E-02  0.8881800E-01
       -1   -1    0    0    0  501  0.00000000000E+00  0.00000000000E+00  0.61706158424E+03  0.61706158426E+03  0.50400001928E-02 0. -1.
        1   -1    0    0  501    0  0.00000000000E+00  0.00000000000E+00 -0.91644097882E+03  0.91644097884E+03  0.50400001928E-02 0.  1.
    10030    2    1    2    0    0  0.00000000000E+00  0.00000000000E+00 -0.29937939458E+03  0.15335025631E+04  0.15039953754E+04 0.  0.
        3    1    3    3  502    0  0.42354023467E+03  0.59069451356E+03 -0.34633132516E+03  0.80514081732E+03  0.10100000352E+00 0.  1.
       -3    1    3    3    0  502 -0.42354023467E+03 -0.59069451356E+03  0.46951930579E+02  0.72836174578E+03  0.10100000352E+00 0. -1.
</event>
<event>
 5   0  0.1427609E-04  0.1521504E+04  0.7818609E-02  0.8870278E-01
       -1   -1    0    0    0  501  0.00000000000E+00  0.00000000000E+00  0.34509457548E+03  0.34509457551E+03  0.50400001928E-02 0. -1.
        1   -1    0    0  501    0  0.00000000000E+00  0.00000000000E+00 -0.16770578159E+04  0.16770578159E+04  0.50400001928E-02 0.  1.
    10030    2    1    2    0    0  0.00000000000E+00  0.00000000000E+00 -0.13319632404E+04  0.20221523914E+04  0.15215039337E+04 0.  0.
        4    1    3    3  502    0  0.66717710230E+03 -0.24668441034E+03 -0.10244884776E+04  0.12472196028E+04  0.12699999809E+01 0.  1.
       -4    1    3    3    0  502 -0.66717710230E+03  0.24668441034E+03 -0.30747476286E+03  0.77493278859E+03  0.12699999809E+01 0. -1.
</event>
<event>
 5   0  0.1474203E-04  0.1470090E+04  0.7818609E-02  0.8904590E-01
       -1   -1    0    0    0  501  0.00000000000E+00  0.00000000000E+00  0.34216225765E+03  0.34216225769E+03  0.50400001928E-02 0.  1.
        1   -1    0    0  501    0  0.00000000000E+00  0.00000000000E+00 -0.15790495733E+04  0.15790495733E+04  0.50400001928E-02 0. -1.
    10030    2    1    2    0    0  0.00000000000E+00  0.00000000000E+00 -0.12368873157E+04  0.19212118310E+04  0.14700900204E+04 0.  0.
        3    1    3    3  502    0  0.15772486496E+03 -0.24179850515E+03  0.26497075197E+03  0.39185859659E+03  0.10100000352E+00 0.  1.
       -3    1    3    3    0  502 -0.15772486496E+03  0.24179850515E+03 -0.15018580676E+04  0.15293532344E+04  0.10100000352E+00 0. -1.
</event>
<event>
 5   0  0.2646718E-04  0.1499430E+04  0.7818609E-02  0.8884832E-01
       -2   -1    0    0    0  501  0.00000000000E+00  0.00000000000E+00  0.43768880076E+03  0.43768880076E+03  0.25500000920E-02 0. -1.
        2   -1    0    0  501    0  0.00000000000E+00  0.00000000000E+00 -0.12841833466E+04  0.12841833466E+04  0.25500000920E-02 0.  1.
    10030    2    1    2    0    0  0.00000000000E+00  0.00000000000E+00 -0.84649454585E+03  0.17218721474E+04  0.14994301170E+04 0.  0.
        3    1    3    3  502    0  0.34447458263E+03  0.12376869741E+03 -0.11745982178E+04  0.12303098845E+04  0.10100000352E+00 0.  1.
       -3    1    3    3    0  502 -0.34447458263E+03 -0.12376869741E+03  0.32810367192E+03  0.49156226286E+03  0.10100000352E+00 0. -1.
</event>
<event>
 5   0  0.1427609E-04  0.1501272E+04  0.7818609E-02  0.8883608E-01
       -1   -1    0    0    0  501  0.00000000000E+00  0.00000000000E+00  0.28081834773E+03  0.28081834778E+03  0.50400001928E-02 0.  1.
        1   -1    0    0  501    0  0.00000000000E+00  0.00000000000E+00 -0.20064721380E+04  0.20064721380E+04  0.50400001928E-02 0. -1.
    10030    2    1    2    0    0  0.00000000000E+00  0.00000000000E+00 -0.17256537902E+04  0.22872904857E+04  0.15012717151E+04 0.  0.
        4    1    3    3  502    0  0.34566258880E+03  0.16538805288E+03  0.12057350717E+03  0.40171559201E+03  0.12699999809E+01 0.  1.
       -4    1    3    3    0  502 -0.34566258880E+03 -0.16538805288E+03 -0.18462272974E+04  0.18855748937E+04  0.12699999809E+01 0. -1.
</event>
<event>
 5   0  0.1484251E-04  0.1506120E+04  0.7818609E-02  0.8880394E-01
        1   -1    0    0  501    0  0.00000000000E+00  0.00000000000E+00  0.80190168026E+03  0.80190168027E+03  0.50400001928E-02 0. -1.
       -1   -1    0    0    0  501  0.00000000000E+00  0.00000000000E+00 -0.70719284116E+03  0.70719284118E+03  0.50400001928E-02 0.  1.
    10030    2    1    2    0    0  0.00000000000E+00  0.00000000000E+00  0.94708839092E+02  0.15090945215E+04  0.15061196866E+04 0.  0.
        5    1    3    3  502    0 -0.34740698957E+03  0.49229515249E+03 -0.40523555982E+03  0.72614329337E+03  0.46999998093E+01 0.  1.
       -5    1    3    3    0  502  0.34740698957E+03 -0.49229515249E+03  0.49994439891E+03  0.78295122809E+03  0.46999998093E+01 0. -1.
</event>
<event>
 5   0  0.2734072E-04  0.1457701E+04  0.7818609E-02  0.8913079E-01
       -2   -1    0    0    0  501  0.00000000000E+00  0.00000000000E+00  0.51801459127E+03  0.51801459128E+03  0.25500000920E-02 0. -1.
        2   -1    0    0  501    0  0.00000000000E+00  0.00000000000E+00 -0.10254981422E+04  0.10254981422E+04  0.25500000920E-02 0.  1.
    10030    2    1    2    0    0  0.00000000000E+00  0.00000000000E+00 -0.50748355096E+03  0.15435127335E+04  0.14577009309E+04 0.  0.
        5    1    3    3  502    0  0.30515676281E+03  0.44051968067E+03  0.26932468636E+03  0.59978005605E+03  0.46999998093E+01 0. -1.
       -5    1    3    3    0  502 -0.30515676281E+03 -0.44051968067E+03 -0.77680823732E+03  0.94373267747E+03  0.46999998093E+01 0.  1.
</event>
<event>
 5   0  0.1484251E-04  0.1501333E+04  0.7818609E-02  0.8883567E-01
        1   -1    0    0  501    0  0.00000000000E+00  0.00000000000E+00  0.15344315989E+04  0.15344315989E+04  0.50400001928E-02 0.  1.
       -1   -1    0    0    0  501  0.00000000000E+00  0.00000000000E+00 -0.36723686903E+03  0.36723686907E+03  0.50400001928E-02 0. -1.
    10030    2    1    2    0    0  0.00000000000E+00  0.00000000000E+00  0.11671947299E+04  0.19016684680E+04  0.15013325497E+04 0.  0.
        5    1    3    3  502    0 -0.20526929900E+03  0.19999401196E+03  0.14623891559E+04  0.14902138179E+04  0.46999998093E+01 0.  1.
       -5    1    3    3    0  502  0.20526929900E+03 -0.19999401196E+03 -0.29519442599E+03  0.41145465007E+03  0.46999998093E+01 0. -1.
</event>
<event>
 5   0  0.2641347E-04  0.1503640E+04  0.7818609E-02  0.8882036E-01
       -2   -1    0    0    0  501  0.00000000000E+00  0.00000000000E+00  0.32114613523E+03  0.32114613524E+03  0.25500000920E-02 0. -1.
        2   -1    0    0  501    0  0.00000000000E+00  0.00000000000E+00 -0.17600502155E+04  0.17600502155E+04  0.25500000920E-02 0.  1.
    10030    2    1    2    0    0  0.00000000000E+00  0.00000000000E+00 -0.14389040803E+04  0.20811963508E+04  0.15036400162E+04 0.  0.
        4    1    3    3  502    0  0.18154571302E+03  0.46997707175E+03  0.52916528842E+02  0.50659556434E+03  0.12699999809E+01 0. -1.
       -4    1    3    3    0  502 -0.18154571302E+03 -0.46997707175E+03 -0.14918206091E+04  0.15746007864E+04  0.12699999809E+01 0.  1.
</event>
<event>
 5   0  0.1443750E-04  0.1479695E+04  0.7818609E-02  0.8898069E-01
        1   -1    0    0  501    0  0.00000000000E+00  0.00000000000E+00  0.15618670686E+04  0.15618670686E+04  0.50400001928E-02 0. -1.
       -1   -1    0    0    0  501  0.00000000000E+00  0.00000000000E+00 -0.35046131659E+03  0.35046131662E+03  0.50400001928E-02 0.  1.
    10030    2    1    2    0    0  0.00000000000E+00  0.00000000000E+00  0.12114057520E+04  0.19123283852E+04  0.14796945485E+04 0.  0.
        2    1    3    3  502    0 -0.84927024623E+02 -0.37142501483E+03  0.14253257086E+04  0.14753719927E+04  0.25500000920E-02 0. -1.
       -2    1    3    3    0  502  0.84927024623E+02  0.37142501483E+03 -0.21391995660E+03  0.43695639255E+03  0.25500000920E-02 0.  1.
</event>
<event>
 5   0  0.1443750E-04  0.1488798E+04  0.7818609E-02  0.8891936E-01
       -1   -1    0    0    0  501  0.00000000000E+00  0.00000000000E+00  0.37435323824E+03  0.37435323827E+03  0.50400001928E-02 0. -1.
        1   -1    0    0  501    0  0.00000000000E+00  0.00000000000E+00 -0.14802333920E+04  0.14802333920E+04  0.50400001928E-02 0.  1.
    10030    2    1    2    0    0  0.00000000000E+00  0.00000000000E+00 -0.11058801538E+04  0.18545866303E+04  0.14887983929E+04 0.  0.
        2    1    3    3  502    0  0.34293906723E+03 -0.13132230253E+03 -0.13595470398E+04  0.14082687614E+04  0.25500000920E-02 0.  1.
       -2    1    3    3    0  502 -0.34293906723E+03  0.13132230253E+03  0.25366688604E+03  0.44631786885E+03  0.25500000920E-02 0. -1.
</event>
<event>
 5   0  0.1426929E-04  0.1498165E+04  0.7818609E-02  0.8885674E-01
        1   -1    0    0  501    0  0.00000000000E+00  0.00000000000E+00  0.16368686232E+04  0.16368686232E+04  0.50400001928E-02 0. -1.
       -1   -1    0    0    0  501  0.00000000000E+00  0.00000000000E+00 -0.34280378941E+03  0.34280378945E+03  0.50400001928E-02 0.  1.
    10030    2    1    2    0    0  0.00000000000E+00  0.00000000000E+00  0.12940648338E+04  0.19796724127E+04  0.14981652337E+04 0.  0.
        1    1    3    3  502    0 -0.58408843438E+03 -0.29675629177E+03  0.11269403642E+04  0.13035406324E+04  0.50400001928E-02 0. -1.
       -1    1    3    3    0  502  0.58408843438E+03  0.29675629177E+03  0.16712446958E+03  0.67613178023E+03  0.50400001928E-02 0.  1.
</event>
<event>
 5   0  0.2646718E-04  0.1473746E+04  0.7818609E-02  0.8902102E-01
        2   -1    0    0  501    0  0.00000000000E+00  0.00000000000E+00  0.10512886620E+04  0.10512886620E+04  0.25500000920E-02 0.  1.
       -2   -1    0    0    0  501  0.00000000000E+00  0.00000000000E+00 -0.51649146210E+03  0.51649146211E+03  0.25500000920E-02 0. -1.
    10030    2    1    2    0    0  0.00000000000E+00  0.00000000000E+00  0.53479719992E+03  0.15677801241E+04  0.14737457286E+04 0.  0.
        3    1    3    3  502    0 -0.62296080757E+03  0.29162390442E+03  0.54856755665E+03  0.87980170709E+03  0.10100000352E+00 0.  1.
       -3    1    3    3    0  502  0.62296080757E+03 -0.29162390442E+03 -0.13770356728E+02  0.68797841705E+03  0.10100000352E+00 0. -1.
</event>
<event>
 5   0  0.1443750E-04  0.1501678E+04  0.7818609E-02  0.8883338E-01
       -1   -1    0    0    0  501  0.00000000000E+00  0.00000000000E+00  0.55482010871E+03  0.55482010874E+03  0.50400001928E-02 0. -1.
        1   -1    0    0  501    0  0.00000000000E+00  0.00000000000E+00 -0.10161120721E+04  0.10161120721E+04  0.50400001928E-02 0.  1.
    10030    2    1    2    0    0  0.00000000000E+00  0.00000000000E+00 -0.46129196335E+03  0.15709321808E+04  0.15016782749E+04 0.  0.
        2    1    3    3  502    0 -0.20375328668E+02 -0.26267734970E+01 -0.10158180006E+04  0.10160257203E+04  0.25500000920E-02 0.  1.
       -2    1    3    3    0  502  0.20375328668E+02  0.26267734970E+01  0.55452603724E+03  0.55490646053E+03  0.25500000920E-02 0. -1.
</event>
<event>
 5   0  0.1443750E-04  0.1501291E+04  0.7818609E-02  0.8883595E-01
        1   -1    0    0  501    0  0.00000000000E+00  0.00000000000E+00  0.75925832403E+03  0.75925832405E+03  0.50400001928E-02 0. -1.
       -1   -1    0    0    0  501  0.00000000000E+00  0.00000000000E+00 -0.74213030116E+03  0.74213030118E+03  0.50400001928E-02 0.  1.
    10030    2    1    2    0    0  0.00000000000E+00  0.00000000000E+00  0.17128022867E+02  0.15013886252E+04  0.15012909228E+04 0.  0.
        2    1    3    3  502    0 -0.14937747810E+03 -0.48055117671E+03 -0.54845118038E+03  0.74433981599E+03  0.25500000920E-02 0. -1.
       -2    1    3    3    0  502  0.14937747810E+03  0.48055117671E+03  0.56557920325E+03  0.75704880923E+03  0.25500000920E-02 0.  1.
</event>
<event>
 5   0  0.2734072E-04  0.1500450E+04  0.7818609E-02  0.8884153E-01
       -2   -1    0    0    0  501  0.00000000000E+00  0.00000000000E+00  0.78560820400E+03  0.78560820401E+03  0.25500000920E-02 0.  1.
        2   -1    0    0  501    0  0.00000000000E+00  0.00000000000E+00 -0.71643578003E+03  0.71643578004E+03  0.25500000920E-02 0. -1.
    10030    2    1    2    0    0  0.00000000000E+00  0.00000000000E+00  0.69172423971E+02  0.15020439840E+04  0.15004503676E+04 0.  0.
        5    1    3    3  502    0 -0.62107460571E+03  0.40979298533E+03 -0.61180327868E+02  0.74661173256E+03  0.46999998093E+01 0.  1.
       -5    1    3    3    0  502  0.62107460571E+03 -0.40979298533E+03  0.13035275184E+03  0.75543225149E+03  0.46999998093E+01 0. -1.
</event>
<event>
 5   0  0.2641347E-04  0.1543581E+04  0.7818609E-02  0.8855978E-01
        2   -1    0    0  501    0  0.00000000000E+00  0.00000000000E+00  0.32000799051E+03  0.32000799052E+03  0.25500000920E-02 0.  1.
       -2   -1    0    0    0  501  0.00000000000E+00  0.00000000000E+00 -0.18613937944E+04  0.18613937944E+04  0.25500000920E-02 0. -1.
    10030    2    1    2    0    0  0.00000000000E+00  0.00000000000E+00 -0.15413858039E+04  0.21814017849E+04  0.15435814040E+04 0.  0.
        4    1    3    3  502    0 -0.54255796295E+03 -0.15592301823E+03 -0.15144461523E+04  0.16162394290E+04  0.12699999809E+01 0. -1.
       -4    1    3    3    0  502  0.54255796295E+03  0.15592301823E+03 -0.26939651547E+02  0.56516235587E+03  0.12699999809E+01 0.  1.
</event>
<event>
 5   0  0.1443750E-04  0.1499836E+04  0.7818609E-02  0.8884562E-01
       -1   -1    0    0    0  501  0.00000000000E+00  0.00000000000E+00  0.36537652139E+03  0.36537652142E+03  0.50400001928E-02 0.  1.
        1   -1    0    0  501    0  0.00000000000E+00  0.00000000000E+00 -0.15391710795E+04  0.15391710795E+04  0.50400001928E-02 0. -1.
    10030    2    1    2    0    0  0.00000000000E+00  0.00000000000E+00 -0.11737945582E+04  0.19045476010E+04  0.14998359576E+04 0.  0.
        2    1    3    3  502    0  0.26886989860E+03  0.69763604894E+03 -0.51296378338E+03  0.90670773804E+03  0.25500000920E-02 0. -1.
       -2    1    3    3    0  502 -0.26886989860E+03 -0.69763604894E+03 -0.66083077477E+03  0.99783986293E+03  0.25500000920E-02 0.  1.
</event>
<event>
 5   0  0.1426929E-04  0.1497998E+04  0.7818609E-02  0.8885785E-01
       -1   -1    0    0    0  501  0.00000000000E+00  0.00000000000E+00  0.30773372108E+03  0.30773372112E+03  0.50400001928E-02 0. -1.
        1   -1    0    0  501    0  0.00000000000E+00  0.00000000000E+00 -0.18230028028E+04  0.18230028028E+04  0.50400001928E-02 0.  1.
    10030    2    1    2    0    0  0.00000000000E+00  0.00000000000E+00 -0.15152690817E+04  0.21307365239E+04  0.14979979120E+04 0.  0.
        1    1    3    3  502    0 -0.61521387154E+03  0.40043087547E+03 -0.54586351525E+03  0.91476771427E+03  0.50400001928E-02 0.  1.
       -1    1    3    3    0  502  0.61521387154E+03 -0.40043087547E+03 -0.96940556648E+03  0.12159688097E+04  0.50400001928E-02 0. -1.
</event>
<event>
 5   0  0.1474203E-04  0.1501209E+04  0.7818609E-02  0.8883649E-01
        1   -1    0    0  501    0  0.00000000000E+00  0.00000000000E+00  0.11076565636E+04  0.11076565636E+04  0.50400001928E-02 0.  1.
       -1   -1    0    0    0  501  0.00000000000E+00  0.00000000000E+00 -0.50864787557E+03  0.50864787560E+03  0.50400001928E-02 0. -1.
    10030    2    1    2    0    0  0.00000000000E+00  0.00000000000E+00  0.59900868802E+03  0.16163044392E+04  0.15012090567E+04 0.  0.
        3    1    3    3  502    0 -0.17943676241E+03 -0.32985084422E+03 -0.40025396788E+03  0.54881907779E+03  0.10100000352E+00 0. -1.
       -3    1    3    3    0  502  0.17943676241E+03  0.32985084422E+03  0.99926265590E+03  0.10674853614E+04  0.10100000352E+00 0.  1.
</event>
<event>
 5   0  0.2696040E-04  0.1501235E+04  0.7818609E-02  0.8883632E-01
       -2   -1    0    0    0  501  0.00000000000E+00  0.00000000000E+00  0.89491240689E+03  0.89491240689E+03  0.25500000920E-02 0.  1.
        2   -1    0    0  501    0  0.00000000000E+00  0.00000000000E+00 -0.62958829039E+03  0.62958829040E+03  0.25500000920E-02 0. -1.
    10030    2    1    2    0    0  0.00000000000E+00  0.00000000000E+00  0.26532411650E+03  0.15245006973E+04  0.15012346550E+04 0.  0.
        2    1    3    3  502    0  0.53262077219E+03  0.50813859488E+03 -0.16366039770E+02  0.73631349699E+03  0.25500000920E-02 0.  1.
       -2    1    3    3    0  502 -0.53262077219E+03 -0.50813859488E+03  0.28169015627E+03  0.78818720030E+03  0.25500000920E-02 0. -1.
</event>
<event>
 5   0  0.1426929E-04  0.1485703E+04  0.7818609E-02  0.8894017E-01
       -1   -1    0    0    0  501  0.00000000000E+00  0.00000000000E+00  0.40911956711E+03  0.40911956714E+03  0.50400001928E-02 0.  1.
        1   -1    0    0  501    0  0.00000000000E+00  0.00000000000E+00 -0.13488185171E+04  0.13488185171E+04  0.50400001928E-02 0. -1.
    10030    2    1    2    0    0  0.00000000000E+00  0.00000000000E+00 -0.93969895001E+03  0.17579380843E+04  0.14857025919E+04 0.  0.
        1    1    3    3  502    0  0.53996891484E+03  0.49775945583E+03 -0.33757469032E+03  0.80826207163E+03  0.50400001928E-02 0.  1.
       -1    1    3    3    0  502 -0.53996891484E+03 -0.49775945583E+03 -0.60212425968E+03  0.94967601264E+03  0.50400001928E-02 0. -1.
</event>
<event>
 5   0  0.2734072E-04  0.1499051E+04  0.7818609E-02  0.8885085E-01
       -2   -1    0    0    0  501  0.00000000000E+00  0.00000000000E+00  0.55331047326E+03  0.55331047327E+03  0.25500000920E-02 0. -1.
        2   -1    0    0  501    0  0.00000000000E+00  0.00000000000E+00 -0.10153217045E+04  0.10153217045E+04  0.25500000920E-02 0.  1.
    10030    2    1    2    0    0  0.00000000000E+00  0.00000000000E+00 -0.46201123124E+03  0.15686321778E+04  0.14990505433E+04 0.  0.
        5    1    3    3  502    0 -0.59386796082E+02 -0.47986503141E+03  0.36826241626E+03  0.60781291295E+03  0.46999998093E+01 0. -1.
       -5    1    3    3    0  502  0.59386796082E+02  0.47986503141E+03 -0.83027364750E+03  0.96081926482E+03  0.46999998093E+01 0.  1.
</event>
<event>
 5   0  0.1474203E-04  0.1500413E+04  0.7818609E-02  0.8884178E-01
        1   -1    0    0  501    0  0.00000000000E+00  0.00000000000E+00  0.10976220102E+04  0.10976220103E+04  0.50400001928E-02 0.  1.
       -1   -1    0    0    0  501  0.00000000000E+00  0.00000000000E+00 -0.51275367937E+03  0.51275367940E+03  0.50400001928E-02 0. -1.
    10030    2    1    2    0    0  0.00000000000E+00  0.00000000000E+00  0.58486833088E+03  0.16103756897E+04  0.15004129090E+04 0.  0.
        3    1    3    3  502    0  0.48995626429E+03  0.53211240215E+03  0.50604002370E+03  0.88276682381E+03  0.10100000352E+00 0.  1.
       -3    1    3    3    0  502 -0.48995626429E+03 -0.53211240215E+03  0.78828307171E+02  0.72760886584E+03  0.10100000352E+00 0. -1.
</event>
<event>
 5   0  0.2696040E-04  0.1493577E+04  0.7818609E-02  0.8888736E-01
        2   -1    0    0  501    0  0.00000000000E+00  0.00000000000E+00  0.28517306812E+04  0.28517306812E+04  0.25500000920E-02 0.  1.
       -2   -1    0    0    0  501  0.00000000000E+00  0.00000000000E+00 -0.19556291990E+03  0.19556291992E+03  0.25500000920E-02 0. -1.
    10030    2    1    2    0    0  0.00000000000E+00  0.00000000000E+00  0.26561677613E+04  0.30472936011E+04  0.14935766185E+04 0.  0.
        2    1    3    3  502    0 -0.71853562953E+03 -0.11636595620E+03  0.98754709080E+03  0.12268185454E+04  0.25500000920E-02 0. -1.
       -2    1    3    3    0  502  0.71853562953E+03  0.11636595620E+03  0.16686206705E+04  0.18204750558E+04  0.25500000920E-02 0.  1.
</event>
<event>
 5   0  0.1004313E-04  0.1490933E+04  0.7818609E-02  0.8890505E-01
        3   -1    0    0  501    0  0.00000000000E+00  0.00000000000E+00  0.57295981549E+03  0.57295982440E+03  0.10100000352E+00 0.  1.
       -3   -1    0    0    0  501  0.00000000000E+00  0.00000000000E+00 -0.96991162624E+03  0.96991163150E+03  0.10100000352E+00 0. -1.
    10030    2    1    2    0    0  0.00000000000E+00  0.00000000000E+00 -0.39695181074E+03  0.15428714559E+04  0.14909331271E+04 0.  0.
        4    1    3    3  502    0  0.37744766827E+03  0.51913037389E+03 -0.59083535113E+03  0.87238243472E+03  0.12699999809E+01 0. -1.
       -4    1    3    3    0  502 -0.37744766827E+03 -0.51913037389E+03  0.19388354038E+03  0.67048902117E+03  0.12699999809E+01 0.  1.
</event>
<event>
 5   0  0.2734072E-04  0.1493840E+04  0.7818609E-02  0.8888560E-01
       -2   -1    0    0    0  501  0.00000000000E+00  0.00000000000E+00  0.24724816297E+04  0.24724816297E+04  0.25500000920E-02 0. -1.
        2   -1    0    0  501    0  0.00000000000E+00  0.00000000000E+00 -0.22563948641E+03  0.22563948643E+03  0.25500000920E-02 0.  1.
    10030    2    1    2    0    0  0.00000000000E+00  0.00000000000E+00  0.22468421433E+04  0.26981211162E+04  0.14938399983E+04 0.  0.
        5    1    3    3  502    0  0.41076038724E+03 -0.25079245256E+03  0.91776134400E+02  0.48996520165E+03  0.46999998093E+01 0.  1.
       -5    1    3    3    0  502 -0.41076038724E+03  0.25079245256E+03  0.21550660089E+04  0.22081559145E+04  0.46999998093E+01 0. -1.
</event>
<event>
 5   0  0.1426929E-04  0.1499369E+04  0.7818609E-02  0.8884872E-01
       -1   -1    0    0    0  501  0.00000000000E+00  0.00000000000E+00  0.25554399870E+03  0.25554399875E+03  0.50400001928E-02 0.  1.
        1   -1    0    0  501    0  0.00000000000E+00  0.00000000000E+00 -0.21993360271E+04  0.21993360271E+04  0.50400001928E-02 0. -1.
    10030    2    1    2    0    0  0.00000000000E+00  0.00000000000E+00 -0.19437920284E+04  0.24548800258E+04  0.14993693646E+04 0.  0.
        1    1    3    3  502    0  0.47615568184E+03  0.38304460828E+03 -0.16828952432E+04  0.17904144226E+04  0.50400001928E-02 0. -1.
       -1    1    3    3    0  502 -0.47615568184E+03 -0.38304460828E+03 -0.26089678523E+03  0.66446560321E+03  0.50400001928E-02 0.  1.
</event>
<event>
 5   0  0.1443750E-04  0.1502112E+04  0.7818609E-02  0.8883050E-01
        1   -1    0    0  501    0  0.00000000000E+00  0.00000000000E+00  0.10327815892E+04  0.10327815892E+04  0.50400001928E-02 0.  1.
       -1   -1    0    0    0  501  0.00000000000E+00  0.00000000000E+00 -0.54618043782E+03  0.54618043785E+03  0.50400001928E-02 0. -1.
    10030    2    1    2    0    0  0.00000000000E+00  0.00000000000E+00  0.48660115133E+03  0.15789620270E+04  0.15021119806E+04 0.  0.
        2    1    3    3  502    0  0.16606786799E+03 -0.49642358386E+02  0.10114702600E+04  0.10262139092E+04  0.25500000920E-02 0.  1.
       -2    1    3    3    0  502 -0.16606786799E+03  0.49642358386E+02 -0.52486910867E+03  0.55274811783E+03  0.25500000920E-02 0. -1.
</event>
<event>
 5   0  0.2646718E-04  0.1494477E+04  0.7818609E-02  0.8888134E-01
        2   -1    0    0  501    0  0.00000000000E+00  0.00000000000E+00  0.78510942725E+03  0.78510942726E+03  0.25500000920E-02 0.  1.
       -2   -1    0    0    0  501  0.00000000000E+00  0.00000000000E+00 -0.71119441827E+03  0.71119441827E+03  0.25500000920E-02 0. -1.
    10030    2    1    2    0    0  0.00000000000E+00  0.00000000000E+00  0.73915008985E+02  0.14963038455E+04  0.14944770890E+04 0.  0.
        3    1    3    3  502    0  0.57800390519E+03 -0.13237783211E+03  0.49221433369E+03  0.77064087962E+03  0.10100000352E+00 0.  1.
       -3    1    3    3    0  502 -0.57800390519E+03  0.13237783211E+03 -0.41829932471E+03  0.72566296591E+03  0.10100000352E+00 0. -1.
</event>
<event>
 5   0  0.1484251E-04  0.1508978E+04  0.7818609E-02  0.8878505E-01
        1   -1    0    0  501    0  0.00000000000E+00  0.00000000000E+00  0.78186025704E+03  0.78186025706E+03  0.50400001928E-02 0. -1.
       -1   -1    0    0    0  501  0.00000000000E+00  0.00000000000E+00 -0.72807588889E+03  0.72807588891E+03  0.50400001928E-02 0.  1.
    10030    2    1    2    0    0  0.00000000000E+00  0.00000000000E+00  0.53784368155E+02  0.15099361460E+04  0.15089779344E+04 0.  0.
        5    1    3    3  502    0  0.19353450974E+03  0.61685346324E+03 -0.36228628808E+03  0.74110542172E+03  0.46999998093E+01 0.  1.
       -5    1    3    3    0  502 -0.19353450974E+03 -0.61685346324E+03  0.41607065624E+03  0.76883072425E+03  0.46999998093E+01 0. -1.
</event>
<event>
 5   0  0.2618901E-04  0.1534698E+04  0.7818609E-02  0.8861701E-01
       -2   -1    0    0    0  501  0.00000000000E+00  0.00000000000E+00  0.33677235541E+03  0.33677235542E+03  0.25500000920E-02 0.  1.
        2   -1    0    0  501    0  0.00000000000E+00  0.00000000000E+00 -0.17484349602E+04  0.17484349603E+04  0.25500000920E-02 0. -1.
    10030    2    1    2    0    0  0.00000000000E+00  0.00000000000E+00 -0.14116626048E+04  0.20852073157E+04  0.15346980939E+04 0.  0.
        1    1    3    3  502    0 -0.63149371556E+02  0.23862065749E+02 -0.17443924780E+04  0.17456982439E+04  0.50400001928E-02 0. -1.
       -1    1    3    3    0  502  0.63149371556E+02 -0.23862065749E+02  0.33272987317E+03  0.33950907180E+03  0.50400001928E-02 0.  1.
</event>
<event>
 5   0  0.1426929E-04  0.1519859E+04  0.7818609E-02  0.8871353E-01
        1   -1    0    0  501    0  0.00000000000E+00  0.00000000000E+00  0.70888802765E+03  0.70888802767E+03  0.50400001928E-02 0. -1.
       -1   -1    0    0    0  501  0.00000000000E+00  0.00000000000E+00 -0.81464628554E+03  0.81464628556E+03  0.50400001928E-02 0.  1.
    10030    2    1    2    0    0  0.00000000000E+00  0.00000000000E+00 -0.10575825789E+03  0.15235343132E+04  0.15198592022E+04 0.  0.
        1    1    3    3  502    0 -0.71744882301E+03  0.24931473093E+03 -0.28276965238E+02  0.76005936313E+03  0.50400001928E-02 0. -1.
       -1    1    3    3    0  502  0.71744882301E+03 -0.24931473093E+03 -0.77481292653E+02  0.76347495010E+03  0.50400001928E-02 0.  1.
</event>
<event>
 5   0  0.2696040E-04  0.1492996E+04  0.7818609E-02  0.8889124E-01
        2   -1    0    0  501    0  0.00000000000E+00  0.00000000000E+00  0.48585992485E+03  0.48585992486E+03  0.25500000920E-02 0. -1.
       -2   -1    0    0    0  501  0.00000000000E+00  0.00000000000E+00 -0.11469545866E+04  0.11469545866E+04  0.25500000920E-02 0.  1.
    10030    2    1    2    0    0  0.00000000000E+00  0.00000000000E+00 -0.66109466173E+03  0.16328145114E+04  0.14929960070E+04 0.  0.
        2    1    3    3  502    0  0.20194782713E+03  0.11336113724E+03 -0.11066730992E+04  0.11306454002E+04  0.25500000920E-02 0.  1.
       -2    1    3    3    0  502 -0.20194782713E+03 -0.11336113724E+03  0.44557843752E+03  0.50216911127E+03  0.25500000920E-02 0. -1.
</event>
<event>
 5   0  0.1474203E-04  0.1498220E+04  0.7818609E-02  0.8885638E-01
        1   -1    0    0  501    0  0.00000000000E+00  0.00000000000E+00  0.12259425692E+04  0.12259425692E+04  0.50400001928E-02 0.  1.
       -1   -1    0    0    0  501  0.00000000000E+00  0.00000000000E+00 -0.45774218211E+03  0.45774218213E+03  0.50400001928E-02 0. -1.
    10030    2    1    2    0    0  0.00000000000E+00  0.00000000000E+00  0.76820038705E+03  0.16836847513E+04  0.14982197793E+04 0.  0.
        3    1    3    3  502    0 -0.34089469427E+03  0.16272816517E+03  0.11110769305E+04  0.11735338103E+04  0.10100000352E+00 0.  1.
       -3    1    3    3    0  502  0.34089469427E+03 -0.16272816517E+03 -0.34287654345E+03  0.51015094096E+03  0.10100000352E+00 0. -1.
</event>
<event>
 5   0  0.2641347E-04  0.1489515E+04  0.7818609E-02  0.8891456E-01
       -2   -1    0    0    0  501  0.00000000000E+00  0.00000000000E+00  0.56055202876E+03  0.56055202876E+03  0.25500000920E-02 0. -1.
        2   -1    0    0  501    0  0.00000000000E+00  0.00000000000E+00 -0.98949520561E+03  0.98949520561E+03  0.25500000920E-02 0.  1.
    10030    2    1    2    0    0  0.00000000000E+00  0.00000000000E+00 -0.42894317685E+03  0.15500472344E+04  0.14895147464E+04 0.  0.
        4    1    3    3  502    0  0.10579188342E+01 -0.65035691709E+02 -0.98653262527E+03  0.98867537342E+03  0.12699999809E+01 0.  1.
       -4    1    3    3    0  502 -0.10579188342E+01  0.65035691709E+02  0.55758944842E+03  0.56137186096E+03  0.12699999809E+01 0. -1.
</event>
<event>
 5   0  0.2618901E-04  0.1528307E+04  0.7818609E-02  0.8865844E-01
       -2   -1    0    0    0  501  0.00000000000E+00  0.00000000000E+00  0.13470393316E+04  0.13470393316E+04  0.25500000920E-02 0. -1.
        2   -1    0    0  501    0  0.00000000000E+00  0.00000000000E+00 -0.43349190482E+03  0.43349190482E+03  0.25500000920E-02 0.  1.
    10030    2    1    2    0    0  0.00000000000E+00  0.00000000000E+00  0.91354742678E+03  0.17805312364E+04  0.15283070971E+04 0.  0.
        1    1    3    3  502    0 -0.47354538047E+03  0.54519995838E+03  0.74789827205E+03  0.10396345739E+04  0.50400001928E-02 0. -1.
       -1    1    3    3    0  502  0.47354538047E+03 -0.54519995838E+03  0.16564915472E+03  0.74089666248E+03  0.50400001928E-02 0.  1.
</event>
<event>
 5   0  0.1474203E-04  0.1505677E+04  0.7818609E-02  0.8880687E-01
       -1   -1    0    0    0  501  0.00000000000E+00  0.00000000000E+00  0.88371569361E+03  0.88371569362E+03  0.50400001928E-02 0. -1.
        1   -1    0    0  501    0  0.00000000000E+00  0.00000000000E+00 -0.64134369500E+03  0.64134369502E+03  0.50400001928E-02 0.  1.
    10030    2    1    2    0    0  0.00000000000E+00  0.00000000000E+00  0.24237199861E+03  0.15250593886E+04  0.15056765766E+04 0.  0.
        3    1    3    3  502    0  0.20215787286E+03 -0.35844404911E+03  0.75971037703E+03  0.86400799133E+03  0.10100000352E+00 0. -1.
       -3    1    3    3    0  502 -0.20215787286E+03  0.35844404911E+03 -0.51733837842E+03  0.66105139732E+03  0.10100000352E+00 0.  1.
</event>
<event>
 5   0  0.1484251E-04  0.1497378E+04  0.7818609E-02  0.8886198E-01
        1   -1    0    0  501    0  0.00000000000E+00  0.00000000000E+00  0.10116311933E+04  0.10116311933E+04  0.50400001928E-02 0.  1.
       -1   -1    0    0    0  501  0.00000000000E+00  0.00000000000E+00 -0.55409052675E+03  0.55409052677E+03  0.50400001928E-02 0. -1.
    10030    2    1    2    0    0  0.00000000000E+00  0.00000000000E+00  0.45754066658E+03  0.15657217201E+04  0.14973780562E+04 0.  0.
        5    1    3    3  502    0 -0.71653930301E+03  0.21688377240E+03  0.22167633602E+03  0.78078782742E+03  0.46999998093E+01 0.  1.
       -5    1    3    3    0  502  0.71653930301E+03 -0.21688377240E+03  0.23586433056E+03  0.78493389270E+03  0.46999998093E+01 0. -1.
</event>
<event>
 5   0  0.1474203E-04  0.1495141E+04  0.7818609E-02  0.8887691E-01
        1   -1    0    0  501    0  0.00000000000E+00  0.00000000000E+00  0.55227768663E+03  0.55227768665E+03  0.50400001928E-02 0. -1.
       -1   -1    0    0    0  501  0.00000000000E+00  0.00000000000E+00 -0.10119214884E+04  0.10119214884E+04  0.50400001928E-02 0.  1.
    10030    2    1    2    0    0  0.00000000000E+00  0.00000000000E+00 -0.45964380179E+03  0.15641991751E+04  0.14951410083E+04 0.  0.
        3    1    3    3  502    0 -0.27427741008E+03  0.21708222888E+03  0.46138239573E+03  0.57898749301E+03  0.10100000352E+00 0. -1.
       -3    1    3    3    0  502  0.27427741008E+03 -0.21708222888E+03 -0.92102619752E+03  0.98521168208E+03  0.10100000352E+00 0.  1.
</event>
<event>
 5   0  0.1484251E-04  0.1493405E+04  0.7818609E-02  0.8888851E-01
       -1   -1    0    0    0  501  0.00000000000E+00  0.00000000000E+00  0.37335974278E+03  0.37335974282E+03  0.50400001928E-02 0.  1.
        1   -1    0    0  501    0  0.00000000000E+00  0.00000000000E+00 -0.14933704111E+04  0.14933704111E+04  0.50400001928E-02 0. -1.
    10030    2    1    2    0    0  0.00000000000E+00  0.00000000000E+00 -0.11200106684E+04  0.18667301540E+04  0.14934046908E+04 0.  0.
        5    1    3    3  502    0  0.25833962347E+03 -0.39198778722E+03 -0.12858014807E+04  0.13688321023E+04  0.46999998093E+01 0. -1.
       -5    1    3    3    0  502 -0.25833962347E+03  0.39198778722E+03  0.16579081239E+03  0.49789805167E+03  0.46999998093E+01 0.  1.
</event>
<event>
 5   0  0.2696040E-04  0.1501244E+04  0.7818609E-02  0.8883626E-01
       -2   -1    0    0    0  501  0.00000000000E+00  0.00000000000E+00  0.52478219169E+03  0.52478219170E+03  0.25500000920E-02 0. -1.
        2   -1    0    0  501    0  0.00000000000E+00  0.00000000000E+00 -0.10736521767E+04  0.10736521767E+04  0.25500000920E-02 0.  1.
    10030    2    1    2    0    0  0.00000000000E+00  0.00000000000E+00 -0.54886998503E+03  0.15984343684E+04  0.15012442072E+04 0.  0.
        2    1    3    3  502    0  0.29079962147E+03  0.25679355935E+03 -0.95862965051E+03  0.10341557711E+04  0.25500000920E-02 0.  1.
       -2    1    3    3    0  502 -0.29079962147E+03 -0.25679355935E+03  0.40975966548E+03  0.56427859736E+03  0.25500000920E-02 0. -1.
</event>
<event>
 5   0  0.1474203E-04  0.1489950E+04  0.7818609E-02  0.8891163E-01
        1   -1    0    0  501    0  0.00000000000E+00  0.00000000000E+00  0.10422589012E+04  0.10422589012E+04  0.50400001928E-02 0. -1.
       -1   -1    0    0    0  501  0.00000000000E+00  0.00000000000E+00 -0.53248584338E+03  0.53248584340E+03  0.50400001928E-02 0.  1.
    10030    2    1    2    0    0  0.00000000000E+00  0.00000000000E+00  0.50977305779E+03  0.15747447446E+04  0.14899504824E+04 0.  0.
        3    1    3    3  502    0  0.68624354770E+03 -0.28749686738E+03  0.29448112593E+03  0.80018985199E+03  0.10100000352E+00 0. -1.
       -3    1    3    3    0  502 -0.68624354770E+03  0.28749686738E+03  0.21529193186E+03  0.77455489259E+03  0.10100000352E+00 0.  1.
</event>
<event>
 5   0  0.2618901E-04  0.1500592E+04  0.7818609E-02  0.8884060E-01
       -2   -1    0    0    0  501  0.00000000000E+00  0.00000000000E+00  0.10067755353E+04  0.10067755353E+04  0.25500000920E-02 0. -1.
        2   -1    0    0  501    0  0.00000000000E+00  0.00000000000E+00 -0.55915515637E+03  0.55915515638E+03  0.25500000920E-02 0.  1.
    10030    2    1    2    0    0  0.00000000000E+00  0.00000000000E+00  0.44762037895E+03  0.15659306917E+04  0.15005915259E+04 0.  0.
        1    1    3    3  502    0 -0.51750883890E+02  0.23272290855E+03 -0.51857727333E+03  0.57075432069E+03  0.50400001928E-02 0.  1.
       -1    1    3    3    0  502  0.51750883890E+02 -0.23272290855E+03  0.96619765227E+03  0.99517637102E+03  0.50400001928E-02 0. -1.
</event>
<event>
 5   0  0.2641347E-04  0.1494857E+04  0.7818609E-02  0.8887880E-01
       -2   -1    0    0    0  501  0.00000000000E+00  0.00000000000E+00  0.62952202848E+03  0.62952202848E+03  0.25500000920E-02 0. -1.
        2   -1    0    0  501    0  0.00000000000E+00  0.00000000000E+00 -0.88741815540E+03  0.88741815541E+03  0.25500000920E-02 0.  1.
    10030    2    1    2    0    0  0.00000000000E+00  0.00000000000E+00 -0.25789612693E+03  0.15169401839E+04  0.14948568859E+04 0.  0.
        4    1    3    3  502    0  0.33057562464E+03 -0.39650965904E+03  0.41954347869E+03  0.66522063763E+03  0.12699999809E+01 0. -1.
       -4    1    3    3    0  502 -0.33057562464E+03  0.39650965904E+03 -0.67743960562E+03  0.85171954626E+03  0.12699999809E+01 0.  1.
</event>
<event>
 5   0  0.1474203E-04  0.1502086E+04  0.7818609E-02  0.8883067E-01
       -1   -1    0    0    0  501  0.00000000000E+00  0.00000000000E+00  0.28157243578E+03  0.28157243583E+03  0.50400001928E-02 0.  1.
        1   -1    0    0  501    0  0.00000000000E+00  0.00000000000E+00 -0.20032702645E+04  0.20032702645E+04  0.50400001928E-02 0. -1.
    10030    2    1    2    0    0  0.00000000000E+00  0.00000000000E+00 -0.17216978287E+04  0.22848427003E+04  0.15020861333E+04 0.  0.
        3    1    3    3  502    0 -0.18560274696E+01 -0.44075629905E+03 -0.17858508539E+04  0.18394381866E+04  0.10100000352E+00 0. -1.
       -3    1    3    3    0  502  0.18560274696E+01  0.44075629905E+03  0.64153025142E+02  0.44540451370E+03  0.10100000352E+00 0.  1.
</event>
<event>
 5   0  0.2646718E-04  0.1511873E+04  0.7818609E-02  0.8876596E-01
        2   -1    0    0  501    0  0.00000000000E+00  0.00000000000E+00  0.12745142001E+04  0.12745142001E+04  0.25500000920E-02 0.  1.
       -2   -1    0    0    0  501  0.00000000000E+00  0.00000000000E+00 -0.44835897391E+03  0.44835897392E+03  0.25500000920E-02 0. -1.
    10030    2    1    2    0    0  0.00000000000E+00  0.00000000000E+00  0.82615522617E+03  0.17228731740E+04  0.15118728505E+04 0.  0.
        3    1    3    3  502    0  0.29726222141E+02 -0.75099740550E+03  0.32078631715E+03  0.81718089969E+03  0.10100000352E+00 0. -1.
       -3    1    3    3    0  502 -0.29726222141E+02  0.75099740550E+03  0.50536890903E+03  0.90569227432E+03  0.10100000352E+00 0.  1.
</event>
<event>
 5   0  0.2618901E-04  0.1507921E+04  0.7818609E-02  0.8879203E-01
       -2   -1    0    0    0  501  0.00000000000E+00  0.00000000000E+00  0.58633532891E+03  0.58633532891E+03  0.25500000920E-02 0.  1.
        2   -1    0    0  501    0  0.00000000000E+00  0.00000000000E+00 -0.96950719373E+03  0.96950719373E+03  0.25500000920E-02 0. -1.
    10030    2    1    2    0    0  0.00000000000E+00  0.00000000000E+00 -0.38317186483E+03  0.15558425226E+04  0.15079208458E+04 0.  0.
        1    1    3    3  502    0 -0.69478409603E+03  0.20528090264E+03  0.23834134606E+02  0.72486775006E+03  0.50400001928E-02 0.  1.
       -1    1    3    3    0  502  0.69478409603E+03 -0.20528090264E+03 -0.40700599943E+03  0.83097477259E+03  0.50400001928E-02 0. -1.
</event>
<event>
 5   0  0.1443750E-04  0.1505029E+04  0.7818609E-02  0.8881116E-01
        1   -1    0    0  501    0  0.00000000000E+00  0.00000000000E+00  0.59931643194E+03  0.59931643196E+03  0.50400001928E-02 0.  1.
       -1   -1    0    0    0  501  0.00000000000E+00  0.00000000000E+00 -0.94487290765E+03  0.94487290766E+03  0.50400001928E-02 0. -1.
    10030    2    1    2    0    0  0.00000000000E+00  0.00000000000E+00 -0.34555647571E+03  0.15441893396E+04  0.15050287169E+04 0.  0.
        2    1    3    3  502    0 -0.71085431186E+03  0.11365546340E+03 -0.39767664640E+03  0.82242211312E+03  0.25500000920E-02 0. -1.
       -2    1    3    3    0  502  0.71085431186E+03 -0.11365546340E+03  0.52120170685E+02  0.72176722650E+03  0.25500000920E-02 0.  1.
</event>
<event>
 5   0  0.1484251E-04  0.1500038E+04  0.7818609E-02  0.8884428E-01
        1   -1    0    0  501    0  0.00000000000E+00  0.00000000000E+00  0.71832176807E+03  0.71832176809E+03  0.50400001928E-02 0. -1.
       -1   -1    0    0    0  501  0.00000000000E+00  0.00000000000E+00 -0.78311457056E+03  0.78311457057E+03  0.50400001928E-02 0.  1.
    10030    2    1    2    0    0  0.00000000000E+00  0.00000000000E+00 -0.64792802488E+02  0.15014363387E+04  0.15000376568E+04 0.  0.
        5    1    3    3  502    0 -0.37402853263E+03 -0.63544316123E+03  0.10492043360E+03  0.74479241522E+03  0.46999998093E+01 0. -1.
       -5    1    3    3    0  502  0.37402853263E+03  0.63544316123E+03 -0.16971323609E+03  0.75664392344E+03  0.46999998093E+01 0.  1.
</event>
<event>
 5   0  0.1426929E-04  0.1492209E+04  0.7818609E-02  0.8889650E-01
        1   -1    0    0  501    0  0.00000000000E+00  0.00000000000E+00  0.95408094655E+03  0.95408094657E+03  0.50400001928E-02 0.  1.
       -1   -1    0    0    0  501  0.00000000000E+00  0.00000000000E+00 -0.58346424675E+03  0.58346424677E+03  0.50400001928E-02 0. -1.
    10030    2    1    2    0    0  0.00000000000E+00  0.00000000000E+00  0.37061669980E+03  0.15375451933E+04  0.14922092626E+04 0.  0.
        1    1    3    3  502    0 -0.71907391846E+03  0.46056478622E+01  0.39030928897E+03  0.81818693052E+03  0.50400001928E-02 0.  1.
       -1    1    3    3    0  502  0.71907391846E+03 -0.46056478622E+01 -0.19692589166E+02  0.71935826282E+03  0.50400001928E-02 0. -1.
</event>
<event>
 5   0  0.2734072E-04  0.1492485E+04  0.7818609E-02  0.8889466E-01
        2   -1    0    0  501    0  0.00000000000E+00  0.00000000000E+00  0.79760844680E+03  0.79760844681E+03  0.25500000920E-02 0.  1.
       -2   -1    0    0    0  501  0.00000000000E+00  0.00000000000E+00 -0.69818454976E+03  0.69818454976E+03  0.25500000920E-02 0. -1.
    10030    2    1    2    0    0  0.00000000000E+00  0.00000000000E+00  0.99423897045E+02  0.14957929966E+04  0.14924850342E+04 0.  0.
        5    1    3    3  502    0 -0.28504169181E+03  0.64622662337E+03  0.29107385571E+03  0.76393958812E+03  0.46999998093E+01 0.  1.
       -5    1    3    3    0  502  0.28504169181E+03 -0.64622662337E+03 -0.19164995866E+03  0.73185340846E+03  0.46999998093E+01 0. -1.
</event>
<event>
 5   0  0.2646718E-04  0.1497303E+04  0.7818609E-02  0.8886248E-01
       -2   -1    0    0    0  501  0.00000000000E+00  0.00000000000E+00  0.65454921866E+03  0.65454921867E+03  0.25500000920E-02 0.  1.
        2   -1    0    0  501    0  0.00000000000E+00  0.00000000000E+00 -0.85628297918E+03  0.85628297919E+03  0.25500000920E-02 0. -1.
    10030    2    1    2    0    0  0.00000000000E+00  0.00000000000E+00 -0.20173376052E+03  0.15108321979E+04  0.14973033827E+04 0.  0.
        3    1    3    3  502    0  0.14423980130E+03 -0.87411166491E+02 -0.83686367070E+03  0.85369001742E+03  0.10100000352E+00 0. -1.
       -3    1    3    3    0  502 -0.14423980130E+03  0.87411166491E+02  0.63512991018E+03  0.65714218044E+03  0.10100000352E+00 0.  1.
</event>
<event>
 5   0  0.2641347E-04  0.1503608E+04  0.7818609E-02  0.8882057E-01
       -2   -1    0    0    0  501  0.00000000000E+00  0.00000000000E+00  0.35177949921E+03  0.35177949922E+03  0.25500000920E-02 0. -1.
        2   -1    0    0  501    0  0.00000000000E+00  0.00000000000E+00 -0.16067142170E+04  0.16067142170E+04  0.25500000920E-02 0.  1.
    10030    2    1    2    0    0  0.00000000000E+00  0.00000000000E+00 -0.12549347177E+04  0.19584937162E+04  0.15036078247E+04 0.  0.
        4    1    3    3  502    0 -0.65762635265E+03  0.25105488541E+03 -0.97136116318E+03  0.11996020579E+04  0.12699999809E+01 0.  1.
       -4    1    3    3    0  502  0.65762635265E+03 -0.25105488541E+03 -0.28357355456E+03  0.75889165824E+03  0.12699999809E+01 0. -1.
</event>
<event>
 5   0  0.2646718E-04  0.1499383E+04  0.7818609E-02  0.8884863E-01
        2   -1    0    0  501    0  0.00000000000E+00  0.00000000000E+00  0.13924378208E+04  0.13924378208E+04  0.25500000920E-02 0. -1.
       -2   -1    0    0    0  501  0.00000000000E+00  0.00000000000E+00 -0.40363550338E+03  0.40363550339E+03  0.25500000920E-02 0.  1.
    10030    2    1    2    0    0  0.00000000000E+00  0.00000000000E+00  0.98880231738E+03  0.17960733242E+04  0.14993829941E+04 0.  0.
        3    1    3    3  502    0 -0.48308560131E+03 -0.27041741339E+03 -0.11113624398E+03  0.56466676066E+03  0.10100000352E+00 0.  1.
       -3    1    3    3    0  502  0.48308560131E+03  0.27041741339E+03  0.10999385614E+04  0.12314065635E+04  0.10100000352E+00 0. -1.
</event>
<event>
 5   0  0.1484251E-04  0.1500085E+04  0.7818609E-02  0.8884396E-01
       -1   -1    0    0    0  501  0.00000000000E+00  0.00000000000E+00  0.16999390853E+04  0.16999390853E+04  0.50400001928E-02 0. -1.
        1   -1    0    0  501    0  0.00000000000E+00  0.00000000000E+00 -0.33093173454E+03  0.33093173458E+03  0.50400001928E-02 0.  1.
    10030    2    1    2    0    0  0.00000000000E+00  0.00000000000E+00  0.13690073508E+04  0.20308708199E+04  0.15000850511E+04 0.  0.
        5    1    3    3  502    0  0.22233100914E+02 -0.30478281427E+03  0.16118127509E+04  0.16405332391E+04  0.46999998093E+01 0. -1.
       -5    1    3    3    0  502 -0.22233100914E+02  0.30478281427E+03 -0.24280540013E+03  0.39033758080E+03  0.46999998093E+01 0.  1.
</event>
<event>
 5   0  0.1427609E-04  0.1498570E+04  0.7818609E-02  0.8885404E-01
        1   -1    0    0  501    0  0.00000000000E+00  0.00000000000E+00  0.55849943863E+03  0.55849943865E+03  0.50400001928E-02 0.  1.
       -1   -1    0    0    0  501  0.00000000000E+00  0.00000000000E+00 -0.10052436335E+04  0.10052436335E+04  0.50400001928E-02 0. -1.
    10030    2    1    2    0    0  0.00000000000E+00  0.00000000000E+00 -0.44674419489E+03  0.15637430722E+04  0.14985699917E+04 0.  0.
        4    1    3    3  502    0 -0.39639998138E+03 -0.28930335891E+03 -0.81420966706E+03  0.95066733064E+03  0.12699999809E+01 0. -1.
       -4    1    3    3    0  502  0.39639998138E+03  0.28930335891E+03  0.36746547217E+03  0.61307574153E+03  0.12699999809E+01 0.  1.
</event>
<event>
 5   0  0.1484251E-04  0.1501027E+04  0.7818609E-02  0.8883770E-01
        1   -1    0    0  501    0  0.00000000000E+00  0.00000000000E+00  0.50962300893E+03  0.50962300896E+03  0.50400001928E-02 0.  1.
       -1   -1    0    0    0  501  0.00000000000E+00  0.00000000000E+00 -0.11052689071E+04  0.11052689071E+04  0.50400001928E-02 0. -1.
    10030    2    1    2    0    0  0.00000000000E+00  0.00000000000E+00 -0.59564589816E+03  0.16148919161E+04  0.15010269366E+04 0.  0.
        5    1    3    3  502    0  0.52454864371E+03 -0.15865762201E+03  0.25383616358E+03  0.60396888048E+03  0.46999998093E+01 0.  1.
       -5    1    3    3    0  502 -0.52454864371E+03  0.15865762201E+03 -0.84948206174E+03  0.10109230356E+04  0.46999998093E+01 0. -1.
</event>
<event>
 5   0  0.1427609E-04  0.1503547E+04  0.7818609E-02  0.8882098E-01
       -1   -1    0    0    0  501  0.00000000000E+00  0.00000000000E+00  0.32556710894E+03  0.32556710898E+03  0.50400001928E-02 0.  1.
        1   -1    0    0  501    0  0.00000000000E+00  0.00000000000E+00 -0.17359353273E+04  0.17359353273E+04  0.50400001928E-02 0. -1.
    10030    2    1    2    0    0  0.00000000000E+00  0.00000000000E+00 -0.14103682183E+04  0.20615024363E+04  0.15035470673E+04 0.  0.
        4    1    3    3  502    0  0.41222764789E+03 -0.20035360038E+03 -0.15222088543E+04  0.15897152600E+04  0.12699999809E+01 0. -1.
       -4    1    3    3    0  502 -0.41222764789E+03  0.20035360038E+03  0.11184063602E+03  0.47178717621E+03  0.12699999809E+01 0.  1.
</event>
<event>
 5   0  0.2646718E-04  0.1495643E+04  0.7818609E-02  0.8887355E-01
        2   -1    0    0  501    0  0.00000000000E+00  0.00000000000E+00  0.19556578332E+04  0.19556578332E+04  0.25500000920E-02 0. -1.
       -2   -1    0    0    0  501  0.00000000000E+00  0.00000000000E+00 -0.28595856296E+03  0.28595856297E+03  0.25500000920E-02 0.  1.
    10030    2    1    2    0    0  0.00000000000E+00  0.00000000000E+00  0.16696992702E+04  0.22416163962E+04  0.14956431441E+04 0.  0.
        3    1    3    3  502    0  0.12127674331E+03 -0.60149271814E+03  0.14755350513E+04  0.15980316756E+04  0.10100000352E+00 0. -1.
       -3    1    3    3    0  502 -0.12127674331E+03  0.60149271814E+03  0.19416421896E+03  0.64358472058E+03  0.10100000352E+00 0.  1.
</event>
<event>
 5   0  0.1474203E-04  0.1498355E+04  0.7818609E-02  0.8885547E-01
        1   -1    0    0  501    0  0.00000000000E+00  0.00000000000E+00  0.13967321720E+04  0.13967321720E+04  0.50400001928E-02 0.  1.
       -1   -1    0    0    0  501  0.00000000000E+00  0.00000000000E+00 -0.40184299367E+03  0.40184299370E+03  0.50400001928E-02 0. -1.
    10030    2    1    2    0    0  0.00000000000E+00  0.00000000000E+00  0.99488917832E+03  0.17985751657E+04  0.14983551480E+04 0.  0.
        3    1    3    3  502    0  0.23426260191E+03  0.70437601798E+03  0.61892787045E+03  0.96648655468E+03  0.10100000352E+00 0.  1.
       -3    1    3    3    0  502 -0.23426260191E+03 -0.70437601798E+03  0.37596130788E+03  0.83208861102E+03  0.10100000352E+00 0. -1.
</event>
<event>
 5   0  0.2734072E-04  0.1493281E+04  0.7818609E-02  0.8888934E-01
       -2   -1    0    0    0  501  0.00000000000E+00  0.00000000000E+00  0.47359458203E+03  0.47359458204E+03  0.25500000920E-02 0.  1.
        2   -1    0    0  501    0  0.00000000000E+00  0.00000000000E+00 -0.11771074865E+04  0.11771074865E+04  0.25500000920E-02 0. -1.
    10030    2    1    2    0    0  0.00000000000E+00  0.00000000000E+00 -0.70351290450E+03  0.16507020686E+04  0.14932805873E+04 0.  0.
        5    1    3    3  502    0 -0.79954568576E+02 -0.50100981715E+03 -0.95726634961E+03  0.10834133671E+04  0.46999998093E+01 0. -1.
       -5    1    3    3    0  502  0.79954568576E+02  0.50100981715E+03  0.25375344510E+03  0.56728870147E+03  0.46999998093E+01 0.  1.
</event>
<event>
 5   0  0.2646718E-04  0.1503290E+04  0.7818609E-02  0.8882268E-01
        2   -1    0    0  501    0  0.00000000000E+00  0.00000000000E+00  0.70585020067E+03  0.70585020067E+03  0.25500000920E-02 0. -1.
       -2   -1    0    0    0  501  0.00000000000E+00  0.00000000000E+00 -0.80041052766E+03  0.80041052767E+03  0.25500000920E-02 0.  1.
    10030    2    1    2    0    0  0.00000000000E+00  0.00000000000E+00 -0.94560326994E+02  0.15062607283E+04  0.15032896349E+04 0.  0.
        3    1    3    3  502    0 -0.53370707731E+03 -0.34479723787E+03 -0.44962271084E+03  0.77838870233E+03  0.10100000352E+00 0.  1.
       -3    1    3    3    0  502  0.53370707731E+03  0.34479723787E+03  0.35506238385E+03  0.72787202601E+03  0.10100000352E+00 0. -1.
</event>
<event>
 5   0  0.1474203E-04  0.1501972E+04  0.7818609E-02  0.8883143E-01
       -1   -1    0    0    0  501  0.00000000000E+00  0.00000000000E+00  0.72316807553E+03  0.72316807555E+03  0.50400001928E-02 0. -1.
        1   -1    0    0  501    0  0.00000000000E+00  0.00000000000E+00 -0.77987367327E+03  0.77987367329E+03  0.50400001928E-02 0.  1.
    10030    2    1    2    0    0  0.00000000000E+00  0.00000000000E+00 -0.56705597741E+02  0.15030417488E+04  0.15019716955E+04 0.  0.
        3    1    3    3  502    0  0.20655553325E+03 -0.38697543247E+03  0.58164242859E+03  0.72850744580E+03  0.10100000352E+00 0. -1.
       -3    1    3    3    0  502 -0.20655553325E+03  0.38697543247E+03 -0.63834802634E+03  0.77453430303E+03  0.10100000352E+00 0.  1.
</event>
<event>
 5   0  0.2641347E-04  0.1501795E+04  0.7818609E-02  0.8883260E-01
       -2   -1    0    0    0  501  0.00000000000E+00  0.00000000000E+00  0.62611566345E+03  0.62611566345E+03  0.25500000920E-02 0.  1.
        2   -1    0    0  501    0  0.00000000000E+00  0.00000000000E+00 -0.90054720445E+03  0.90054720445E+03  0.25500000920E-02 0. -1.
    10030    2    1    2    0    0  0.00000000000E+00  0.00000000000E+00 -0.27443154100E+03  0.15266628679E+04  0.15017945404E+04 0.  0.
        4    1    3    3  502    0 -0.30801111679E+03  0.44063670156E+03 -0.67012309571E+03  0.85912637437E+03  0.12699999809E+01 0. -1.
       -4    1    3    3    0  502  0.30801111679E+03 -0.44063670156E+03  0.39569155471E+03  0.66753649353E+03  0.12699999809E+01 0.  1.
</event>
<event>
 5   0  0.2734072E-04  0.1490988E+04  0.7818609E-02  0.8890468E-01
       -2   -1    0    0    0  501  0.00000000000E+00  0.00000000000E+00  0.31134865791E+03  0.31134865792E+03  0.25500000920E-02 0. -1.
        2   -1    0    0  501    0  0.00000000000E+00  0.00000000000E+00 -0.17850124393E+04  0.17850124393E+04  0.25500000920E-02 0.  1.
    10030    2    1    2    0    0  0.00000000000E+00  0.00000000000E+00 -0.14736637814E+04  0.20963610972E+04  0.14909878971E+04 0.  0.
        5    1    3    3  502    0 -0.41882885246E+03  0.21245768776E+03 -0.15508482525E+04  0.16204037364E+04  0.46999998093E+01 0.  1.
       -5    1    3    3    0  502  0.41882885246E+03 -0.21245768776E+03  0.77184471098E+02  0.47595736081E+03  0.46999998093E+01 0. -1.
</event>
<event>
 5   0  0.1443750E-04  0.1500964E+04  0.7818609E-02  0.8883812E-01
        1   -1    0    0  501    0  0.00000000000E+00  0.00000000000E+00  0.13163062548E+04  0.13163062548E+04  0.50400001928E-02 0.  1.
       -1   -1    0    0    0  501  0.00000000000E+00  0.00000000000E+00 -0.42788141716E+03  0.42788141719E+03  0.50400001928E-02 0. -1.
    10030    2    1    2    0    0  0.00000000000E+00  0.00000000000E+00  0.88842483762E+03  0.17441876720E+04  0.15009636714E+04 0.  0.
        2    1    3    3  502    0  0.65173610421E+03  0.16833832237E+03  0.58586269042E+02  0.67567010533E+03  0.25500000920E-02 0. -1.
       -2    1    3    3    0  502 -0.65173610421E+03 -0.16833832237E+03  0.82983856858E+03  0.10685175666E+04  0.25500000920E-02 0.  1.
</event>
<event>
 5   0  0.1427609E-04  0.1499185E+04  0.7818609E-02  0.8884995E-01
       -1   -1    0    0    0  501  0.00000000000E+00  0.00000000000E+00  0.12098340130E+04  0.12098340130E+04  0.50400001928E-02 0.  1.
        1   -1    0    0  501    0  0.00000000000E+00  0.00000000000E+00 -0.46443464133E+03  0.46443464136E+03  0.50400001928E-02 0. -1.
    10030    2    1    2    0    0  0.00000000000E+00  0.00000000000E+00  0.74539937170E+03  0.16742686544E+04  0.14991848798E+04 0.  0.
        4    1    3    3  502    0  0.28127013230E+03  0.49345514171E+03  0.91898539510E+03  0.10803456084E+04  0.12699999809E+01 0.  1.
       -4    1    3    3    0  502 -0.28127013230E+03 -0.49345514171E+03 -0.17358602340E+03  0.59392304604E+03  0.12699999809E+01 0. -1.
</event>
<event>
 5   0  0.1474203E-04  0.1493067E+04  0.7818609E-02  0.8889077E-01
        1   -1    0    0  501    0  0.00000000000E+00  0.00000000000E+00  0.14343297848E+04  0.14343297848E+04  0.50400001928E-02 0. -1.
       -1   -1    0    0    0  501  0.00000000000E+00  0.00000000000E+00 -0.38855215629E+03  0.38855215632E+03  0.50400001928E-02 0.  1.
    10030    2    1    2    0    0  0.00000000000E+00  0.00000000000E+00  0.10457776285E+04  0.18228819412E+04  0.14930665501E+04 0.  0.
        3    1    3    3  502    0 -0.73968430217E+03 -0.66594254253E+02  0.61542175902E+03  0.96452662651E+03  0.10100000352E+00 0. -1.
       -3    1    3    3    0  502  0.73968430217E+03  0.66594254253E+02  0.43035586952E+03  0.85835531466E+03  0.10100000352E+00 0.  1.
</event>
<event>
 5   0  0.1484251E-04  0.1523471E+04  0.7818609E-02  0.8868993E-01
        1   -1    0    0  501    0  0.00000000000E+00  0.00000000000E+00  0.57809079129E+03  0.57809079131E+03  0.50400001928E-02 0. -1.
       -1   -1    0    0    0  501  0.00000000000E+00  0.00000000000E+00 -0.10037195017E+04  0.10037195017E+04  0.50400001928E-02 0.  1.
    10030    2    1    2    0    0  0.00000000000E+00  0.00000000000E+00 -0.42562871041E+03  0.15818102930E+04  0.15234710381E+04 0.  0.
        5    1    3    3  502    0 -0.43031125502E+03 -0.47604384144E+03 -0.63893668914E+03  0.90556485019E+03  0.46999998093E+01 0.  1.
       -5    1    3    3    0  502  0.43031125502E+03  0.47604384144E+03  0.21330797873E+03  0.67624544284E+03  0.46999998093E+01 0. -1.
</event>
<event>
 5   0  0.2618901E-04  0.1493834E+04  0.7818609E-02  0.8888563E-01
       -2   -1    0    0    0  501  0.00000000000E+00  0.00000000000E+00  0.17831815680E+04  0.17831815680E+04  0.25500000920E-02 0.  1.
        2   -1    0    0  501    0  0.00000000000E+00  0.00000000000E+00 -0.31285950519E+03  0.31285950520E+03  0.25500000920E-02 0. -1.
    10030    2    1    2    0    0  0.00000000000E+00  0.00000000000E+00  0.14703220628E+04  0.20960410732E+04  0.14938343992E+04 0.  0.
        1    1    3    3  502    0  0.66611522460E+03 -0.16655056784E+03  0.11476824184E+04  0.13373943015E+04  0.50400001928E-02 0.  1.
       -1    1    3    3    0  502 -0.66611522460E+03  0.16655056784E+03  0.32263964441E+03  0.75864677173E+03  0.50400001928E-02 0. -1.
</event>
<event>
 5   0  0.1426929E-04  0.1475326E+04  0.7818609E-02  0.8901029E-01
       -1   -1    0    0    0  501  0.00000000000E+00  0.00000000000E+00  0.14392697479E+04  0.14392697479E+04  0.50400001928E-02 0. -1.
        1   -1    0    0  501    0  0.00000000000E+00  0.00000000000E+00 -0.37807129727E+03  0.37807129731E+03  0.50400001928E-02 0.  1.
    10030    2    1    2    0    0  0.00000000000E+00  0.00000000000E+00  0.10611984506E+04  0.18173410452E+04  0.14753258362E+04 0.  0.
        1    1    3    3  502    0 -0.65725370126E+03  0.50135151241E+02  0.93849953237E+03  0.11468554109E+04  0.50400001928E-02 0. -1.
       -1    1    3    3    0  502  0.65725370126E+03 -0.50135151241E+02  0.12269891821E+03  0.67048563428E+03  0.50400001928E-02 0.  1.
</event>
<event>
 5   0  0.2618901E-04  0.1486089E+04  0.7818609E-02  0.8893757E-01
       -2   -1    0    0    0  501  0.00000000000E+00  0.00000000000E+00  0.40190039426E+03  0.40190039427E+03  0.25500000920E-02 0. -1.
        2   -1    0    0  501    0  0.00000000000E+00  0.00000000000E+00 -0.13737605922E+04  0.13737605922E+04  0.25500000920E-02 0.  1.
    10030    2    1    2    0    0  0.00000000000E+00  0.00000000000E+00 -0.97186019796E+03  0.17756609865E+04  0.14860887237E+04 0.  0.
        1    1    3    3  502    0  0.47654457823E+03 -0.41197671637E+02 -0.11653426632E+04  0.12596886543E+04  0.50400001928E-02 0. -1.
       -1    1    3    3    0  502 -0.47654457823E+03  0.41197671637E+02  0.19348246522E+03  0.51597233217E+03  0.50400001928E-02 0.  1.
</event>
<event>
 5   0  0.1474203E-04  0.1495686E+04  0.7818609E-02  0.8887326E-01
       -1   -1    0    0    0  501  0.00000000000E+00  0.00000000000E+00  0.66813548256E+03  0.66813548258E+03  0.50400001928E-02 0. -1.
        1   -1    0    0  501    0  0.00000000000E+00  0.00000000000E+00 -0.83705992858E+03  0.83705992859E+03  0.50400001928E-02 0.  1.
    10030    2    1    2    0    0  0.00000000000E+00  0.00000000000E+00 -0.16892444601E+03  0.15051954112E+04  0.14956863834E+04 0.  0.
        3    1    3    3  502    0 -0.59059260997E+03  0.44606087910E+03 -0.19237966482E+03  0.76470901946E+03  0.10100000352E+00 0. -1.
       -3    1    3    3    0  502  0.59059260997E+03 -0.44606087910E+03  0.23455218801E+02  0.74048639171E+03  0.10100000352E+00 0.  1.
</event>
<event>
 5   0  0.1443750E-04  0.1501069E+04  0.7818609E-02  0.8883742E-01
       -1   -1    0    0    0  501  0.00000000000E+00  0.00000000000E+00  0.43860071173E+03  0.43860071176E+03  0.50400001928E-02 0.  1.
        1   -1    0    0  501    0  0.00000000000E+00  0.00000000000E+00 -0.12843163632E+04  0.12843163632E+04  0.50400001928E-02 0. -1.
    10030    2    1    2    0    0  0.00000000000E+00  0.00000000000E+00 -0.84571565148E+03  0.17229170750E+04  0.15010690471E+04 0.  0.
        2    1    3    3  502    0 -0.16048758218E+03 -0.68757953471E+03 -0.71499364893E+03  0.10048571036E+04  0.25500000920E-02 0. -1.
       -2    1    3    3    0  502  0.16048758218E+03  0.68757953471E+03 -0.13072200254E+03  0.71805997141E+03  0.25500000920E-02 0.  1.
</event>
<event>
 5   0  0.1484251E-04  0.1499977E+04  0.7818609E-02  0.8884468E-01
       -1   -1    0    0    0  501  0.00000000000E+00  0.00000000000E+00  0.88813045794E+03  0.88813045796E+03  0.50400001928E-02 0. -1.
        1   -1    0    0  501    0  0.00000000000E+00  0.00000000000E+00 -0.63333375757E+03  0.63333375759E+03  0.50400001928E-02 0.  1.
    10030    2    1    2    0    0  0.00000000000E+00  0.00000000000E+00  0.25479670037E+03  0.15214642155E+04  0.14999773334E+04 0.  0.
        5    1    3    3  502    0 -0.31187875885E+03  0.38725045070E+03  0.69689420569E+03  0.85610448878E+03  0.46999998093E+01 0. -1.
       -5    1    3    3    0  502  0.31187875885E+03 -0.38725045070E+03 -0.44209750532E+03  0.66535972677E+03  0.46999998093E+01 0.  1.
</event>
<event>
 5   0  0.2734072E-04  0.1514186E+04  0.7818609E-02  0.8875074E-01
        2   -1    0    0  501    0  0.00000000000E+00  0.00000000000E+00  0.68010121511E+03  0.68010121512E+03  0.25500000920E-02 0.  1.
       -2   -1    0    0    0  501  0.00000000000E+00  0.00000000000E+00 -0.84280046964E+03  0.84280046964E+03  0.25500000920E-02 0. -1.
    10030    2    1    2    0    0  0.00000000000E+00  0.00000000000E+00 -0.16269925452E+03  0.15229016848E+04  0.15141857528E+04 0.  0.
        5    1    3    3  502    0  0.94704167213E+02 -0.75046469144E+03 -0.49522550662E+02  0.75805059554E+03  0.46999998093E+01 0. -1.
       -5    1    3    3    0  502 -0.94704167213E+02  0.75046469144E+03 -0.11317670386E+03  0.76485108922E+03  0.46999998093E+01 0.  1.
</event>
<event>
 5   0  0.2734072E-04  0.1498447E+04  0.7818609E-02  0.8885486E-01
        2   -1    0    0  501    0  0.00000000000E+00  0.00000000000E+00  0.14380806392E+04  0.14380806392E+04  0.25500000920E-02 0.  1.
       -2   -1    0    0    0  501  0.00000000000E+00  0.00000000000E+00 -0.39033698200E+03  0.39033698200E+03  0.25500000920E-02 0. -1.
    10030    2    1    2    0    0  0.00000000000E+00  0.00000000000E+00  0.10477436573E+04  0.18284176213E+04  0.14984472718E+04 0.  0.
        5    1    3    3  502    0  0.45127206110E+03 -0.21651867314E+03  0.12041169959E+04  0.13040117479E+04  0.46999998093E+01 0.  1.
       -5    1    3    3    0  502 -0.45127206110E+03  0.21651867314E+03 -0.15637333864E+03  0.52440587333E+03  0.46999998093E+01 0. -1.
</event>
<event>
 5   0  0.2734072E-04  0.1497405E+04  0.7818609E-02  0.8886181E-01
       -2   -1    0    0    0  501  0.00000000000E+00  0.00000000000E+00  0.72815289965E+03  0.72815289966E+03  0.25500000920E-02 0. -1.
        2   -1    0    0  501    0  0.00000000000E+00  0.00000000000E+00 -0.76983180977E+03  0.76983180978E+03  0.25500000920E-02 0.  1.
    10030    2    1    2    0    0  0.00000000000E+00  0.00000000000E+00 -0.41678910121E+02  0.14979847094E+04  0.14974047743E+04 0.  0.
        5    1    3    3  502    0 -0.38457951016E+03  0.40830497955E+03  0.47525462975E+03  0.73518936952E+03  0.46999998093E+01 0. -1.
       -5    1    3    3    0  502  0.38457951016E+03 -0.40830497955E+03 -0.51693353987E+03  0.76279533992E+03  0.46999998093E+01 0.  1.
</event>
<event>
 5   0  0.1427609E-04  0.1502269E+04  0.7818609E-02  0.8882945E-01
        1   -1    0    0  501    0  0.00000000000E+00  0.00000000000E+00  0.12467780089E+04  0.12467780089E+04  0.50400001928E-02 0.  1.
       -1   -1    0    0    0  501  0.00000000000E+00  0.00000000000E+00 -0.45252915033E+03  0.45252915035E+03  0.50400001928E-02 0. -1.
    10030    2    1    2    0    0  0.00000000000E+00  0.00000000000E+00  0.79424885858E+03  0.16993071593E+04  0.15022694739E+04 0.  0.
        4    1    3    3  502    0 -0.40326337012E+03  0.40238875953E+03 -0.15664017546E+03  0.59082638477E+03  0.12699999809E+01 0. -1.
       -4    1    3    3    0  502  0.40326337012E+03 -0.40238875953E+03  0.95088903404E+03  0.11084807745E+04  0.12699999809E+01 0.  1.
</event>
<event>
 5   0  0.2696040E-04  0.1499551E+04  0.7818609E-02  0.8884752E-01
       -2   -1    0    0    0  501  0.00000000000E+00  0.00000000000E+00  0.44396110511E+03  0.44396110511E+03  0.25500000920E-02 0.  1.
        2   -1    0    0  501    0  0.00000000000E+00  0.00000000000E+00 -0.12662445376E+04  0.12662445376E+04  0.25500000920E-02 0. -1.
    10030    2    1    2    0    0  0.00000000000E+00  0.00000000000E+00 -0.82228343254E+03  0.17102056428E+04  0.14995510318E+04 0.  0.
        2    1    3    3  502    0  0.11479829138E+03  0.49346847715E+03  0.21919685493E+03  0.55202993294E+03  0.25500000920E-02 0.  1.
       -2    1    3    3    0  502 -0.11479829138E+03 -0.49346847715E+03 -0.10414802875E+04  0.11581757098E+04  0.25500000920E-02 0. -1.
</event>
<event>
 5   0  0.2646718E-04  0.1496387E+04  0.7818609E-02  0.8886859E-01
        2   -1    0    0  501    0  0.00000000000E+00  0.00000000000E+00  0.18754865467E+04  0.18754865467E+04  0.25500000920E-02 0.  1.
       -2   -1    0    0    0  501  0.00000000000E+00  0.00000000000E+00 -0.29847892898E+03  0.29847892899E+03  0.25500000920E-02 0. -1.
    10030    2    1    2    0    0  0.00000000000E+00  0.00000000000E+00  0.15770076178E+04  0.21739654757E+04  0.14963866022E+04 0.  0.
        3    1    3    3  502    0 -0.18572665833E+02 -0.22522567795E+03 -0.24770897152E+03  0.33530776116E+03  0.10100000352E+00 0. -1.
       -3    1    3    3    0  502  0.18572665833E+02  0.22522567795E+03  0.18247165893E+04  0.18386577146E+04  0.10100000352E+00 0.  1.
</event>
<event>
 5   0  0.1426929E-04  0.1500628E+04  0.7818609E-02  0.8884035E-01
       -1   -1    0    0    0  501  0.00000000000E+00  0.00000000000E+00  0.45254600949E+03  0.45254600951E+03  0.50400001928E-02 0. -1.
        1   -1    0    0  501    0  0.00000000000E+00  0.00000000000E+00 -0.12440083286E+04  0.12440083286E+04  0.50400001928E-02 0.  1.
    10030    2    1    2    0    0  0.00000000000E+00  0.00000000000E+00 -0.79146231907E+03  0.16965543381E+04  0.15006278751E+04 0.  0.
        1    1    3    3  502    0  0.10771545197E+03  0.74252160773E+03 -0.40192849283E+03  0.85116829706E+03  0.50400001928E-02 0. -1.
       -1    1    3    3    0  502 -0.10771545197E+03 -0.74252160773E+03 -0.38953382624E+03  0.84538604102E+03  0.50400001928E-02 0.  1.
</event>
<event>
 5   0  0.2646718E-04  0.1502547E+04  0.7818609E-02  0.8882761E-01
       -2   -1    0    0    0  501  0.00000000000E+00  0.00000000000E+00  0.90510911507E+03  0.90510911507E+03  0.25500000920E-02 0.  1.
        2   -1    0    0  501    0  0.00000000000E+00  0.00000000000E+00 -0.62358422079E+03  0.62358422080E+03  0.25500000920E-02 0. -1.
    10030    2    1    2    0    0  0.00000000000E+00  0.00000000000E+00  0.28152489428E+03  0.15286933359E+04  0.15025468542E+04 0.  0.
        3    1    3    3  502    0 -0.61446055199E+03 -0.33241784422E+03  0.42188274357E+03  0.81611791589E+03  0.10100000352E+00 0.  1.
       -3    1    3    3    0  502  0.61446055199E+03  0.33241784422E+03 -0.14035784929E+03  0.71257541999E+03  0.10100000352E+00 0. -1.
</event>
<event>
 5   0  0.1427609E-04  0.1468785E+04  0.7818609E-02  0.8905480E-01
       -1   -1    0    0    0  501  0.00000000000E+00  0.00000000000E+00  0.48151034221E+03  0.48151034224E+03  0.50400001928E-02 0.  1.
        1   -1    0    0  501    0  0.00000000000E+00  0.00000000000E+00 -0.11200845483E+04  0.11200845483E+04  0.50400001928E-02 0. -1.
    10030    2    1    2    0    0  0.00000000000E+00  0.00000000000E+00 -0.63857420605E+03  0.16015948905E+04  0.14687849321E+04 0.  0.
        4    1    3    3  502    0 -0.26591303804E+03  0.39094732717E+03 -0.93204307100E+03  0.10451102600E+04  0.12699999809E+01 0. -1.
       -4    1    3    3    0  502  0.26591303804E+03 -0.39094732717E+03  0.29346886495E+03  0.55648463053E+03  0.12699999809E+01 0.  1.
</event>
<event>
 5   0  0.2734072E-04  0.1499995E+04  0.7818609E-02  0.8884456E-01
       -2   -1    0    0    0  501  0.00000000000E+00  0.00000000000E+00  0.47333069105E+03  0.47333069106E+03  0.25500000920E-02 0.  1.
        2   -1    0    0  501    0  0.00000000000E+00  0.00000000000E+00 -0.11883786726E+04  0.11883786726E+04  0.25500000920E-02 0. -1.
    10030    2    1    2    0    0  0.00000000000E+00  0.00000000000E+00 -0.71504798151E+03  0.16617093636E+04  0.14999947978E+04 0.  0.
        5    1    3    3  502    0 -0.72565027103E+03  0.56110102374E+01 -0.56734862825E+03  0.92114404696E+03  0.46999998093E+01 0. -1.
       -5    1    3    3    0  502  0.72565027103E+03 -0.56110102374E+01 -0.14769935327E+03  0.74056531666E+03  0.46999998093E+01 0.  1.
</event>
<event>
 5   0  0.1474203E-04  0.1504058E+04  0.7818609E-02  0.8881759E-01
        1   -1    0    0  501    0  0.00000000000E+00  0.00000000000E+00  0.18340311634E+04  0.18340311634E+04  0.50400001928E-02 0.  1.
       -1   -1    0    0    0  501  0.00000000000E+00  0.00000000000E+00 -0.30836297664E+03  0.30836297668E+03  0.50400001928E-02 0. -1.
    10030    2    1    2    0    0  0.00000000000E+00  0.00000000000E+00  0.15256681867E+04  0.21423941400E+04  0.15040575904E+04 0.  0.
        3    1    3    3  502    0  0.62165058782E+03  0.33083618007E+03  0.38692683577E+03  0.80350134898E+03  0.10100000352E+00 0. -1.
       -3    1    3    3    0  502 -0.62165058782E+03 -0.33083618007E+03  0.11387413510E+04  0.13388927911E+04  0.10100000352E+00 0.  1.
</event>
<event>
 5   0  0.2696040E-04  0.1491579E+04  0.7818609E-02  0.8890072E-01
        2   -1    0    0  501    0  0.00000000000E+00  0.00000000000E+00  0.12750626045E+04  0.12750626045E+04  0.25500000920E-02 0.  1.
       -2   -1    0    0    0  501  0.00000000000E+00  0.00000000000E+00 -0.43621548422E+03  0.43621548422E+03  0.25500000920E-02 0. -1.
    10030    2    1    2    0    0  0.00000000000E+00  0.00000000000E+00  0.83884712030E+03  0.17112780887E+04  0.14915790981E+04 0.  0.
        2    1    3    3  502    0  0.25281279106E+03  0.34902910202E+03 -0.27888719509E+03  0.51333584423E+03  0.25500000920E-02 0. -1.
       -2    1    3    3    0  502 -0.25281279106E+03 -0.34902910202E+03  0.11177343154E+04  0.11979422445E+04  0.25500000920E-02 0.  1.
</event>
<event>
 5   0  0.1484251E-04  0.1511445E+04  0.7818609E-02  0.8876878E-01
        1   -1    0    0  501    0  0.00000000000E+00  0.00000000000E+00  0.41246958061E+03  0.41246958064E+03  0.50400001928E-02 0.  1.
       -1   -1    0    0    0  501  0.00000000000E+00  0.00000000000E+00 -0.13846269729E+04  0.13846269729E+04  0.50400001928E-02 0. -1.
    10030    2    1    2    0    0  0.00000000000E+00  0.00000000000E+00 -0.97215739229E+03  0.17970965536E+04  0.15114450130E+04 0.  0.
        5    1    3    3  502    0  0.13225345971E+03 -0.69761758337E+03 -0.79368815129E+03  0.10649526946E+04  0.46999998093E+01 0. -1.
       -5    1    3    3    0  502 -0.13225345971E+03  0.69761758337E+03 -0.17846924100E+03  0.73214385896E+03  0.46999998093E+01 0.  1.
</event>
<event>
 5   0  0.1443750E-04  0.1482536E+04  0.7818609E-02  0.8896150E-01
        1   -1    0    0  501    0  0.00000000000E+00  0.00000000000E+00  0.17441047646E+04  0.17441047646E+04  0.50400001928E-02 0. -1.
       -1   -1    0    0    0  501  0.00000000000E+00  0.00000000000E+00 -0.31504904003E+03  0.31504904007E+03  0.50400001928E-02 0.  1.
    10030    2    1    2    0    0  0.00000000000E+00  0.00000000000E+00  0.14290557246E+04  0.20591538047E+04  0.14825363832E+04 0.  0.
        2    1    3    3  502    0 -0.39148866295E+03 -0.14580186514E+03 -0.13597179834E+03  0.43932890531E+03  0.25500000920E-02 0.  1.
       -2    1    3    3    0  502  0.39148866295E+03  0.14580186514E+03  0.15650275229E+04  0.16198248994E+04  0.25500000920E-02 0. -1.
</event>
<event>
 5   0  0.1484251E-04  0.1507365E+04  0.7818609E-02  0.8879570E-01
       -1   -1    0    0    0  501  0.00000000000E+00  0.00000000000E+00  0.93081299358E+03  0.93081299359E+03  0.50400001928E-02 0. -1.
        1   -1    0    0  501    0  0.00000000000E+00  0.00000000000E+00 -0.61025911619E+03  0.61025911621E+03  0.50400001928E-02 0.  1.
    10030    2    1    2    0    0  0.00000000000E+00  0.00000000000E+00  0.32055387739E+03  0.15410721098E+04  0.15073647400E+04 0.  0.
        5    1    3    3  502    0 -0.28777701978E+03  0.14448399817E+03 -0.53637375602E+03  0.62562779269E+03  0.46999998093E+01 0.  1.
       -5    1    3    3    0  502  0.28777701978E+03 -0.14448399817E+03  0.85692763341E+03  0.91544431711E+03  0.46999998093E+01 0. -1.
</event>
<event>
 5   0  0.2734072E-04  0.1498368E+04  0.7818609E-02  0.8885539E-01
       -2   -1    0    0    0  501  0.00000000000E+00  0.00000000000E+00  0.46807462985E+03  0.46807462986E+03  0.25500000920E-02 0. -1.
        2   -1    0    0  501    0  0.00000000000E+00  0.00000000000E+00 -0.11991174327E+04  0.11991174327E+04  0.25500000920E-02 0.  1.
    10030    2    1    2    0    0  0.00000000000E+00  0.00000000000E+00 -0.73104280281E+03  0.16671920625E+04  0.14983677098E+04 0.  0.
        5    1    3    3  502    0 -0.55723704703E+03 -0.28396684714E+01  0.19162986598E+03  0.58929219054E+03  0.46999998093E+01 0. -1.
       -5    1    3    3    0  502  0.55723704703E+03  0.28396684714E+01 -0.92267266879E+03  0.10778998720E+04  0.46999998093E+01 0.  1.
</event>
<event>
 5   0  0.1484251E-04  0.1495858E+04  0.7818609E-02  0.8887212E-01
        1   -1    0    0  501    0  0.00000000000E+00  0.00000000000E+00  0.13607774036E+04  0.13607774036E+04  0.50400001928E-02 0.  1.
       -1   -1    0    0    0  501  0.00000000000E+00  0.00000000000E+00 -0.41108702069E+03  0.41108702072E+03  0.50400001928E-02 0. -1.
    10030    2    1    2    0    0  0.00000000000E+00  0.00000000000E+00  0.94969038289E+03  0.17718644243E+04  0.14958581867E+04 0.  0.
        5    1    3    3  502    0  0.40489273928E+03  0.61706255714E+03  0.61832059575E+03  0.96283268477E+03  0.46999998093E+01 0.  1.
       -5    1    3    3    0  502 -0.40489273928E+03 -0.61706255714E+03  0.33136978714E+03  0.80903173953E+03  0.46999998093E+01 0. -1.
</event>
<event>
 5   0  0.2618901E-04  0.1498229E+04  0.7818609E-02  0.8885631E-01
       -2   -1    0    0    0  501  0.00000000000E+00  0.00000000000E+00  0.41800401073E+03  0.41800401074E+03  0.25500000920E-02 0. -1.
        2   -1    0    0  501    0  0.00000000000E+00  0.00000000000E+00 -0.13425057451E+04  0.13425057451E+04  0.25500000920E-02 0.  1.
    10030    2    1    2    0    0  0.00000000000E+00  0.00000000000E+00 -0.92450173436E+03  0.17605097558E+04  0.14982293361E+04 0.  0.
        1    1    3    3  502    0 -0.61423735327E+03 -0.41303598045E+03 -0.59769683037E+03  0.95138202019E+03  0.50400001928E-02 0.  1.
       -1    1    3    3    0  502  0.61423735327E+03  0.41303598045E+03 -0.32680490399E+03  0.80912773564E+03  0.50400001928E-02 0. -1.
</event>
<event>
 5   0  0.2734072E-04  0.1485454E+04  0.7818609E-02  0.8894184E-01
        2   -1    0    0  501    0  0.00000000000E+00  0.00000000000E+00  0.98755059273E+03  0.98755059274E+03  0.25500000920E-02 0.  1.
       -2   -1    0    0    0  501  0.00000000000E+00  0.00000000000E+00 -0.55859786091E+03  0.55859786091E+03  0.25500000920E-02 0. -1.
    10030    2    1    2    0    0  0.00000000000E+00  0.00000000000E+00  0.42895273183E+03  0.15461484537E+04  0.14854543394E+04 0.  0.
        5    1    3    3  502    0 -0.50670975930E+03  0.22040875432E+03  0.73102642541E+03  0.91638230221E+03  0.46999998093E+01 0.  1.
       -5    1    3    3    0  502  0.50670975930E+03 -0.22040875432E+03 -0.30207369358E+03  0.62976615144E+03  0.46999998093E+01 0. -1.
</event>
<event>
 5   0  0.2734072E-04  0.1498688E+04  0.7818609E-02  0.8885326E-01
        2   -1    0    0  501    0  0.00000000000E+00  0.00000000000E+00  0.11703952927E+04  0.11703952927E+04  0.25500000920E-02 0. -1.
       -2   -1    0    0    0  501  0.00000000000E+00  0.00000000000E+00 -0.47976632384E+03  0.47976632384E+03  0.25500000920E-02 0.  1.
    10030    2    1    2    0    0  0.00000000000E+00  0.00000000000E+00  0.69062896889E+03  0.16501616166E+04  0.14986877554E+04 0.  0.
        5    1    3    3  502    0 -0.65144112238E+02 -0.32029091866E+03  0.10877532977E+04  0.11358077982E+04  0.46999998093E+01 0. -1.
       -5    1    3    3    0  502  0.65144112238E+02  0.32029091866E+03 -0.39712432878E+03  0.51435381834E+03  0.46999998093E+01 0.  1.
</event>
<event>
 5   0  0.1484251E-04  0.1495920E+04  0.7818609E-02  0.8887171E-01
        1   -1    0    0  501    0  0.00000000000E+00  0.00000000000E+00  0.35559929474E+03  0.35559929478E+03  0.50400001928E-02 0. -1.
       -1   -1    0    0    0  501  0.00000000000E+00  0.00000000000E+00 -0.15732433477E+04  0.15732433477E+04  0.50400001928E-02 0.  1.
    10030    2    1    2    0    0  0.00000000000E+00  0.00000000000E+00 -0.12176440529E+04  0.19288426424E+04  0.14959200847E+04 0.  0.
        5    1    3    3  502    0 -0.24721959228E+03 -0.69052342506E+03 -0.79780637509E+03  0.10837237792E+04  0.46999998093E+01 0. -1.
       -5    1    3    3    0  502  0.24721959228E+03  0.69052342506E+03 -0.41983767783E+03  0.84511886329E+03  0.46999998093E+01 0.  1.
</event>
<event>
 5   0  0.1484251E-04  0.1499610E+04  0.7818609E-02  0.8884712E-01
       -1   -1    0    0    0  501  0.00000000000E+00  0.00000000000E+00  0.55659648350E+03  0.55659648352E+03  0.50400001928E-02 0. -1.
        1   -1    0    0  501    0  0.00000000000E+00  0.00000000000E+00 -0.10100815142E+04  0.10100815143E+04  0.50400001928E-02 0.  1.
    10030    2    1    2    0    0  0.00000000000E+00  0.00000000000E+00 -0.45348503075E+03  0.15666779978E+04  0.14996103746E+04 0.  0.
        5    1    3    3  502    0 -0.18475682418E+03 -0.14514383409E+03  0.51712980221E+03  0.56802036846E+03  0.46999998093E+01 0. -1.
       -5    1    3    3    0  502  0.18475682418E+03  0.14514383409E+03 -0.97061483295E+03  0.99865762932E+03  0.46999998093E+01 0.  1.
</event>
<event>
 5   0  0.2734072E-04  0.1508746E+04  0.7818609E-02  0.8878658E-01
       -2   -1    0    0    0  501  0.00000000000E+00  0.00000000000E+00  0.77501519340E+03  0.77501519341E+03  0.25500000920E-02 0. -1.
        2   -1    0    0  501    0  0.00000000000E+00  0.00000000000E+00 -0.73428042757E+03  0.73428042757E+03  0.25500000920E-02 0.  1.
    10030    2    1    2    0    0  0.00000000000E+00  0.00000000000E+00  0.40734765834E+02  0.15092956210E+04  0.15087458203E+04 0.  0.
        5    1    3    3  502    0  0.56732593370E+03 -0.29300689482E+03 -0.38145627798E+03  0.74380288886E+03  0.46999998093E+01 0.  1.
       -5    1    3    3    0  502 -0.56732593370E+03  0.29300689482E+03  0.42219104382E+03  0.76549273213E+03  0.46999998093E+01 0. -1.
</event>
<event>
 5   0  0.1427609E-04  0.1501205E+04  0.7818609E-02  0.8883652E-01
       -1   -1    0    0    0  501  0.00000000000E+00  0.00000000000E+00  0.29771222342E+03  0.29771222346E+03  0.50400001928E-02 0. -1.
        1   -1    0    0  501    0  0.00000000000E+00  0.00000000000E+00 -0.18924443877E+04  0.18924443877E+04  0.50400001928E-02 0.  1.
    10030    2    1    2    0    0  0.00000000000E+00  0.00000000000E+00 -0.15947321642E+04  0.21901566111E+04  0.15012046182E+04 0.  0.
        4    1    3    3  502    0 -0.46018559514E+03 -0.53291285815E+03 -0.11767876764E+04  0.13713488778E+04  0.12699999809E+01 0.  1.
       -4    1    3    3    0  502  0.46018559514E+03  0.53291285815E+03 -0.41794448782E+03  0.81880773333E+03  0.12699999809E+01 0. -1.
</event>
<event>
 5   0  0.2618901E-04  0.1491358E+04  0.7818609E-02  0.8890220E-01
        2   -1    0    0  501    0  0.00000000000E+00  0.00000000000E+00  0.42420438421E+03  0.42420438422E+03  0.25500000920E-02 0.  1.
       -2   -1    0    0    0  501  0.00000000000E+00  0.00000000000E+00 -0.13107767323E+04  0.13107767323E+04  0.25500000920E-02 0. -1.
    10030    2    1    2    0    0  0.00000000000E+00  0.00000000000E+00 -0.88657234812E+03  0.17349811166E+04  0.14913580879E+04 0.  0.
        1    1    3    3  502    0  0.16812629968E+01 -0.71313524456E+03 -0.18981182264E+03  0.73796560334E+03  0.50400001928E-02 0.  1.
       -1    1    3    3    0  502 -0.16812629968E+01  0.71313524456E+03 -0.69676052549E+03  0.99701551321E+03  0.50400001928E-02 0. -1.
</event>
<event>
 5   0  0.1484251E-04  0.1494872E+04  0.7818609E-02  0.8887870E-01
        1   -1    0    0  501    0  0.00000000000E+00  0.00000000000E+00  0.68453941181E+03  0.68453941183E+03  0.50400001928E-02 0. -1.
       -1   -1    0    0    0  501  0.00000000000E+00  0.00000000000E+00 -0.81611129733E+03  0.81611129734E+03  0.50400001928E-02 0.  1.
    10030    2    1    2    0    0  0.00000000000E+00  0.00000000000E+00 -0.13157188552E+03  0.15006507092E+04  0.14948716968E+04 0.  0.
        5    1    3    3  502    0  0.34315697457E+02 -0.48819171621E+02 -0.81370132089E+03  0.81589999891E+03  0.46999998093E+01 0.  1.
       -5    1    3    3    0  502 -0.34315697457E+02  0.48819171621E+02  0.68212943537E+03  0.68475071026E+03  0.46999998093E+01 0. -1.
</event>
<event>
 5   0  0.1426929E-04  0.1498890E+04  0.7818609E-02  0.8885191E-01
       -1   -1    0    0    0  501  0.00000000000E+00  0.00000000000E+00  0.58412211118E+03  0.58412211120E+03  0.50400001928E-02 0.  1.
        1   -1    0    0  501    0  0.00000000000E+00  0.00000000000E+00 -0.96155931727E+03  0.96155931728E+03  0.50400001928E-02 0. -1.
    10030    2    1    2    0    0  0.00000000000E+00  0.00000000000E+00 -0.37743720609E+03  0.15456814285E+04  0.14988903342E+04 0.  0.
        1    1    3    3  502    0  0.58847206416E+03  0.66883821638E+02  0.28485067581E+03  0.65720067212E+03  0.50400001928E-02 0.  1.
       -1    1    3    3    0  502 -0.58847206416E+03 -0.66883821638E+02 -0.66228788190E+03  0.88848075637E+03  0.50400001928E-02 0. -1.
</event>
<event>
 5   0  0.1426929E-04  0.1501709E+04  0.7818609E-02  0.8883317E-01
       -1   -1    0    0    0  501  0.00000000000E+00  0.00000000000E+00  0.12298919459E+04  0.12298919459E+04  0.50400001928E-02 0. -1.
        1   -1    0    0  501    0  0.00000000000E+00  0.00000000000E+00 -0.45840009132E+03  0.45840009135E+03  0.50400001928E-02 0.  1.
    10030    2    1    2    0    0  0.00000000000E+00  0.00000000000E+00  0.77149185457E+03  0.16882920372E+04  0.15017091334E+04 0.  0.
        1    1    3    3  502    0 -0.54595834472E+03  0.37289277245E+03  0.78586266072E+03  0.10269857134E+04  0.50400001928E-02 0.  1.
       -1    1    3    3    0  502  0.54595834472E+03 -0.37289277245E+03 -0.14370806148E+02  0.66130632388E+03  0.50400001928E-02 0. -1.
</event>
<event>
 5   0  0.1427609E-04  0.1502580E+04  0.7818609E-02  0.8882739E-01
       -1   -1    0    0    0  501  0.00000000000E+00  0.00000000000E+00  0.55950324484E+03  0.55950324486E+03  0.50400001928E-02 0.  1.
        1   -1    0    0  501    0  0.00000000000E+00  0.00000000000E+00 -0.10088173744E+04  0.10088173744E+04  0.50400001928E-02 0. -1.
    10030    2    1    2    0    0  0.00000000000E+00  0.00000000000E+00 -0.44931412959E+03  0.15683206193E+04  0.15025799073E+04 0.  0.
        4    1    3    3  502    0 -0.70044552479E+03 -0.22754151822E+03 -0.69717358155E+02  0.73977104475E+03  0.12699999809E+01 0.  1.
       -4    1    3    3    0  502  0.70044552479E+03  0.22754151822E+03 -0.37959677144E+03  0.82854957456E+03  0.12699999809E+01 0. -1.
</event>
<event>
 5   0  0.2641347E-04  0.1503463E+04  0.7818609E-02  0.8882153E-01
        2   -1    0    0  501    0  0.00000000000E+00  0.00000000000E+00  0.10283454415E+04  0.10283454415E+04  0.25500000920E-02 0.  1.
       -2   -1    0    0    0  501  0.00000000000E+00  0.00000000000E+00 -0.54952361357E+03  0.54952361357E+03  0.25500000920E-02 0. -1.
    10030    2    1    2    0    0  0.00000000000E+00  0.00000000000E+00  0.47882182792E+03  0.15778690551E+04  0.15034628070E+04 0.  0.
        4    1    3    3  502    0 -0.69053580473E+03 -0.10631517160E+03  0.53054909568E+03  0.87728363096E+03  0.12699999809E+01 0.  1.
       -4    1    3    3    0  502  0.69053580473E+03  0.10631517160E+03 -0.51727267755E+02  0.70058542410E+03  0.12699999809E+01 0. -1.
</event>
<event>
 5   0  0.2618901E-04  0.1503834E+04  0.7818609E-02  0.8881907E-01
        2   -1    0    0  501    0  0.00000000000E+00  0.00000000000E+00  0.86337867981E+03  0.86337867981E+03  0.25500000920E-02 0. -1.
       -2   -1    0    0    0  501  0.00000000000E+00  0.00000000000E+00 -0.65484498227E+03  0.65484498228E+03  0.25500000920E-02 0.  1.
    10030    2    1    2    0    0  0.00000000000E+00  0.00000000000E+00  0.20853369754E+03  0.15182236621E+04  0.15038340284E+04 0.  0.
        1    1    3    3  502    0 -0.13822040166E+03 -0.62531282767E+03 -0.29353161317E+03  0.70447272469E+03  0.50400001928E-02 0.  1.
       -1    1    3    3    0  502  0.13822040166E+03  0.62531282767E+03  0.50206531070E+03  0.81375093740E+03  0.50400001928E-02 0. -1.
</event>
<event>
 5   0  0.1427609E-04  0.1498723E+04  0.7818609E-02  0.8885303E-01
       -1   -1    0    0    0  501  0.00000000000E+00  0.00000000000E+00  0.52757613374E+03  0.52757613376E+03  0.50400001928E-02 0.  1.
        1   -1    0    0  501    0  0.00000000000E+00  0.00000000000E+00 -0.10643818914E+04  0.10643818914E+04  0.50400001928E-02 0. -1.
    10030    2    1    2    0    0  0.00000000000E+00  0.00000000000E+00 -0.53680575763E+03  0.15919580251E+04  0.14987227670E+04 0.  0.
        4    1    3    3  502    0 -0.49622332895E+03 -0.56048189561E+03 -0.23217353992E+03  0.78376253612E+03  0.12699999809E+01 0. -1.
       -4    1    3    3    0  502  0.49622332895E+03  0.56048189561E+03 -0.30463221771E+03  0.80819548901E+03  0.12699999809E+01 0.  1.
</event>
<event>
 5   0  0.2734072E-04  0.1496352E+04  0.7818609E-02  0.8886882E-01
       -2   -1    0    0    0  501  0.00000000000E+00  0.00000000000E+00  0.39355608215E+03  0.39355608216E+03  0.25500000920E-02 0.  1.
        2   -1    0    0  501    0  0.00000000000E+00  0.00000000000E+00 -0.14223323237E+04  0.14223323237E+04  0.25500000920E-02 0. -1.
    10030    2    1    2    0    0  0.00000000000E+00  0.00000000000E+00 -0.10287762415E+04  0.18158884059E+04  0.14963522805E+04 0.  0.
        5    1    3    3  502    0  0.43344034931E+03 -0.59444933401E+03 -0.34930651907E+03  0.81441861557E+03  0.46999998093E+01 0. -1.
       -5    1    3    3    0  502 -0.43344034931E+03  0.59444933401E+03 -0.67946972247E+03  0.10014697903E+04  0.46999998093E+01 0.  1.
</event>
<event>
 5   0  0.2646718E-04  0.1487725E+04  0.7818609E-02  0.8892657E-01
        2   -1    0    0  501    0  0.00000000000E+00  0.00000000000E+00  0.92490382171E+03  0.92490382172E+03  0.25500000920E-02 0.  1.
       -2   -1    0    0    0  501  0.00000000000E+00  0.00000000000E+00 -0.59825819909E+03  0.59825819909E+03  0.25500000920E-02 0. -1.
    10030    2    1    2    0    0  0.00000000000E+00  0.00000000000E+00  0.32664562262E+03  0.15231620208E+04  0.14877248330E+04 0.  0.
        3    1    3    3  502    0 -0.41616640191E+02  0.12493719890E+03  0.91287495087E+03  0.92232420251E+03  0.10100000352E+00 0.  1.
       -3    1    3    3    0  502  0.41616640191E+02 -0.12493719890E+03 -0.58622932824E+03  0.60083781830E+03  0.10100000352E+00 0. -1.
</event>
<event>
 5   0  0.2641347E-04  0.1498773E+04  0.7818609E-02  0.8885269E-01
       -2   -1    0    0    0  501  0.00000000000E+00  0.00000000000E+00  0.28764059635E+03  0.28764059636E+03  0.25500000920E-02 0.  1.
        2   -1    0    0  501    0  0.00000000000E+00  0.00000000000E+00 -0.19523674267E+04  0.19523674267E+04  0.25500000920E-02 0. -1.
    10030    2    1    2    0    0  0.00000000000E+00  0.00000000000E+00 -0.16647268303E+04  0.22400080230E+04  0.14987730061E+04 0.  0.
        4    1    3    3  502    0  0.60919694249E+03 -0.16023585722E+03 -0.14390560082E+04  0.15708851812E+04  0.12699999809E+01 0. -1.
       -4    1    3    3    0  502 -0.60919694249E+03  0.16023585722E+03 -0.22567082211E+03  0.66912284189E+03  0.12699999809E+01 0.  1.
</event>
<event>
 5   0  0.2696040E-04  0.1507400E+04  0.7818609E-02  0.8879547E-01
       -2   -1    0    0    0  501  0.00000000000E+00  0.00000000000E+00  0.10263949069E+04  0.10263949069E+04  0.25500000920E-02 0. -1.
        2   -1    0    0  501    0  0.00000000000E+00  0.00000000000E+00 -0.55345507286E+03  0.55345507287E+03  0.25500000920E-02 0.  1.
    10030    2    1    2    0    0  0.00000000000E+00  0.00000000000E+00  0.47293983404E+03  0.15798499798E+04  0.15073997055E+04 0.  0.
        2    1    3    3  502    0  0.21184961379E+03  0.35693460460E+03  0.89581813567E+03  0.98730577990E+03  0.25500000920E-02 0. -1.
       -2    1    3    3    0  502 -0.21184961379E+03 -0.35693460460E+03 -0.42287830162E+03  0.59254419988E+03  0.25500000920E-02 0.  1.
</event>
<event>
 5   0  0.2696040E-04  0.1502865E+04  0.7818609E-02  0.8882550E-01
       -2   -1    0    0    0  501  0.00000000000E+00  0.00000000000E+00  0.10370444865E+04  0.10370444865E+04  0.25500000920E-02 0.  1.
        2   -1    0    0  501    0  0.00000000000E+00  0.00000000000E+00 -0.54448077146E+03  0.54448077146E+03  0.25500000920E-02 0. -1.
    10030    2    1    2    0    0  0.00000000000E+00  0.00000000000E+00  0.49256371507E+03  0.15815252580E+04  0.15028649734E+04 0.  0.
        2    1    3    3  502    0  0.17640929057E+03  0.31019912949E+03  0.94218597518E+03  0.10075009427E+04  0.25500000920E-02 0.  1.
       -2    1    3    3    0  502 -0.17640929057E+03 -0.31019912949E+03 -0.44962226011E+03  0.57402431528E+03  0.25500000920E-02 0. -1.
</event>
<event>
 5   0  0.2696040E-04  0.1496277E+04  0.7818609E-02  0.8886932E-01
        2   -1    0    0  501    0  0.00000000000E+00  0.00000000000E+00  0.13475893898E+04  0.13475893898E+04  0.25500000920E-02 0. -1.
       -2   -1    0    0    0  501  0.00000000000E+00  0.00000000000E+00 -0.41534261094E+03  0.41534261095E+03  0.25500000920E-02 0.  1.
    10030    2    1    2    0    0  0.00000000000E+00  0.00000000000E+00  0.93224677884E+03  0.17629320007E+04  0.14962771075E+04 0.  0.
        2    1    3    3  502    0  0.39565212198E+03 -0.16003448640E+03 -0.25783952759E+03  0.49863098626E+03  0.25500000920E-02 0.  1.
       -2    1    3    3    0  502 -0.39565212198E+03  0.16003448640E+03  0.11900863064E+04  0.12643010145E+04  0.25500000920E-02 0. -1.
</event>
<event>
 5   0  0.2646718E-04  0.1484148E+04  0.7818609E-02  0.8895063E-01
        2   -1    0    0  501    0  0.00000000000E+00  0.00000000000E+00  0.21841321170E+04  0.21841321170E+04  0.25500000920E-02 0.  1.
       -2   -1    0    0    0  501  0.00000000000E+00  0.00000000000E+00 -0.25212493034E+03  0.25212493035E+03  0.25500000920E-02 0. -1.
    10030    2    1    2    0    0  0.00000000000E+00  0.00000000000E+00  0.19320071867E+04  0.24362570474E+04  0.14841484533E+04 0.  0.
        3    1    3    3  502    0 -0.57383453003E+03 -0.32373752897E+03  0.15264856156E+04  0.16626035007E+04  0.10100000352E+00 0.  1.
       -3    1    3    3    0  502  0.57383453003E+03  0.32373752897E+03  0.40552157105E+03  0.77365354669E+03  0.10100000352E+00 0. -1.
</event>
<event>
 5   0  0.2641347E-04  0.1499338E+04  0.7818609E-02  0.8884893E-01
       -2   -1    0    0    0  501  0.00000000000E+00  0.00000000000E+00  0.83129983059E+03  0.83129983059E+03  0.25500000920E-02 0. -1.
        2   -1    0    0  501    0  0.00000000000E+00  0.00000000000E+00 -0.67605417415E+03  0.67605417415E+03  0.25500000920E-02 0.  1.
    10030    2    1    2    0    0  0.00000000000E+00  0.00000000000E+00  0.15524565644E+03  0.15073540047E+04  0.14993381479E+04 0.  0.
        4    1    3    3  502    0 -0.44198514577E+03 -0.56743655390E+03  0.29009841625E+03  0.77556032377E+03  0.12699999809E+01 0.  1.
       -4    1    3    3    0  502  0.44198514577E+03  0.56743655390E+03 -0.13485275981E+03  0.73179368098E+03  0.12699999809E+01 0. -1.
</event>
<event>
 5   0  0.2618901E-04  0.1509761E+04  0.7818609E-02  0.8877988E-01
        2   -1    0    0  501    0  0.00000000000E+00  0.00000000000E+00  0.10531683709E+04  0.10531683709E+04  0.25500000920E-02 0.  1.
       -2   -1    0    0    0  501  0.00000000000E+00  0.00000000000E+00 -0.54107627033E+03  0.54107627033E+03  0.25500000920E-02 0. -1.
    10030    2    1    2    0    0  0.00000000000E+00  0.00000000000E+00  0.51209210061E+03  0.15942446413E+04  0.15097607945E+04 0.  0.
        1    1    3    3  502    0 -0.16023674198E+03 -0.19849310362E+03  0.10062739281E+04  0.10381052664E+04  0.50400001928E-02 0.  1.
       -1    1    3    3    0  502  0.16023674198E+03  0.19849310362E+03 -0.49418182749E+03  0.55613937490E+03  0.50400001928E-02 0. -1.
</event>
<event>
 5   0  0.1426929E-04  0.1497956E+04  0.7818609E-02  0.8885813E-01
       -1   -1    0    0    0  501  0.00000000000E+00  0.00000000000E+00  0.42784548705E+03  0.42784548708E+03  0.50400001928E-02 0. -1.
        1   -1    0    0  501    0  0.00000000000E+00  0.00000000000E+00 -0.13111458226E+04  0.13111458226E+04  0.50400001928E-02 0.  1.
    10030    2    1    2    0    0  0.00000000000E+00  0.00000000000E+00 -0.88330033557E+03  0.17389913097E+04  0.14979557044E+04 0.  0.
        1    1    3    3  502    0  0.16314627674E+03  0.89211438680E+02 -0.12839239065E+04  0.12973187681E+04  0.50400001928E-02 0.  1.
       -1    1    3    3    0  502 -0.16314627674E+03 -0.89211438680E+02  0.40062357091E+03  0.44167254160E+03  0.50400001928E-02 0. -1.
</event>
<event>
 5   0  0.1474203E-04  0.1494549E+04  0.7818609E-02  0.8888086E-01
       -1   -1    0    0    0  501  0.00000000000E+00  0.00000000000E+00  0.80509513922E+03  0.80509513924E+03  0.50400001928E-02 0. -1.
        1   -1    0    0  501    0  0.00000000000E+00  0.00000000000E+00 -0.69360616425E+03  0.69360616426E+03  0.50400001928E-02 0.  1.
    10030    2    1    2    0    0  0.00000000000E+00  0.00000000000E+00  0.11148897498E+03  0.14987013035E+04  0.14945486963E+04 0.  0.
        3    1    3    3  502    0  0.32182913631E+03  0.21444522633E+02  0.73169833849E+03  0.79963512258E+03  0.10100000352E+00 0. -1.
       -3    1    3    3    0  502 -0.32182913631E+03 -0.21444522633E+02 -0.62020936351E+03  0.69906618092E+03  0.10100000352E+00 0.  1.
</event>
<event>
 5   0  0.1426929E-04  0.1491584E+04  0.7818609E-02  0.8890069E-01
       -1   -1    0    0    0  501  0.00000000000E+00  0.00000000000E+00  0.64602310356E+03  0.64602310358E+03  0.50400001928E-02 0. -1.
        1   -1    0    0  501    0  0.00000000000E+00  0.00000000000E+00 -0.86096919200E+03  0.86096919201E+03  0.50400001928E-02 0.  1.
    10030    2    1    2    0    0  0.00000000000E+00  0.00000000000E+00 -0.21494608844E+03  0.15069922956E+04  0.14915843785E+04 0.  0.
        1    1    3    3  502    0  0.50222019578E+03 -0.14544711657E+03  0.42983441774E+03  0.67685863772E+03  0.50400001928E-02 0. -1.
       -1    1    3    3    0  502 -0.50222019578E+03  0.14544711657E+03 -0.64478050617E+03  0.83013365787E+03  0.50400001928E-02 0.  1.
</event>
<event>
 5   0  0.2641347E-04  0.1502184E+04  0.7818609E-02  0.8883002E-01
       -2   -1    0    0    0  501  0.00000000000E+00  0.00000000000E+00  0.33431401807E+03  0.33431401808E+03  0.25500000920E-02 0.  1.
        2   -1    0    0  501    0  0.00000000000E+00  0.00000000000E+00 -0.16874536128E+04  0.16874536129E+04  0.25500000920E-02 0. -1.
    10030    2    1    2    0    0  0.00000000000E+00  0.00000000000E+00 -0.13531395948E+04  0.20217676309E+04  0.15021842732E+04 0.  0.
        4    1    3    3  502    0  0.51001592370E+02 -0.63984595139E+03 -0.15161627107E+03  0.65954007497E+03  0.12699999809E+01 0.  1.
       -4    1    3    3    0  502 -0.51001592370E+02  0.63984595139E+03 -0.12015233237E+04  0.13622275560E+04  0.12699999809E+01 0. -1.
</event>
<event>
 5   0  0.2696040E-04  0.1511771E+04  0.7818609E-02  0.8876663E-01
       -2   -1    0    0    0  501  0.00000000000E+00  0.00000000000E+00  0.41824608479E+03  0.41824608480E+03  0.25500000920E-02 0. -1.
        2   -1    0    0  501    0  0.00000000000E+00  0.00000000000E+00 -0.13660918362E+04  0.13660918362E+04  0.25500000920E-02 0.  1.
    10030    2    1    2    0    0  0.00000000000E+00  0.00000000000E+00 -0.94784575140E+03  0.17843379210E+04  0.15117705672E+04 0.  0.
        2    1    3    3  502    0 -0.11109333742E+03 -0.63499853502E+03 -0.93980036956E+03  0.11396445076E+04  0.25500000920E-02 0.  1.
       -2    1    3    3    0  502  0.11109333742E+03  0.63499853502E+03 -0.80453818472E+01  0.64469341339E+03  0.25500000920E-02 0. -1.
</event>
<event>
 5   0  0.2696040E-04  0.1504799E+04  0.7818609E-02  0.8881268E-01
       -2   -1    0    0    0  501  0.00000000000E+00  0.00000000000E+00  0.34416399235E+03  0.34416399236E+03  0.25500000920E-02 0.  1.
        2   -1    0    0  501    0  0.00000000000E+00  0.00000000000E+00 -0.16448704984E+04  0.16448704984E+04  0.25500000920E-02 0. -1.
    10030    2    1    2    0    0  0.00000000000E+00  0.00000000000E+00 -0.13007065061E+04  0.19890344908E+04  0.15047992526E+04 0.  0.
        2    1    3    3  502    0 -0.36880717747E+03 -0.43766274082E+01 -0.15171793199E+04  0.15613683030E+04  0.25500000920E-02 0. -1.
       -2    1    3    3    0  502  0.36880717747E+03  0.43766274082E+01  0.21647281381E+03  0.42766618775E+03  0.25500000920E-02 0.  1.
</event>
<event>
 5   0  0.2618901E-04  0.1497859E+04  0.7818609E-02  0.8885878E-01
        2   -1    0    0  501    0  0.00000000000E+00  0.00000000000E+00  0.22428972736E+04  0.22428972736E+04  0.25500000920E-02 0. -1.
       -2   -1    0    0    0  501  0.00000000000E+00  0.00000000000E+00 -0.25007623100E+03  0.25007623101E+03  0.25500000920E-02 0.  1.
    10030    2    1    2    0    0  0.00000000000E+00  0.00000000000E+00  0.19928210426E+04  0.24929735046E+04  0.14978588675E+04 0.  0.
        1    1    3    3  502    0  0.73994670256E+03  0.11373678965E+03  0.96157344522E+03  0.12186388598E+04  0.50400001928E-02 0. -1.
       -1    1    3    3    0  502 -0.73994670256E+03 -0.11373678965E+03  0.10312475974E+04  0.12743346449E+04  0.50400001928E-02 0.  1.
</event>
<event>
 5   0  0.2734072E-04  0.1502071E+04  0.7818609E-02  0.8883077E-01
       -2   -1    0    0    0  501  0.00000000000E+00  0.00000000000E+00  0.13003415710E+04  0.13003415710E+04  0.25500000920E-02 0. -1.
        2   -1    0    0  501    0  0.00000000000E+00  0.00000000000E+00 -0.43377419351E+03  0.43377419352E+03  0.25500000920E-02 0.  1.
    10030    2    1    2    0    0  0.00000000000E+00  0.00000000000E+00  0.86656737751E+03  0.17341157645E+04  0.15020713915E+04 0.  0.
        5    1    3    3  502    0 -0.49578115925E+03  0.19623351525E+03 -0.17731224892E+03  0.56193262406E+03  0.46999998093E+01 0.  1.
       -5    1    3    3    0  502  0.49578115925E+03 -0.19623351525E+03  0.10438796264E+04  0.11721831405E+04  0.46999998093E+01 0. -1.
</event>
<event>
 5   0  0.1443750E-04  0.1461485E+04  0.7818609E-02  0.8910477E-01
        1   -1    0    0  501    0  0.00000000000E+00  0.00000000000E+00  0.99063465642E+03  0.99063465644E+03  0.50400001928E-02 0.  1.
       -1   -1    0    0    0  501  0.00000000000E+00  0.00000000000E+00 -0.53903304061E+03  0.53903304063E+03  0.50400001928E-02 0. -1.
    10030    2    1    2    0    0  0.00000000000E+00  0.00000000000E+00  0.45160161582E+03  0.15296676971E+04  0.14614852870E+04 0.  0.
        2    1    3    3  502    0  0.16836165516E+03  0.26538097896E+03 -0.46468241168E+03  0.56098347093E+03  0.25500000920E-02 0. -1.
       -2    1    3    3    0  502 -0.16836165516E+03 -0.26538097896E+03  0.91628402750E+03  0.96868422614E+03  0.25500000920E-02 0.  1.
</event>
<event>
 5   0  0.1474203E-04  0.1501050E+04  0.7818609E-02  0.8883755E-01
       -1   -1    0    0    0  501  0.00000000000E+00  0.00000000000E+00  0.80215563974E+03  0.80215563976E+03  0.50400001928E-02 0. -1.
        1   -1    0    0  501    0  0.00000000000E+00  0.00000000000E+00 -0.70221776307E+03  0.70221776309E+03  0.50400001928E-02 0.  1.
    10030    2    1    2    0    0  0.00000000000E+00  0.00000000000E+00  0.99937876665E+02  0.15043734028E+04  0.15010502177E+04 0.  0.
        3    1    3    3  502    0 -0.23427459135E+03  0.64157123045E+03 -0.26183026316E+03  0.73147339309E+03  0.10100000352E+00 0. -1.
       -3    1    3    3    0  502  0.23427459135E+03 -0.64157123045E+03  0.36176813983E+03  0.77290000976E+03  0.10100000352E+00 0.  1.
</event>
<event>
 5   0  0.1426929E-04  0.1499863E+04  0.7818609E-02  0.8884544E-01
        1   -1    0    0  501    0  0.00000000000E+00  0.00000000000E+00  0.14005503778E+04  0.14005503778E+04  0.50400001928E-02 0. -1.
       -1   -1    0    0    0  501  0.00000000000E+00  0.00000000000E+00 -0.40155423937E+03  0.40155423940E+03  0.50400001928E-02 0.  1.
    10030    2    1    2    0    0  0.00000000000E+00  0.00000000000E+00  0.99899613841E+03  0.18021046172E+04  0.14998625826E+04 0.  0.
        1    1    3    3  502    0  0.99265456290E+02  0.29746660759E+03 -0.31899340323E+03  0.44732181343E+03  0.50400001928E-02 0.  1.
       -1    1    3    3    0  502 -0.99265456290E+02 -0.29746660759E+03  0.13179895416E+04  0.13547828038E+04  0.50400001928E-02 0. -1.
</event>
<event>
 5   0  0.1443750E-04  0.1471213E+04  0.7818609E-02  0.8903825E-01
        1   -1    0    0  501    0  0.00000000000E+00  0.00000000000E+00  0.12749426773E+04  0.12749426773E+04  0.50400001928E-02 0. -1.
       -1   -1    0    0    0  501  0.00000000000E+00  0.00000000000E+00 -0.42442427726E+03  0.42442427729E+03  0.50400001928E-02 0.  1.
    10030    2    1    2    0    0  0.00000000000E+00  0.00000000000E+00  0.85051840001E+03  0.16993669546E+04  0.14712125943E+04 0.  0.
        2    1    3    3  502    0 -0.49040798611E+02  0.45140216087E+03 -0.24323900215E+03  0.51510593371E+03  0.25500000920E-02 0.  1.
       -2    1    3    3    0  502  0.49040798611E+02 -0.45140216087E+03  0.10937574022E+04  0.11842610209E+04  0.25500000920E-02 0. -1.
</event>
<event>
 5   0  0.2646718E-04  0.1424460E+04  0.7818609E-02  0.8936301E-01
        2   -1    0    0  501    0  0.00000000000E+00  0.00000000000E+00  0.14010895242E+04  0.14010895242E+04  0.25500000920E-02 0. -1.
       -2   -1    0    0    0  501  0.00000000000E+00  0.00000000000E+00 -0.36205493428E+03  0.36205493429E+03  0.25500000920E-02 0.  1.
    10030    2    1    2    0    0  0.00000000000E+00  0.00000000000E+00  0.10390345899E+04  0.17631444585E+04  0.14244597230E+04 0.  0.
        3    1    3    3  502    0 -0.29417576377E+03 -0.19147328709E+03  0.12866012449E+04  0.13336207006E+04  0.10100000352E+00 0. -1.
       -3    1    3    3    0  502  0.29417576377E+03  0.19147328709E+03 -0.24756665500E+03  0.42952375781E+03  0.10100000352E+00 0.  1.
</event>
<event>
 5   0  0.1443750E-04  0.1497911E+04  0.7818609E-02  0.8885843E-01
        1   -1    0    0  501    0  0.00000000000E+00  0.00000000000E+00  0.86513791833E+03  0.86513791835E+03  0.50400001928E-02 0. -1.
       -1   -1    0    0    0  501  0.00000000000E+00  0.00000000000E+00 -0.64837556733E+03  0.64837556735E+03  0.50400001928E-02 0.  1.
    10030    2    1    2    0    0  0.00000000000E+00  0.00000000000E+00  0.21676235101E+03  0.15135134857E+04  0.14979109301E+04 0.  0.
        2    1    3    3  502    0 -0.55939529197E+02 -0.12776478022E+03 -0.63513770973E+03  0.65027146663E+03  0.25500000920E-02 0.  1.
       -2    1    3    3    0  502  0.55939529197E+02  0.12776478022E+03  0.85190006073E+03  0.86324201906E+03  0.25500000920E-02 0. -1.
</event>
<event>
 5   0  0.2734072E-04  0.1506948E+04  0.7818609E-02  0.8879845E-01
       -2   -1    0    0    0  501  0.00000000000E+00  0.00000000000E+00  0.50668559440E+03  0.50668559440E+03  0.25500000920E-02 0.  1.
        2   -1    0    0  501    0  0.00000000000E+00  0.00000000000E+00 -0.11204648796E+04  0.11204648796E+04  0.25500000920E-02 0. -1.
    10030    2    1    2    0    0  0.00000000000E+00  0.00000000000E+00 -0.61377928520E+03  0.16271504740E+04  0.15069484577E+04 0.  0.
        5    1    3    3  502    0  0.42317831244E+02 -0.52749351851E+03  0.27223213495E+03  0.59512405111E+03  0.46999998093E+01 0.  1.
       -5    1    3    3    0  502 -0.42317831244E+02  0.52749351851E+03 -0.88601142015E+03  0.10320264229E+04  0.46999998093E+01 0. -1.
</event>
<event>
 5   0  0.2618901E-04  0.1503917E+04  0.7818609E-02  0.8881852E-01
        2   -1    0    0  501    0  0.00000000000E+00  0.00000000000E+00  0.19183125168E+04  0.19183125168E+04  0.25500000920E-02 0. -1.
       -2   -1    0    0    0  501  0.00000000000E+00  0.00000000000E+00 -0.29476004996E+03  0.29476004997E+03  0.25500000920E-02 0.  1.
    10030    2    1    2    0    0  0.00000000000E+00  0.00000000000E+00  0.16235524668E+04  0.22130725668E+04  0.15039174090E+04 0.  0.
        1    1    3    3  502    0 -0.31332976488E+03  0.68348248432E+03  0.82776430619E+03  0.11182654401E+04  0.50400001928E-02 0.  1.
       -1    1    3    3    0  502  0.31332976488E+03 -0.68348248432E+03  0.79578816066E+03  0.10948071267E+04  0.50400001928E-02 0. -1.
</event>
<event>
 5   0  0.1484251E-04  0.1490908E+04  0.7818609E-02  0.8890522E-01
        1   -1    0    0  501    0  0.00000000000E+00  0.00000000000E+00  0.13475733646E+04  0.13475733646E+04  0.50400001928E-02 0.  1.
       -1   -1    0    0    0  501  0.00000000000E+00  0.00000000000E+00 -0.41237200857E+03  0.41237200860E+03  0.50400001928E-02 0. -1.
    10030    2    1    2    0    0  0.00000000000E+00  0.00000000000E+00  0.93520135600E+03  0.17599453732E+04  0.14909078242E+04 0.  0.
        5    1    3    3  502    0  0.41234196419E+02 -0.37158351967E+03  0.12288823936E+04  0.12845032496E+04  0.46999998093E+01 0.  1.
       -5    1    3    3    0  502 -0.41234196419E+02  0.37158351967E+03 -0.29368103757E+03  0.47544212357E+03  0.46999998093E+01 0. -1.
</event>
<event>
 5   0  0.1474203E-04  0.1512105E+04  0.7818609E-02  0.8876443E-01
        1   -1    0    0  501    0  0.00000000000E+00  0.00000000000E+00  0.13447469100E+04  0.13447469100E+04  0.50400001928E-02 0.  1.
       -1   -1    0    0    0  501  0.00000000000E+00  0.00000000000E+00 -0.42507281721E+03  0.42507281724E+03  0.50400001928E-02 0. -1.
    10030    2    1    2    0    0  0.00000000000E+00  0.00000000000E+00  0.91967409282E+03  0.17698197273E+04  0.15121049666E+04 0.  0.
        3    1    3    3  502    0  0.75437860800E+03  0.33592869870E+02  0.41604680646E+03  0.86215458039E+03  0.10100000352E+00 0.  1.
       -3    1    3    3    0  502 -0.75437860800E+03 -0.33592869870E+02  0.50362728637E+03  0.90766514690E+03  0.10100000352E+00 0. -1.
</event>
<event>
 5   0  0.1427609E-04  0.1502308E+04  0.7818609E-02  0.8882920E-01
        1   -1    0    0  501    0  0.00000000000E+00  0.00000000000E+00  0.17651744137E+04  0.17651744137E+04  0.50400001928E-02 0.  1.
       -1   -1    0    0    0  501  0.00000000000E+00  0.00000000000E+00 -0.31964669834E+03  0.31964669838E+03  0.50400001928E-02 0. -1.
    10030    2    1    2    0    0  0.00000000000E+00  0.00000000000E+00  0.14455277154E+04  0.20848211121E+04  0.15023077892E+04 0.  0.
        4    1    3    3  502    0  0.45029675705E+02 -0.58865775771E+03  0.13672591974E+04  0.14892766543E+04  0.12699999809E+01 0.  1.
       -4    1    3    3    0  502 -0.45029675705E+02  0.58865775771E+03  0.78268518018E+02  0.59554445780E+03  0.12699999809E+01 0. -1.
</event>
<event>
 5   0  0.1484251E-04  0.1499595E+04  0.7818609E-02  0.8884722E-01
       -1   -1    0    0    0  501  0.00000000000E+00  0.00000000000E+00  0.85972363739E+03  0.85972363740E+03  0.50400001928E-02 0. -1.
        1   -1    0    0  501    0  0.00000000000E+00  0.00000000000E+00 -0.65392689397E+03  0.65392689399E+03  0.50400001928E-02 0.  1.
    10030    2    1    2    0    0  0.00000000000E+00  0.00000000000E+00  0.20579674342E+03  0.15136505314E+04  0.14995951559E+04 0.  0.
        5    1    3    3  502    0  0.31158513785E+03 -0.15805371686E+02 -0.58528308472E+03  0.66325974335E+03  0.46999998093E+01 0.  1.
       -5    1    3    3    0  502 -0.31158513785E+03  0.15805371686E+02  0.79107982813E+03  0.85039078804E+03  0.46999998093E+01 0. -1.
</event>
<event>
 5   0  0.2696040E-04  0.1493465E+04  0.7818609E-02  0.8888811E-01
       -2   -1    0    0    0  501  0.00000000000E+00  0.00000000000E+00  0.82782887609E+03  0.82782887609E+03  0.25500000920E-02 0.  1.
        2   -1    0    0  501    0  0.00000000000E+00  0.00000000000E+00 -0.67358009921E+03  0.67358009922E+03  0.25500000920E-02 0. -1.
    10030    2    1    2    0    0  0.00000000000E+00  0.00000000000E+00  0.15424877687E+03  0.15014089753E+04  0.14934645044E+04 0.  0.
        2    1    3    3  502    0  0.74147645116E+03  0.84354126696E+02  0.50410301364E+02  0.74795998877E+03  0.25500000920E-02 0. -1.
       -2    1    3    3    0  502 -0.74147645116E+03 -0.84354126696E+02  0.10383847551E+03  0.75344898654E+03  0.25500000920E-02 0.  1.
</event>
<event>
 5   0  0.1443750E-04  0.1506422E+04  0.7818609E-02  0.8880194E-01
        1   -1    0    0  501    0  0.00000000000E+00  0.00000000000E+00  0.58329674597E+03  0.58329674599E+03  0.50400001928E-02 0. -1.
       -1   -1    0    0    0  501  0.00000000000E+00  0.00000000000E+00 -0.97262075671E+03  0.97262075672E+03  0.50400001928E-02 0.  1.
    10030    2    1    2    0    0  0.00000000000E+00  0.00000000000E+00 -0.38932401074E+03  0.15559175027E+04  0.15064216176E+04 0.  0.
        2    1    3    3  502    0 -0.24164715491E+03  0.61630404841E+03 -0.56577601084E+03  0.87081945432E+03  0.25500000920E-02 0.  1.
       -2    1    3    3    0  502  0.24164715491E+03 -0.61630404841E+03  0.17645200010E+03  0.68509804839E+03  0.25500000920E-02 0. -1.
</event>
<event>
 5   0  0.2734072E-04  0.1490376E+04  0.7818609E-02  0.8890878E-01
        2   -1    0    0  501    0  0.00000000000E+00  0.00000000000E+00  0.66070938343E+03  0.66070938344E+03  0.25500000920E-02 0. -1.
       -2   -1    0    0    0  501  0.00000000000E+00  0.00000000000E+00 -0.84046815930E+03  0.84046815930E+03  0.25500000920E-02 0.  1.
    10030    2    1    2    0    0  0.00000000000E+00  0.00000000000E+00 -0.17975877587E+03  0.15011775427E+04  0.14903760590E+04 0.  0.
        5    1    3    3  502    0  0.14625921526E+03 -0.71881837654E+03  0.42187209456E+02  0.73477443282E+03  0.46999998093E+01 0. -1.
       -5    1    3    3    0  502 -0.14625921526E+03  0.71881837654E+03 -0.22194598532E+03  0.76640310992E+03  0.46999998093E+01 0.  1.
</event>
<event>
 5   0  0.1426929E-04  0.1485788E+04  0.7818609E-02  0.8893959E-01
        1   -1    0    0  501    0  0.00000000000E+00  0.00000000000E+00  0.12778526281E+04  0.12778526282E+04  0.50400001928E-02 0.  1.
       -1   -1    0    0    0  501  0.00000000000E+00  0.00000000000E+00 -0.43188972051E+03  0.43188972054E+03  0.50400001928E-02 0. -1.
    10030    2    1    2    0    0  0.00000000000E+00  0.00000000000E+00  0.84596290764E+03  0.17097423487E+04  0.14857878913E+04 0.  0.
        1    1    3    3  502    0  0.13925443667E+03 -0.93151991324E+02 -0.40986675347E+03  0.44278645784E+03  0.50400001928E-02 0. -1.
       -1    1    3    3    0  502 -0.13925443667E+03  0.93151991324E+02  0.12558296611E+04  0.12669558909E+04  0.50400001928E-02 0.  1.
</event>
<event>
 5   0  0.2646718E-04  0.1514182E+04  0.7818609E-02  0.8875076E-01
       -2   -1    0    0    0  501  0.00000000000E+00  0.00000000000E+00  0.30293518859E+03  0.30293518860E+03  0.25500000920E-02 0.  1.
        2   -1    0    0  501    0  0.00000000000E+00  0.00000000000E+00 -0.18921107903E+04  0.18921107903E+04  0.25500000920E-02 0. -1.
    10030    2    1    2    0    0  0.00000000000E+00  0.00000000000E+00 -0.15891756017E+04  0.21950459789E+04  0.15141822072E+04 0.  0.
        3    1    3    3  502    0 -0.43364107356E+01 -0.22482722703E+03  0.25340631917E+03  0.33879323970E+03  0.10100000352E+00 0.  1.
       -3    1    3    3    0  502  0.43364107356E+01  0.22482722703E+03 -0.18425819209E+04  0.18562527392E+04  0.10100000352E+00 0. -1.
</event>
<event>
 5   0  0.2734072E-04  0.1498582E+04  0.7818609E-02  0.8885397E-01
        2   -1    0    0  501    0  0.00000000000E+00  0.00000000000E+00  0.11537712016E+04  0.11537712016E+04  0.25500000920E-02 0. -1.
       -2   -1    0    0    0  501  0.00000000000E+00  0.00000000000E+00 -0.48661022575E+03  0.48661022575E+03  0.25500000920E-02 0.  1.
    10030    2    1    2    0    0  0.00000000000E+00  0.00000000000E+00  0.66716097580E+03  0.16403814273E+04  0.14985818161E+04 0.  0.
        5    1    3    3  502    0 -0.40014881624E+02  0.74324766684E+03  0.42772114336E+03  0.85847874259E+03  0.46999998093E+01 0. -1.
       -5    1    3    3    0  502  0.40014881624E+02 -0.74324766684E+03  0.23943983244E+03  0.78190268472E+03  0.46999998093E+01 0.  1.
</event>
<event>
 5   0  0.2734072E-04  0.1494758E+04  0.7818609E-02  0.8887946E-01
        2   -1    0    0  501    0  0.00000000000E+00  0.00000000000E+00  0.10407302010E+04  0.10407302010E+04  0.25500000920E-02 0.  1.
       -2   -1    0    0    0  501  0.00000000000E+00  0.00000000000E+00 -0.53671514424E+03  0.53671514424E+03  0.25500000920E-02 0. -1.
    10030    2    1    2    0    0  0.00000000000E+00  0.00000000000E+00  0.50401505681E+03  0.15774453453E+04  0.14947583885E+04 0.  0.
        5    1    3    3  502    0 -0.48171980115E+03 -0.38302325987E+03  0.69948322430E+03  0.93169719088E+03  0.46999998093E+01 0.  1.
       -5    1    3    3    0  502  0.48171980115E+03  0.38302325987E+03 -0.19546816749E+03  0.64574815441E+03  0.46999998093E+01 0. -1.
</event>
<event>
 5   0  0.2646718E-04  0.1504927E+04  0.7818609E-02  0.8881183E-01
       -2   -1    0    0    0  501  0.00000000000E+00  0.00000000000E+00  0.51365523780E+03  0.51365523780E+03  0.25500000920E-02 0.  1.
        2   -1    0    0  501    0  0.00000000000E+00  0.00000000000E+00 -0.11022986269E+04  0.11022986269E+04  0.25500000920E-02 0. -1.
    10030    2    1    2    0    0  0.00000000000E+00  0.00000000000E+00 -0.58864338910E+03  0.16159538647E+04  0.15049271920E+04 0.  0.
        3    1    3    3  502    0  0.30424878262E+01 -0.29825073321E+02 -0.11016570711E+04  0.11020649274E+04  0.10100000352E+00 0. -1.
       -3    1    3    3    0  502 -0.30424878262E+01  0.29825073321E+02  0.51301368201E+03  0.51388893728E+03  0.10100000352E+00 0.  1.
</event>
<event>
 5   0  0.1426929E-04  0.1501375E+04  0.7818609E-02  0.8883539E-01
       -1   -1    0    0    0  501  0.00000000000E+00  0.00000000000E+00  0.40836178503E+03  0.40836178506E+03  0.50400001928E-02 0.  1.
        1   -1    0    0  501    0  0.00000000000E+00  0.00000000000E+00 -0.13799814897E+04  0.13799814898E+04  0.50400001928E-02 0. -1.
    10030    2    1    2    0    0  0.00000000000E+00  0.00000000000E+00 -0.97161970472E+03  0.17883432748E+04  0.15013749758E+04 0.  0.
        1    1    3    3  502    0  0.24396284244E+03 -0.14695328773E+03  0.34151052259E+03  0.44468255456E+03  0.50400001928E-02 0.  1.
       -1    1    3    3    0  502 -0.24396284244E+03  0.14695328773E+03 -0.13131302273E+04  0.13436607203E+04  0.50400001928E-02 0. -1.
</event>
<event>
 5   0  0.1443750E-04  0.1510385E+04  0.7818609E-02  0.8877576E-01
        1   -1    0    0  501    0  0.00000000000E+00  0.00000000000E+00  0.13949635661E+04  0.13949635662E+04  0.50400001928E-02 0.  1.
       -1   -1    0    0    0  501  0.00000000000E+00  0.00000000000E+00 -0.40883933033E+03  0.40883933036E+03  0.50400001928E-02 0. -1.
    10030    2    1    2    0    0  0.00000000000E+00  0.00000000000E+00  0.98612423582E+03  0.18038028965E+04  0.15103853419E+04 0.  0.
        2    1    3    3  502    0 -0.32063666848E+03 -0.24104323610E+03 -0.27108777186E+03  0.48414697655E+03  0.25500000920E-02 0. -1.
       -2    1    3    3    0  502  0.32063666848E+03  0.24104323610E+03  0.12572120077E+04  0.13196559200E+04  0.25500000920E-02 0.  1.
</event>
<event>
 5   0  0.1484251E-04  0.1507822E+04  0.7818609E-02  0.8879268E-01
       -1   -1    0    0    0  501  0.00000000000E+00  0.00000000000E+00  0.44417674516E+03  0.44417674519E+03  0.50400001928E-02 0. -1.
        1   -1    0    0  501    0  0.00000000000E+00  0.00000000000E+00 -0.12796305284E+04  0.12796305284E+04  0.50400001928E-02 0.  1.
    10030    2    1    2    0    0  0.00000000000E+00  0.00000000000E+00 -0.83545378327E+03  0.17238072736E+04  0.15078224340E+04 0.  0.
        5    1    3    3  502    0 -0.44558084968E+03  0.28080071652E+03 -0.10344094181E+04  0.11607826111E+04  0.46999998093E+01 0.  1.
       -5    1    3    3    0  502  0.44558084968E+03 -0.28080071652E+03  0.19895563482E+03  0.56302466253E+03  0.46999998093E+01 0. -1.
</event>
<event>
 5   0  0.2696040E-04  0.1493493E+04  0.7818609E-02  0.8888792E-01
        2   -1    0    0  501    0  0.00000000000E+00  0.00000000000E+00  0.11518836037E+04  0.11518836037E+04  0.25500000920E-02 0.  1.
       -2   -1    0    0    0  501  0.00000000000E+00  0.00000000000E+00 -0.48410298062E+03  0.48410298062E+03  0.25500000920E-02 0. -1.
    10030    2    1    2    0    0  0.00000000000E+00  0.00000000000E+00  0.66778062307E+03  0.16359865843E+04  0.14934929339E+04 0.  0.
        2    1    3    3  502    0 -0.36049893456E+03 -0.13135872300E+03 -0.36786958088E+03  0.53154738685E+03  0.25500000920E-02 0. -1.
       -2    1    3    3    0  502  0.36049893456E+03  0.13135872300E+03  0.10356502039E+04  0.11044391975E+04  0.25500000920E-02 0.  1.
</event>
<event>
 5   0  0.1474203E-04  0.1497407E+04  0.7818609E-02  0.8886179E-01
        1   -1    0    0  501    0  0.00000000000E+00  0.00000000000E+00  0.45295267617E+03  0.45295267620E+03  0.50400001928E-02 0.  1.
       -1   -1    0    0    0  501  0.00000000000E+00  0.00000000000E+00 -0.12375616333E+04  0.12375616333E+04  0.50400001928E-02 0. -1.
    10030    2    1    2    0    0  0.00000000000E+00  0.00000000000E+00 -0.78460895716E+03  0.16905143095E+04  0.14974068970E+04 0.  0.
        3    1    3    3  502    0 -0.88676927332E+01 -0.66685721343E+02 -0.12341426450E+04  0.12359747974E+04  0.10100000352E+00 0. -1.
       -3    1    3    3    0  502  0.88676927332E+01  0.66685721343E+02  0.44953368783E+03  0.45453951215E+03  0.10100000352E+00 0.  1.
</event>
<event>
 5   0  0.1427609E-04  0.1504171E+04  0.7818609E-02  0.8881684E-01
        1   -1    0    0  501    0  0.00000000000E+00  0.00000000000E+00  0.10200866255E+04  0.10200866255E+04  0.50400001928E-02 0. -1.
       -1   -1    0    0    0  501  0.00000000000E+00  0.00000000000E+00 -0.55449459371E+03  0.55449459373E+03  0.50400001928E-02 0.  1.
    10030    2    1    2    0    0  0.00000000000E+00  0.00000000000E+00  0.46559203177E+03  0.15745812192E+04  0.15041708932E+04 0.  0.
        4    1    3    3  502    0  0.37194846074E+01 -0.25193588920E+03 -0.50899679823E+03  0.56794795567E+03  0.12699999809E+01 0.  1.
       -4    1    3    3    0  502 -0.37194846074E+01  0.25193588920E+03  0.97458883000E+03  0.10066332636E+04  0.12699999809E+01 0. -1.
</event>
<event>
 5   0  0.2641347E-04  0.1503869E+04  0.7818609E-02  0.8881884E-01
       -2   -1    0    0    0  501  0.00000000000E+00  0.00000000000E+00  0.34347257045E+03  0.34347257046E+03  0.25500000920E-02 0.  1.
        2   -1    0    0  501    0  0.00000000000E+00  0.00000000000E+00 -0.16461456133E+04  0.16461456133E+04  0.25500000920E-02 0. -1.
    10030    2    1    2    0    0  0.00000000000E+00  0.00000000000E+00 -0.13026730428E+04  0.19896181838E+04  0.15038694959E+04 0.  0.
        4    1    3    3  502    0  0.60347399606E+03 -0.33901430738E+03 -0.26269733425E+03  0.74035333919E+03  0.12699999809E+01 0.  1.
       -4    1    3    3    0  502 -0.60347399606E+03  0.33901430738E+03 -0.10399757086E+04  0.12492648446E+04  0.12699999809E+01 0. -1.
</event>
<event>
 5   0  0.1427609E-04  0.1491030E+04  0.7818609E-02  0.8890440E-01
       -1   -1    0    0    0  501  0.00000000000E+00  0.00000000000E+00  0.84449476727E+03  0.84449476728E+03  0.50400001928E-02 0. -1.
        1   -1    0    0  501    0  0.00000000000E+00  0.00000000000E+00 -0.65813598554E+03  0.65813598555E+03  0.50400001928E-02 0.  1.
    10030    2    1    2    0    0  0.00000000000E+00  0.00000000000E+00  0.18635878173E+03  0.15026307528E+04  0.14910297059E+04 0.  0.
        4    1    3    3  502    0 -0.24490196829E+03  0.56842593228E+03 -0.32563288092E+03  0.69937357728E+03  0.12699999809E+01 0.  1.
       -4    1    3    3    0  502  0.24490196829E+03 -0.56842593228E+03  0.51199166265E+03  0.80325717556E+03  0.12699999809E+01 0. -1.
</event>
<event>
 5   0  0.1427609E-04  0.1490513E+04  0.7818609E-02  0.8890786E-01
       -1   -1    0    0    0  501  0.00000000000E+00  0.00000000000E+00  0.15128558114E+04  0.15128558114E+04  0.50400001928E-02 0. -1.
        1   -1    0    0  501    0  0.00000000000E+00  0.00000000000E+00 -0.36712513415E+03  0.36712513419E+03  0.50400001928E-02 0.  1.
    10030    2    1    2    0    0  0.00000000000E+00  0.00000000000E+00  0.11457306772E+04  0.18799809456E+04  0.14905131905E+04 0.  0.
        4    1    3    3  502    0 -0.74172184158E+03  0.41694660798E+02  0.64765556129E+03  0.98557043076E+03  0.12699999809E+01 0.  1.
       -4    1    3    3    0  502  0.74172184158E+03 -0.41694660798E+02  0.49807511595E+03  0.89441051483E+03  0.12699999809E+01 0. -1.
</event>
<event>
 5   0  0.1426929E-04  0.1477524E+04  0.7818609E-02  0.8899538E-01
        1   -1    0    0  501    0  0.00000000000E+00  0.00000000000E+00  0.69850517328E+03  0.69850517330E+03  0.50400001928E-02 0.  1.
       -1   -1    0    0    0  501  0.00000000000E+00  0.00000000000E+00 -0.78133926937E+03  0.78133926938E+03  0.50400001928E-02 0. -1.
    10030    2    1    2    0    0  0.00000000000E+00  0.00000000000E+00 -0.82834096089E+02  0.14798444427E+04  0.14775243101E+04 0.  0.
        1    1    3    3  502    0  0.66485775486E+03  0.12094663517E+03 -0.34039139621E+03  0.75665727076E+03  0.50400001928E-02 0. -1.
       -1    1    3    3    0  502 -0.66485775486E+03 -0.12094663517E+03  0.25755730012E+03  0.72318717192E+03  0.50400001928E-02 0.  1.
</event>
<event>
 5   0  0.2618901E-04  0.1495182E+04  0.7818609E-02  0.8887663E-01
       -2   -1    0    0    0  501  0.00000000000E+00  0.00000000000E+00  0.52508027601E+03  0.52508027601E+03  0.25500000920E-02 0.  1.
        2   -1    0    0  501    0  0.00000000000E+00  0.00000000000E+00 -0.10643938779E+04  0.10643938779E+04  0.25500000920E-02 0. -1.
    10030    2    1    2    0    0  0.00000000000E+00  0.00000000000E+00 -0.53931360185E+03  0.15894741539E+04  0.14951819035E+04 0.  0.
        1    1    3    3  502    0 -0.67160659493E+03 -0.81830567848E+02  0.68425269046E+02  0.68002476253E+03  0.50400001928E-02 0.  1.
       -1    1    3    3    0  502  0.67160659493E+03  0.81830567848E+02 -0.60773887090E+03  0.90944939134E+03  0.50400001928E-02 0. -1.
</event>
<event>
 5   0  0.1474203E-04  0.1462870E+04  0.7818609E-02  0.8909527E-01
       -1   -1    0    0    0  501  0.00000000000E+00  0.00000000000E+00  0.26874177318E+03  0.26874177323E+03  0.50400001928E-02 0.  1.
        1   -1    0    0  501    0  0.00000000000E+00  0.00000000000E+00 -0.19907472443E+04  0.19907472443E+04  0.50400001928E-02 0. -1.
    10030    2    1    2    0    0  0.00000000000E+00  0.00000000000E+00 -0.17220054711E+04  0.22594890176E+04  0.14628697064E+04 0.  0.
        3    1    3    3  502    0  0.34550180413E+02 -0.50579672649E+03 -0.16753428150E+04  0.17503707040E+04  0.10100000352E+00 0. -1.
       -3    1    3    3    0  502 -0.34550180413E+02  0.50579672649E+03 -0.46662656126E+02  0.50911831353E+03  0.10100000352E+00 0.  1.
</event>
<event>
 5   0  0.2696040E-04  0.1500706E+04  0.7818609E-02  0.8883984E-01
        2   -1    0    0  501    0  0.00000000000E+00  0.00000000000E+00  0.11299929946E+04  0.11299929946E+04  0.25500000920E-02 0. -1.
       -2   -1    0    0    0  501  0.00000000000E+00  0.00000000000E+00 -0.49825919333E+03  0.49825919334E+03  0.25500000920E-02 0.  1.
    10030    2    1    2    0    0  0.00000000000E+00  0.00000000000E+00  0.63173380124E+03  0.16282521879E+04  0.15007056979E+04 0.  0.
        2    1    3    3  502    0  0.23266025430E+03 -0.55841840220E+03 -0.16578539419E+03  0.62725330033E+03  0.25500000920E-02 0.  1.
       -2    1    3    3    0  502 -0.23266025430E+03  0.55841840220E+03  0.79751919543E+03  0.10009988876E+04  0.25500000920E-02 0. -1.
</event>
<event>
 5   0  0.2646718E-04  0.1499404E+04  0.7818609E-02  0.8884849E-01
       -2   -1    0    0    0  501  0.00000000000E+00  0.00000000000E+00  0.99566403703E+03  0.99566403704E+03  0.25500000920E-02 0. -1.
        2   -1    0    0  501    0  0.00000000000E+00  0.00000000000E+00 -0.56450080442E+03  0.56450080442E+03  0.25500000920E-02 0.  1.
    10030    2    1    2    0    0  0.00000000000E+00  0.00000000000E+00  0.43116323261E+03  0.15601648415E+04  0.14994040814E+04 0.  0.
        3    1    3    3  502    0  0.24923782844E+03  0.67865598026E+03  0.91492859057E+01  0.72303330097E+03  0.10100000352E+00 0.  1.
       -3    1    3    3    0  502 -0.24923782844E+03 -0.67865598026E+03  0.42201394671E+03  0.83713154049E+03  0.10100000352E+00 0. -1.
</event>
<event>
 5   0  0.1004313E-04  0.1499969E+04  0.7818609E-02  0.8884474E-01
       -3   -1    0    0    0  501  0.00000000000E+00  0.00000000000E+00  0.66258238168E+03  0.66258238938E+03  0.10100000352E+00 0.  1.
        3   -1    0    0  501    0  0.00000000000E+00  0.00000000000E+00 -0.84891574844E+03  0.84891575445E+03  0.10100000352E+00 0. -1.
    10030    2    1    2    0    0  0.00000000000E+00  0.00000000000E+00 -0.18633336676E+03  0.15114981438E+04  0.14999688381E+04 0.  0.
        1    1    3    3  502    0  0.58990361037E+03  0.41919674427E+03 -0.29156692117E+03  0.78020731186E+03  0.50400001928E-02 0.  1.
       -1    1    3    3    0  502 -0.58990361037E+03 -0.41919674427E+03  0.10523355441E+03  0.73129083197E+03  0.50400001928E-02 0. -1.
</event>
<event>
 5   0  0.1484251E-04  0.1423822E+04  0.7818609E-02  0.8936753E-01
       -1   -1    0    0    0  501  0.00000000000E+00  0.00000000000E+00  0.52323956844E+03  0.52323956847E+03  0.50400001928E-02 0.  1.
        1   -1    0    0  501    0  0.00000000000E+00  0.00000000000E+00 -0.96861387919E+03  0.96861387921E+03  0.50400001928E-02 0. -1.
    10030    2    1    2    0    0  0.00000000000E+00  0.00000000000E+00 -0.44537431075E+03  0.14918534477E+04  0.14238217700E+04 0.  0.
        5    1    3    3  502    0  0.30627242788E+03 -0.10013263440E+02  0.45058203733E+03  0.54493057162E+03  0.46999998093E+01 0.  1.
       -5    1    3    3    0  502 -0.30627242788E+03  0.10013263440E+02 -0.89595634808E+03  0.94692287605E+03  0.46999998093E+01 0. -1.
</event>
<event>
 5   0  0.2641347E-04  0.1485636E+04  0.7818609E-02  0.8894062E-01
        2   -1    0    0  501    0  0.00000000000E+00  0.00000000000E+00  0.15929714456E+04  0.15929714456E+04  0.25500000920E-02 0.  1.
       -2   -1    0    0    0  501  0.00000000000E+00  0.00000000000E+00 -0.34638312537E+03  0.34638312538E+03  0.25500000920E-02 0. -1.
    10030    2    1    2    0    0  0.00000000000E+00  0.00000000000E+00  0.12465883202E+04  0.19393545710E+04  0.14856357938E+04 0.  0.
        4    1    3    3  502    0  0.16093646923E+03  0.72514880633E+03  0.61551888206E+03  0.96467945221E+03  0.12699999809E+01 0.  1.
       -4    1    3    3    0  502 -0.16093646923E+03 -0.72514880633E+03  0.63106943817E+03  0.97467511876E+03  0.12699999809E+01 0. -1.
</event>
<event>
 5   0  0.2641347E-04  0.1498571E+04  0.7818609E-02  0.8885404E-01
       -2   -1    0    0    0  501  0.00000000000E+00  0.00000000000E+00  0.54593282772E+03  0.54593282773E+03  0.25500000920E-02 0.  1.
        2   -1    0    0  501    0  0.00000000000E+00  0.00000000000E+00 -0.10283840457E+04  0.10283840457E+04  0.25500000920E-02 0. -1.
    10030    2    1    2    0    0  0.00000000000E+00  0.00000000000E+00 -0.48245121799E+03  0.15743168734E+04  0.14985707992E+04 0.  0.
        4    1    3    3  502    0  0.56129784953E+03  0.49312222024E+03 -0.30067383780E+03  0.80537641486E+03  0.12699999809E+01 0. -1.
       -4    1    3    3    0  502 -0.56129784953E+03 -0.49312222024E+03 -0.18177738019E+03  0.76894045857E+03  0.12699999809E+01 0.  1.
</event>
<event>
 5   0  0.2696040E-04  0.1499680E+04  0.7818609E-02  0.8884666E-01
       -2   -1    0    0    0  501  0.00000000000E+00  0.00000000000E+00  0.67821926899E+03  0.67821926900E+03  0.25500000920E-02 0. -1.
        2   -1    0    0  501    0  0.00000000000E+00  0.00000000000E+00 -0.82902392111E+03  0.82902392112E+03  0.25500000920E-02 0.  1.
    10030    2    1    2    0    0  0.00000000000E+00  0.00000000000E+00 -0.15080465212E+03  0.15072431901E+04  0.14996799629E+04 0.  0.
        2    1    3    3  502    0  0.48860635833E+03 -0.10238891712E+03 -0.63772408730E+03  0.80988374183E+03  0.25500000920E-02 0.  1.
       -2    1    3    3    0  502 -0.48860635833E+03  0.10238891712E+03  0.48691943518E+03  0.69735944828E+03  0.25500000920E-02 0. -1.
</event>
<event>
 5   0  0.1484251E-04  0.1504951E+04  0.7818609E-02  0.8881167E-01
       -1   -1    0    0    0  501  0.00000000000E+00  0.00000000000E+00  0.34145059299E+03  0.34145059303E+03  0.50400001928E-02 0. -1.
        1   -1    0    0  501    0  0.00000000000E+00  0.00000000000E+00 -0.16582762383E+04  0.16582762383E+04  0.50400001928E-02 0.  1.
    10030    2    1    2    0    0  0.00000000000E+00  0.00000000000E+00 -0.13168256453E+04  0.19997268314E+04  0.15049510357E+04 0.  0.
        5    1    3    3  502    0  0.12701207922E+03  0.73637419750E+03 -0.54092194867E+03  0.92249535043E+03  0.46999998093E+01 0. -1.
       -5    1    3    3    0  502 -0.12701207922E+03 -0.73637419750E+03 -0.77590369666E+03  0.10772314809E+04  0.46999998093E+01 0.  1.
</event>
<event>
 5   0  0.2646718E-04  0.1493711E+04  0.7818609E-02  0.8888646E-01
       -2   -1    0    0    0  501  0.00000000000E+00  0.00000000000E+00  0.40443662697E+03  0.40443662697E+03  0.25500000920E-02 0.  1.
        2   -1    0    0  501    0  0.00000000000E+00  0.00000000000E+00 -0.13791862966E+04  0.13791862966E+04  0.25500000920E-02 0. -1.
    10030    2    1    2    0    0  0.00000000000E+00  0.00000000000E+00 -0.97474966965E+03  0.17836229236E+04  0.14937114230E+04 0.  0.
        3    1    3    3  502    0  0.65754365519E+03  0.54525176818E+02 -0.90523192819E+03  0.11201703029E+04  0.10100000352E+00 0. -1.
       -3    1    3    3    0  502 -0.65754365519E+03 -0.54525176818E+02 -0.69517741459E+02  0.66345262074E+03  0.10100000352E+00 0.  1.
</event>
<event>
 5   0  0.1004313E-04  0.1501299E+04  0.7818609E-02  0.8883589E-01
       -3   -1    0    0    0  501  0.00000000000E+00  0.00000000000E+00  0.48936889657E+03  0.48936890699E+03  0.10100000352E+00 0. -1.
        3   -1    0    0  501    0  0.00000000000E+00  0.00000000000E+00 -0.11514315581E+04  0.11514315626E+04  0.10100000352E+00 0.  1.
    10030    2    1    2    0    0  0.00000000000E+00  0.00000000000E+00 -0.66206266156E+03  0.16408004695E+04  0.15012991751E+04 0.  0.
        2    1    3    3  502    0 -0.94116187749E+02 -0.25505058159E+03 -0.10957368336E+04  0.11289587523E+04  0.25500000920E-02 0.  1.
       -2    1    3    3    0  502  0.94116187749E+02  0.25505058159E+03  0.43367417205E+03  0.51184171721E+03  0.25500000920E-02 0. -1.
</event>
<event>
 5   0  0.1474203E-04  0.1498899E+04  0.7818609E-02  0.8885185E-01
       -1   -1    0    0    0  501  0.00000000000E+00  0.00000000000E+00  0.14150054933E+04  0.14150054933E+04  0.50400001928E-02 0. -1.
        1   -1    0    0  501    0  0.00000000000E+00  0.00000000000E+00 -0.39694156932E+03  0.39694156935E+03  0.50400001928E-02 0.  1.
    10030    2    1    2    0    0  0.00000000000E+00  0.00000000000E+00  0.10180639239E+04  0.18119470626E+04  0.14988989307E+04 0.  0.
        3    1    3    3  502    0  0.44714768040E+02  0.42279673437E+03  0.12551179853E+04  0.13251708027E+04  0.10100000352E+00 0. -1.
       -3    1    3    3    0  502 -0.44714768040E+02 -0.42279673437E+03 -0.23705406133E+03  0.48677625997E+03  0.10100000352E+00 0.  1.
</event>
<event>
 5   0  0.1004313E-04  0.1493895E+04  0.7818609E-02  0.8888523E-01
        3   -1    0    0  501    0  0.00000000000E+00  0.00000000000E+00  0.11955619098E+04  0.11955619141E+04  0.10100000352E+00 0. -1.
       -3   -1    0    0    0  501  0.00000000000E+00  0.00000000000E+00 -0.46666811357E+03  0.46666812450E+03  0.10100000352E+00 0.  1.
    10030    2    1    2    0    0  0.00000000000E+00  0.00000000000E+00  0.72889379626E+03  0.16622300386E+04  0.14938950883E+04 0.  0.
        4    1    3    3  502    0  0.21813071221E+03  0.77482291307E+02 -0.42574882507E+03  0.48461137835E+03  0.12699999809E+01 0.  1.
       -4    1    3    3    0  502 -0.21813071221E+03 -0.77482291307E+02  0.11546426213E+04  0.11776186602E+04  0.12699999809E+01 0. -1.
</event>
<event>
 5   0  0.2641347E-04  0.1503094E+04  0.7818609E-02  0.8882398E-01
        2   -1    0    0  501    0  0.00000000000E+00  0.00000000000E+00  0.12805523710E+04  0.12805523710E+04  0.25500000920E-02 0. -1.
       -2   -1    0    0    0  501  0.00000000000E+00  0.00000000000E+00 -0.44107771402E+03  0.44107771403E+03  0.25500000920E-02 0.  1.
    10030    2    1    2    0    0  0.00000000000E+00  0.00000000000E+00  0.83947465695E+03  0.17216300850E+04  0.15030942918E+04 0.  0.
        4    1    3    3  502    0 -0.38841102159E+03  0.43079974401E+03 -0.12762273118E+03  0.59391978881E+03  0.12699999809E+01 0.  1.
       -4    1    3    3    0  502  0.38841102159E+03 -0.43079974401E+03  0.96709738813E+03  0.11277102962E+04  0.12699999809E+01 0. -1.
</event>
<event>
 5   0  0.1427609E-04  0.1500281E+04  0.7818609E-02  0.8884266E-01
       -1   -1    0    0    0  501  0.00000000000E+00  0.00000000000E+00  0.10290604054E+04  0.10290604054E+04  0.50400001928E-02 0.  1.
        1   -1    0    0  501    0  0.00000000000E+00  0.00000000000E+00 -0.54682008505E+03  0.54682008507E+03  0.50400001928E-02 0. -1.
    10030    2    1    2    0    0  0.00000000000E+00  0.00000000000E+00  0.48224032036E+03  0.15758804905E+04  0.15002811716E+04 0.  0.
        4    1    3    3  502    0 -0.60803099959E+03 -0.43218943475E+02  0.70034575322E+03  0.92846936432E+03  0.12699999809E+01 0.  1.
       -4    1    3    3    0  502  0.60803099959E+03  0.43218943475E+02 -0.21810543287E+03  0.64741112616E+03  0.12699999809E+01 0. -1.
</event>
<event>
 5   0  0.1474203E-04  0.1526495E+04  0.7818609E-02  0.8867023E-01
       -1   -1    0    0    0  501  0.00000000000E+00  0.00000000000E+00  0.42339404966E+03  0.42339404969E+03  0.50400001928E-02 0. -1.
        1   -1    0    0  501    0  0.00000000000E+00  0.00000000000E+00 -0.13758972791E+04  0.13758972791E+04  0.50400001928E-02 0.  1.
    10030    2    1    2    0    0  0.00000000000E+00  0.00000000000E+00 -0.95250322943E+03  0.17992913288E+04  0.15264949668E+04 0.  0.
        3    1    3    3  502    0 -0.14638774170E+03  0.49642742036E+03  0.18495732792E+03  0.54961693747E+03  0.10100000352E+00 0. -1.
       -3    1    3    3    0  502  0.14638774170E+03 -0.49642742036E+03 -0.11374605573E+04  0.12496743913E+04  0.10100000352E+00 0.  1.
</event>
<event>
 5   0  0.2696040E-04  0.1500703E+04  0.7818609E-02  0.8883986E-01
       -2   -1    0    0    0  501  0.00000000000E+00  0.00000000000E+00  0.54081953516E+03  0.54081953517E+03  0.25500000920E-02 0. -1.
        2   -1    0    0  501    0  0.00000000000E+00  0.00000000000E+00 -0.10410627120E+04  0.10410627120E+04  0.25500000920E-02 0.  1.
    10030    2    1    2    0    0  0.00000000000E+00  0.00000000000E+00 -0.50024317686E+03  0.15818822472E+04  0.15007025715E+04 0.  0.
        2    1    3    3  502    0 -0.28274027692E+03  0.69070497060E+02 -0.97913612324E+03  0.10214794886E+04  0.25500000920E-02 0.  1.
       -2    1    3    3    0  502  0.28274027692E+03 -0.69070497060E+02  0.47889294638E+03  0.56040275861E+03  0.25500000920E-02 0. -1.
</event>
<event>
 5   0  0.1474203E-04  0.1486246E+04  0.7818609E-02  0.8893651E-01
        1   -1    0    0  501    0  0.00000000000E+00  0.00000000000E+00  0.67498391500E+03  0.67498391502E+03  0.50400001928E-02 0.  1.
       -1   -1    0    0    0  501  0.00000000000E+00  0.00000000000E+00 -0.81814110351E+03  0.81814110353E+03  0.50400001928E-02 0. -1.
    10030    2    1    2    0    0  0.00000000000E+00  0.00000000000E+00 -0.14315718851E+03  0.14931250186E+04  0.14862463929E+04 0.  0.
        3    1    3    3  502    0 -0.66447782369E+03 -0.17292569486E+03 -0.35714404722E+03  0.77394182907E+03  0.10100000352E+00 0. -1.
       -3    1    3    3    0  502  0.66447782369E+03  0.17292569486E+03  0.21398685872E+03  0.71918318948E+03  0.10100000352E+00 0.  1.
</event>
<event>
 5   0  0.2641347E-04  0.1501821E+04  0.7818609E-02  0.8883243E-01
        2   -1    0    0  501    0  0.00000000000E+00  0.00000000000E+00  0.56920411117E+03  0.56920411117E+03  0.25500000920E-02 0. -1.
       -2   -1    0    0    0  501  0.00000000000E+00  0.00000000000E+00 -0.99062312001E+03  0.99062312001E+03  0.25500000920E-02 0.  1.
    10030    2    1    2    0    0  0.00000000000E+00  0.00000000000E+00 -0.42141900884E+03  0.15598272312E+04  0.15018212311E+04 0.  0.
        4    1    3    3  502    0  0.61267176830E+03 -0.37547004052E+03 -0.43712160777E+03  0.84108344407E+03  0.12699999809E+01 0.  1.
       -4    1    3    3    0  502 -0.61267176830E+03  0.37547004052E+03  0.15702598938E+02  0.71874378712E+03  0.12699999809E+01 0. -1.
</event>
<event>
 5   0  0.2618901E-04  0.1522060E+04  0.7818609E-02  0.8869915E-01
       -2   -1    0    0    0  501  0.00000000000E+00  0.00000000000E+00  0.32635383045E+03  0.32635383046E+03  0.25500000920E-02 0.  1.
        2   -1    0    0  501    0  0.00000000000E+00  0.00000000000E+00 -0.17746581483E+04  0.17746581483E+04  0.25500000920E-02 0. -1.
    10030    2    1    2    0    0  0.00000000000E+00  0.00000000000E+00 -0.14483043178E+04  0.21010119787E+04  0.15220597681E+04 0.  0.
        1    1    3    3  502    0 -0.51655246116E+03  0.46244595650E+03 -0.11573429035E+04  0.13491201963E+04  0.50400001928E-02 0. -1.
       -1    1    3    3    0  502  0.51655246116E+03 -0.46244595650E+03 -0.29096141434E+03  0.75189178243E+03  0.50400001928E-02 0.  1.
</event>
<event>
 5   0  0.2618901E-04  0.1496151E+04  0.7818609E-02  0.8887017E-01
        2   -1    0    0  501    0  0.00000000000E+00  0.00000000000E+00  0.40672503818E+03  0.40672503819E+03  0.25500000920E-02 0. -1.
       -2   -1    0    0    0  501  0.00000000000E+00  0.00000000000E+00 -0.13759093587E+04  0.13759093587E+04  0.25500000920E-02 0.  1.
    10030    2    1    2    0    0  0.00000000000E+00  0.00000000000E+00 -0.96918432050E+03  0.17826343969E+04  0.14961507764E+04 0.  0.
        1    1    3    3  502    0  0.51863143526E+03  0.52994828074E+02  0.15463434495E+03  0.54378193985E+03  0.50400001928E-02 0. -1.
       -1    1    3    3    0  502 -0.51863143526E+03 -0.52994828074E+02 -0.11238186655E+04  0.12388524570E+04  0.50400001928E-02 0.  1.
</event>
<event>
 5   0  0.2646718E-04  0.1501737E+04  0.7818609E-02  0.8883298E-01
        2   -1    0    0  501    0  0.00000000000E+00  0.00000000000E+00  0.77093364198E+03  0.77093364199E+03  0.25500000920E-02 0. -1.
       -2   -1    0    0    0  501  0.00000000000E+00  0.00000000000E+00 -0.73132590545E+03  0.73132590545E+03  0.25500000920E-02 0.  1.
    10030    2    1    2    0    0  0.00000000000E+00  0.00000000000E+00  0.39607736533E+02  0.15022595474E+04  0.15017373189E+04 0.  0.
        3    1    3    3  502    0 -0.25484493503E+03 -0.10021748632E+03 -0.67959178306E+03  0.73268989844E+03  0.10100000352E+00 0.  1.
       -3    1    3    3    0  502  0.25484493503E+03  0.10021748632E+03  0.71919951959E+03  0.76956964900E+03  0.10100000352E+00 0. -1.
</event>
<event>
 5   0  0.2734072E-04  0.1501370E+04  0.7818609E-02  0.8883543E-01
       -2   -1    0    0    0  501  0.00000000000E+00  0.00000000000E+00  0.51333256200E+03  0.51333256200E+03  0.25500000920E-02 0. -1.
        2   -1    0    0  501    0  0.00000000000E+00  0.00000000000E+00 -0.10977831413E+04  0.10977831413E+04  0.25500000920E-02 0.  1.
    10030    2    1    2    0    0  0.00000000000E+00  0.00000000000E+00 -0.58445057927E+03  0.16111157033E+04  0.15013698178E+04 0.  0.
        5    1    3    3  502    0  0.40346386642E+03  0.24217340782E+03 -0.91984925968E+03  0.10332355983E+04  0.46999998093E+01 0.  1.
       -5    1    3    3    0  502 -0.40346386642E+03 -0.24217340782E+03  0.33539868041E+03  0.57788010502E+03  0.46999998093E+01 0. -1.
</event>
<event>
 5   0  0.1474203E-04  0.1501107E+04  0.7818609E-02  0.8883717E-01
       -1   -1    0    0    0  501  0.00000000000E+00  0.00000000000E+00  0.66854823258E+03  0.66854823260E+03  0.50400001928E-02 0. -1.
        1   -1    0    0  501    0  0.00000000000E+00  0.00000000000E+00 -0.84261790701E+03  0.84261790702E+03  0.50400001928E-02 0.  1.
    10030    2    1    2    0    0  0.00000000000E+00  0.00000000000E+00 -0.17406967443E+03  0.15111661396E+04  0.15011072080E+04 0.  0.
        3    1    3    3  502    0 -0.32923481929E+03 -0.34701536608E+03  0.49521397084E+03  0.68851442805E+03  0.10100000352E+00 0. -1.
       -3    1    3    3    0  502  0.32923481929E+03  0.34701536608E+03 -0.66928364527E+03  0.82265171157E+03  0.10100000352E+00 0.  1.
</event>
<event>
 5   0  0.1427609E-04  0.1500217E+04  0.7818609E-02  0.8884309E-01
       -1   -1    0    0    0  501  0.00000000000E+00  0.00000000000E+00  0.40991592484E+03  0.40991592487E+03  0.50400001928E-02 0.  1.
        1   -1    0    0  501    0  0.00000000000E+00  0.00000000000E+00 -0.13726298921E+04  0.13726298921E+04  0.50400001928E-02 0. -1.
    10030    2    1    2    0    0  0.00000000000E+00  0.00000000000E+00 -0.96271396726E+03  0.17825458170E+04  0.15002171199E+04 0.  0.
        4    1    3    3  502    0  0.41767531493E+03 -0.60579843110E+03 -0.65442899569E+03  0.98474531282E+03  0.12699999809E+01 0. -1.
       -4    1    3    3    0  502 -0.41767531493E+03  0.60579843110E+03 -0.30828497157E+03  0.79780050415E+03  0.12699999809E+01 0.  1.
</event>
<event>
 5   0  0.2641347E-04  0.1500020E+04  0.7818609E-02  0.8884440E-01
        2   -1    0    0  501    0  0.00000000000E+00  0.00000000000E+00  0.16235095492E+04  0.16235095492E+04  0.25500000920E-02 0.  1.
       -2   -1    0    0    0  501  0.00000000000E+00  0.00000000000E+00 -0.34648077273E+03  0.34648077274E+03  0.25500000920E-02 0. -1.
    10030    2    1    2    0    0  0.00000000000E+00  0.00000000000E+00  0.12770287764E+04  0.19699903219E+04  0.15000197907E+04 0.  0.
        4    1    3    3  502    0 -0.36993343492E+03  0.50936983902E+03  0.11739274369E+04  0.13320719272E+04  0.12699999809E+01 0.  1.
       -4    1    3    3    0  502  0.36993343492E+03 -0.50936983902E+03  0.10310133949E+03  0.63791839469E+03  0.12699999809E+01 0. -1.
</event>
<event>
 5   0  0.1474203E-04  0.1511210E+04  0.7818609E-02  0.8877032E-01
        1   -1    0    0  501    0  0.00000000000E+00  0.00000000000E+00  0.11242686855E+04  0.11242686855E+04  0.50400001928E-02 0. -1.
       -1   -1    0    0    0  501  0.00000000000E+00  0.00000000000E+00 -0.50783170521E+03  0.50783170523E+03  0.50400001928E-02 0.  1.
    10030    2    1    2    0    0  0.00000000000E+00  0.00000000000E+00  0.61643698031E+03  0.16321003908E+04  0.15112104866E+04 0.  0.
        3    1    3    3  502    0  0.47648555721E+03  0.17946905543E+03 -0.29473594074E+03  0.58831701748E+03  0.10100000352E+00 0.  1.
       -3    1    3    3    0  502 -0.47648555721E+03 -0.17946905543E+03  0.91117292105E+03  0.10437833733E+04  0.10100000352E+00 0. -1.
</event>
<event>
 5   0  0.1443750E-04  0.1501614E+04  0.7818609E-02  0.8883381E-01
       -1   -1    0    0    0  501  0.00000000000E+00  0.00000000000E+00  0.49616840067E+03  0.49616840069E+03  0.50400001928E-02 0. -1.
        1   -1    0    0  501    0  0.00000000000E+00  0.00000000000E+00 -0.11361280206E+04  0.11361280206E+04  0.50400001928E-02 0.  1.
    10030    2    1    2    0    0  0.00000000000E+00  0.00000000000E+00 -0.63995961989E+03  0.16322964213E+04  0.15016135627E+04 0.  0.
        2    1    3    3  502    0  0.54878498119E+03  0.50854698135E+03 -0.38808918163E+03  0.84285123286E+03  0.25500000920E-02 0.  1.
       -2    1    3    3    0  502 -0.54878498119E+03 -0.50854698135E+03 -0.25187043826E+03  0.78944518841E+03  0.25500000920E-02 0. -1.
</event>
<event>
 5   0  0.1474203E-04  0.1534804E+04  0.7818609E-02  0.8861633E-01
        1   -1    0    0  501    0  0.00000000000E+00  0.00000000000E+00  0.19003941087E+04  0.19003941087E+04  0.50400001928E-02 0.  1.
       -1   -1    0    0    0  501  0.00000000000E+00  0.00000000000E+00 -0.30988609861E+03  0.30988609865E+03  0.50400001928E-02 0. -1.
    10030    2    1    2    0    0  0.00000000000E+00  0.00000000000E+00  0.15905080101E+04  0.22102802074E+04  0.15348038522E+04 0.  0.
        3    1    3    3  502    0 -0.17109984110E+03  0.49629391390E+03  0.16013569799E+04  0.16852082933E+04  0.10100000352E+00 0.  1.
       -3    1    3    3    0  502  0.17109984110E+03 -0.49629391390E+03 -0.10848969779E+02  0.52507191407E+03  0.10100000352E+00 0. -1.
</event>
<event>
 5   0  0.1474203E-04  0.1497803E+04  0.7818609E-02  0.8885915E-01
       -1   -1    0    0    0  501  0.00000000000E+00  0.00000000000E+00  0.17098857485E+04  0.17098857485E+04  0.50400001928E-02 0. -1.
        1   -1    0    0  501    0  0.00000000000E+00  0.00000000000E+00 -0.32800648209E+03  0.32800648213E+03  0.50400001928E-02 0.  1.
    10030    2    1    2    0    0  0.00000000000E+00  0.00000000000E+00  0.13818792664E+04  0.20378922307E+04  0.14978032036E+04 0.  0.
        3    1    3    3  502    0 -0.31034967773E+03  0.18627419288E+03 -0.20108976152E+03  0.41406774782E+03  0.10100000352E+00 0.  1.
       -3    1    3    3    0  502  0.31034967773E+03 -0.18627419288E+03  0.15829690280E+04  0.16238244828E+04  0.10100000352E+00 0. -1.
</event>
<event>
 5   0  0.1484251E-04  0.1502358E+04  0.7818609E-02  0.8882886E-01
        1   -1    0    0  501    0  0.00000000000E+00  0.00000000000E+00  0.56433276066E+03  0.56433276068E+03  0.50400001928E-02 0.  1.
       -1   -1    0    0    0  501  0.00000000000E+00  0.00000000000E+00 -0.99988871026E+03  0.99988871027E+03  0.50400001928E-02 0. -1.
    10030    2    1    2    0    0  0.00000000000E+00  0.00000000000E+00 -0.43555594960E+03  0.15642214710E+04  0.15023580881E+04 0.  0.
        5    1    3    3  502    0 -0.20326685541E+03 -0.69338270213E+03 -0.43153879494E+03  0.84163222827E+03  0.46999998093E+01 0. -1.
       -5    1    3    3    0  502  0.20326685541E+03  0.69338270213E+03 -0.40171546650E+01  0.72258924269E+03  0.46999998093E+01 0.  1.
</event>
<event>
 5   0  0.1443750E-04  0.1502292E+04  0.7818609E-02  0.8882930E-01
        1   -1    0    0  501    0  0.00000000000E+00  0.00000000000E+00  0.86586990434E+03  0.86586990435E+03  0.50400001928E-02 0.  1.
       -1   -1    0    0    0  501  0.00000000000E+00  0.00000000000E+00 -0.65162218800E+03  0.65162218802E+03  0.50400001928E-02 0. -1.
    10030    2    1    2    0    0  0.00000000000E+00  0.00000000000E+00  0.21424771634E+03  0.15174920924E+04  0.15022916383E+04 0.  0.
        2    1    3    3  502    0  0.14362647876E+03 -0.44522700821E+03  0.70074719123E+03  0.84255698933E+03  0.25500000920E-02 0.  1.
       -2    1    3    3    0  502 -0.14362647876E+03  0.44522700821E+03 -0.48649947489E+03  0.67493510304E+03  0.25500000920E-02 0. -1.
</event>
<event>
 5   0  0.1004313E-04  0.1496005E+04  0.7818609E-02  0.8887114E-01
        3   -1    0    0  501    0  0.00000000000E+00  0.00000000000E+00  0.16332111458E+04  0.16332111489E+04  0.10100000352E+00 0.  1.
       -3   -1    0    0    0  501  0.00000000000E+00  0.00000000000E+00 -0.34258149348E+03  0.34258150837E+03  0.10100000352E+00 0. -1.
    10030    2    1    2    0    0  0.00000000000E+00  0.00000000000E+00  0.12906296523E+04  0.19757926573E+04  0.14960052557E+04 0.  0.
        3    1    3    3  502    0 -0.47414803704E+03  0.54547065785E+03  0.39074491527E+03  0.82160586574E+03  0.10100000352E+00 0. -1.
       -3    1    3    3    0  502  0.47414803704E+03 -0.54547065785E+03  0.89988473702E+03  0.11541867915E+04  0.10100000352E+00 0.  1.
</event>
<event>
 5   0  0.1004313E-04  0.1459301E+04  0.7818609E-02  0.8911977E-01
        4   -1    0    0  501    0  0.00000000000E+00  0.00000000000E+00  0.12095213398E+04  0.12095220065E+04  0.12699999809E+01 0. -1.
       -4   -1    0    0    0  501  0.00000000000E+00  0.00000000000E+00 -0.44016418957E+03  0.44016602172E+03  0.12699999809E+01 0.  1.
    10030    2    1    2    0    0  0.00000000000E+00  0.00000000000E+00  0.76935715020E+03  0.16496880282E+04  0.14593012595E+04 0.  0.
        5    1    3    3  502    0 -0.34586481790E+03  0.58238708483E+03  0.69130494006E+03  0.96784389185E+03  0.46999998093E+01 0. -1.
       -5    1    3    3    0  502  0.34586481790E+03 -0.58238708483E+03  0.78052210140E+02  0.68184413640E+03  0.46999998093E+01 0.  1.
</event>
<event>
 5   0  0.2734072E-04  0.1501122E+04  0.7818609E-02  0.8883707E-01
       -2   -1    0    0    0  501  0.00000000000E+00  0.00000000000E+00  0.60505881633E+03  0.60505881634E+03  0.25500000920E-02 0.  1.
        2   -1    0    0  501    0  0.00000000000E+00  0.00000000000E+00 -0.93105346255E+03  0.93105346255E+03  0.25500000920E-02 0. -1.
    10030    2    1    2    0    0  0.00000000000E+00  0.00000000000E+00 -0.32599464622E+03  0.15361122789E+04  0.15011223881E+04 0.  0.
        5    1    3    3  502    0  0.69088900496E+03  0.18923717290E+03  0.66236926433E+02  0.71940791294E+03  0.46999998093E+01 0. -1.
       -5    1    3    3    0  502 -0.69088900496E+03 -0.18923717290E+03 -0.39223157265E+03  0.81670436595E+03  0.46999998093E+01 0.  1.
</event>
<event>
 5   0  0.1426929E-04  0.1501501E+04  0.7818609E-02  0.8883455E-01
        1   -1    0    0  501    0  0.00000000000E+00  0.00000000000E+00  0.45607487475E+03  0.45607487477E+03  0.50400001928E-02 0. -1.
       -1   -1    0    0    0  501  0.00000000000E+00  0.00000000000E+00 -0.12358196336E+04  0.12358196336E+04  0.50400001928E-02 0.  1.
    10030    2    1    2    0    0  0.00000000000E+00  0.00000000000E+00 -0.77974475886E+03  0.16918945084E+04  0.15015009619E+04 0.  0.
        1    1    3    3  502    0  0.42562934044E+03  0.61843043714E+03 -0.39338966189E+03  0.84756826694E+03  0.50400001928E-02 0. -1.
       -1    1    3    3    0  502 -0.42562934044E+03 -0.61843043714E+03 -0.38635509698E+03  0.84432624145E+03  0.50400001928E-02 0.  1.
</event>
<event>
 5   0  0.2734072E-04  0.1502761E+04  0.7818609E-02  0.8882619E-01
       -2   -1    0    0    0  501  0.00000000000E+00  0.00000000000E+00  0.33333430789E+03  0.33333430790E+03  0.25500000920E-02 0. -1.
        2   -1    0    0  501    0  0.00000000000E+00  0.00000000000E+00 -0.16937125925E+04  0.16937125925E+04  0.25500000920E-02 0.  1.
    10030    2    1    2    0    0  0.00000000000E+00  0.00000000000E+00 -0.13603782847E+04  0.20270469004E+04  0.15027608124E+04 0.  0.
        5    1    3    3  502    0  0.69500260335E+03 -0.24166670212E+03 -0.88528579091E+03  0.11511665541E+04  0.46999998093E+01 0. -1.
       -5    1    3    3    0  502 -0.69500260335E+03  0.24166670212E+03 -0.47509249375E+03  0.87588034639E+03  0.46999998093E+01 0.  1.
</event>
<event>
 5   0  0.1474203E-04  0.1505183E+04  0.7818609E-02  0.8881014E-01
        1   -1    0    0  501    0  0.00000000000E+00  0.00000000000E+00  0.22374751882E+04  0.22374751882E+04  0.50400001928E-02 0. -1.
       -1   -1    0    0    0  501  0.00000000000E+00  0.00000000000E+00 -0.25313970217E+03  0.25313970222E+03  0.50400001928E-02 0.  1.
    10030    2    1    2    0    0  0.00000000000E+00  0.00000000000E+00  0.19843354860E+04  0.24906148904E+04  0.15051827834E+04 0.  0.
        3    1    3    3  502    0  0.48353435590E+03  0.16854680231E+03  0.19047728112E+04  0.19724028418E+04  0.10100000352E+00 0. -1.
       -3    1    3    3    0  502 -0.48353435590E+03 -0.16854680231E+03  0.79562674833E+02  0.51821204862E+03  0.10100000352E+00 0.  1.
</event>
<event>
 5   0  0.2641347E-04  0.1503728E+04  0.7818609E-02  0.8881977E-01
       -2   -1    0    0    0  501  0.00000000000E+00  0.00000000000E+00  0.63131677145E+03  0.63131677146E+03  0.25500000920E-02 0.  1.
        2   -1    0    0  501    0  0.00000000000E+00  0.00000000000E+00 -0.89542946274E+03  0.89542946274E+03  0.25500000920E-02 0. -1.
    10030    2    1    2    0    0  0.00000000000E+00  0.00000000000E+00 -0.26411269129E+03  0.15267462342E+04  0.15037282168E+04 0.  0.
        4    1    3    3  502    0  0.57148390965E+03 -0.39226878893E+03  0.16365678618E+03  0.71221753581E+03  0.12699999809E+01 0.  1.
       -4    1    3    3    0  502 -0.57148390965E+03  0.39226878893E+03 -0.42776947747E+03  0.81452869839E+03  0.12699999809E+01 0. -1.
</event>
<event>
 5   0  0.1427609E-04  0.1499022E+04  0.7818609E-02  0.8885104E-01
        1   -1    0    0  501    0  0.00000000000E+00  0.00000000000E+00  0.75979731801E+03  0.75979731803E+03  0.50400001928E-02 0.  1.
       -1   -1    0    0    0  501  0.00000000000E+00  0.00000000000E+00 -0.73936372741E+03  0.73936372743E+03  0.50400001928E-02 0. -1.
    10030    2    1    2    0    0  0.00000000000E+00  0.00000000000E+00  0.20433590600E+02  0.14991610455E+04  0.14990217839E+04 0.  0.
        4    1    3    3  502    0 -0.79058136210E+02  0.42022537063E+02  0.75442897932E+03  0.75972414748E+03  0.12699999809E+01 0.  1.
       -4    1    3    3    0  502  0.79058136210E+02 -0.42022537063E+02 -0.73399538872E+03  0.73943689797E+03  0.12699999809E+01 0. -1.
</event>
<event>
 5   0  0.2641347E-04  0.1502091E+04  0.7818609E-02  0.8883063E-01
       -2   -1    0    0    0  501  0.00000000000E+00  0.00000000000E+00  0.47202279838E+03  0.47202279839E+03  0.25500000920E-02 0. -1.
        2   -1    0    0  501    0  0.00000000000E+00  0.00000000000E+00 -0.11950047535E+04  0.11950047535E+04  0.25500000920E-02 0.  1.
    10030    2    1    2    0    0  0.00000000000E+00  0.00000000000E+00 -0.72298195512E+03  0.16670275519E+04  0.15020911927E+04 0.  0.
        4    1    3    3  502    0  0.70786576656E+03  0.25086693189E+03 -0.37006696924E+03  0.83723314292E+03  0.12699999809E+01 0. -1.
       -4    1    3    3    0  502 -0.70786576656E+03 -0.25086693189E+03 -0.35291498588E+03  0.82979440896E+03  0.12699999809E+01 0.  1.
</event>
<event>
 5   0  0.2696040E-04  0.1499321E+04  0.7818609E-02  0.8884905E-01
       -2   -1    0    0    0  501  0.00000000000E+00  0.00000000000E+00  0.58539310968E+03  0.58539310969E+03  0.25500000920E-02 0. -1.
        2   -1    0    0  501    0  0.00000000000E+00  0.00000000000E+00 -0.96002276500E+03  0.96002276501E+03  0.25500000920E-02 0.  1.
    10030    2    1    2    0    0  0.00000000000E+00  0.00000000000E+00 -0.37462965532E+03  0.15454158747E+04  0.14993207953E+04 0.  0.
        2    1    3    3  502    0 -0.10361738330E+03  0.73854652109E+03 -0.10879414916E+03  0.75367346565E+03  0.25500000920E-02 0. -1.
       -2    1    3    3    0  502  0.10361738330E+03 -0.73854652109E+03 -0.26583550616E+03  0.79174240904E+03  0.25500000920E-02 0.  1.
</event>
<event>
 5   0  0.1426929E-04  0.1499536E+04  0.7818609E-02  0.8884762E-01
       -1   -1    0    0    0  501  0.00000000000E+00  0.00000000000E+00  0.97899220264E+03  0.97899220265E+03  0.50400001928E-02 0.  1.
        1   -1    0    0  501    0  0.00000000000E+00  0.00000000000E+00 -0.57421471164E+03  0.57421471166E+03  0.50400001928E-02 0. -1.
    10030    2    1    2    0    0  0.00000000000E+00  0.00000000000E+00  0.40477749100E+03  0.15532069143E+04  0.14995355619E+04 0.  0.
        1    1    3    3  502    0  0.36653297702E+03 -0.55135617903E+03  0.56685164775E+03  0.87158525113E+03  0.50400001928E-02 0.  1.
       -1    1    3    3    0  502 -0.36653297702E+03  0.55135617903E+03 -0.16207415675E+03  0.68162166318E+03  0.50400001928E-02 0. -1.
</event>
<event>
 5   0  0.1004313E-04  0.1501981E+04  0.7818609E-02  0.8883137E-01
        3   -1    0    0  501    0  0.00000000000E+00  0.00000000000E+00  0.82156867183E+03  0.82156867803E+03  0.10100000352E+00 0.  1.
       -3   -1    0    0    0  501  0.00000000000E+00  0.00000000000E+00 -0.68647501745E+03  0.68647502488E+03  0.10100000352E+00 0. -1.
    10030    2    1    2    0    0  0.00000000000E+00  0.00000000000E+00  0.13509365438E+03  0.15080437029E+04  0.15019805306E+04 0.  0.
        4    1    3    3  502    0  0.13040650020E+03 -0.82632058008E+02  0.80546321885E+03  0.82012591845E+03  0.12699999809E+01 0.  1.
       -4    1    3    3    0  502 -0.13040650020E+03  0.82632058008E+02 -0.67036956447E+03  0.68791778446E+03  0.12699999809E+01 0. -1.
</event>
<event>
 5   0  0.1426929E-04  0.1503611E+04  0.7818609E-02  0.8882055E-01
        1   -1    0    0  501    0  0.00000000000E+00  0.00000000000E+00  0.85575126283E+03  0.85575126284E+03  0.50400001928E-02 0. -1.
       -1   -1    0    0    0  501  0.00000000000E+00  0.00000000000E+00 -0.66048566959E+03  0.66048566961E+03  0.50400001928E-02 0.  1.
    10030    2    1    2    0    0  0.00000000000E+00  0.00000000000E+00  0.19526559324E+03  0.15162369325E+04  0.15036109149E+04 0.  0.
        1    1    3    3  502    0 -0.22231881230E+03  0.36978919700E+03  0.71846626414E+03  0.83807128412E+03  0.50400001928E-02 0. -1.
       -1    1    3    3    0  502  0.22231881230E+03 -0.36978919700E+03 -0.52320067090E+03  0.67816564834E+03  0.50400001928E-02 0.  1.
</event>
<event>
 5   0  0.2734072E-04  0.1498823E+04  0.7818609E-02  0.8885236E-01
       -2   -1    0    0    0  501  0.00000000000E+00  0.00000000000E+00  0.49909786501E+03  0.49909786502E+03  0.25500000920E-02 0. -1.
        2   -1    0    0  501    0  0.00000000000E+00  0.00000000000E+00 -0.11252647970E+04  0.11252647970E+04  0.25500000920E-02 0.  1.
    10030    2    1    2    0    0  0.00000000000E+00  0.00000000000E+00 -0.62616693197E+03  0.16243626620E+04  0.14988225482E+04 0.  0.
        5    1    3    3  502    0 -0.58693734272E+03 -0.45808610929E+03 -0.40540575264E+03  0.84777015876E+03  0.46999998093E+01 0. -1.
       -5    1    3    3    0  502  0.58693734272E+03  0.45808610929E+03 -0.22076117933E+03  0.77659250325E+03  0.46999998093E+01 0.  1.
</event>
<event>
 5   0  0.2646718E-04  0.1510601E+04  0.7818609E-02  0.8877434E-01
        2   -1    0    0  501    0  0.00000000000E+00  0.00000000000E+00  0.11560761630E+04  0.11560761630E+04  0.25500000920E-02 0.  1.
       -2   -1    0    0    0  501  0.00000000000E+00  0.00000000000E+00 -0.49346129857E+03  0.49346129858E+03  0.25500000920E-02 0. -1.
    10030    2    1    2    0    0  0.00000000000E+00  0.00000000000E+00  0.66261486439E+03  0.16495374615E+04  0.15106009991E+04 0.  0.
        3    1    3    3  502    0 -0.73245445240E+03  0.11571711655E+03  0.48803088562E+03  0.88772413025E+03  0.10100000352E+00 0. -1.
       -3    1    3    3    0  502  0.73245445240E+03 -0.11571711655E+03  0.17458397877E+03  0.76181333130E+03  0.10100000352E+00 0.  1.
</event>
<event>
 5   0  0.2646718E-04  0.1499491E+04  0.7818609E-02  0.8884792E-01
        2   -1    0    0  501    0  0.00000000000E+00  0.00000000000E+00  0.15833005622E+04  0.15833005622E+04  0.25500000920E-02 0. -1.
       -2   -1    0    0    0  501  0.00000000000E+00  0.00000000000E+00 -0.35502938028E+03  0.35502938029E+03  0.25500000920E-02 0.  1.
    10030    2    1    2    0    0  0.00000000000E+00  0.00000000000E+00  0.12282711819E+04  0.19383299425E+04  0.14994908701E+04 0.  0.
        3    1    3    3  502    0 -0.65051825467E+03 -0.10847055775E+03  0.10751244869E+04  0.12612820993E+04  0.10100000352E+00 0. -1.
       -3    1    3    3    0  502  0.65051825467E+03  0.10847055775E+03  0.15314669504E+03  0.67704784318E+03  0.10100000352E+00 0.  1.
</event>
<event>
 5   0  0.1443750E-04  0.1499779E+04  0.7818609E-02  0.8884600E-01
        1   -1    0    0  501    0  0.00000000000E+00  0.00000000000E+00  0.14721552493E+04  0.14721552493E+04  0.50400001928E-02 0. -1.
       -1   -1    0    0    0  501  0.00000000000E+00  0.00000000000E+00 -0.38198039820E+03  0.38198039824E+03  0.50400001928E-02 0.  1.
    10030    2    1    2    0    0  0.00000000000E+00  0.00000000000E+00  0.10901748511E+04  0.18541356475E+04  0.14997792483E+04 0.  0.
        2    1    3    3  502    0 -0.33393649293E+03 -0.55930107386E+03  0.85827338314E+02  0.65703698872E+03  0.25500000920E-02 0.  1.
       -2    1    3    3    0  502  0.33393649293E+03  0.55930107386E+03  0.10043475128E+04  0.11970986588E+04  0.25500000920E-02 0. -1.
</event>
<event>
 5   0  0.2641347E-04  0.1502014E+04  0.7818609E-02  0.8883115E-01
        2   -1    0    0  501    0  0.00000000000E+00  0.00000000000E+00  0.21053841384E+04  0.21053841384E+04  0.25500000920E-02 0.  1.
       -2   -1    0    0    0  501  0.00000000000E+00  0.00000000000E+00 -0.26789014539E+03  0.26789014540E+03  0.25500000920E-02 0. -1.
    10030    2    1    2    0    0  0.00000000000E+00  0.00000000000E+00  0.18374939930E+04  0.23732742838E+04  0.15020141983E+04 0.  0.
        4    1    3    3  502    0  0.71750248823E+03 -0.22155439135E+03  0.93560863358E+03  0.11996921676E+04  0.12699999809E+01 0. -1.
       -4    1    3    3    0  502 -0.71750248823E+03  0.22155439135E+03  0.90188535944E+03  0.11735821162E+04  0.12699999809E+01 0.  1.
</event>
<event>
 5   0  0.1426929E-04  0.1494479E+04  0.7818609E-02  0.8888133E-01
       -1   -1    0    0    0  501  0.00000000000E+00  0.00000000000E+00  0.72716845592E+03  0.72716845594E+03  0.50400001928E-02 0. -1.
        1   -1    0    0  501    0  0.00000000000E+00  0.00000000000E+00 -0.76786457937E+03  0.76786457938E+03  0.50400001928E-02 0.  1.
    10030    2    1    2    0    0  0.00000000000E+00  0.00000000000E+00 -0.40696123444E+02  0.14950330353E+04  0.14944790404E+04 0.  0.
        1    1    3    3  502    0  0.73215136577E+03  0.10833119838E+03 -0.12327269006E+03  0.75031821721E+03  0.50400001928E-02 0.  1.
       -1    1    3    3    0  502 -0.73215136577E+03 -0.10833119838E+03  0.82576566621E+02  0.74471481811E+03  0.50400001928E-02 0. -1.
</event>
<event>
 5   0  0.2646718E-04  0.1496330E+04  0.7818609E-02  0.8886897E-01
        2   -1    0    0  501    0  0.00000000000E+00  0.00000000000E+00  0.83188169209E+03  0.83188169210E+03  0.25500000920E-02 0. -1.
       -2   -1    0    0    0  501  0.00000000000E+00  0.00000000000E+00 -0.67287289578E+03  0.67287289578E+03  0.25500000920E-02 0.  1.
    10030    2    1    2    0    0  0.00000000000E+00  0.00000000000E+00  0.15900879631E+03  0.15047545879E+04  0.14963297005E+04 0.  0.
        3    1    3    3  502    0 -0.72369894072E+03 -0.15958897434E+03 -0.23747131615E+02  0.74146661017E+03  0.10100000352E+00 0. -1.
       -3    1    3    3    0  502  0.72369894072E+03  0.15958897434E+03  0.18275592793E+03  0.76328797772E+03  0.10100000352E+00 0.  1.
</event>
<event>
 5   0  0.1426929E-04  0.1498161E+04  0.7818609E-02  0.8885677E-01
       -1   -1    0    0    0  501  0.00000000000E+00  0.00000000000E+00  0.11498372568E+04  0.11498372568E+04  0.50400001928E-02 0.  1.
        1   -1    0    0  501    0  0.00000000000E+00  0.00000000000E+00 -0.48800059257E+03  0.48800059259E+03  0.50400001928E-02 0. -1.
    10030    2    1    2    0    0  0.00000000000E+00  0.00000000000E+00  0.66183666420E+03  0.16378378494E+04  0.14981605557E+04 0.  0.
        1    1    3    3  502    0  0.13586100111E+02  0.48308324942E+02  0.11479975624E+04  0.11490938516E+04  0.50400001928E-02 0.  1.
       -1    1    3    3    0  502 -0.13586100111E+02 -0.48308324942E+02 -0.48616089823E+03  0.48874399778E+03  0.50400001928E-02 0. -1.
</event>
<event>
 5   0  0.2734072E-04  0.1498955E+04  0.7818609E-02  0.8885148E-01
        2   -1    0    0  501    0  0.00000000000E+00  0.00000000000E+00  0.13035424196E+04  0.13035424196E+04  0.25500000920E-02 0.  1.
       -2   -1    0    0    0  501  0.00000000000E+00  0.00000000000E+00 -0.43091554589E+03  0.43091554590E+03  0.25500000920E-02 0. -1.
    10030    2    1    2    0    0  0.00000000000E+00  0.00000000000E+00  0.87262687371E+03  0.17344579655E+04  0.14989552273E+04 0.  0.
        5    1    3    3  502    0  0.52717402762E+03 -0.37093608260E+03  0.87873045879E+03  0.10898143612E+04  0.46999998093E+01 0.  1.
       -5    1    3    3    0  502 -0.52717402762E+03  0.37093608260E+03 -0.61035850801E+01  0.64464360426E+03  0.46999998093E+01 0. -1.
</event>
<event>
 5   0  0.1004313E-04  0.1448222E+04  0.7818609E-02  0.8919634E-01
        3   -1    0    0  501    0  0.00000000000E+00  0.00000000000E+00  0.29689303023E+04  0.29689303040E+04  0.10100000352E+00 0. -1.
       -3   -1    0    0    0  501  0.00000000000E+00  0.00000000000E+00 -0.17660801335E+03  0.17660804223E+03  0.10100000352E+00 0.  1.
    10030    2    1    2    0    0  0.00000000000E+00  0.00000000000E+00  0.27923222889E+04  0.31455383462E+04  0.14482222628E+04 0.  0.
        1    1    3    3  502    0  0.17670847032E+03  0.60738741684E+03  0.21615917587E+04  0.22522487183E+04  0.50400001928E-02 0. -1.
       -1    1    3    3    0  502 -0.17670847032E+03 -0.60738741684E+03  0.63073053018E+03  0.89328962792E+03  0.50400001928E-02 0.  1.
</event>
<event>
 5   0  0.1427609E-04  0.1478929E+04  0.7818609E-02  0.8898587E-01
        1   -1    0    0  501    0  0.00000000000E+00  0.00000000000E+00  0.10378301411E+04  0.10378301411E+04  0.50400001928E-02 0. -1.
       -1   -1    0    0    0  501  0.00000000000E+00  0.00000000000E+00 -0.52687577648E+03  0.52687577650E+03  0.50400001928E-02 0.  1.
    10030    2    1    2    0    0  0.00000000000E+00  0.00000000000E+00  0.51095436459E+03  0.15647059176E+04  0.14789287494E+04 0.  0.
        4    1    3    3  502    0  0.51845726392E+03 -0.68491464155E+00  0.81332246494E+03  0.96451721006E+03  0.12699999809E+01 0. -1.
       -4    1    3    3    0  502 -0.51845726392E+03  0.68491464155E+00 -0.30236810035E+03  0.60018870752E+03  0.12699999809E+01 0.  1.
</event>
<event>
 5   0  0.2696040E-04  0.1492542E+04  0.7818609E-02  0.8889428E-01
        2   -1    0    0  501    0  0.00000000000E+00  0.00000000000E+00  0.20978682030E+04  0.20978682030E+04  0.25500000920E-02 0. -1.
       -2   -1    0    0    0  501  0.00000000000E+00  0.00000000000E+00 -0.26546964062E+03  0.26546964063E+03  0.25500000920E-02 0.  1.
    10030    2    1    2    0    0  0.00000000000E+00  0.00000000000E+00  0.18323985624E+04  0.23633378436E+04  0.14925418827E+04 0.  0.
        2    1    3    3  502    0  0.45072207533E+03  0.44091025488E+03  0.15483198861E+04  0.16717795045E+04  0.25500000920E-02 0. -1.
       -2    1    3    3    0  502 -0.45072207533E+03 -0.44091025488E+03  0.28407867627E+03  0.69155833910E+03  0.25500000920E-02 0.  1.
</event>
<event>
 5   0  0.2646718E-04  0.1500578E+04  0.7818609E-02  0.8884069E-01
       -2   -1    0    0    0  501  0.00000000000E+00  0.00000000000E+00  0.85866273066E+03  0.85866273067E+03  0.25500000920E-02 0.  1.
        2   -1    0    0  501    0  0.00000000000E+00  0.00000000000E+00 -0.65559316524E+03  0.65559316524E+03  0.25500000920E-02 0. -1.
    10030    2    1    2    0    0  0.00000000000E+00  0.00000000000E+00  0.20306956543E+03  0.15142558959E+04  0.15005777787E+04 0.  0.
        3    1    3    3  502    0  0.42366879409E+03  0.35699480982E+03  0.61210407809E+03  0.82559793721E+03  0.10100000352E+00 0.  1.
       -3    1    3    3    0  502 -0.42366879409E+03 -0.35699480982E+03 -0.40903451266E+03  0.68865795869E+03  0.10100000352E+00 0. -1.
</event>
<event>
 5   0  0.1484251E-04  0.1498230E+04  0.7818609E-02  0.8885631E-01
        1   -1    0    0  501    0  0.00000000000E+00  0.00000000000E+00  0.76098915854E+03  0.76098915856E+03  0.50400001928E-02 0. -1.
       -1   -1    0    0    0  501  0.00000000000E+00  0.00000000000E+00 -0.73742627302E+03  0.73742627304E+03  0.50400001928E-02 0.  1.
    10030    2    1    2    0    0  0.00000000000E+00  0.00000000000E+00  0.23562885517E+02  0.14984154316E+04  0.14982301546E+04 0.  0.
        5    1    3    3  502    0  0.10471373872E+03  0.70888601165E+03 -0.20657321033E+03  0.74577404475E+03  0.46999998093E+01 0. -1.
       -5    1    3    3    0  502 -0.10471373872E+03 -0.70888601165E+03  0.23013609584E+03  0.75264138685E+03  0.46999998093E+01 0.  1.
</event>
<event>
 5   0  0.1004313E-04  0.1493611E+04  0.7818609E-02  0.8888713E-01
        4   -1    0    0  501    0  0.00000000000E+00  0.00000000000E+00  0.97193396996E+03  0.97193479970E+03  0.12699999809E+01 0. -1.
       -4   -1    0    0    0  501  0.00000000000E+00  0.00000000000E+00 -0.57382127620E+03  0.57382268160E+03  0.12699999809E+01 0.  1.
    10030    2    1    2    0    0  0.00000000000E+00  0.00000000000E+00  0.39811269377E+03  0.15457574813E+04  0.14936105497E+04 0.  0.
        2    1    3    3  502    0 -0.43804985283E+03 -0.20408221810E+03  0.78830376995E+03  0.92464050259E+03  0.25500000920E-02 0. -1.
       -2    1    3    3    0  502  0.43804985283E+03  0.20408221810E+03 -0.39019107618E+03  0.62111697871E+03  0.25500000920E-02 0.  1.
</event>
<event>
 5   0  0.2641347E-04  0.1497573E+04  0.7818609E-02  0.8886068E-01
        2   -1    0    0  501    0  0.00000000000E+00  0.00000000000E+00  0.17484708661E+04  0.17484708661E+04  0.25500000920E-02 0.  1.
       -2   -1    0    0    0  501  0.00000000000E+00  0.00000000000E+00 -0.32066967768E+03  0.32066967769E+03  0.25500000920E-02 0. -1.
    10030    2    1    2    0    0  0.00000000000E+00  0.00000000000E+00  0.14278011884E+04  0.20691405438E+04  0.14975734894E+04 0.  0.
        4    1    3    3  502    0  0.13145425672E+03 -0.73293411406E+03  0.82275714763E+03  0.11096862503E+04  0.12699999809E+01 0.  1.
       -4    1    3    3    0  502 -0.13145425672E+03  0.73293411406E+03  0.60504404080E+03  0.95945429353E+03  0.12699999809E+01 0. -1.
</event>
<event>
 5   0  0.2696040E-04  0.1492742E+04  0.7818609E-02  0.8889294E-01
        2   -1    0    0  501    0  0.00000000000E+00  0.00000000000E+00  0.15149560523E+04  0.15149560523E+04  0.25500000920E-02 0.  1.
       -2   -1    0    0    0  501  0.00000000000E+00  0.00000000000E+00 -0.36771318969E+03  0.36771318970E+03  0.25500000920E-02 0. -1.
    10030    2    1    2    0    0  0.00000000000E+00  0.00000000000E+00  0.11472428626E+04  0.18826692420E+04  0.14927415346E+04 0.  0.
        2    1    3    3  502    0 -0.31008054050E+03  0.61859202425E+03  0.22078903381E+03  0.72632901052E+03  0.25500000920E-02 0.  1.
       -2    1    3    3    0  502  0.31008054050E+03 -0.61859202425E+03  0.92645382882E+03  0.11563402315E+04  0.25500000920E-02 0. -1.
</event>
<event>
 5   0  0.1443750E-04  0.1500362E+04  0.7818609E-02  0.8884212E-01
       -1   -1    0    0    0  501  0.00000000000E+00  0.00000000000E+00  0.94211016291E+03  0.94211016292E+03  0.50400001928E-02 0.  1.
        1   -1    0    0  501    0  0.00000000000E+00  0.00000000000E+00 -0.59735201288E+03  0.59735201290E+03  0.50400001928E-02 0. -1.
    10030    2    1    2    0    0  0.00000000000E+00  0.00000000000E+00  0.34475815003E+03  0.15394621758E+04  0.15003618260E+04 0.  0.
        2    1    3    3  502    0  0.52176790339E+03  0.37877574985E+03 -0.22109689412E+03  0.68161327032E+03  0.25500000920E-02 0. -1.
       -2    1    3    3    0  502 -0.52176790339E+03 -0.37877574985E+03  0.56585504414E+03  0.85784890550E+03  0.25500000920E-02 0.  1.
</event>
<event>
 5   0  0.2696040E-04  0.1495985E+04  0.7818609E-02  0.8887127E-01
        2   -1    0    0  501    0  0.00000000000E+00  0.00000000000E+00  0.11088705680E+04  0.11088705680E+04  0.25500000920E-02 0. -1.
       -2   -1    0    0    0  501  0.00000000000E+00  0.00000000000E+00 -0.50456109999E+03  0.50456110000E+03  0.25500000920E-02 0.  1.
    10030    2    1    2    0    0  0.00000000000E+00  0.00000000000E+00  0.60430946796E+03  0.16134316680E+04  0.14959852319E+04 0.  0.
        2    1    3    3  502    0  0.33152013010E+03 -0.50590246932E+03  0.77675947860E+03  0.98447864005E+03  0.25500000920E-02 0. -1.
       -2    1    3    3    0  502 -0.33152013010E+03  0.50590246932E+03 -0.17245001064E+03  0.62895302790E+03  0.25500000920E-02 0.  1.
</event>
<event>
 5   0  0.2734072E-04  0.1517660E+04  0.7818609E-02  0.8872794E-01
       -2   -1    0    0    0  501  0.00000000000E+00  0.00000000000E+00  0.22978223128E+03  0.22978223129E+03  0.25500000920E-02 0.  1.
        2   -1    0    0  501    0  0.00000000000E+00  0.00000000000E+00 -0.25059494013E+04  0.25059494013E+04  0.25500000920E-02 0. -1.
    10030    2    1    2    0    0  0.00000000000E+00  0.00000000000E+00 -0.22761671700E+04  0.27357316326E+04  0.15176595731E+04 0.  0.
        5    1    3    3  502    0 -0.37263208015E+02 -0.28272946515E+03  0.12948585594E+03  0.31323022527E+03  0.46999998093E+01 0.  1.
       -5    1    3    3    0  502  0.37263208015E+02  0.28272946515E+03 -0.24056530260E+04  0.24225014073E+04  0.46999998093E+01 0. -1.
</event>
<event>
 5   0  0.2641347E-04  0.1500921E+04  0.7818609E-02  0.8883841E-01
       -2   -1    0    0    0  501  0.00000000000E+00  0.00000000000E+00  0.10648961418E+04  0.10648961418E+04  0.25500000920E-02 0. -1.
        2   -1    0    0  501    0  0.00000000000E+00  0.00000000000E+00 -0.52886926655E+03  0.52886926655E+03  0.25500000920E-02 0.  1.
    10030    2    1    2    0    0  0.00000000000E+00  0.00000000000E+00  0.53602687526E+03  0.15937654084E+04  0.15009208393E+04 0.  0.
        4    1    3    3  502    0  0.75022744071E+03 -0.11306331619E+02  0.25225699596E+03  0.79158338212E+03  0.12699999809E+01 0.  1.
       -4    1    3    3    0  502 -0.75022744071E+03  0.11306331619E+02  0.28376987930E+03  0.80218202625E+03  0.12699999809E+01 0. -1.
</event>
<event>
 5   0  0.2696040E-04  0.1502195E+04  0.7818609E-02  0.8882995E-01
        2   -1    0    0  501    0  0.00000000000E+00  0.00000000000E+00  0.11446547164E+04  0.11446547164E+04  0.25500000920E-02 0. -1.
       -2   -1    0    0    0  501  0.00000000000E+00  0.00000000000E+00 -0.49285359286E+03  0.49285359287E+03  0.25500000920E-02 0.  1.
    10030    2    1    2    0    0  0.00000000000E+00  0.00000000000E+00  0.65180112351E+03  0.16375083092E+04  0.15021946473E+04 0.  0.
        2    1    3    3  502    0 -0.20792615161E+03 -0.45991973006E+03  0.93223028308E+03  0.10601003459E+04  0.25500000920E-02 0. -1.
       -2    1    3    3    0  502  0.20792615161E+03  0.45991973006E+03 -0.28042915957E+03  0.57740796337E+03  0.25500000920E-02 0.  1.
</event>
<event>
 5   0  0.2734072E-04  0.1496432E+04  0.7818609E-02  0.8886829E-01
        2   -1    0    0  501    0  0.00000000000E+00  0.00000000000E+00  0.64623728191E+03  0.64623728191E+03  0.25500000920E-02 0.  1.
       -2   -1    0    0    0  501  0.00000000000E+00  0.00000000000E+00 -0.86628743334E+03  0.86628743335E+03  0.25500000920E-02 0. -1.
    10030    2    1    2    0    0  0.00000000000E+00  0.00000000000E+00 -0.22005015144E+03  0.15125247153E+04  0.14964320717E+04 0.  0.
        5    1    3    3  502    0  0.80406820809E+02  0.70137282859E+03  0.14046261821E+03  0.71982007379E+03  0.46999998093E+01 0.  1.
       -5    1    3    3    0  502 -0.80406820809E+02 -0.70137282859E+03 -0.36051276964E+03  0.79270464146E+03  0.46999998093E+01 0. -1.
</event>
<event>
 5   0  0.1426929E-04  0.1504637E+04  0.7818609E-02  0.8881375E-01
       -1   -1    0    0    0  501  0.00000000000E+00  0.00000000000E+00  0.19082464908E+03  0.19082464915E+03  0.50400001928E-02 0. -1.
        1   -1    0    0  501    0  0.00000000000E+00  0.00000000000E+00 -0.29659840599E+04  0.29659840599E+04  0.50400001928E-02 0.  1.
    10030    2    1    2    0    0  0.00000000000E+00  0.00000000000E+00 -0.27751594108E+04  0.31568087091E+04  0.15046366572E+04 0.  0.
        1    1    3    3  502    0  0.56829793721E+03  0.48782534821E+03 -0.12385329257E+04  0.14473769115E+04  0.50400001928E-02 0.  1.
       -1    1    3    3    0  502 -0.56829793721E+03 -0.48782534821E+03 -0.15366264851E+04  0.17094317976E+04  0.50400001928E-02 0. -1.
</event>
<event>
 5   0  0.2646718E-04  0.1503984E+04  0.7818609E-02  0.8881808E-01
       -2   -1    0    0    0  501  0.00000000000E+00  0.00000000000E+00  0.10503806503E+04  0.10503806503E+04  0.25500000920E-02 0.  1.
        2   -1    0    0  501    0  0.00000000000E+00  0.00000000000E+00 -0.53836869953E+03  0.53836869953E+03  0.25500000920E-02 0. -1.
    10030    2    1    2    0    0  0.00000000000E+00  0.00000000000E+00  0.51201195080E+03  0.15887493499E+04  0.15039841286E+04 0.  0.
        3    1    3    3  502    0  0.30448563068E+03 -0.21126260467E+02  0.98200635130E+03  0.10283454198E+04  0.10100000352E+00 0.  1.
       -3    1    3    3    0  502 -0.30448563068E+03  0.21126260467E+02 -0.46999440050E+03  0.56040393010E+03  0.10100000352E+00 0. -1.
</event>
<event>
 5   0  0.1426929E-04  0.1479764E+04  0.7818609E-02  0.8898023E-01
       -1   -1    0    0    0  501  0.00000000000E+00  0.00000000000E+00  0.71861674129E+03  0.71861674131E+03  0.50400001928E-02 0.  1.
        1   -1    0    0  501    0  0.00000000000E+00  0.00000000000E+00 -0.76177610881E+03  0.76177610882E+03  0.50400001928E-02 0. -1.
    10030    2    1    2    0    0  0.00000000000E+00  0.00000000000E+00 -0.43159367514E+02  0.14803928501E+04  0.14797635824E+04 0.  0.
        1    1    3    3  502    0 -0.17039650011E+03  0.70278739380E+03  0.13494763449E+03  0.73563302823E+03  0.50400001928E-02 0. -1.
       -1    1    3    3    0  502  0.17039650011E+03 -0.70278739380E+03 -0.17810700201E+03  0.74475982191E+03  0.50400001928E-02 0.  1.
</event>
<event>
 5   0  0.2696040E-04  0.1499853E+04  0.7818609E-02  0.8884550E-01
       -2   -1    0    0    0  501  0.00000000000E+00  0.00000000000E+00  0.13097720557E+04  0.13097720557E+04  0.25500000920E-02 0. -1.
        2   -1    0    0  501    0  0.00000000000E+00  0.00000000000E+00 -0.42938004784E+03  0.42938004784E+03  0.25500000920E-02 0.  1.
    10030    2    1    2    0    0  0.00000000000E+00  0.00000000000E+00  0.88039200790E+03  0.17391521036E+04  0.14998533101E+04 0.  0.
        2    1    3    3  502    0 -0.38685078448E+03  0.29055199908E+03  0.11046039239E+04  0.12059120292E+04  0.25500000920E-02 0. -1.
       -2    1    3    3    0  502  0.38685078448E+03 -0.29055199908E+03 -0.22421191597E+03  0.53324007435E+03  0.25500000920E-02 0.  1.
</event>
<event>
 5   0  0.2734072E-04  0.1501972E+04  0.7818609E-02  0.8883143E-01
       -2   -1    0    0    0  501  0.00000000000E+00  0.00000000000E+00  0.27662795729E+03  0.27662795730E+03  0.25500000920E-02 0.  1.
        2   -1    0    0  501    0  0.00000000000E+00  0.00000000000E+00 -0.20387664297E+04  0.20387664297E+04  0.25500000920E-02 0. -1.
    10030    2    1    2    0    0  0.00000000000E+00  0.00000000000E+00 -0.17621384724E+04  0.23153943870E+04  0.15019717612E+04 0.  0.
        5    1    3    3  502    0 -0.51365863177E+02  0.99780788656E+01 -0.20359300837E+04  0.20366078193E+04  0.46999998093E+01 0. -1.
       -5    1    3    3    0  502  0.51365863177E+02 -0.99780788656E+01  0.27379161125E+03  0.27878656773E+03  0.46999998093E+01 0.  1.
</event>
<event>
 5   0  0.1426929E-04  0.1501783E+04  0.7818609E-02  0.8883268E-01
        1   -1    0    0  501    0  0.00000000000E+00  0.00000000000E+00  0.10679935225E+04  0.10679935225E+04  0.50400001928E-02 0. -1.
       -1   -1    0    0    0  501  0.00000000000E+00  0.00000000000E+00 -0.52794144500E+03  0.52794144502E+03  0.50400001928E-02 0.  1.
    10030    2    1    2    0    0  0.00000000000E+00  0.00000000000E+00  0.54005207751E+03  0.15959349675E+04  0.15017829984E+04 0.  0.
        1    1    3    3  502    0 -0.18567583833E+03 -0.98556840289E+02  0.10360865688E+04  0.10571964556E+04  0.50400001928E-02 0. -1.
       -1    1    3    3    0  502  0.18567583833E+03  0.98556840289E+02 -0.49603449126E+03  0.53873851194E+03  0.50400001928E-02 0.  1.
</event>
<event>
 5   0  0.1427609E-04  0.1501445E+04  0.7818609E-02  0.8883493E-01
        1   -1    0    0  501    0  0.00000000000E+00  0.00000000000E+00  0.49511826594E+03  0.49511826596E+03  0.50400001928E-02 0. -1.
       -1   -1    0    0    0  501  0.00000000000E+00  0.00000000000E+00 -0.11382815187E+04  0.11382815187E+04  0.50400001928E-02 0.  1.
    10030    2    1    2    0    0  0.00000000000E+00  0.00000000000E+00 -0.64316325279E+03  0.16333997847E+04  0.15014446000E+04 0.  0.
        4    1    3    3  502    0 -0.61128952124E+03 -0.42520627745E+03 -0.42539977365E+03  0.85757905611E+03  0.12699999809E+01 0. -1.
       -4    1    3    3    0  502  0.61128952124E+03  0.42520627745E+03 -0.21776347914E+03  0.77582072859E+03  0.12699999809E+01 0.  1.
</event>
<event>
 5   0  0.1474203E-04  0.1503829E+04  0.7818609E-02  0.8881911E-01
        1   -1    0    0  501    0  0.00000000000E+00  0.00000000000E+00  0.56074174593E+03  0.56074174595E+03  0.50400001928E-02 0. -1.
       -1   -1    0    0    0  501  0.00000000000E+00  0.00000000000E+00 -0.10082636076E+04  0.10082636077E+04  0.50400001928E-02 0.  1.
    10030    2    1    2    0    0  0.00000000000E+00  0.00000000000E+00 -0.44752186172E+03  0.15690053536E+04  0.15038291070E+04 0.  0.
        3    1    3    3  502    0 -0.22850567570E+03 -0.58347932501E+03 -0.65735950779E+03  0.90817646921E+03  0.10100000352E+00 0.  1.
       -3    1    3    3    0  502  0.22850567570E+03  0.58347932501E+03  0.20983764607E+03  0.66082888440E+03  0.10100000352E+00 0. -1.
</event>
<event>
 5   0  0.1004313E-04  0.1569638E+04  0.7818609E-02  0.8839421E-01
       -3   -1    0    0    0  501  0.00000000000E+00  0.00000000000E+00  0.67206411209E+03  0.67206411968E+03  0.10100000352E+00 0. -1.
        3   -1    0    0  501    0  0.00000000000E+00  0.00000000000E+00 -0.91649126979E+03  0.91649127535E+03  0.10100000352E+00 0.  1.
    10030    2    1    2    0    0  0.00000000000E+00  0.00000000000E+00 -0.24442715770E+03  0.15885553950E+04  0.15696380499E+04 0.  0.
        1    1    3    3  502    0 -0.77142793956E+03  0.14433778858E+03 -0.11964553056E+03  0.79388255816E+03  0.50400001928E-02 0.  1.
       -1    1    3    3    0  502  0.77142793956E+03 -0.14433778858E+03 -0.12478162714E+03  0.79467283686E+03  0.50400001928E-02 0. -1.
</event>
<event>
 5   0  0.1004313E-04  0.1478359E+04  0.7818609E-02  0.8898973E-01
        3   -1    0    0  501    0  0.00000000000E+00  0.00000000000E+00  0.59726839747E+03  0.59726840601E+03  0.10100000352E+00 0. -1.
       -3   -1    0    0    0  501  0.00000000000E+00  0.00000000000E+00 -0.91480878619E+03  0.91480879176E+03  0.10100000352E+00 0.  1.
    10030    2    1    2    0    0  0.00000000000E+00  0.00000000000E+00 -0.31754038871E+03  0.15120771978E+04  0.14783590746E+04 0.  0.
        2    1    3    3  502    0 -0.41429046118E+02  0.38504916133E+03 -0.80273892704E+03  0.89127381174E+03  0.25500000920E-02 0. -1.
       -2    1    3    3    0  502  0.41429046118E+02 -0.38504916133E+03  0.48519853833E+03  0.62080338603E+03  0.25500000920E-02 0.  1.
</event>
<event>
 5   0  0.1474203E-04  0.1496640E+04  0.7818609E-02  0.8886690E-01
       -1   -1    0    0    0  501  0.00000000000E+00  0.00000000000E+00  0.18748581781E+04  0.18748581781E+04  0.50400001928E-02 0. -1.
        1   -1    0    0  501    0  0.00000000000E+00  0.00000000000E+00 -0.29868014588E+03  0.29868014592E+03  0.50400001928E-02 0.  1.
    10030    2    1    2    0    0  0.00000000000E+00  0.00000000000E+00  0.15761780322E+04  0.21735383240E+04  0.14966401227E+04 0.  0.
        3    1    3    3  502    0 -0.51763195788E+03 -0.50058806901E+03  0.49240979529E+03  0.87235238026E+03  0.10100000352E+00 0.  1.
       -3    1    3    3    0  502  0.51763195788E+03  0.50058806901E+03  0.10837682369E+04  0.13011859437E+04  0.10100000352E+00 0. -1.
</event>
<event>
 5   0  0.2734072E-04  0.1497078E+04  0.7818609E-02  0.8886398E-01
        2   -1    0    0  501    0  0.00000000000E+00  0.00000000000E+00  0.83613505855E+03  0.83613505856E+03  0.25500000920E-02 0.  1.
       -2   -1    0    0    0  501  0.00000000000E+00  0.00000000000E+00 -0.67011994444E+03  0.67011994445E+03  0.25500000920E-02 0. -1.
    10030    2    1    2    0    0  0.00000000000E+00  0.00000000000E+00  0.16601511411E+03  0.15062550030E+04  0.14970781930E+04 0.  0.
        5    1    3    3  502    0 -0.18857901802E+02 -0.68885473099E+03  0.37705272280E+03  0.78553631784E+03  0.46999998093E+01 0.  1.
       -5    1    3    3    0  502  0.18857901802E+02  0.68885473099E+03 -0.21103760869E+03  0.72071868517E+03  0.46999998093E+01 0. -1.
</event>
<event>
 5   0  0.1004313E-04  0.1502562E+04  0.7818609E-02  0.8882751E-01
        3   -1    0    0  501    0  0.00000000000E+00  0.00000000000E+00  0.16326321933E+04  0.16326321964E+04  0.10100000352E+00 0. -1.
       -3   -1    0    0    0  501  0.00000000000E+00  0.00000000000E+00 -0.34571353962E+03  0.34571355437E+03  0.10100000352E+00 0.  1.
    10030    2    1    2    0    0  0.00000000000E+00  0.00000000000E+00  0.12869186537E+04  0.19783457508E+04  0.15025619084E+04 0.  0.
        2    1    3    3  502    0 -0.54351671950E+03  0.39599048275E+03  0.10844956391E+04  0.12760680538E+04  0.25500000920E-02 0. -1.
       -2    1    3    3    0  502  0.54351671950E+03 -0.39599048275E+03  0.20242301459E+03  0.70227769696E+03  0.25500000920E-02 0.  1.
</event>
<event>
 5   0  0.2734072E-04  0.1500165E+04  0.7818609E-02  0.8884343E-01
       -2   -1    0    0    0  501  0.00000000000E+00  0.00000000000E+00  0.12449849219E+04  0.12449849219E+04  0.25500000920E-02 0.  1.
        2   -1    0    0  501    0  0.00000000000E+00  0.00000000000E+00 -0.45191210240E+03  0.45191210241E+03  0.25500000920E-02 0. -1.
    10030    2    1    2    0    0  0.00000000000E+00  0.00000000000E+00  0.79307281952E+03  0.16968970243E+04  0.15001649956E+04 0.  0.
        5    1    3    3  502    0  0.21152452437E+03  0.40724646020E+03  0.10676461873E+04  0.11621027386E+04  0.46999998093E+01 0.  1.
       -5    1    3    3    0  502 -0.21152452437E+03 -0.40724646020E+03 -0.27457336780E+03  0.53479428574E+03  0.46999998093E+01 0. -1.
</event>
<event>
 5   0  0.1427609E-04  0.1497164E+04  0.7818609E-02  0.8886341E-01
       -1   -1    0    0    0  501  0.00000000000E+00  0.00000000000E+00  0.50194960821E+03  0.50194960823E+03  0.50400001928E-02 0. -1.
        1   -1    0    0  501    0  0.00000000000E+00  0.00000000000E+00 -0.11163966461E+04  0.11163966461E+04  0.50400001928E-02 0.  1.
    10030    2    1    2    0    0  0.00000000000E+00  0.00000000000E+00 -0.61444703793E+03  0.16183462544E+04  0.14971637975E+04 0.  0.
        4    1    3    3  502    0 -0.10006374188E+03 -0.31199221536E+03  0.42032417011E+03  0.53294081826E+03  0.12699999809E+01 0. -1.
       -4    1    3    3    0  502  0.10006374188E+03  0.31199221536E+03 -0.10347712080E+04  0.10854054361E+04  0.12699999809E+01 0.  1.
</event>
<event>
 5   0  0.1484251E-04  0.1508816E+04  0.7818609E-02  0.8878611E-01
        1   -1    0    0  501    0  0.00000000000E+00  0.00000000000E+00  0.83161479470E+03  0.83161479471E+03  0.50400001928E-02 0. -1.
       -1   -1    0    0    0  501  0.00000000000E+00  0.00000000000E+00 -0.68436906937E+03  0.68436906939E+03  0.50400001928E-02 0.  1.
    10030    2    1    2    0    0  0.00000000000E+00  0.00000000000E+00  0.14724572532E+03  0.15159838641E+04  0.15088160168E+04 0.  0.
        5    1    3    3  502    0  0.36220937627E+03  0.42996418390E+03  0.57904791253E+03  0.80708327123E+03  0.46999998093E+01 0. -1.
       -5    1    3    3    0  502 -0.36220937627E+03 -0.42996418390E+03 -0.43180218721E+03  0.70890059287E+03  0.46999998093E+01 0.  1.
</event>
<event>
 5   0  0.2646718E-04  0.1498655E+04  0.7818609E-02  0.8885348E-01
       -2   -1    0    0    0  501  0.00000000000E+00  0.00000000000E+00  0.56984822260E+03  0.56984822261E+03  0.25500000920E-02 0. -1.
        2   -1    0    0  501    0  0.00000000000E+00  0.00000000000E+00 -0.98533547569E+03  0.98533547569E+03  0.25500000920E-02 0.  1.
    10030    2    1    2    0    0  0.00000000000E+00  0.00000000000E+00 -0.41548725309E+03  0.15551836983E+04  0.14986549563E+04 0.  0.
        3    1    3    3  502    0  0.57829763615E+03  0.27917165229E+03 -0.60847904890E+03  0.88465345225E+03  0.10100000352E+00 0.  1.
       -3    1    3    3    0  502 -0.57829763615E+03 -0.27917165229E+03  0.19299179581E+03  0.67053024605E+03  0.10100000352E+00 0. -1.
</event>
<event>
 5   0  0.2734072E-04  0.1502623E+04  0.7818609E-02  0.8882710E-01
        2   -1    0    0  501    0  0.00000000000E+00  0.00000000000E+00  0.70610915639E+03  0.70610915640E+03  0.25500000920E-02 0.  1.
       -2   -1    0    0    0  501  0.00000000000E+00  0.00000000000E+00 -0.79940786851E+03  0.79940786852E+03  0.25500000920E-02 0. -1.
    10030    2    1    2    0    0  0.00000000000E+00  0.00000000000E+00 -0.93298712121E+02  0.15055170249E+04  0.15026233269E+04 0.  0.
        5    1    3    3  502    0 -0.57411132049E+01 -0.75127465566E+03 -0.45901567612E+02  0.75271217110E+03  0.46999998093E+01 0.  1.
       -5    1    3    3    0  502  0.57411132049E+01  0.75127465566E+03 -0.47397144510E+02  0.75280485381E+03  0.46999998093E+01 0. -1.
</event>
<event>
 5   0  0.1004313E-04  0.1494214E+04  0.7818609E-02  0.8888310E-01
       -3   -1    0    0    0  501  0.00000000000E+00  0.00000000000E+00  0.13031047085E+04  0.13031047125E+04  0.10100000352E+00 0.  1.
        3   -1    0    0  501    0  0.00000000000E+00  0.00000000000E+00 -0.42833770313E+03  0.42833771503E+03  0.10100000352E+00 0. -1.
    10030    2    1    2    0    0  0.00000000000E+00  0.00000000000E+00  0.87476700542E+03  0.17314424275E+04  0.14942140295E+04 0.  0.
        4    1    3    3  502    0 -0.41445045485E+03  0.36821727687E+03  0.10177084633E+04  0.11589155584E+04  0.12699999809E+01 0.  1.
       -4    1    3    3    0  502  0.41445045485E+03 -0.36821727687E+03 -0.14294145785E+03  0.57252686905E+03  0.12699999809E+01 0. -1.
</event>
<event>
 5   0  0.2641347E-04  0.1494218E+04  0.7818609E-02  0.8888307E-01
        2   -1    0    0  501    0  0.00000000000E+00  0.00000000000E+00  0.59718262279E+03  0.59718262279E+03  0.25500000920E-02 0.  1.
       -2   -1    0    0    0  501  0.00000000000E+00  0.00000000000E+00 -0.93467542055E+03  0.93467542055E+03  0.25500000920E-02 0. -1.
    10030    2    1    2    0    0  0.00000000000E+00  0.00000000000E+00 -0.33749279776E+03  0.15318580433E+04  0.14942180819E+04 0.  0.
        4    1    3    3  502    0 -0.58069247130E+03 -0.24222613625E+03  0.24425783764E+03  0.67493759079E+03  0.12699999809E+01 0.  1.
       -4    1    3    3    0  502  0.58069247130E+03  0.24222613625E+03 -0.58175063541E+03  0.85692045255E+03  0.12699999809E+01 0. -1.
</event>
<event>
 5   0  0.1426929E-04  0.1499021E+04  0.7818609E-02  0.8885104E-01
       -1   -1    0    0    0  501  0.00000000000E+00  0.00000000000E+00  0.19173936472E+03  0.19173936479E+03  0.50400001928E-02 0.  1.
        1   -1    0    0  501    0  0.00000000000E+00  0.00000000000E+00 -0.29298435845E+04  0.29298435845E+04  0.50400001928E-02 0. -1.
    10030    2    1    2    0    0  0.00000000000E+00  0.00000000000E+00 -0.27381042198E+04  0.31215829493E+04  0.14990214778E+04 0.  0.
        1    1    3    3  502    0 -0.72640228399E+03  0.56325544741E+02 -0.17353054323E+04  0.18820514840E+04  0.50400001928E-02 0.  1.
       -1    1    3    3    0  502  0.72640228399E+03 -0.56325544741E+02 -0.10027987875E+04  0.12395314653E+04  0.50400001928E-02 0. -1.
</event>
<event>
 5   0  0.1443750E-04  0.1501755E+04  0.7818609E-02  0.8883287E-01
       -1   -1    0    0    0  501  0.00000000000E+00  0.00000000000E+00  0.78288485139E+03  0.78288485140E+03  0.50400001928E-02 0. -1.
        1   -1    0    0  501    0  0.00000000000E+00  0.00000000000E+00 -0.72017868866E+03  0.72017868868E+03  0.50400001928E-02 0.  1.
    10030    2    1    2    0    0  0.00000000000E+00  0.00000000000E+00  0.62706162726E+02  0.15030635401E+04  0.15017549543E+04 0.  0.
        2    1    3    3  502    0  0.32267894424E+03  0.67566766361E+03  0.87691498340E+02  0.75388214702E+03  0.25500000920E-02 0. -1.
       -2    1    3    3    0  502 -0.32267894424E+03 -0.67566766361E+03 -0.24985335614E+02  0.74918139306E+03  0.25500000920E-02 0.  1.
</event>
<event>
 5   0  0.1427609E-04  0.1504792E+04  0.7818609E-02  0.8881272E-01
        1   -1    0    0  501    0  0.00000000000E+00  0.00000000000E+00  0.85902274895E+03  0.85902274897E+03  0.50400001928E-02 0. -1.
       -1   -1    0    0    0  501  0.00000000000E+00  0.00000000000E+00 -0.65900473123E+03  0.65900473125E+03  0.50400001928E-02 0.  1.
    10030    2    1    2    0    0  0.00000000000E+00  0.00000000000E+00  0.20001801772E+03  0.15180274802E+04  0.15047924187E+04 0.  0.
        4    1    3    3  502    0  0.47645767870E+03 -0.58212752627E+03  0.11476870383E+03  0.76095850393E+03  0.12699999809E+01 0. -1.
       -4    1    3    3    0  502 -0.47645767870E+03  0.58212752627E+03  0.85249313897E+02  0.75706897628E+03  0.12699999809E+01 0.  1.
</event>
<event>
 5   0  0.1427609E-04  0.1502831E+04  0.7818609E-02  0.8882573E-01
       -1   -1    0    0    0  501  0.00000000000E+00  0.00000000000E+00  0.37773621452E+03  0.37773621456E+03  0.50400001928E-02 0. -1.
        1   -1    0    0  501    0  0.00000000000E+00  0.00000000000E+00 -0.14947604589E+04  0.14947604589E+04  0.50400001928E-02 0.  1.
    10030    2    1    2    0    0  0.00000000000E+00  0.00000000000E+00 -0.11170242444E+04  0.18724966735E+04  0.15028308719E+04 0.  0.
        4    1    3    3  502    0  0.59436943642E+03 -0.15370363573E+03 -0.18665347443E+02  0.61420667750E+03  0.12699999809E+01 0. -1.
       -4    1    3    3    0  502 -0.59436943642E+03  0.15370363573E+03 -0.10983588970E+04  0.12582899960E+04  0.12699999809E+01 0.  1.
</event>
<event>
 5   0  0.1426929E-04  0.1499588E+04  0.7818609E-02  0.8884727E-01
        1   -1    0    0  501    0  0.00000000000E+00  0.00000000000E+00  0.74078117928E+03  0.74078117930E+03  0.50400001928E-02 0. -1.
       -1   -1    0    0    0  501  0.00000000000E+00  0.00000000000E+00 -0.75891631612E+03  0.75891631614E+03  0.50400001928E-02 0.  1.
    10030    2    1    2    0    0  0.00000000000E+00  0.00000000000E+00 -0.18135136841E+02  0.14996974954E+04  0.14995878416E+04 0.  0.
        1    1    3    3  502    0  0.67251489813E+03  0.23130401951E+03 -0.24659932721E+03  0.75272110762E+03  0.50400001928E-02 0.  1.
       -1    1    3    3    0  502 -0.67251489813E+03 -0.23130401951E+03  0.22846419037E+03  0.74697638781E+03  0.50400001928E-02 0. -1.
</event>
<event>
 5   0  0.1484251E-04  0.1491857E+04  0.7818609E-02  0.8889886E-01
        1   -1    0    0  501    0  0.00000000000E+00  0.00000000000E+00  0.16951924706E+04  0.16951924706E+04  0.50400001928E-02 0. -1.
       -1   -1    0    0    0  501  0.00000000000E+00  0.00000000000E+00 -0.32822767537E+03  0.32822767541E+03  0.50400001928E-02 0.  1.
    10030    2    1    2    0    0  0.00000000000E+00  0.00000000000E+00  0.13669647953E+04  0.20234201461E+04  0.14918566741E+04 0.  0.
        5    1    3    3  502    0  0.66659943038E+03 -0.19957257469E+03  0.31903359151E+03  0.76549888025E+03  0.46999998093E+01 0.  1.
       -5    1    3    3    0  502 -0.66659943038E+03  0.19957257469E+03  0.10479312038E+04  0.12579212658E+04  0.46999998093E+01 0. -1.
</event>
<event>
 5   0  0.2641347E-04  0.1502320E+04  0.7818609E-02  0.8882912E-01
       -2   -1    0    0    0  501  0.00000000000E+00  0.00000000000E+00  0.38579660427E+03  0.38579660428E+03  0.25500000920E-02 0. -1.
        2   -1    0    0  501    0  0.00000000000E+00  0.00000000000E+00 -0.14625349525E+04  0.14625349526E+04  0.25500000920E-02 0.  1.
    10030    2    1    2    0    0  0.00000000000E+00  0.00000000000E+00 -0.10767383483E+04  0.18483315568E+04  0.15023195643E+04 0.  0.
        4    1    3    3  502    0  0.69579879025E+03  0.14645624508E+03 -0.83633498585E+03  0.10977446013E+04  0.12699999809E+01 0.  1.
       -4    1    3    3    0  502 -0.69579879025E+03 -0.14645624508E+03 -0.24040336243E+03  0.75058695553E+03  0.12699999809E+01 0. -1.
</event>
<event>
 5   0  0.1484251E-04  0.1503676E+04  0.7818609E-02  0.8882012E-01
        1   -1    0    0  501    0  0.00000000000E+00  0.00000000000E+00  0.13776560085E+04  0.13776560085E+04  0.50400001928E-02 0.  1.
       -1   -1    0    0    0  501  0.00000000000E+00  0.00000000000E+00 -0.41030577711E+03  0.41030577714E+03  0.50400001928E-02 0. -1.
    10030    2    1    2    0    0  0.00000000000E+00  0.00000000000E+00  0.96735023143E+03  0.17879617857E+04  0.15036757885E+04 0.  0.
        5    1    3    3  502    0  0.49720705757E+03 -0.43681657019E+03  0.59571058578E+02  0.66452567679E+03  0.46999998093E+01 0. -1.
       -5    1    3    3    0  502 -0.49720705757E+03  0.43681657019E+03  0.90777917285E+03  0.11234361089E+04  0.46999998093E+01 0.  1.
</event>
<event>
 5   0  0.2641347E-04  0.1502429E+04  0.7818609E-02  0.8882839E-01
        2   -1    0    0  501    0  0.00000000000E+00  0.00000000000E+00  0.66018869696E+03  0.66018869696E+03  0.25500000920E-02 0.  1.
       -2   -1    0    0    0  501  0.00000000000E+00  0.00000000000E+00 -0.85479132493E+03  0.85479132494E+03  0.25500000920E-02 0. -1.
    10030    2    1    2    0    0  0.00000000000E+00  0.00000000000E+00 -0.19460262798E+03  0.15149800219E+04  0.15024294606E+04 0.  0.
        4    1    3    3  502    0 -0.35876794233E+03 -0.55751492409E+03 -0.45350086242E+03  0.80324465273E+03  0.12699999809E+01 0.  1.
       -4    1    3    3    0  502  0.35876794233E+03  0.55751492409E+03  0.25889823445E+03  0.71173536917E+03  0.12699999809E+01 0. -1.
</event>
<event>
 5   0  0.1426929E-04  0.1491586E+04  0.7818609E-02  0.8890068E-01
       -1   -1    0    0    0  501  0.00000000000E+00  0.00000000000E+00  0.58279417639E+03  0.58279417641E+03  0.50400001928E-02 0.  1.
        1   -1    0    0  501    0  0.00000000000E+00  0.00000000000E+00 -0.95437973267E+03  0.95437973269E+03  0.50400001928E-02 0. -1.
    10030    2    1    2    0    0  0.00000000000E+00  0.00000000000E+00 -0.37158555629E+03  0.15371739091E+04  0.14915856667E+04 0.  0.
        1    1    3    3  502    0  0.56663269865E+03 -0.38838144003E+03  0.11341551689E+03  0.69625845607E+03  0.50400001928E-02 0.  1.
       -1    1    3    3    0  502 -0.56663269865E+03  0.38838144003E+03 -0.48500107317E+03  0.84091545303E+03  0.50400001928E-02 0. -1.
</event>
<event>
 5   0  0.2618901E-04  0.1499338E+04  0.7818609E-02  0.8884893E-01
       -2   -1    0    0    0  501  0.00000000000E+00  0.00000000000E+00  0.58526906781E+03  0.58526906781E+03  0.25500000920E-02 0. -1.
        2   -1    0    0  501    0  0.00000000000E+00  0.00000000000E+00 -0.96024802053E+03  0.96024802053E+03  0.25500000920E-02 0.  1.
    10030    2    1    2    0    0  0.00000000000E+00  0.00000000000E+00 -0.37497895272E+03  0.15455170883E+04  0.14993378056E+04 0.  0.
        1    1    3    3  502    0 -0.26940856594E+03  0.50511032355E+03 -0.68642857043E+03  0.89381295397E+03  0.50400001928E-02 0.  1.
       -1    1    3    3    0  502  0.26940856594E+03 -0.50511032355E+03  0.31144961771E+03  0.65170413437E+03  0.50400001928E-02 0. -1.
</event>
<event>
 5   0  0.1474203E-04  0.1464403E+04  0.7818609E-02  0.8908476E-01
       -1   -1    0    0    0  501  0.00000000000E+00  0.00000000000E+00  0.44008156869E+03  0.44008156872E+03  0.50400001928E-02 0. -1.
        1   -1    0    0  501    0  0.00000000000E+00  0.00000000000E+00 -0.12182263599E+04  0.12182263599E+04  0.50400001928E-02 0.  1.
    10030    2    1    2    0    0  0.00000000000E+00  0.00000000000E+00 -0.77814479123E+03  0.16583079287E+04  0.14644029057E+04 0.  0.
        3    1    3    3  502    0  0.39464835608E+03 -0.20353127400E+03  0.27020816439E+03  0.51979300376E+03  0.10100000352E+00 0. -1.
       -3    1    3    3    0  502 -0.39464835608E+03  0.20353127400E+03 -0.10483529556E+04  0.11385149249E+04  0.10100000352E+00 0.  1.
</event>
<event>
 5   0  0.2696040E-04  0.1484068E+04  0.7818609E-02  0.8895117E-01
        2   -1    0    0  501    0  0.00000000000E+00  0.00000000000E+00  0.67883281220E+03  0.67883281220E+03  0.25500000920E-02 0. -1.
       -2   -1    0    0    0  501  0.00000000000E+00  0.00000000000E+00 -0.81111982783E+03  0.81111982784E+03  0.25500000920E-02 0.  1.
    10030    2    1    2    0    0  0.00000000000E+00  0.00000000000E+00 -0.13228701564E+03  0.14899526400E+04  0.14840683997E+04 0.  0.
        2    1    3    3  502    0 -0.71150836791E+03  0.14346176524E+03  0.88705897816E+02  0.73122785232E+03  0.25500000920E-02 0. -1.
       -2    1    3    3    0  502  0.71150836791E+03 -0.14346176524E+03 -0.22099291345E+03  0.75872478772E+03  0.25500000920E-02 0.  1.
</event>
<event>
 5   0  0.1426929E-04  0.1498393E+04  0.7818609E-02  0.8885522E-01
        1   -1    0    0  501    0  0.00000000000E+00  0.00000000000E+00  0.14880938912E+04  0.14880938913E+04  0.50400001928E-02 0. -1.
       -1   -1    0    0    0  501  0.00000000000E+00  0.00000000000E+00 -0.37719105772E+03  0.37719105775E+03  0.50400001928E-02 0.  1.
    10030    2    1    2    0    0  0.00000000000E+00  0.00000000000E+00  0.11109028335E+04  0.18652849490E+04  0.14983934181E+04 0.  0.
        1    1    3    3  502    0  0.44035660441E+03 -0.15919364544E+03  0.12834947686E+04  0.13662413318E+04  0.50400001928E-02 0. -1.
       -1    1    3    3    0  502 -0.44035660441E+03  0.15919364544E+03 -0.17259193503E+03  0.49904361719E+03  0.50400001928E-02 0.  1.
</event>
<event>
 5   0  0.1474203E-04  0.1500603E+04  0.7818609E-02  0.8884052E-01
       -1   -1    0    0    0  501  0.00000000000E+00  0.00000000000E+00  0.50475565644E+03  0.50475565646E+03  0.50400001928E-02 0.  1.
        1   -1    0    0  501    0  0.00000000000E+00  0.00000000000E+00 -0.11152968345E+04  0.11152968345E+04  0.50400001928E-02 0. -1.
    10030    2    1    2    0    0  0.00000000000E+00  0.00000000000E+00 -0.61054117803E+03  0.16200524909E+04  0.15006030599E+04 0.  0.
        3    1    3    3  502    0 -0.68822092399E+03  0.28061960738E+03 -0.19434469686E+03  0.76822215255E+03  0.10100000352E+00 0.  1.
       -3    1    3    3    0  502  0.68822092399E+03 -0.28061960738E+03 -0.41619648117E+03  0.85183033839E+03  0.10100000352E+00 0. -1.
</event>
<event>
 5   0  0.1426929E-04  0.1493536E+04  0.7818609E-02  0.8888763E-01
        1   -1    0    0  501    0  0.00000000000E+00  0.00000000000E+00  0.59038067894E+03  0.59038067896E+03  0.50400001928E-02 0.  1.
       -1   -1    0    0    0  501  0.00000000000E+00  0.00000000000E+00 -0.94458058126E+03  0.94458058127E+03  0.50400001928E-02 0. -1.
    10030    2    1    2    0    0  0.00000000000E+00  0.00000000000E+00 -0.35419990232E+03  0.15349612602E+04  0.14935355703E+04 0.  0.
        1    1    3    3  502    0 -0.54625569015E+03 -0.26411164006E+03  0.27030427008E+03  0.66423989332E+03  0.50400001928E-02 0. -1.
       -1    1    3    3    0  502  0.54625569015E+03  0.26411164006E+03 -0.62450417239E+03  0.87072136691E+03  0.50400001928E-02 0.  1.
</event>
<event>
 5   0  0.2734072E-04  0.1503652E+04  0.7818609E-02  0.8882028E-01
       -2   -1    0    0    0  501  0.00000000000E+00  0.00000000000E+00  0.16058203122E+04  0.16058203122E+04  0.25500000920E-02 0. -1.
        2   -1    0    0  501    0  0.00000000000E+00  0.00000000000E+00 -0.35199622003E+03  0.35199622003E+03  0.25500000920E-02 0.  1.
    10030    2    1    2    0    0  0.00000000000E+00  0.00000000000E+00  0.12538240922E+04  0.19578165322E+04  0.15036524598E+04 0.  0.
        5    1    3    3  502    0 -0.10918417988E+03 -0.22122158599E+03 -0.29777552232E+03  0.38672021790E+03  0.46999998093E+01 0.  1.
       -5    1    3    3    0  502  0.10918417988E+03  0.22122158599E+03  0.15515996145E+04  0.15710963143E+04  0.46999998093E+01 0. -1.
</event>
<event>
 5   0  0.2646718E-04  0.1507519E+04  0.7818609E-02  0.8879468E-01
        2   -1    0    0  501    0  0.00000000000E+00  0.00000000000E+00  0.89763248705E+03  0.89763248705E+03  0.25500000920E-02 0. -1.
       -2   -1    0    0    0  501  0.00000000000E+00  0.00000000000E+00 -0.63294627722E+03  0.63294627722E+03  0.25500000920E-02 0.  1.
    10030    2    1    2    0    0  0.00000000000E+00  0.00000000000E+00  0.26468620983E+03  0.15305787643E+04  0.15075186778E+04 0.  0.
        3    1    3    3  502    0  0.75498547375E+02  0.14028297296E+03 -0.61565830216E+03  0.63593592317E+03  0.10100000352E+00 0.  1.
       -3    1    3    3    0  502 -0.75498547375E+02 -0.14028297296E+03  0.88034451199E+03  0.89464284111E+03  0.10100000352E+00 0. -1.
</event>
<event>
 5   0  0.2618901E-04  0.1495872E+04  0.7818609E-02  0.8887203E-01
        2   -1    0    0  501    0  0.00000000000E+00  0.00000000000E+00  0.10706221335E+04  0.10706221335E+04  0.25500000920E-02 0.  1.
       -2   -1    0    0    0  501  0.00000000000E+00  0.00000000000E+00 -0.52250736894E+03  0.52250736895E+03  0.25500000920E-02 0. -1.
    10030    2    1    2    0    0  0.00000000000E+00  0.00000000000E+00  0.54811476452E+03  0.15931295024E+04  0.14958715909E+04 0.  0.
        1    1    3    3  502    0 -0.55055341291E+03  0.61013062691E+02 -0.26118816643E+03  0.61241400425E+03  0.50400001928E-02 0.  1.
       -1    1    3    3    0  502  0.55055341291E+03 -0.61013062691E+02  0.80930293094E+03  0.98071549817E+03  0.50400001928E-02 0. -1.
</event>
<event>
 5   0  0.1443750E-04  0.1525998E+04  0.7818609E-02  0.8867346E-01
        1   -1    0    0  501    0  0.00000000000E+00  0.00000000000E+00  0.76218787440E+03  0.76218787442E+03  0.50400001928E-02 0. -1.
       -1   -1    0    0    0  501  0.00000000000E+00  0.00000000000E+00 -0.76381106077E+03  0.76381106079E+03  0.50400001928E-02 0.  1.
    10030    2    1    2    0    0  0.00000000000E+00  0.00000000000E+00 -0.16231863706E+01  0.15259989352E+04  0.15259980719E+04 0.  0.
        2    1    3    3  502    0 -0.39610754873E+03  0.38563123491E+03  0.52507356754E+03  0.76244009000E+03  0.25500000920E-02 0. -1.
       -2    1    3    3    0  502  0.39610754873E+03 -0.38563123491E+03 -0.52669675391E+03  0.76355884520E+03  0.25500000920E-02 0.  1.
</event>
<event>
 5   0  0.1426929E-04  0.1502238E+04  0.7818609E-02  0.8882966E-01
        1   -1    0    0  501    0  0.00000000000E+00  0.00000000000E+00  0.52782530096E+03  0.52782530098E+03  0.50400001928E-02 0.  1.
       -1   -1    0    0    0  501  0.00000000000E+00  0.00000000000E+00 -0.10688763409E+04  0.10688763409E+04  0.50400001928E-02 0. -1.
    10030    2    1    2    0    0  0.00000000000E+00  0.00000000000E+00 -0.54105103993E+03  0.15967016419E+04  0.15022382985E+04 0.  0.
        1    1    3    3  502    0  0.12662399560E+03  0.72919996486E+03 -0.13435319061E+03  0.75220808615E+03  0.50400001928E-02 0.  1.
       -1    1    3    3    0  502 -0.12662399560E+03 -0.72919996486E+03 -0.40669784931E+03  0.84449355573E+03  0.50400001928E-02 0. -1.
</event>
<event>
 5   0  0.2734072E-04  0.1509153E+04  0.7818609E-02  0.8878389E-01
        2   -1    0    0  501    0  0.00000000000E+00  0.00000000000E+00  0.15082534575E+04  0.15082534575E+04  0.25500000920E-02 0. -1.
       -2   -1    0    0    0  501  0.00000000000E+00  0.00000000000E+00 -0.37751321304E+03  0.37751321304E+03  0.25500000920E-02 0.  1.
    10030    2    1    2    0    0  0.00000000000E+00  0.00000000000E+00  0.11307402445E+04  0.18857666706E+04  0.15091528867E+04 0.  0.
        5    1    3    3  502    0  0.27802493366E+03 -0.13566385703E+03 -0.29461020850E+03  0.42722337341E+03  0.46999998093E+01 0.  1.
       -5    1    3    3    0  502 -0.27802493366E+03  0.13566385703E+03  0.14253504530E+04  0.14585432971E+04  0.46999998093E+01 0. -1.
</event>
<event>
 5   0  0.1474203E-04  0.1500905E+04  0.7818609E-02  0.8883851E-01
       -1   -1    0    0    0  501  0.00000000000E+00  0.00000000000E+00  0.39602730705E+03  0.39602730708E+03  0.50400001928E-02 0. -1.
        1   -1    0    0  501    0  0.00000000000E+00  0.00000000000E+00 -0.14220708680E+04  0.14220708680E+04  0.50400001928E-02 0.  1.
    10030    2    1    2    0    0  0.00000000000E+00  0.00000000000E+00 -0.10260435610E+04  0.18180981751E+04  0.15009049221E+04 0.  0.
        3    1    3    3  502    0  0.13511044153E+03  0.13947288568E+03 -0.13911110661E+04  0.14045987062E+04  0.10100000352E+00 0.  1.
       -3    1    3    3    0  502 -0.13511044153E+03 -0.13947288568E+03  0.36506750511E+03  0.41349946885E+03  0.10100000352E+00 0. -1.
</event>
<event>
 5   0  0.1427609E-04  0.1501700E+04  0.7818609E-02  0.8883323E-01
        1   -1    0    0  501    0  0.00000000000E+00  0.00000000000E+00  0.11955067480E+04  0.11955067480E+04  0.50400001928E-02 0.  1.
       -1   -1    0    0    0  501  0.00000000000E+00  0.00000000000E+00 -0.47157883064E+03  0.47157883067E+03  0.50400001928E-02 0. -1.
    10030    2    1    2    0    0  0.00000000000E+00  0.00000000000E+00  0.72392791735E+03  0.16670855787E+04  0.15016999358E+04 0.  0.
        4    1    3    3  502    0  0.10357722875E+02  0.75038304608E+03  0.33495183495E+03  0.82181283934E+03  0.12699999809E+01 0. -1.
       -4    1    3    3    0  502 -0.10357722875E+02 -0.75038304608E+03  0.38897608240E+03  0.84527273933E+03  0.12699999809E+01 0.  1.
</event>
<event>
 5   0  0.2646718E-04  0.1492277E+04  0.7818609E-02  0.8889605E-01
       -2   -1    0    0    0  501  0.00000000000E+00  0.00000000000E+00  0.83816353806E+03  0.83816353806E+03  0.25500000920E-02 0. -1.
        2   -1    0    0  501    0  0.00000000000E+00  0.00000000000E+00 -0.66421740770E+03  0.66421740771E+03  0.25500000920E-02 0.  1.
    10030    2    1    2    0    0  0.00000000000E+00  0.00000000000E+00  0.17394613036E+03  0.15023809458E+04  0.14922772028E+04 0.  0.
        3    1    3    3  502    0  0.22545103660E+03  0.46219770569E+03  0.63125150587E+03  0.81420719901E+03  0.10100000352E+00 0. -1.
       -3    1    3    3    0  502 -0.22545103660E+03 -0.46219770569E+03 -0.45730537552E+03  0.68817374676E+03  0.10100000352E+00 0.  1.
</event>
<event>
 5   0  0.1484251E-04  0.1508088E+04  0.7818609E-02  0.8879092E-01
        1   -1    0    0  501    0  0.00000000000E+00  0.00000000000E+00  0.26381637952E+04  0.26381637952E+04  0.50400001928E-02 0. -1.
       -1   -1    0    0    0  501  0.00000000000E+00  0.00000000000E+00 -0.21552209183E+03  0.21552209189E+03  0.50400001928E-02 0.  1.
    10030    2    1    2    0    0  0.00000000000E+00  0.00000000000E+00  0.24226417034E+04  0.28536858871E+04  0.15080882996E+04 0.  0.
        5    1    3    3  502    0 -0.52452920148E+03  0.51812889423E+03  0.91229650967E+03  0.11729856972E+04  0.46999998093E+01 0.  1.
       -5    1    3    3    0  502  0.52452920148E+03 -0.51812889423E+03  0.15103451937E+04  0.16807001899E+04  0.46999998093E+01 0. -1.
</event>
<event>
 5   0  0.2734072E-04  0.1502456E+04  0.7818609E-02  0.8882822E-01
       -2   -1    0    0    0  501  0.00000000000E+00  0.00000000000E+00  0.27674460940E+03  0.27674460941E+03  0.25500000920E-02 0.  1.
        2   -1    0    0  501    0  0.00000000000E+00  0.00000000000E+00 -0.20392205760E+04  0.20392205760E+04  0.25500000920E-02 0. -1.
    10030    2    1    2    0    0  0.00000000000E+00  0.00000000000E+00 -0.17624759666E+04  0.23159651854E+04  0.15024557255E+04 0.  0.
        5    1    3    3  502    0 -0.59849545066E+01  0.50953700503E+03 -0.17320551276E+04  0.18054641603E+04  0.46999998093E+01 0. -1.
       -5    1    3    3    0  502  0.59849545066E+01 -0.50953700503E+03 -0.30420839016E+02  0.51050102510E+03  0.46999998093E+01 0.  1.
</event>
<event>
 5   0  0.2641347E-04  0.1500905E+04  0.7818609E-02  0.8883851E-01
        2   -1    0    0  501    0  0.00000000000E+00  0.00000000000E+00  0.13765915348E+04  0.13765915348E+04  0.25500000920E-02 0.  1.
       -2   -1    0    0    0  501  0.00000000000E+00  0.00000000000E+00 -0.40911110788E+03  0.40911110788E+03  0.25500000920E-02 0. -1.
    10030    2    1    2    0    0  0.00000000000E+00  0.00000000000E+00  0.96748042694E+03  0.17857026427E+04  0.15009049109E+04 0.  0.
        4    1    3    3  502    0  0.41624865446E+03 -0.53912876404E+03  0.10891302600E+03  0.68977273554E+03  0.12699999809E+01 0. -1.
       -4    1    3    3    0  502 -0.41624865446E+03  0.53912876404E+03  0.85856740094E+03  0.10959299072E+04  0.12699999809E+01 0.  1.
</event>
<event>
 5   0  0.2618901E-04  0.1489413E+04  0.7818609E-02  0.8891524E-01
        2   -1    0    0  501    0  0.00000000000E+00  0.00000000000E+00  0.74373940126E+03  0.74373940126E+03  0.25500000920E-02 0.  1.
       -2   -1    0    0    0  501  0.00000000000E+00  0.00000000000E+00 -0.74567508727E+03  0.74567508727E+03  0.25500000920E-02 0. -1.
    10030    2    1    2    0    0  0.00000000000E+00  0.00000000000E+00 -0.19356860138E+01  0.14894144885E+04  0.14894132307E+04 0.  0.
        1    1    3    3  502    0 -0.37984343359E+03  0.24177810665E+03 -0.59413801278E+03  0.74547814532E+03  0.50400001928E-02 0. -1.
       -1    1    3    3    0  502  0.37984343359E+03 -0.24177810665E+03  0.59220232677E+03  0.74393634321E+03  0.50400001928E-02 0.  1.
</event>
<event>
 5   0  0.2618901E-04  0.1492934E+04  0.7818609E-02  0.8889165E-01
        2   -1    0    0  501    0  0.00000000000E+00  0.00000000000E+00  0.19243898198E+04  0.19243898198E+04  0.25500000920E-02 0. -1.
       -2   -1    0    0    0  501  0.00000000000E+00  0.00000000000E+00 -0.28955301897E+03  0.28955301898E+03  0.25500000920E-02 0.  1.
    10030    2    1    2    0    0  0.00000000000E+00  0.00000000000E+00  0.16348368009E+04  0.22139428388E+04  0.14929338659E+04 0.  0.
        1    1    3    3  502    0  0.50937129386E+02 -0.58004271753E+03  0.12475523633E+03  0.59548972646E+03  0.50400001928E-02 0.  1.
       -1    1    3    3    0  502 -0.50937129386E+02  0.58004271753E+03  0.15100815645E+04  0.16184531124E+04  0.50400001928E-02 0. -1.
</event>
<event>
 5   0  0.1443750E-04  0.1500183E+04  0.7818609E-02  0.8884331E-01
        1   -1    0    0  501    0  0.00000000000E+00  0.00000000000E+00  0.15004816388E+04  0.15004816388E+04  0.50400001928E-02 0.  1.
       -1   -1    0    0    0  501  0.00000000000E+00  0.00000000000E+00 -0.37497123910E+03  0.37497123913E+03  0.50400001928E-02 0. -1.
    10030    2    1    2    0    0  0.00000000000E+00  0.00000000000E+00  0.11255103997E+04  0.18754528780E+04  0.15001832680E+04 0.  0.
        2    1    3    3  502    0  0.74255794006E+03  0.48851479404E+02  0.44509033848E+03  0.86711254795E+03  0.25500000920E-02 0.  1.
       -2    1    3    3    0  502 -0.74255794006E+03 -0.48851479404E+02  0.68042006123E+03  0.10083403300E+04  0.25500000920E-02 0. -1.
</event>
<event>
 5   0  0.2618901E-04  0.1502161E+04  0.7818609E-02  0.8883017E-01
       -2   -1    0    0    0  501  0.00000000000E+00  0.00000000000E+00  0.53795014212E+03  0.53795014212E+03  0.25500000920E-02 0. -1.
        2   -1    0    0  501    0  0.00000000000E+00  0.00000000000E+00 -0.10486506512E+04  0.10486506512E+04  0.25500000920E-02 0.  1.
    10030    2    1    2    0    0  0.00000000000E+00  0.00000000000E+00 -0.51070050904E+03  0.15866007933E+04  0.15021607994E+04 0.  0.
        1    1    3    3  502    0  0.18310542101E+03 -0.56827218989E+03 -0.73666436955E+03  0.94822743601E+03  0.50400001928E-02 0.  1.
       -1    1    3    3    0  502 -0.18310542101E+03  0.56827218989E+03  0.22596386051E+03  0.63837335728E+03  0.50400001928E-02 0. -1.
</event>
<event>
 5   0  0.1484251E-04  0.1506895E+04  0.7818609E-02  0.8879881E-01
       -1   -1    0    0    0  501  0.00000000000E+00  0.00000000000E+00  0.71702016727E+03  0.71702016728E+03  0.50400001928E-02 0.  1.
        1   -1    0    0  501    0  0.00000000000E+00  0.00000000000E+00 -0.79172533989E+03  0.79172533991E+03  0.50400001928E-02 0. -1.
    10030    2    1    2    0    0  0.00000000000E+00  0.00000000000E+00 -0.74705172627E+02  0.15087455072E+04  0.15068948678E+04 0.  0.
        5    1    3    3  502    0  0.19813345247E+03  0.59382289967E+01 -0.76513511551E+03  0.79040873131E+03  0.46999998093E+01 0. -1.
       -5    1    3    3    0  502 -0.19813345247E+03 -0.59382289967E+01  0.69042994288E+03  0.71833677588E+03  0.46999998093E+01 0.  1.
</event>
<event>
 5   0  0.1474203E-04  0.1502258E+04  0.7818609E-02  0.8882953E-01
        1   -1    0    0  501    0  0.00000000000E+00  0.00000000000E+00  0.16243902976E+04  0.16243902976E+04  0.50400001928E-02 0. -1.
       -1   -1    0    0    0  501  0.00000000000E+00  0.00000000000E+00 -0.34732691734E+03  0.34732691738E+03  0.50400001928E-02 0.  1.
    10030    2    1    2    0    0  0.00000000000E+00  0.00000000000E+00  0.12770633802E+04  0.19717172150E+04  0.15022576006E+04 0.  0.
        3    1    3    3  502    0  0.16753241950E+03 -0.70539726904E+03  0.89620391019E+03  0.11527505704E+04  0.10100000352E+00 0.  1.
       -3    1    3    3    0  502 -0.16753241950E+03  0.70539726904E+03  0.38085947003E+03  0.81896664454E+03  0.10100000352E+00 0. -1.
</event>
<event>
 5   0  0.2641347E-04  0.1497882E+04  0.7818609E-02  0.8885863E-01
       -2   -1    0    0    0  501  0.00000000000E+00  0.00000000000E+00  0.71699524432E+03  0.71699524432E+03  0.25500000920E-02 0. -1.
        2   -1    0    0  501    0  0.00000000000E+00  0.00000000000E+00 -0.78230957988E+03  0.78230957988E+03  0.25500000920E-02 0.  1.
    10030    2    1    2    0    0  0.00000000000E+00  0.00000000000E+00 -0.65314335559E+02  0.14993048242E+04  0.14978815018E+04 0.  0.
        4    1    3    3  502    0 -0.68548176913E+03 -0.17905850455E+03  0.21039743872E+03  0.73906420491E+03  0.12699999809E+01 0. -1.
       -4    1    3    3    0  502  0.68548176913E+03  0.17905850455E+03 -0.27571177428E+03  0.76024061930E+03  0.12699999809E+01 0.  1.
</event>
<event>
 5   0  0.1427609E-04  0.1507167E+04  0.7818609E-02  0.8879701E-01
       -1   -1    0    0    0  501  0.00000000000E+00  0.00000000000E+00  0.34745353101E+03  0.34745353105E+03  0.50400001928E-02 0.  1.
        1   -1    0    0  501    0  0.00000000000E+00  0.00000000000E+00 -0.16344278951E+04  0.16344278951E+04  0.50400001928E-02 0. -1.
    10030    2    1    2    0    0  0.00000000000E+00  0.00000000000E+00 -0.12869743641E+04  0.19818814261E+04  0.15071665381E+04 0.  0.
        4    1    3    3  502    0  0.58068977110E+02 -0.64219796881E+03 -0.11563192426E+04  0.13239584740E+04  0.12699999809E+01 0. -1.
       -4    1    3    3    0  502 -0.58068977110E+02  0.64219796881E+03 -0.13065512147E+03  0.65792295211E+03  0.12699999809E+01 0.  1.
</event>
<event>
 5   0  0.2646718E-04  0.1502678E+04  0.7818609E-02  0.8882674E-01
       -2   -1    0    0    0  501  0.00000000000E+00  0.00000000000E+00  0.71596279571E+03  0.71596279571E+03  0.25500000920E-02 0. -1.
        2   -1    0    0  501    0  0.00000000000E+00  0.00000000000E+00 -0.78846351955E+03  0.78846351956E+03  0.25500000920E-02 0.  1.
    10030    2    1    2    0    0  0.00000000000E+00  0.00000000000E+00 -0.72500723842E+02  0.15044263153E+04  0.15026783365E+04 0.  0.
        3    1    3    3  502    0 -0.10670314811E+03 -0.50526005706E+03 -0.58262986847E+03  0.77854406485E+03  0.10100000352E+00 0.  1.
       -3    1    3    3    0  502  0.10670314811E+03  0.50526005706E+03  0.51012914463E+03  0.72588225042E+03  0.10100000352E+00 0. -1.
</event>
<event>
 5   0  0.2646718E-04  0.1502121E+04  0.7818609E-02  0.8883044E-01
       -2   -1    0    0    0  501  0.00000000000E+00  0.00000000000E+00  0.33564552521E+03  0.33564552522E+03  0.25500000920E-02 0.  1.
        2   -1    0    0  501    0  0.00000000000E+00  0.00000000000E+00 -0.16806185731E+04  0.16806185731E+04  0.25500000920E-02 0. -1.
    10030    2    1    2    0    0  0.00000000000E+00  0.00000000000E+00 -0.13449730479E+04  0.20162640983E+04  0.15021213049E+04 0.  0.
        3    1    3    3  502    0 -0.42307901525E+03 -0.54303130365E+03 -0.10756466387E+04  0.12770648188E+04  0.10100000352E+00 0. -1.
       -3    1    3    3    0  502  0.42307901525E+03  0.54303130365E+03 -0.26932640914E+03  0.73919927946E+03  0.10100000352E+00 0.  1.
</event>
<event>
 5   0  0.2646718E-04  0.1499105E+04  0.7818609E-02  0.8885049E-01
       -2   -1    0    0    0  501  0.00000000000E+00  0.00000000000E+00  0.84052861459E+03  0.84052861459E+03  0.25500000920E-02 0. -1.
        2   -1    0    0  501    0  0.00000000000E+00  0.00000000000E+00 -0.66842297518E+03  0.66842297518E+03  0.25500000920E-02 0.  1.
    10030    2    1    2    0    0  0.00000000000E+00  0.00000000000E+00  0.17210563941E+03  0.15089515898E+04  0.14991045825E+04 0.  0.
        3    1    3    3  502    0 -0.96111184786E+02  0.73219702195E+03 -0.43160121538E+02  0.73973822741E+03  0.10100000352E+00 0.  1.
       -3    1    3    3    0  502  0.96111184786E+02 -0.73219702195E+03  0.21526576095E+03  0.76921336236E+03  0.10100000352E+00 0. -1.
</event>
<event>
 5   0  0.1443750E-04  0.1501776E+04  0.7818609E-02  0.8883273E-01
       -1   -1    0    0    0  501  0.00000000000E+00  0.00000000000E+00  0.51408436845E+03  0.51408436848E+03  0.50400001928E-02 0.  1.
        1   -1    0    0  501    0  0.00000000000E+00  0.00000000000E+00 -0.10967703143E+04  0.10967703143E+04  0.50400001928E-02 0. -1.
    10030    2    1    2    0    0  0.00000000000E+00  0.00000000000E+00 -0.58268594587E+03  0.16108546828E+04  0.15017755816E+04 0.  0.
        2    1    3    3  502    0 -0.37687280991E+02  0.57484204055E+03 -0.80795687253E+03  0.99229935534E+03  0.25500000920E-02 0. -1.
       -2    1    3    3    0  502  0.37687280991E+02 -0.57484204055E+03  0.22527092667E+03  0.61855532747E+03  0.25500000920E-02 0.  1.
</event>
<event>
 5   0  0.2734072E-04  0.1500733E+04  0.7818609E-02  0.8883966E-01
       -2   -1    0    0    0  501  0.00000000000E+00  0.00000000000E+00  0.45535354341E+03  0.45535354341E+03  0.25500000920E-02 0.  1.
        2   -1    0    0  501    0  0.00000000000E+00  0.00000000000E+00 -0.12365116191E+04  0.12365116191E+04  0.25500000920E-02 0. -1.
    10030    2    1    2    0    0  0.00000000000E+00  0.00000000000E+00 -0.78115807574E+03  0.16918651626E+04  0.15007330839E+04 0.  0.
        5    1    3    3  502    0  0.39281648972E+03  0.39069309252E+03 -0.96107397198E+03  0.11093381616E+04  0.46999998093E+01 0. -1.
       -5    1    3    3    0  502 -0.39281648972E+03 -0.39069309252E+03  0.17991589624E+03  0.58252700097E+03  0.46999998093E+01 0.  1.
</event>
<event>
 5   0  0.2734072E-04  0.1479264E+04  0.7818609E-02  0.8898360E-01
        2   -1    0    0  501    0  0.00000000000E+00  0.00000000000E+00  0.82404728800E+03  0.82404728800E+03  0.25500000920E-02 0. -1.
       -2   -1    0    0    0  501  0.00000000000E+00  0.00000000000E+00 -0.66386432250E+03  0.66386432251E+03  0.25500000920E-02 0.  1.
    10030    2    1    2    0    0  0.00000000000E+00  0.00000000000E+00  0.16018296550E+03  0.14879116105E+04  0.14792641340E+04 0.  0.
        5    1    3    3  502    0 -0.38873774247E+03 -0.35199006119E+03  0.60469524319E+03  0.80043267220E+03  0.46999998093E+01 0. -1.
       -5    1    3    3    0  502  0.38873774247E+03  0.35199006119E+03 -0.44451227769E+03  0.68747893831E+03  0.46999998093E+01 0.  1.
</event>
<event>
 5   0  0.2641347E-04  0.1498843E+04  0.7818609E-02  0.8885223E-01
       -2   -1    0    0    0  501  0.00000000000E+00  0.00000000000E+00  0.36148171770E+03  0.36148171771E+03  0.25500000920E-02 0. -1.
        2   -1    0    0  501    0  0.00000000000E+00  0.00000000000E+00 -0.15536950198E+04  0.15536950198E+04  0.25500000920E-02 0.  1.
    10030    2    1    2    0    0  0.00000000000E+00  0.00000000000E+00 -0.11922133021E+04  0.19151767375E+04  0.14988426796E+04 0.  0.
        4    1    3    3  502    0 -0.19621584078E+03 -0.71974315710E+03 -0.50485681889E+03  0.90078459625E+03  0.12699999809E+01 0. -1.
       -4    1    3    3    0  502  0.19621584078E+03  0.71974315710E+03 -0.68735648325E+03  0.10143921413E+04  0.12699999809E+01 0.  1.
</event>
<event>
 5   0  0.2641347E-04  0.1492957E+04  0.7818609E-02  0.8889150E-01
       -2   -1    0    0    0  501  0.00000000000E+00  0.00000000000E+00  0.45261927777E+03  0.45261927778E+03  0.25500000920E-02 0.  1.
        2   -1    0    0  501    0  0.00000000000E+00  0.00000000000E+00 -0.12311225648E+04  0.12311225648E+04  0.25500000920E-02 0. -1.
    10030    2    1    2    0    0  0.00000000000E+00  0.00000000000E+00 -0.77850328700E+03  0.16837418425E+04  0.14929565380E+04 0.  0.
        4    1    3    3  502    0  0.40769173771E+03  0.12522708556E+03 -0.10801866350E+04  0.11613350745E+04  0.12699999809E+01 0. -1.
       -4    1    3    3    0  502 -0.40769173771E+03 -0.12522708556E+03  0.30168334799E+03  0.52240676805E+03  0.12699999809E+01 0.  1.
</event>
<event>
 5   0  0.1443750E-04  0.1531271E+04  0.7818609E-02  0.8863920E-01
        1   -1    0    0  501    0  0.00000000000E+00  0.00000000000E+00  0.17239263409E+04  0.17239263409E+04  0.50400001928E-02 0.  1.
       -1   -1    0    0    0  501  0.00000000000E+00  0.00000000000E+00 -0.34003655926E+03  0.34003655930E+03  0.50400001928E-02 0. -1.
    10030    2    1    2    0    0  0.00000000000E+00  0.00000000000E+00  0.13838897816E+04  0.20639629002E+04  0.15312713429E+04 0.  0.
        2    1    3    3  502    0 -0.44532320130E+03  0.60347753768E+03  0.89944805467E+03  0.11711125886E+04  0.25500000920E-02 0. -1.
       -2    1    3    3    0  502  0.44532320130E+03 -0.60347753768E+03  0.48444172694E+03  0.89285031159E+03  0.25500000920E-02 0.  1.
</event>
<event>
 5   0  0.2646718E-04  0.1499899E+04  0.7818609E-02  0.8884520E-01
       -2   -1    0    0    0  501  0.00000000000E+00  0.00000000000E+00  0.41205805684E+03  0.41205805685E+03  0.25500000920E-02 0.  1.
        2   -1    0    0  501    0  0.00000000000E+00  0.00000000000E+00 -0.13649157187E+04  0.13649157187E+04  0.25500000920E-02 0. -1.
    10030    2    1    2    0    0  0.00000000000E+00  0.00000000000E+00 -0.95285766189E+03  0.17769737756E+04  0.14998993551E+04 0.  0.
        3    1    3    3  502    0 -0.20562116453E+03  0.41682053176E+01  0.37799554400E+03  0.43032322587E+03  0.10100000352E+00 0.  1.
       -3    1    3    3    0  502  0.20562116453E+03 -0.41682053176E+01 -0.13308532059E+04  0.13466505497E+04  0.10100000352E+00 0. -1.
</event>
<event>
 5   0  0.1427609E-04  0.1473854E+04  0.7818609E-02  0.8902028E-01
       -1   -1    0    0    0  501  0.00000000000E+00  0.00000000000E+00  0.58266472932E+03  0.58266472934E+03  0.50400001928E-02 0.  1.
        1   -1    0    0  501    0  0.00000000000E+00  0.00000000000E+00 -0.93203095825E+03  0.93203095827E+03  0.50400001928E-02 0. -1.
    10030    2    1    2    0    0  0.00000000000E+00  0.00000000000E+00 -0.34936622893E+03  0.15146956876E+04  0.14738542208E+04 0.  0.
        4    1    3    3  502    0  0.34367294896E+03  0.58842641591E+03  0.11363178304E+03  0.69084769509E+03  0.12699999809E+01 0.  1.
       -4    1    3    3    0  502 -0.34367294896E+03 -0.58842641591E+03 -0.46299801197E+03  0.82384799252E+03  0.12699999809E+01 0. -1.
</event>
<event>
 5   0  0.2618901E-04  0.1515018E+04  0.7818609E-02  0.8874527E-01
       -2   -1    0    0    0  501  0.00000000000E+00  0.00000000000E+00  0.55087032320E+03  0.55087032321E+03  0.25500000920E-02 0.  1.
        2   -1    0    0  501    0  0.00000000000E+00  0.00000000000E+00 -0.10416608222E+04  0.10416608222E+04  0.25500000920E-02 0. -1.
    10030    2    1    2    0    0  0.00000000000E+00  0.00000000000E+00 -0.49079049896E+03  0.15925311454E+04  0.15150181963E+04 0.  0.
        1    1    3    3  502    0  0.66324933342E+03  0.34993464344E+03 -0.13283683594E+03  0.76157702038E+03  0.50400001928E-02 0.  1.
       -1    1    3    3    0  502 -0.66324933342E+03 -0.34993464344E+03 -0.35795366302E+03  0.83095412500E+03  0.50400001928E-02 0. -1.
</event>
<event>
 5   0  0.2696040E-04  0.1496502E+04  0.7818609E-02  0.8886782E-01
        2   -1    0    0  501    0  0.00000000000E+00  0.00000000000E+00  0.74683386898E+03  0.74683386898E+03  0.25500000920E-02 0. -1.
       -2   -1    0    0    0  501  0.00000000000E+00  0.00000000000E+00 -0.74967111488E+03  0.74967111489E+03  0.25500000920E-02 0.  1.
    10030    2    1    2    0    0  0.00000000000E+00  0.00000000000E+00 -0.28372459073E+01  0.14965049839E+04  0.14965022943E+04 0.  0.
        2    1    3    3  502    0 -0.58082408307E+03  0.46777080132E+03 -0.62358384105E+02  0.74836802853E+03  0.25500000920E-02 0. -1.
       -2    1    3    3    0  502  0.58082408307E+03 -0.46777080132E+03  0.59521138197E+02  0.74813695534E+03  0.25500000920E-02 0.  1.
</event>
<event>
 5   0  0.1427609E-04  0.1499531E+04  0.7818609E-02  0.8884765E-01
        1   -1    0    0  501    0  0.00000000000E+00  0.00000000000E+00  0.18753902074E+04  0.18753902074E+04  0.50400001928E-02 0.  1.
       -1   -1    0    0    0  501  0.00000000000E+00  0.00000000000E+00 -0.29975014269E+03  0.29975014273E+03  0.50400001928E-02 0. -1.
    10030    2    1    2    0    0  0.00000000000E+00  0.00000000000E+00  0.15756400647E+04  0.21751403501E+04  0.14995312365E+04 0.  0.
        4    1    3    3  502    0  0.15409493196E+03  0.16953803489E+03  0.18233707969E+04  0.18377081023E+04  0.12699999809E+01 0.  1.
       -4    1    3    3    0  502 -0.15409493196E+03 -0.16953803489E+03 -0.24773073217E+03  0.33743224786E+03  0.12699999809E+01 0. -1.
</event>
<event>
 5   0  0.1443750E-04  0.1501282E+04  0.7818609E-02  0.8883601E-01
       -1   -1    0    0    0  501  0.00000000000E+00  0.00000000000E+00  0.66330977315E+03  0.66330977317E+03  0.50400001928E-02 0.  1.
        1   -1    0    0  501    0  0.00000000000E+00  0.00000000000E+00 -0.84947026258E+03  0.84947026259E+03  0.50400001928E-02 0. -1.
    10030    2    1    2    0    0  0.00000000000E+00  0.00000000000E+00 -0.18616048943E+03  0.15127800358E+04  0.15012820217E+04 0.  0.
        2    1    3    3  502    0 -0.51115249974E+02  0.58413021048E+03 -0.56532839091E+03  0.81450418117E+03  0.25500000920E-02 0. -1.
       -2    1    3    3    0  502  0.51115249974E+02 -0.58413021048E+03  0.37916790148E+03  0.69827585458E+03  0.25500000920E-02 0.  1.
</event>
<event>
 5   0  0.2641347E-04  0.1499559E+04  0.7818609E-02  0.8884746E-01
       -2   -1    0    0    0  501  0.00000000000E+00  0.00000000000E+00  0.69644550623E+03  0.69644550623E+03  0.25500000920E-02 0.  1.
        2   -1    0    0  501    0  0.00000000000E+00  0.00000000000E+00 -0.80719791343E+03  0.80719791343E+03  0.25500000920E-02 0. -1.
    10030    2    1    2    0    0  0.00000000000E+00  0.00000000000E+00 -0.11075240720E+03  0.15036434197E+04  0.14995590811E+04 0.  0.
        4    1    3    3  502    0 -0.21041471500E+03  0.43058376120E+03 -0.63356708241E+03  0.79440895546E+03  0.12699999809E+01 0. -1.
       -4    1    3    3    0  502  0.21041471500E+03 -0.43058376120E+03  0.52281467521E+03  0.70923446420E+03  0.12699999809E+01 0.  1.
</event>
<event>
 5   0  0.2641347E-04  0.1497593E+04  0.7818609E-02  0.8886055E-01
       -2   -1    0    0    0  501  0.00000000000E+00  0.00000000000E+00  0.84973782916E+03  0.84973782917E+03  0.25500000920E-02 0. -1.
        2   -1    0    0  501    0  0.00000000000E+00  0.00000000000E+00 -0.65984606519E+03  0.65984606519E+03  0.25500000920E-02 0.  1.
    10030    2    1    2    0    0  0.00000000000E+00  0.00000000000E+00  0.18989176397E+03  0.15095838944E+04  0.14975929527E+04 0.  0.
        4    1    3    3  502    0 -0.15413232132E+03  0.59541024998E+03  0.52547739300E+03  0.80894884987E+03  0.12699999809E+01 0. -1.
       -4    1    3    3    0  502  0.15413232132E+03 -0.59541024998E+03 -0.33558562902E+03  0.70063504449E+03  0.12699999809E+01 0.  1.
</event>
<event>
 5   0  0.1427609E-04  0.1500693E+04  0.7818609E-02  0.8883992E-01
        1   -1    0    0  501    0  0.00000000000E+00  0.00000000000E+00  0.56732194983E+03  0.56732194986E+03  0.50400001928E-02 0.  1.
       -1   -1    0    0    0  501  0.00000000000E+00  0.00000000000E+00 -0.99241713300E+03  0.99241713302E+03  0.50400001928E-02 0. -1.
    10030    2    1    2    0    0  0.00000000000E+00  0.00000000000E+00 -0.42509518317E+03  0.15597390829E+04  0.15006932038E+04 0.  0.
        4    1    3    3  502    0  0.23843439470E+02  0.31537291701E+03  0.49465812335E+03  0.58712593051E+03  0.12699999809E+01 0.  1.
       -4    1    3    3    0  502 -0.23843439470E+02 -0.31537291701E+03 -0.91975330652E+03  0.97261315236E+03  0.12699999809E+01 0. -1.
</event>
<event>
 5   0  0.1443750E-04  0.1497610E+04  0.7818609E-02  0.8886044E-01
        1   -1    0    0  501    0  0.00000000000E+00  0.00000000000E+00  0.88049347079E+03  0.88049347080E+03  0.50400001928E-02 0. -1.
       -1   -1    0    0    0  501  0.00000000000E+00  0.00000000000E+00 -0.63681233195E+03  0.63681233197E+03  0.50400001928E-02 0.  1.
    10030    2    1    2    0    0  0.00000000000E+00  0.00000000000E+00  0.24368113884E+03  0.15173058028E+04  0.14976102302E+04 0.  0.
        2    1    3    3  502    0 -0.58996166299E+03 -0.30676330874E+03  0.47068051925E+03  0.81467701735E+03  0.25500000920E-02 0. -1.
       -2    1    3    3    0  502  0.58996166299E+03  0.30676330874E+03 -0.22699938041E+03  0.70262878542E+03  0.25500000920E-02 0.  1.
</event>
<event>
 5   0  0.2734072E-04  0.1506031E+04  0.7818609E-02  0.8880452E-01
       -2   -1    0    0    0  501  0.00000000000E+00  0.00000000000E+00  0.10073378851E+04  0.10073378851E+04  0.25500000920E-02 0.  1.
        2   -1    0    0  501    0  0.00000000000E+00  0.00000000000E+00 -0.56290171818E+03  0.56290171818E+03  0.25500000920E-02 0. -1.
    10030    2    1    2    0    0  0.00000000000E+00  0.00000000000E+00  0.44443616696E+03  0.15702396033E+04  0.15060308448E+04 0.  0.
        5    1    3    3  502    0 -0.50560313730E+03 -0.44395953895E+03  0.57467714878E+03  0.88487881657E+03  0.46999998093E+01 0.  1.
       -5    1    3    3    0  502  0.50560313730E+03  0.44395953895E+03 -0.13024098182E+03  0.68536078676E+03  0.46999998093E+01 0. -1.
</event>
<event>
 5   0  0.2734072E-04  0.1496846E+04  0.7818609E-02  0.8886553E-01
       -2   -1    0    0    0  501  0.00000000000E+00  0.00000000000E+00  0.65888404437E+03  0.65888404438E+03  0.25500000920E-02 0.  1.
        2   -1    0    0  501    0  0.00000000000E+00  0.00000000000E+00 -0.85013017867E+03  0.85013017867E+03  0.25500000920E-02 0. -1.
    10030    2    1    2    0    0  0.00000000000E+00  0.00000000000E+00 -0.19124613430E+03  0.15090142230E+04  0.14968462985E+04 0.  0.
        5    1    3    3  502    0  0.44044713429E+03 -0.19233510220E+03  0.48273789313E+03  0.68120806888E+03  0.46999998093E+01 0.  1.
       -5    1    3    3    0  502 -0.44044713429E+03  0.19233510220E+03 -0.67398402743E+03  0.82780615416E+03  0.46999998093E+01 0. -1.
</event>
<event>
 5   0  0.1484251E-04  0.1488096E+04  0.7818609E-02  0.8892408E-01
       -1   -1    0    0    0  501  0.00000000000E+00  0.00000000000E+00  0.37261586564E+03  0.37261586567E+03  0.50400001928E-02 0. -1.
        1   -1    0    0  501    0  0.00000000000E+00  0.00000000000E+00 -0.14857327399E+04  0.14857327399E+04  0.50400001928E-02 0.  1.
    10030    2    1    2    0    0  0.00000000000E+00  0.00000000000E+00 -0.11131168743E+04  0.18583486056E+04  0.14880962214E+04 0.  0.
        5    1    3    3  502    0 -0.72778766902E+03  0.15275760027E+03 -0.52659415566E+03  0.91122624545E+03  0.46999998093E+01 0.  1.
       -5    1    3    3    0  502  0.72778766902E+03 -0.15275760027E+03 -0.58652271859E+03  0.94712236012E+03  0.46999998093E+01 0. -1.
</event>
<event>
 5   0  0.2696040E-04  0.1492473E+04  0.7818609E-02  0.8889474E-01
        2   -1    0    0  501    0  0.00000000000E+00  0.00000000000E+00  0.93478477318E+03  0.93478477318E+03  0.25500000920E-02 0.  1.
       -2   -1    0    0    0  501  0.00000000000E+00  0.00000000000E+00 -0.59571847764E+03  0.59571847764E+03  0.25500000920E-02 0. -1.
    10030    2    1    2    0    0  0.00000000000E+00  0.00000000000E+00  0.33906629554E+03  0.15305032508E+04  0.14924725284E+04 0.  0.
        2    1    3    3  502    0  0.47537450501E+03  0.83345546043E+02  0.75319455550E+03  0.89455544183E+03  0.25500000920E-02 0.  1.
       -2    1    3    3    0  502 -0.47537450501E+03 -0.83345546043E+02 -0.41412825996E+03  0.63594780899E+03  0.25500000920E-02 0. -1.
</event>
<event>
 5   0  0.1427609E-04  0.1473093E+04  0.7818609E-02  0.8902546E-01
       -1   -1    0    0    0  501  0.00000000000E+00  0.00000000000E+00  0.68233444482E+03  0.68233444484E+03  0.50400001928E-02 0.  1.
        1   -1    0    0  501    0  0.00000000000E+00  0.00000000000E+00 -0.79506552017E+03  0.79506552019E+03  0.50400001928E-02 0. -1.
    10030    2    1    2    0    0  0.00000000000E+00  0.00000000000E+00 -0.11273107535E+03  0.14773999650E+04  0.14730927877E+04 0.  0.
        4    1    3    3  502    0 -0.62283483378E+02 -0.66849977525E+02  0.67662764122E+03  0.68276989503E+03  0.12699999809E+01 0.  1.
       -4    1    3    3    0  502  0.62283483378E+02  0.66849977525E+02 -0.78935871658E+03  0.79463006999E+03  0.12699999809E+01 0. -1.
</event>
<event>
 5   0  0.2646718E-04  0.1506101E+04  0.7818609E-02  0.8880406E-01
        2   -1    0    0  501    0  0.00000000000E+00  0.00000000000E+00  0.12887517974E+04  0.12887517974E+04  0.25500000920E-02 0.  1.
       -2   -1    0    0    0  501  0.00000000000E+00  0.00000000000E+00 -0.44002647776E+03  0.44002647776E+03  0.25500000920E-02 0. -1.
    10030    2    1    2    0    0  0.00000000000E+00  0.00000000000E+00  0.84872531965E+03  0.17287782752E+04  0.15061008122E+04 0.  0.
        3    1    3    3  502    0 -0.21338172111E+03 -0.52527937150E+03 -0.14452974607E+03  0.58509745746E+03  0.10100000352E+00 0. -1.
       -3    1    3    3    0  502  0.21338172111E+03  0.52527937150E+03  0.99325506572E+03  0.11436808177E+04  0.10100000352E+00 0.  1.
</event>
<event>
 5   0  0.2734072E-04  0.1506302E+04  0.7818609E-02  0.8880273E-01
       -2   -1    0    0    0  501  0.00000000000E+00  0.00000000000E+00  0.33886011014E+03  0.33886011014E+03  0.25500000920E-02 0.  1.
        2   -1    0    0  501    0  0.00000000000E+00  0.00000000000E+00 -0.16739547497E+04  0.16739547497E+04  0.25500000920E-02 0. -1.
    10030    2    1    2    0    0  0.00000000000E+00  0.00000000000E+00 -0.13350946395E+04  0.20128148598E+04  0.15063020824E+04 0.  0.
        5    1    3    3  502    0 -0.55937682590E+03  0.20219085408E+03 -0.12848815038E+04  0.14158835205E+04  0.46999998093E+01 0. -1.
       -5    1    3    3    0  502  0.55937682590E+03 -0.20219085408E+03 -0.50213135708E+02  0.59693133929E+03  0.46999998093E+01 0.  1.
</event>
<event>
 5   0  0.2696040E-04  0.1501250E+04  0.7818609E-02  0.8883622E-01
        2   -1    0    0  501    0  0.00000000000E+00  0.00000000000E+00  0.28669903242E+03  0.28669903243E+03  0.25500000920E-02 0. -1.
       -2   -1    0    0    0  501  0.00000000000E+00  0.00000000000E+00 -0.19652595412E+04  0.19652595413E+04  0.25500000920E-02 0.  1.
    10030    2    1    2    0    0  0.00000000000E+00  0.00000000000E+00 -0.16785605088E+04  0.22519585737E+04  0.15012501576E+04 0.  0.
        2    1    3    3  502    0  0.59688919188E+03  0.79942314184E+02 -0.15114164936E+04  0.16269748916E+04  0.25500000920E-02 0.  1.
       -2    1    3    3    0  502 -0.59688919188E+03 -0.79942314184E+02 -0.16714401528E+03  0.62498368205E+03  0.25500000920E-02 0. -1.
</event>
<event>
 5   0  0.1474203E-04  0.1501700E+04  0.7818609E-02  0.8883323E-01
        1   -1    0    0  501    0  0.00000000000E+00  0.00000000000E+00  0.13155996923E+04  0.13155996923E+04  0.50400001928E-02 0.  1.
       -1   -1    0    0    0  501  0.00000000000E+00  0.00000000000E+00 -0.42853158747E+03  0.42853158750E+03  0.50400001928E-02 0. -1.
    10030    2    1    2    0    0  0.00000000000E+00  0.00000000000E+00  0.88706810485E+03  0.17441312798E+04  0.15017004024E+04 0.  0.
        3    1    3    3  502    0 -0.12002089204E+03  0.51130474417E+03  0.10667602653E+04  0.11890395409E+04  0.10100000352E+00 0.  1.
       -3    1    3    3    0  502  0.12002089204E+03 -0.51130474417E+03 -0.17969216045E+03  0.55509173896E+03  0.10100000352E+00 0. -1.
</event>
<event>
 5   0  0.2696040E-04  0.1504868E+04  0.7818609E-02  0.8881222E-01
       -2   -1    0    0    0  501  0.00000000000E+00  0.00000000000E+00  0.50873119668E+03  0.50873119669E+03  0.25500000920E-02 0. -1.
        2   -1    0    0  501    0  0.00000000000E+00  0.00000000000E+00 -0.11128799939E+04  0.11128799939E+04  0.25500000920E-02 0.  1.
    10030    2    1    2    0    0  0.00000000000E+00  0.00000000000E+00 -0.60414879726E+03  0.16216111906E+04  0.15048677963E+04 0.  0.
        2    1    3    3  502    0  0.41504898766E+03 -0.49576477999E+03 -0.71677839201E+03  0.96530805575E+03  0.25500000920E-02 0. -1.
       -2    1    3    3    0  502 -0.41504898766E+03  0.49576477999E+03  0.11262959475E+03  0.65630313488E+03  0.25500000920E-02 0.  1.
</event>
<event>
 5   0  0.1484251E-04  0.1549680E+04  0.7818609E-02  0.8852072E-01
        1   -1    0    0  501    0  0.00000000000E+00  0.00000000000E+00  0.18976293004E+04  0.18976293004E+04  0.50400001928E-02 0.  1.
       -1   -1    0    0    0  501  0.00000000000E+00  0.00000000000E+00 -0.31638273635E+03  0.31638273639E+03  0.50400001928E-02 0. -1.
    10030    2    1    2    0    0  0.00000000000E+00  0.00000000000E+00  0.15812465641E+04  0.22140120368E+04  0.15496801614E+04 0.  0.
        5    1    3    3  502    0 -0.69937601762E+03  0.27525668504E+03  0.10596649468E+04  0.12991554742E+04  0.46999998093E+01 0.  1.
       -5    1    3    3    0  502  0.69937601762E+03 -0.27525668504E+03  0.52158161727E+03  0.91485656261E+03  0.46999998093E+01 0. -1.
</event>
<event>
 5   0  0.1427609E-04  0.1512192E+04  0.7818609E-02  0.8876386E-01
        1   -1    0    0  501    0  0.00000000000E+00  0.00000000000E+00  0.65596350657E+03  0.65596350659E+03  0.50400001928E-02 0. -1.
       -1   -1    0    0    0  501  0.00000000000E+00  0.00000000000E+00 -0.87151344466E+03  0.87151344467E+03  0.50400001928E-02 0.  1.
    10030    2    1    2    0    0  0.00000000000E+00  0.00000000000E+00 -0.21554993808E+03  0.15274769513E+04  0.15121918069E+04 0.  0.
        4    1    3    3  502    0  0.70155351652E+03 -0.14521467036E+03  0.13635950098E+03  0.72928743540E+03  0.12699999809E+01 0. -1.
       -4    1    3    3    0  502 -0.70155351652E+03  0.14521467036E+03 -0.35190943907E+03  0.79818951586E+03  0.12699999809E+01 0.  1.
</event>
<event>
 5   0  0.2646718E-04  0.1498787E+04  0.7818609E-02  0.8885260E-01
       -2   -1    0    0    0  501  0.00000000000E+00  0.00000000000E+00  0.58642376456E+03  0.58642376456E+03  0.25500000920E-02 0. -1.
        2   -1    0    0  501    0  0.00000000000E+00  0.00000000000E+00 -0.95765308272E+03  0.95765308272E+03  0.25500000920E-02 0.  1.
    10030    2    1    2    0    0  0.00000000000E+00  0.00000000000E+00 -0.37122931816E+03  0.15440768473E+04  0.14987868773E+04 0.  0.
        3    1    3    3  502    0 -0.79583174946E+02  0.14044372327E+03 -0.93952896336E+03  0.95329565421E+03  0.10100000352E+00 0.  1.
       -3    1    3    3    0  502  0.79583174946E+02 -0.14044372327E+03  0.56829964521E+03  0.59078119307E+03  0.10100000352E+00 0. -1.
</event>
<event>
 5   0  0.1474203E-04  0.1498250E+04  0.7818609E-02  0.8885617E-01
       -1   -1    0    0    0  501  0.00000000000E+00  0.00000000000E+00  0.95294253270E+03  0.95294253271E+03  0.50400001928E-02 0. -1.
        1   -1    0    0  501    0  0.00000000000E+00  0.00000000000E+00 -0.58890074519E+03  0.58890074521E+03  0.50400001928E-02 0.  1.
    10030    2    1    2    0    0  0.00000000000E+00  0.00000000000E+00  0.36404178750E+03  0.15418432779E+04  0.14982504032E+04 0.  0.
        3    1    3    3  502    0 -0.45858197294E+03  0.55819883130E+03  0.38604468483E+03  0.81909332195E+03  0.10100000352E+00 0.  1.
       -3    1    3    3    0  502  0.45858197294E+03 -0.55819883130E+03 -0.22002897328E+02  0.72274995598E+03  0.10100000352E+00 0. -1.
</event>
<event>
 5   0  0.1443750E-04  0.1498593E+04  0.7818609E-02  0.8885389E-01
        1   -1    0    0  501    0  0.00000000000E+00  0.00000000000E+00  0.67035255248E+03  0.67035255250E+03  0.50400001928E-02 0. -1.
       -1   -1    0    0    0  501  0.00000000000E+00  0.00000000000E+00 -0.83753751942E+03  0.83753751944E+03  0.50400001928E-02 0.  1.
    10030    2    1    2    0    0  0.00000000000E+00  0.00000000000E+00 -0.16718496694E+03  0.15078900719E+04  0.14985932256E+04 0.  0.
        2    1    3    3  502    0 -0.94440376799E+01  0.23113025846E+03 -0.80070945104E+03  0.83345426462E+03  0.25500000920E-02 0.  1.
       -2    1    3    3    0  502  0.94440376799E+01 -0.23113025846E+03  0.63352448410E+03  0.67443580732E+03  0.25500000920E-02 0. -1.
</event>
<event>
 5   0  0.1443750E-04  0.1497338E+04  0.7818609E-02  0.8886225E-01
        1   -1    0    0  501    0  0.00000000000E+00  0.00000000000E+00  0.10435619287E+04  0.10435619287E+04  0.50400001928E-02 0.  1.
       -1   -1    0    0    0  501  0.00000000000E+00  0.00000000000E+00 -0.53710775815E+03  0.53710775818E+03  0.50400001928E-02 0. -1.
    10030    2    1    2    0    0  0.00000000000E+00  0.00000000000E+00  0.50645417054E+03  0.15806696869E+04  0.14973379152E+04 0.  0.
        2    1    3    3  502    0  0.35345765866E+03 -0.28346893520E+03 -0.37594426827E+03  0.58874531552E+03  0.25500000920E-02 0. -1.
       -2    1    3    3    0  502 -0.35345765866E+03  0.28346893520E+03  0.88239843881E+03  0.99192437136E+03  0.25500000920E-02 0.  1.
</event>
<event>
 5   0  0.2641347E-04  0.1489764E+04  0.7818609E-02  0.8891288E-01
        2   -1    0    0  501    0  0.00000000000E+00  0.00000000000E+00  0.69842735968E+03  0.69842735968E+03  0.25500000920E-02 0.  1.
       -2   -1    0    0    0  501  0.00000000000E+00  0.00000000000E+00 -0.79442652443E+03  0.79442652443E+03  0.25500000920E-02 0. -1.
    10030    2    1    2    0    0  0.00000000000E+00  0.00000000000E+00 -0.95999164749E+02  0.14928538841E+04  0.14897640349E+04 0.  0.
        4    1    3    3  502    0  0.10889730244E+03  0.57190097528E+03  0.41763422176E+03  0.71648398732E+03  0.12699999809E+01 0.  1.
       -4    1    3    3    0  502 -0.10889730244E+03 -0.57190097528E+03 -0.51363338651E+03  0.77636989679E+03  0.12699999809E+01 0. -1.
</event>
<event>
 5   0  0.1427609E-04  0.1503102E+04  0.7818609E-02  0.8882393E-01
        1   -1    0    0  501    0  0.00000000000E+00  0.00000000000E+00  0.48811112579E+03  0.48811112581E+03  0.50400001928E-02 0.  1.
       -1   -1    0    0    0  501  0.00000000000E+00  0.00000000000E+00 -0.11571731274E+04  0.11571731274E+04  0.50400001928E-02 0. -1.
    10030    2    1    2    0    0  0.00000000000E+00  0.00000000000E+00 -0.66906200157E+03  0.16452842532E+04  0.15031022293E+04 0.  0.
        4    1    3    3  502    0 -0.42805880221E+03 -0.93812734984E+02 -0.10028532008E+04  0.10944182577E+04  0.12699999809E+01 0. -1.
       -4    1    3    3    0  502  0.42805880221E+03  0.93812734984E+02  0.33379119927E+03  0.55086599551E+03  0.12699999809E+01 0.  1.
</event>
<event>
 5   0  0.1426929E-04  0.1500857E+04  0.7818609E-02  0.8883883E-01
       -1   -1    0    0    0  501  0.00000000000E+00  0.00000000000E+00  0.91128005567E+03  0.91128005568E+03  0.50400001928E-02 0. -1.
        1   -1    0    0  501    0  0.00000000000E+00  0.00000000000E+00 -0.61796925519E+03  0.61796925521E+03  0.50400001928E-02 0.  1.
    10030    2    1    2    0    0  0.00000000000E+00  0.00000000000E+00  0.29331080048E+03  0.15292493109E+04  0.15008571648E+04 0.  0.
        1    1    3    3  502    0  0.43410466281E+03 -0.59059306230E+03  0.31062206281E+03  0.79607354525E+03  0.50400001928E-02 0. -1.
       -1    1    3    3    0  502 -0.43410466281E+03  0.59059306230E+03 -0.17311262334E+02  0.73317576565E+03  0.50400001928E-02 0.  1.
</event>
<event>
 5   0  0.2734072E-04  0.1501936E+04  0.7818609E-02  0.8883166E-01
       -2   -1    0    0    0  501  0.00000000000E+00  0.00000000000E+00  0.35547320752E+03  0.35547320752E+03  0.25500000920E-02 0. -1.
        2   -1    0    0  501    0  0.00000000000E+00  0.00000000000E+00 -0.15864857684E+04  0.15864857684E+04  0.25500000920E-02 0.  1.
    10030    2    1    2    0    0  0.00000000000E+00  0.00000000000E+00 -0.12310125609E+04  0.19419589759E+04  0.15019363299E+04 0.  0.
        5    1    3    3  502    0 -0.11074317710E+03 -0.53520634908E+02 -0.15733542940E+04  0.15781616946E+04  0.46999998093E+01 0.  1.
       -5    1    3    3    0  502  0.11074317710E+03  0.53520634908E+02  0.34234173318E+03  0.36379728134E+03  0.46999998093E+01 0. -1.
</event>
<event>
 5   0  0.2618901E-04  0.1501580E+04  0.7818609E-02  0.8883403E-01
        2   -1    0    0  501    0  0.00000000000E+00  0.00000000000E+00  0.10316321509E+04  0.10316321509E+04  0.25500000920E-02 0.  1.
       -2   -1    0    0    0  501  0.00000000000E+00  0.00000000000E+00 -0.54640150469E+03  0.54640150470E+03  0.25500000920E-02 0. -1.
    10030    2    1    2    0    0  0.00000000000E+00  0.00000000000E+00  0.48523064621E+03  0.15780336556E+04  0.15015796476E+04 0.  0.
        1    1    3    3  502    0 -0.37209862426E+03 -0.41402927826E+03  0.77205966412E+03  0.95181602972E+03  0.50400001928E-02 0. -1.
       -1    1    3    3    0  502  0.37209862426E+03  0.41402927826E+03 -0.28682901791E+03  0.62621762589E+03  0.50400001928E-02 0.  1.
</event>
<event>
 5   0  0.2618901E-04  0.1498394E+04  0.7818609E-02  0.8885522E-01
        2   -1    0    0  501    0  0.00000000000E+00  0.00000000000E+00  0.86317001316E+03  0.86317001317E+03  0.25500000920E-02 0.  1.
       -2   -1    0    0    0  501  0.00000000000E+00  0.00000000000E+00 -0.65027302221E+03  0.65027302221E+03  0.25500000920E-02 0. -1.
    10030    2    1    2    0    0  0.00000000000E+00  0.00000000000E+00  0.21289699096E+03  0.15134430354E+04  0.14983940378E+04 0.  0.
        1    1    3    3  502    0 -0.34502788142E+03 -0.26405889277E+02  0.77761810069E+03  0.85113537142E+03  0.50400001928E-02 0.  1.
       -1    1    3    3    0  502  0.34502788142E+03  0.26405889277E+02 -0.56472110973E+03  0.66230766396E+03  0.50400001928E-02 0. -1.
</event>
<event>
 5   0  0.1474203E-04  0.1503097E+04  0.7818609E-02  0.8882396E-01
        1   -1    0    0  501    0  0.00000000000E+00  0.00000000000E+00  0.81349244277E+03  0.81349244278E+03  0.50400001928E-02 0. -1.
       -1   -1    0    0    0  501  0.00000000000E+00  0.00000000000E+00 -0.69432121440E+03  0.69432121442E+03  0.50400001928E-02 0.  1.
    10030    2    1    2    0    0  0.00000000000E+00  0.00000000000E+00  0.11917122837E+03  0.15078136572E+04  0.15030968842E+04 0.  0.
        3    1    3    3  502    0  0.32728372356E+03  0.52096699448E+03  0.49256932803E+03  0.78812803412E+03  0.10100000352E+00 0. -1.
       -3    1    3    3    0  502 -0.32728372356E+03 -0.52096699448E+03 -0.37339809966E+03  0.71968562309E+03  0.10100000352E+00 0.  1.
</event>
<event>
 5   0  0.2734072E-04  0.1493493E+04  0.7818609E-02  0.8888791E-01
        2   -1    0    0  501    0  0.00000000000E+00  0.00000000000E+00  0.63423845741E+03  0.63423845741E+03  0.25500000920E-02 0. -1.
       -2   -1    0    0    0  501  0.00000000000E+00  0.00000000000E+00 -0.87921274117E+03  0.87921274118E+03  0.25500000920E-02 0.  1.
    10030    2    1    2    0    0  0.00000000000E+00  0.00000000000E+00 -0.24497428377E+03  0.15134511986E+04  0.14934932644E+04 0.  0.
        5    1    3    3  502    0 -0.68764984039E+03  0.26533569742E+03 -0.24385027462E+03  0.77637000312E+03  0.46999998093E+01 0. -1.
       -5    1    3    3    0  502  0.68764984039E+03 -0.26533569742E+03 -0.11240091437E+01  0.73708119547E+03  0.46999998093E+01 0.  1.
</event>
<event>
 5   0  0.2696040E-04  0.1500783E+04  0.7818609E-02  0.8883933E-01
       -2   -1    0    0    0  501  0.00000000000E+00  0.00000000000E+00  0.59199741111E+03  0.59199741111E+03  0.25500000920E-02 0. -1.
        2   -1    0    0  501    0  0.00000000000E+00  0.00000000000E+00 -0.95116503439E+03  0.95116503440E+03  0.25500000920E-02 0.  1.
    10030    2    1    2    0    0  0.00000000000E+00  0.00000000000E+00 -0.35916762329E+03  0.15431624455E+04  0.15007827796E+04 0.  0.
        2    1    3    3  502    0  0.13298114706E+03 -0.19182385696E+03  0.55372164188E+03  0.60090601118E+03  0.25500000920E-02 0. -1.
       -2    1    3    3    0  502 -0.13298114706E+03  0.19182385696E+03 -0.91288926517E+03  0.94225643433E+03  0.25500000920E-02 0.  1.
</event>
<event>
 5   0  0.1484251E-04  0.1495976E+04  0.7818609E-02  0.8887133E-01
       -1   -1    0    0    0  501  0.00000000000E+00  0.00000000000E+00  0.58279578891E+03  0.58279578893E+03  0.50400001928E-02 0. -1.
        1   -1    0    0  501    0  0.00000000000E+00  0.00000000000E+00 -0.96000415604E+03  0.96000415606E+03  0.50400001928E-02 0.  1.
    10030    2    1    2    0    0  0.00000000000E+00  0.00000000000E+00 -0.37720836713E+03  0.15427999450E+04  0.14959764430E+04 0.  0.
        5    1    3    3  502    0 -0.60266734679E+03  0.11817592194E+03 -0.62892300257E+03  0.87905614870E+03  0.46999998093E+01 0.  1.
       -5    1    3    3    0  502  0.60266734679E+03 -0.11817592194E+03  0.25171463543E+03  0.66374379628E+03  0.46999998093E+01 0. -1.
</event>
<event>
 5   0  0.2618901E-04  0.1513535E+04  0.7818609E-02  0.8875502E-01
       -2   -1    0    0    0  501  0.00000000000E+00  0.00000000000E+00  0.47537951844E+03  0.47537951845E+03  0.25500000920E-02 0.  1.
        2   -1    0    0  501    0  0.00000000000E+00  0.00000000000E+00 -0.12047157903E+04  0.12047157903E+04  0.25500000920E-02 0. -1.
    10030    2    1    2    0    0  0.00000000000E+00  0.00000000000E+00 -0.72933627187E+03  0.16800953088E+04  0.15135352157E+04 0.  0.
        1    1    3    3  502    0  0.61230705864E+03  0.37060878466E+03 -0.63753749728E+03  0.95850136452E+03  0.50400001928E-02 0. -1.
       -1    1    3    3    0  502 -0.61230705864E+03 -0.37060878466E+03 -0.91798774589E+02  0.72159394424E+03  0.50400001928E-02 0.  1.
</event>
<event>
 5   0  0.2641347E-04  0.1491797E+04  0.7818609E-02  0.8889926E-01
       -2   -1    0    0    0  501  0.00000000000E+00  0.00000000000E+00  0.26779808040E+03  0.26779808042E+03  0.25500000920E-02 0.  1.
        2   -1    0    0  501    0  0.00000000000E+00  0.00000000000E+00 -0.20775536390E+04  0.20775536390E+04  0.25500000920E-02 0. -1.
    10030    2    1    2    0    0  0.00000000000E+00  0.00000000000E+00 -0.18097555586E+04  0.23453517194E+04  0.14917974078E+04 0.  0.
        4    1    3    3  502    0 -0.39191414653E+02  0.35560861498E+03 -0.19338592637E+04  0.19666740246E+04  0.12699999809E+01 0. -1.
       -4    1    3    3    0  502  0.39191414653E+02 -0.35560861498E+03  0.12410370516E+03  0.37867769484E+03  0.12699999809E+01 0.  1.
</event>
<event>
 5   0  0.2618901E-04  0.1507118E+04  0.7818609E-02  0.8879733E-01
       -2   -1    0    0    0  501  0.00000000000E+00  0.00000000000E+00  0.35410156256E+03  0.35410156257E+03  0.25500000920E-02 0.  1.
        2   -1    0    0  501    0  0.00000000000E+00  0.00000000000E+00 -0.16036389906E+04  0.16036389906E+04  0.25500000920E-02 0. -1.
    10030    2    1    2    0    0  0.00000000000E+00  0.00000000000E+00 -0.12495374281E+04  0.19577405532E+04  0.15071178751E+04 0.  0.
        1    1    3    3  502    0 -0.44727119768E+03 -0.19221575772E+03  0.12241126336E+03  0.50197902268E+03  0.50400001928E-02 0.  1.
       -1    1    3    3    0  502  0.44727119768E+03  0.19221575772E+03 -0.13719486914E+04  0.14557615305E+04  0.50400001928E-02 0. -1.
</event>
<event>
 5   0  0.2696040E-04  0.1508552E+04  0.7818609E-02  0.8878786E-01
        2   -1    0    0  501    0  0.00000000000E+00  0.00000000000E+00  0.34784867700E+03  0.34784867701E+03  0.25500000920E-02 0. -1.
       -2   -1    0    0    0  501  0.00000000000E+00  0.00000000000E+00 -0.16355747734E+04  0.16355747734E+04  0.25500000920E-02 0.  1.
    10030    2    1    2    0    0  0.00000000000E+00  0.00000000000E+00 -0.12877260964E+04  0.19834234504E+04  0.15085523141E+04 0.  0.
        2    1    3    3  502    0  0.27546258876E+03  0.69398630578E+03 -0.50326151211E+03  0.90042699870E+03  0.25500000920E-02 0. -1.
       -2    1    3    3    0  502 -0.27546258876E+03 -0.69398630578E+03 -0.78446458434E+03  0.10829964517E+04  0.25500000920E-02 0.  1.
</event>
<event>
 5   0  0.1443750E-04  0.1494384E+04  0.7818609E-02  0.8888196E-01
       -1   -1    0    0    0  501  0.00000000000E+00  0.00000000000E+00  0.49527198925E+03  0.49527198928E+03  0.50400001928E-02 0.  1.
        1   -1    0    0  501    0  0.00000000000E+00  0.00000000000E+00 -0.11272515400E+04  0.11272515400E+04  0.50400001928E-02 0. -1.
    10030    2    1    2    0    0  0.00000000000E+00  0.00000000000E+00 -0.63197955072E+03  0.16225235293E+04  0.14943843048E+04 0.  0.
        2    1    3    3  502    0 -0.27198555448E+03 -0.63020316231E+03  0.45612311211E+01  0.68640583656E+03  0.25500000920E-02 0.  1.
       -2    1    3    3    0  502  0.27198555448E+03  0.63020316231E+03 -0.63654078184E+03  0.93611769270E+03  0.25500000920E-02 0. -1.
</event>
<event>
 5   0  0.1443750E-04  0.1502453E+04  0.7818609E-02  0.8882823E-01
       -1   -1    0    0    0  501  0.00000000000E+00  0.00000000000E+00  0.46386073464E+03  0.46386073466E+03  0.50400001928E-02 0. -1.
        1   -1    0    0  501    0  0.00000000000E+00  0.00000000000E+00 -0.12166175304E+04  0.12166175304E+04  0.50400001928E-02 0.  1.
    10030    2    1    2    0    0  0.00000000000E+00  0.00000000000E+00 -0.75275679580E+03  0.16804782651E+04  0.15024527966E+04 0.  0.
        2    1    3    3  502    0 -0.28801095883E+03 -0.49590336742E+03 -0.91912916355E+03  0.10833599963E+04  0.25500000920E-02 0.  1.
       -2    1    3    3    0  502  0.28801095883E+03  0.49590336742E+03  0.16637236775E+03  0.59711826884E+03  0.25500000920E-02 0. -1.
</event>
<event>
 5   0  0.2618901E-04  0.1495642E+04  0.7818609E-02  0.8887356E-01
       -2   -1    0    0    0  501  0.00000000000E+00  0.00000000000E+00  0.41205510656E+03  0.41205510657E+03  0.25500000920E-02 0.  1.
        2   -1    0    0  501    0  0.00000000000E+00  0.00000000000E+00 -0.13571885497E+04  0.13571885497E+04  0.25500000920E-02 0. -1.
    10030    2    1    2    0    0  0.00000000000E+00  0.00000000000E+00 -0.94513344317E+03  0.17692436563E+04  0.14956423001E+04 0.  0.
        1    1    3    3  502    0 -0.14468841507E+01 -0.54264874122E+03 -0.10812503312E+04  0.12097818104E+04  0.50400001928E-02 0. -1.
       -1    1    3    3    0  502  0.14468841507E+01  0.54264874122E+03  0.13611688808E+03  0.55946184594E+03  0.50400001928E-02 0.  1.
</event>
<event>
 5   0  0.1426929E-04  0.1489546E+04  0.7818609E-02  0.8891434E-01
       -1   -1    0    0    0  501  0.00000000000E+00  0.00000000000E+00  0.71060742094E+03  0.71060742095E+03  0.50400001928E-02 0.  1.
        1   -1    0    0  501    0  0.00000000000E+00  0.00000000000E+00 -0.78058168749E+03  0.78058168751E+03  0.50400001928E-02 0. -1.
    10030    2    1    2    0    0  0.00000000000E+00  0.00000000000E+00 -0.69974266559E+02  0.14911891085E+04  0.14895464273E+04 0.  0.
        1    1    3    3  502    0  0.28370356006E+03 -0.40989891327E+03 -0.58893478658E+03  0.77158862871E+03  0.50400001928E-02 0. -1.
       -1    1    3    3    0  502 -0.28370356006E+03  0.40989891327E+03  0.51896052002E+03  0.71960047975E+03  0.50400001928E-02 0.  1.
</event>
<event>
 5   0  0.1484251E-04  0.1514912E+04  0.7818609E-02  0.8874597E-01
       -1   -1    0    0    0  501  0.00000000000E+00  0.00000000000E+00  0.46354106222E+03  0.46354106224E+03  0.50400001928E-02 0.  1.
        1   -1    0    0  501    0  0.00000000000E+00  0.00000000000E+00 -0.12377315736E+04  0.12377315736E+04  0.50400001928E-02 0. -1.
    10030    2    1    2    0    0  0.00000000000E+00  0.00000000000E+00 -0.77419051141E+03  0.17012726359E+04  0.15149117577E+04 0.  0.
        5    1    3    3  502    0 -0.75465980721E+03  0.52710213446E+02 -0.34466469474E+03  0.83132763278E+03  0.46999998093E+01 0.  1.
       -5    1    3    3    0  502  0.75465980721E+03 -0.52710213446E+02 -0.42952581666E+03  0.86994500309E+03  0.46999998093E+01 0. -1.
</event>
<event>
 5   0  0.2618901E-04  0.1499814E+04  0.7818609E-02  0.8884577E-01
       -2   -1    0    0    0  501  0.00000000000E+00  0.00000000000E+00  0.20988999023E+03  0.20988999024E+03  0.25500000920E-02 0.  1.
        2   -1    0    0  501    0  0.00000000000E+00  0.00000000000E+00 -0.26793100812E+04  0.26793100812E+04  0.25500000920E-02 0. -1.
    10030    2    1    2    0    0  0.00000000000E+00  0.00000000000E+00 -0.24694200910E+04  0.28892000715E+04  0.14998138108E+04 0.  0.
        1    1    3    3  502    0  0.36041096278E+03  0.19489996791E+03 -0.24803485523E+02  0.41048419275E+03  0.50400001928E-02 0.  1.
       -1    1    3    3    0  502 -0.36041096278E+03 -0.19489996791E+03 -0.24446166055E+04  0.24787158787E+04  0.50400001928E-02 0. -1.
</event>
<event>
 5   0  0.1427609E-04  0.1492266E+04  0.7818609E-02  0.8889612E-01
       -1   -1    0    0    0  501  0.00000000000E+00  0.00000000000E+00  0.35443044986E+03  0.35443044990E+03  0.50400001928E-02 0.  1.
        1   -1    0    0  501    0  0.00000000000E+00  0.00000000000E+00 -0.15707301091E+04  0.15707301091E+04  0.50400001928E-02 0. -1.
    10030    2    1    2    0    0  0.00000000000E+00  0.00000000000E+00 -0.12162996592E+04  0.19251605590E+04  0.14922661682E+04 0.  0.
        4    1    3    3  502    0  0.65611652285E+03 -0.35363504503E+03 -0.56409116564E+03  0.93474439966E+03  0.12699999809E+01 0. -1.
       -4    1    3    3    0  502 -0.65611652285E+03  0.35363504503E+03 -0.65220849355E+03  0.99041615930E+03  0.12699999809E+01 0.  1.
</event>
<event>
 5   0  0.2696040E-04  0.1497528E+04  0.7818609E-02  0.8886099E-01
       -2   -1    0    0    0  501  0.00000000000E+00  0.00000000000E+00  0.77971645517E+03  0.77971645517E+03  0.25500000920E-02 0. -1.
        2   -1    0    0  501    0  0.00000000000E+00  0.00000000000E+00 -0.71903985718E+03  0.71903985719E+03  0.25500000920E-02 0.  1.
    10030    2    1    2    0    0  0.00000000000E+00  0.00000000000E+00  0.60676597982E+02  0.14987563124E+04  0.14975275738E+04 0.  0.
        2    1    3    3  502    0  0.32358657635E+03 -0.46088082158E+03  0.52422857339E+03  0.76937312226E+03  0.25500000920E-02 0. -1.
       -2    1    3    3    0  502 -0.32358657635E+03  0.46088082158E+03 -0.46355197541E+03  0.72938319010E+03  0.25500000920E-02 0.  1.
</event>
<event>
 5   0  0.1427609E-04  0.1496599E+04  0.7818609E-02  0.8886718E-01
        1   -1    0    0  501    0  0.00000000000E+00  0.00000000000E+00  0.42306214169E+03  0.42306214172E+03  0.50400001928E-02 0. -1.
       -1   -1    0    0    0  501  0.00000000000E+00  0.00000000000E+00 -0.13235699171E+04  0.13235699171E+04  0.50400001928E-02 0.  1.
    10030    2    1    2    0    0  0.00000000000E+00  0.00000000000E+00 -0.90050777545E+03  0.17466320589E+04  0.14965992434E+04 0.  0.
        4    1    3    3  502    0 -0.61462826781E+03 -0.29939201723E+03 -0.95213627966E+02  0.69026859658E+03  0.12699999809E+01 0. -1.
       -4    1    3    3    0  502  0.61462826781E+03  0.29939201723E+03 -0.80529414748E+03  0.10563634623E+04  0.12699999809E+01 0.  1.
</event>
<event>
 5   0  0.1426929E-04  0.1488128E+04  0.7818609E-02  0.8892386E-01
        1   -1    0    0  501    0  0.00000000000E+00  0.00000000000E+00  0.77537816010E+03  0.77537816012E+03  0.50400001928E-02 0. -1.
       -1   -1    0    0    0  501  0.00000000000E+00  0.00000000000E+00 -0.71401480578E+03  0.71401480580E+03  0.50400001928E-02 0.  1.
    10030    2    1    2    0    0  0.00000000000E+00  0.00000000000E+00  0.61363354323E+02  0.14893929659E+04  0.14881283364E+04 0.  0.
        1    1    3    3  502    0  0.10493245349E+03 -0.25133133518E+03 -0.66233236536E+03  0.71614413498E+03  0.50400001928E-02 0.  1.
       -1    1    3    3    0  502 -0.10493245349E+03  0.25133133518E+03  0.72369571968E+03  0.77324883094E+03  0.50400001928E-02 0. -1.
</event>
<event>
 5   0  0.2734072E-04  0.1505212E+04  0.7818609E-02  0.8880994E-01
        2   -1    0    0  501    0  0.00000000000E+00  0.00000000000E+00  0.32136337997E+03  0.32136337998E+03  0.25500000920E-02 0.  1.
       -2   -1    0    0    0  501  0.00000000000E+00  0.00000000000E+00 -0.17625404817E+04  0.17625404817E+04  0.25500000920E-02 0. -1.
    10030    2    1    2    0    0  0.00000000000E+00  0.00000000000E+00 -0.14411771017E+04  0.20839038616E+04  0.15052122329E+04 0.  0.
        5    1    3    3  502    0 -0.52111164140E+03  0.43522440270E+03 -0.27108437780E+03  0.73108580440E+03  0.46999998093E+01 0.  1.
       -5    1    3    3    0  502  0.52111164140E+03 -0.43522440270E+03 -0.11700927239E+04  0.13528180573E+04  0.46999998093E+01 0. -1.
</event>
<event>
 5   0  0.1474203E-04  0.1498323E+04  0.7818609E-02  0.8885569E-01
        1   -1    0    0  501    0  0.00000000000E+00  0.00000000000E+00  0.43991558147E+03  0.43991558150E+03  0.50400001928E-02 0. -1.
       -1   -1    0    0    0  501  0.00000000000E+00  0.00000000000E+00 -0.12757965700E+04  0.12757965700E+04  0.50400001928E-02 0.  1.
    10030    2    1    2    0    0  0.00000000000E+00  0.00000000000E+00 -0.83588098853E+03  0.17157121515E+04  0.14983227823E+04 0.  0.
        3    1    3    3  502    0  0.34298738102E+03 -0.39015267724E+03  0.20017750643E+03  0.55671401938E+03  0.10100000352E+00 0. -1.
       -3    1    3    3    0  502 -0.34298738102E+03  0.39015267724E+03 -0.10360584950E+04  0.11589981321E+04  0.10100000352E+00 0.  1.
</event>
<event>
 5   0  0.1474203E-04  0.1504591E+04  0.7818609E-02  0.8881406E-01
        1   -1    0    0  501    0  0.00000000000E+00  0.00000000000E+00  0.74416625848E+03  0.74416625849E+03  0.50400001928E-02 0. -1.
       -1   -1    0    0    0  501  0.00000000000E+00  0.00000000000E+00 -0.76051351988E+03  0.76051351990E+03  0.50400001928E-02 0.  1.
    10030    2    1    2    0    0  0.00000000000E+00  0.00000000000E+00 -0.16347261406E+02  0.15046797784E+04  0.15045909752E+04 0.  0.
        3    1    3    3  502    0 -0.48873841019E+03  0.12873989869E+03  0.54909286736E+03  0.74628559030E+03  0.10100000352E+00 0. -1.
       -3    1    3    3    0  502  0.48873841019E+03 -0.12873989869E+03 -0.56544012876E+03  0.75839418809E+03  0.10100000352E+00 0.  1.
</event>
<event>
 5   0  0.2696040E-04  0.1498147E+04  0.7818609E-02  0.8885686E-01
       -2   -1    0    0    0  501  0.00000000000E+00  0.00000000000E+00  0.10288545729E+04  0.10288545729E+04  0.25500000920E-02 0.  1.
        2   -1    0    0  501    0  0.00000000000E+00  0.00000000000E+00 -0.54537463152E+03  0.54537463152E+03  0.25500000920E-02 0. -1.
    10030    2    1    2    0    0  0.00000000000E+00  0.00000000000E+00  0.48347994140E+03  0.15742292044E+04  0.14981471004E+04 0.  0.
        2    1    3    3  502    0 -0.47859404001E+03  0.39747611465E+03  0.68014704229E+03  0.92175892510E+03  0.25500000920E-02 0.  1.
       -2    1    3    3    0  502  0.47859404001E+03 -0.39747611465E+03 -0.19666710089E+03  0.65247027935E+03  0.25500000920E-02 0. -1.
</event>
<event>
 5   0  0.2641347E-04  0.1539232E+04  0.7818609E-02  0.8858775E-01
        2   -1    0    0  501    0  0.00000000000E+00  0.00000000000E+00  0.13553821403E+04  0.13553821403E+04  0.25500000920E-02 0. -1.
       -2   -1    0    0    0  501  0.00000000000E+00  0.00000000000E+00 -0.43700513837E+03  0.43700513838E+03  0.25500000920E-02 0.  1.
    10030    2    1    2    0    0  0.00000000000E+00  0.00000000000E+00  0.91837700197E+03  0.17923872787E+04  0.15392322239E+04 0.  0.
        4    1    3    3  502    0  0.33792255394E+03  0.64364123939E+03  0.16496337635E+03  0.74543961925E+03  0.12699999809E+01 0. -1.
       -4    1    3    3    0  502 -0.33792255394E+03 -0.64364123939E+03  0.75341362562E+03  0.10469476595E+04  0.12699999809E+01 0.  1.
</event>
<event>
 5   0  0.1474203E-04  0.1499762E+04  0.7818609E-02  0.8884611E-01
       -1   -1    0    0    0  501  0.00000000000E+00  0.00000000000E+00  0.77159534649E+03  0.77159534651E+03  0.50400001928E-02 0.  1.
        1   -1    0    0  501    0  0.00000000000E+00  0.00000000000E+00 -0.72877807451E+03  0.72877807452E+03  0.50400001928E-02 0. -1.
    10030    2    1    2    0    0  0.00000000000E+00  0.00000000000E+00  0.42817271986E+02  0.15003734210E+04  0.14997623424E+04 0.  0.
        3    1    3    3  502    0  0.37097692474E+03 -0.19855513995E+03 -0.59954849796E+03  0.73246599504E+03  0.10100000352E+00 0. -1.
       -3    1    3    3    0  502 -0.37097692474E+03  0.19855513995E+03  0.64236576995E+03  0.76790742599E+03  0.10100000352E+00 0.  1.
</event>
<event>
 5   0  0.2696040E-04  0.1496866E+04  0.7818609E-02  0.8886539E-01
        2   -1    0    0  501    0  0.00000000000E+00  0.00000000000E+00  0.14447915530E+04  0.14447915530E+04  0.25500000920E-02 0. -1.
       -2   -1    0    0    0  501  0.00000000000E+00  0.00000000000E+00 -0.38770458471E+03  0.38770458472E+03  0.25500000920E-02 0.  1.
    10030    2    1    2    0    0  0.00000000000E+00  0.00000000000E+00  0.10570869683E+04  0.18324961377E+04  0.14968664724E+04 0.  0.
        2    1    3    3  502    0 -0.13912052645E+03  0.73522335584E+03  0.50940466144E+03  0.90520771813E+03  0.25500000920E-02 0.  1.
       -2    1    3    3    0  502  0.13912052645E+03 -0.73522335584E+03  0.54768230684E+03  0.92728841958E+03  0.25500000920E-02 0. -1.
</event>
<event>
 5   0  0.2641347E-04  0.1506997E+04  0.7818609E-02  0.8879813E-01
        2   -1    0    0  501    0  0.00000000000E+00  0.00000000000E+00  0.13767660517E+04  0.13767660517E+04  0.25500000920E-02 0.  1.
       -2   -1    0    0    0  501  0.00000000000E+00  0.00000000000E+00 -0.41238666061E+03  0.41238666062E+03  0.25500000920E-02 0. -1.
    10030    2    1    2    0    0  0.00000000000E+00  0.00000000000E+00  0.96437939108E+03  0.17891527123E+04  0.15069969536E+04 0.  0.
        4    1    3    3  502    0 -0.21074911664E+03  0.57499810454E+03  0.10033829707E+04  0.11755071285E+04  0.12699999809E+01 0.  1.
       -4    1    3    3    0  502  0.21074911664E+03 -0.57499810454E+03 -0.39003579625E+02  0.61364558380E+03  0.12699999809E+01 0. -1.
</event>
<event>
 5   0  0.2646718E-04  0.1491976E+04  0.7818609E-02  0.8889806E-01
       -2   -1    0    0    0  501  0.00000000000E+00  0.00000000000E+00  0.55663072411E+03  0.55663072412E+03  0.25500000920E-02 0. -1.
        2   -1    0    0  501    0  0.00000000000E+00  0.00000000000E+00 -0.99976182511E+03  0.99976182511E+03  0.25500000920E-02 0.  1.
    10030    2    1    2    0    0  0.00000000000E+00  0.00000000000E+00 -0.44313110099E+03  0.15563925492E+04  0.14919760704E+04 0.  0.
        3    1    3    3  502    0  0.42601582123E+03  0.22385088107E+03  0.37304384590E+03  0.60890099200E+03  0.10100000352E+00 0. -1.
       -3    1    3    3    0  502 -0.42601582123E+03 -0.22385088107E+03 -0.81617494689E+03  0.94749155723E+03  0.10100000352E+00 0.  1.
</event>
<event>
 5   0  0.1474203E-04  0.1423698E+04  0.7818609E-02  0.8936841E-01
       -1   -1    0    0    0  501  0.00000000000E+00  0.00000000000E+00  0.91843509699E+03  0.91843509701E+03  0.50400001928E-02 0.  1.
        1   -1    0    0  501    0  0.00000000000E+00  0.00000000000E+00 -0.55173075029E+03  0.55173075031E+03  0.50400001928E-02 0. -1.
    10030    2    1    2    0    0  0.00000000000E+00  0.00000000000E+00  0.36670434671E+03  0.14701658473E+04  0.14236978404E+04 0.  0.
        3    1    3    3  502    0 -0.40309031395E+03  0.39535842123E+03  0.63102086203E+03  0.84674519246E+03  0.10100000352E+00 0.  1.
       -3    1    3    3    0  502  0.40309031395E+03 -0.39535842123E+03 -0.26431651532E+03  0.62342065486E+03  0.10100000352E+00 0. -1.
</event>
<event>
 5   0  0.2696040E-04  0.1499539E+04  0.7818609E-02  0.8884759E-01
        2   -1    0    0  501    0  0.00000000000E+00  0.00000000000E+00  0.72603124266E+03  0.72603124267E+03  0.25500000920E-02 0.  1.
       -2   -1    0    0    0  501  0.00000000000E+00  0.00000000000E+00 -0.77428432305E+03  0.77428432305E+03  0.25500000920E-02 0. -1.
    10030    2    1    2    0    0  0.00000000000E+00  0.00000000000E+00 -0.48253080383E+02  0.15003155657E+04  0.14995394083E+04 0.  0.
        2    1    3    3  502    0  0.15390246196E+03 -0.17255689421E+03 -0.73772270884E+03  0.77310843009E+03  0.25500000920E-02 0. -1.
       -2    1    3    3    0  502 -0.15390246196E+03  0.17255689421E+03  0.68946962846E+03  0.72720713563E+03  0.25500000920E-02 0.  1.
</event>
<event>
 5   0  0.1484251E-04  0.1498779E+04  0.7818609E-02  0.8885265E-01
        1   -1    0    0  501    0  0.00000000000E+00  0.00000000000E+00  0.82396173830E+03  0.82396173831E+03  0.50400001928E-02 0.  1.
       -1   -1    0    0    0  501  0.00000000000E+00  0.00000000000E+00 -0.68156635365E+03  0.68156635367E+03  0.50400001928E-02 0. -1.
    10030    2    1    2    0    0  0.00000000000E+00  0.00000000000E+00  0.14239538464E+03  0.15055280920E+04  0.14987789664E+04 0.  0.
        5    1    3    3  502    0 -0.52616527470E+03 -0.48474795275E+03  0.29520871197E+03  0.77395138582E+03  0.46999998093E+01 0.  1.
       -5    1    3    3    0  502  0.52616527470E+03  0.48474795275E+03 -0.15281332733E+03  0.73157670616E+03  0.46999998093E+01 0. -1.
</event>
<event>
 5   0  0.1427609E-04  0.1496424E+04  0.7818609E-02  0.8886835E-01
        1   -1    0    0  501    0  0.00000000000E+00  0.00000000000E+00  0.12852332103E+04  0.12852332103E+04  0.50400001928E-02 0.  1.
       -1   -1    0    0    0  501  0.00000000000E+00  0.00000000000E+00 -0.43557922798E+03  0.43557922801E+03  0.50400001928E-02 0. -1.
    10030    2    1    2    0    0  0.00000000000E+00  0.00000000000E+00  0.84965398228E+03  0.17208124383E+04  0.14964235891E+04 0.  0.
        4    1    3    3  502    0  0.22912374758E+03 -0.66068773536E+03  0.11881643259E+03  0.70931300066E+03  0.12699999809E+01 0. -1.
       -4    1    3    3    0  502 -0.22912374758E+03  0.66068773536E+03  0.73083754968E+03  0.10114994376E+04  0.12699999809E+01 0.  1.
</event>
<event>
 5   0  0.2696040E-04  0.1501587E+04  0.7818609E-02  0.8883398E-01
        2   -1    0    0  501    0  0.00000000000E+00  0.00000000000E+00  0.78911927953E+03  0.78911927954E+03  0.25500000920E-02 0.  1.
       -2   -1    0    0    0  501  0.00000000000E+00  0.00000000000E+00 -0.71432928257E+03  0.71432928258E+03  0.25500000920E-02 0. -1.
    10030    2    1    2    0    0  0.00000000000E+00  0.00000000000E+00  0.74789996962E+02  0.15034485621E+04  0.15015871721E+04 0.  0.
        2    1    3    3  502    0  0.40753919664E+03 -0.39060917829E+03  0.53301091569E+03  0.77637900745E+03  0.25500000920E-02 0.  1.
       -2    1    3    3    0  502 -0.40753919664E+03  0.39060917829E+03 -0.45822091872E+03  0.72706955467E+03  0.25500000920E-02 0. -1.
</event>
<event>
 5   0  0.1484251E-04  0.1504511E+04  0.7818609E-02  0.8881459E-01
        1   -1    0    0  501    0  0.00000000000E+00  0.00000000000E+00  0.19861647544E+04  0.19861647544E+04  0.50400001928E-02 0.  1.
       -1   -1    0    0    0  501  0.00000000000E+00  0.00000000000E+00 -0.28491513487E+03  0.28491513491E+03  0.50400001928E-02 0. -1.
    10030    2    1    2    0    0  0.00000000000E+00  0.00000000000E+00  0.17012496196E+04  0.22710798893E+04  0.15045110820E+04 0.  0.
        5    1    3    3  502    0  0.57514804112E+03 -0.36138565328E+03  0.36271917873E+03  0.77005334374E+03  0.46999998093E+01 0. -1.
       -5    1    3    3    0  502 -0.57514804112E+03  0.36138565328E+03  0.13385304408E+04  0.15010265456E+04  0.46999998093E+01 0.  1.
</event>
<event>
 5   0  0.1474203E-04  0.1497208E+04  0.7818609E-02  0.8886312E-01
        1   -1    0    0  501    0  0.00000000000E+00  0.00000000000E+00  0.66715489814E+03  0.66715489816E+03  0.50400001928E-02 0.  1.
       -1   -1    0    0    0  501  0.00000000000E+00  0.00000000000E+00 -0.83999688672E+03  0.83999688673E+03  0.50400001928E-02 0. -1.
    10030    2    1    2    0    0  0.00000000000E+00  0.00000000000E+00 -0.17284198858E+03  0.15071517849E+04  0.14972081184E+04 0.  0.
        3    1    3    3  502    0  0.49163247576E+03  0.52228289644E+03  0.12930608297E+03  0.72883605045E+03  0.10100000352E+00 0.  1.
       -3    1    3    3    0  502 -0.49163247576E+03 -0.52228289644E+03 -0.30214807155E+03  0.77831573444E+03  0.10100000352E+00 0. -1.
</event>
<event>
 5   0  0.1474203E-04  0.1500207E+04  0.7818609E-02  0.8884315E-01
       -1   -1    0    0    0  501  0.00000000000E+00  0.00000000000E+00  0.37185776429E+03  0.37185776433E+03  0.50400001928E-02 0.  1.
        1   -1    0    0  501    0  0.00000000000E+00  0.00000000000E+00 -0.15130934280E+04  0.15130934280E+04  0.50400001928E-02 0. -1.
    10030    2    1    2    0    0  0.00000000000E+00  0.00000000000E+00 -0.11412356637E+04  0.18849511923E+04  0.15002073715E+04 0.  0.
        3    1    3    3  502    0 -0.61875135907E+03  0.21608731329E+03 -0.11221023812E+03  0.66493467277E+03  0.10100000352E+00 0.  1.
       -3    1    3    3    0  502  0.61875135907E+03 -0.21608731329E+03 -0.10290254256E+04  0.12200165196E+04  0.10100000352E+00 0. -1.
</event>
<event>
 5   0  0.1443750E-04  0.1515048E+04  0.7818609E-02  0.8874507E-01
        1   -1    0    0  501    0  0.00000000000E+00  0.00000000000E+00  0.66598682082E+03  0.66598682084E+03  0.50400001928E-02 0.  1.
       -1   -1    0    0    0  501  0.00000000000E+00  0.00000000000E+00 -0.86164287098E+03  0.86164287100E+03  0.50400001928E-02 0. -1.
    10030    2    1    2    0    0  0.00000000000E+00  0.00000000000E+00 -0.19565605016E+03  0.15276296918E+04  0.15150482452E+04 0.  0.
        2    1    3    3  502    0  0.60540053481E+03  0.20792099756E+03  0.31063087503E+03  0.71150016817E+03  0.25500000920E-02 0.  1.
       -2    1    3    3    0  502 -0.60540053481E+03 -0.20792099756E+03 -0.50628692519E+03  0.81612952367E+03  0.25500000920E-02 0. -1.
</event>
<event>
 5   0  0.2734072E-04  0.1526742E+04  0.7818609E-02  0.8866862E-01
        2   -1    0    0  501    0  0.00000000000E+00  0.00000000000E+00  0.22645739814E+04  0.22645739814E+04  0.25500000920E-02 0.  1.
       -2   -1    0    0    0  501  0.00000000000E+00  0.00000000000E+00 -0.25732666713E+03  0.25732666715E+03  0.25500000920E-02 0. -1.
    10030    2    1    2    0    0  0.00000000000E+00  0.00000000000E+00  0.20072473143E+04  0.25219006486E+04  0.15267419889E+04 0.  0.
        5    1    3    3  502    0  0.24811138998E+03  0.64141711093E+03  0.15508170816E+04  0.16964760188E+04  0.46999998093E+01 0.  1.
       -5    1    3    3    0  502 -0.24811138998E+03 -0.64141711093E+03  0.45643023274E+03  0.82542462974E+03  0.46999998093E+01 0. -1.
</event>
<event>
 5   0  0.1427609E-04  0.1498296E+04  0.7818609E-02  0.8885587E-01
       -1   -1    0    0    0  501  0.00000000000E+00  0.00000000000E+00  0.31525133091E+03  0.31525133095E+03  0.50400001928E-02 0. -1.
        1   -1    0    0  501    0  0.00000000000E+00  0.00000000000E+00 -0.17802401217E+04  0.17802401217E+04  0.50400001928E-02 0.  1.
    10030    2    1    2    0    0  0.00000000000E+00  0.00000000000E+00 -0.14649887908E+04  0.20954914527E+04  0.14982964563E+04 0.  0.
        4    1    3    3  502    0 -0.70021386991E+03 -0.26622653842E+03 -0.74192020926E+03  0.10543354510E+04  0.12699999809E+01 0. -1.
       -4    1    3    3    0  502  0.70021386991E+03  0.26622653842E+03 -0.72306858158E+03  0.10411560017E+04  0.12699999809E+01 0.  1.
</event>
<event>
 5   0  0.1474203E-04  0.1454344E+04  0.7818609E-02  0.8915394E-01
       -1   -1    0    0    0  501  0.00000000000E+00  0.00000000000E+00  0.56313396262E+03  0.56313396264E+03  0.50400001928E-02 0. -1.
        1   -1    0    0  501    0  0.00000000000E+00  0.00000000000E+00 -0.93899410018E+03  0.93899410019E+03  0.50400001928E-02 0.  1.
    10030    2    1    2    0    0  0.00000000000E+00  0.00000000000E+00 -0.37586013755E+03  0.15021280628E+04  0.14543444826E+04 0.  0.
        3    1    3    3  502    0 -0.45536419484E+03  0.38841963508E+03 -0.61447960598E+03  0.85779459034E+03  0.10100000352E+00 0.  1.
       -3    1    3    3    0  502  0.45536419484E+03 -0.38841963508E+03  0.23861946842E+03  0.64433347249E+03  0.10100000352E+00 0. -1.
</event>
<event>
 5   0  0.2696040E-04  0.1494495E+04  0.7818609E-02  0.8888122E-01
        2   -1    0    0  501    0  0.00000000000E+00  0.00000000000E+00  0.68275425785E+03  0.68275425786E+03  0.25500000920E-02 0. -1.
       -2   -1    0    0    0  501  0.00000000000E+00  0.00000000000E+00 -0.81783314763E+03  0.81783314763E+03  0.25500000920E-02 0.  1.
    10030    2    1    2    0    0  0.00000000000E+00  0.00000000000E+00 -0.13507888978E+03  0.15005874055E+04  0.14944953178E+04 0.  0.
        2    1    3    3  502    0  0.94856024699E+02 -0.73130287147E+03  0.53690076392E+02  0.73938094346E+03  0.25500000920E-02 0. -1.
       -2    1    3    3    0  502 -0.94856024699E+02  0.73130287147E+03 -0.18876896617E+03  0.76120646203E+03  0.25500000920E-02 0.  1.
</event>
<event>
 5   0  0.1004313E-04  0.1479127E+04  0.7818609E-02  0.8898453E-01
        4   -1    0    0  501    0  0.00000000000E+00  0.00000000000E+00  0.41004431513E+03  0.41004628187E+03  0.12699999809E+01 0. -1.
       -4   -1    0    0    0  501  0.00000000000E+00  0.00000000000E+00 -0.13338855991E+04  0.13338862037E+04  0.12699999809E+01 0.  1.
    10030    2    1    2    0    0  0.00000000000E+00  0.00000000000E+00 -0.92384128401E+03  0.17439324856E+04  0.14791273766E+04 0.  0.
        5    1    3    3  502    0 -0.30256668909E+02 -0.11344753668E+03 -0.13228101080E+04  0.13280190065E+04  0.46999998093E+01 0.  1.
       -5    1    3    3    0  502  0.30256668909E+02  0.11344753668E+03  0.39896882402E+03  0.41591347914E+03  0.46999998093E+01 0. -1.
</event>
<event>
 5   0  0.2734072E-04  0.1492192E+04  0.7818609E-02  0.8889662E-01
        2   -1    0    0  501    0  0.00000000000E+00  0.00000000000E+00  0.11768670213E+04  0.11768670213E+04  0.25500000920E-02 0. -1.
       -2   -1    0    0    0  501  0.00000000000E+00  0.00000000000E+00 -0.47300117811E+03  0.47300117812E+03  0.25500000920E-02 0.  1.
    10030    2    1    2    0    0  0.00000000000E+00  0.00000000000E+00  0.70386584314E+03  0.16498681994E+04  0.14921923302E+04 0.  0.
        5    1    3    3  502    0 -0.60698097739E+03  0.12889383251E+03 -0.10608281042E+03  0.62953568575E+03  0.46999998093E+01 0.  1.
       -5    1    3    3    0  502  0.60698097739E+03 -0.12889383251E+03  0.80994865356E+03  0.10203325136E+04  0.46999998093E+01 0. -1.
</event>
<event>
 5   0  0.1426929E-04  0.1497664E+04  0.7818609E-02  0.8886008E-01
        1   -1    0    0  501    0  0.00000000000E+00  0.00000000000E+00  0.70284336836E+03  0.70284336838E+03  0.50400001928E-02 0.  1.
       -1   -1    0    0    0  501  0.00000000000E+00  0.00000000000E+00 -0.79782928892E+03  0.79782928893E+03  0.50400001928E-02 0. -1.
    10030    2    1    2    0    0  0.00000000000E+00  0.00000000000E+00 -0.94985920560E+02  0.15006726573E+04  0.14976635468E+04 0.  0.
        1    1    3    3  502    0  0.41292678280E+02  0.40929268709E+03 -0.67446849148E+03  0.79002109782E+03  0.50400001928E-02 0. -1.
       -1    1    3    3    0  502 -0.41292678280E+02 -0.40929268709E+03  0.57948257091E+03  0.71065155949E+03  0.50400001928E-02 0.  1.
</event>
<event>
 5   0  0.2646718E-04  0.1499620E+04  0.7818609E-02  0.8884705E-01
       -2   -1    0    0    0  501  0.00000000000E+00  0.00000000000E+00  0.23803110228E+03  0.23803110229E+03  0.25500000920E-02 0. -1.
        2   -1    0    0  501    0  0.00000000000E+00  0.00000000000E+00 -0.23619405620E+04  0.23619405620E+04  0.25500000920E-02 0.  1.
    10030    2    1    2    0    0  0.00000000000E+00  0.00000000000E+00 -0.21239094597E+04  0.25999716643E+04  0.14996203726E+04 0.  0.
        3    1    3    3  502    0  0.47193079193E+03 -0.48438599365E+03 -0.50051081635E+03  0.84134389563E+03  0.10100000352E+00 0. -1.
       -3    1    3    3    0  502 -0.47193079193E+03  0.48438599365E+03 -0.16233986433E+04  0.17586277686E+04  0.10100000352E+00 0.  1.
</event>
<event>
 5   0  0.2734072E-04  0.1533966E+04  0.7818609E-02  0.8862175E-01
       -2   -1    0    0    0  501  0.00000000000E+00  0.00000000000E+00  0.77456943422E+03  0.77456943422E+03  0.25500000920E-02 0. -1.
        2   -1    0    0  501    0  0.00000000000E+00  0.00000000000E+00 -0.75947094586E+03  0.75947094586E+03  0.25500000920E-02 0.  1.
    10030    2    1    2    0    0  0.00000000000E+00  0.00000000000E+00  0.15098488359E+02  0.15340403801E+04  0.15339660763E+04 0.  0.
        5    1    3    3  502    0 -0.47582427317E+03  0.45529672851E+03 -0.38558179315E+03  0.76315087573E+03  0.46999998093E+01 0.  1.
       -5    1    3    3    0  502  0.47582427317E+03 -0.45529672851E+03  0.40068028151E+03  0.77088950435E+03  0.46999998093E+01 0. -1.
</event>
<event>
 5   0  0.1426929E-04  0.1500472E+04  0.7818609E-02  0.8884139E-01
       -1   -1    0    0    0  501  0.00000000000E+00  0.00000000000E+00  0.44351508933E+03  0.44351508936E+03  0.50400001928E-02 0.  1.
        1   -1    0    0  501    0  0.00000000000E+00  0.00000000000E+00 -0.12690758077E+04  0.12690758077E+04  0.50400001928E-02 0. -1.
    10030    2    1    2    0    0  0.00000000000E+00  0.00000000000E+00 -0.82556071837E+03  0.17125908971E+04  0.15004722860E+04 0.  0.
        1    1    3    3  502    0  0.13321345473E+02 -0.74998882530E+03 -0.42866030648E+03  0.86395043533E+03  0.50400001928E-02 0.  1.
       -1    1    3    3    0  502 -0.13321345473E+02  0.74998882530E+03 -0.39690041189E+03  0.84864046174E+03  0.50400001928E-02 0. -1.
</event>
<event>
 5   0  0.2696040E-04  0.1477279E+04  0.7818609E-02  0.8899704E-01
       -2   -1    0    0    0  501  0.00000000000E+00  0.00000000000E+00  0.63618172707E+03  0.63618172707E+03  0.25500000920E-02 0.  1.
        2   -1    0    0  501    0  0.00000000000E+00  0.00000000000E+00 -0.85759838685E+03  0.85759838685E+03  0.25500000920E-02 0. -1.
    10030    2    1    2    0    0  0.00000000000E+00  0.00000000000E+00 -0.22141665978E+03  0.14937801139E+04  0.14772791515E+04 0.  0.
        2    1    3    3  502    0 -0.10242740832E+03  0.54904440166E+03 -0.59947826326E+03  0.81933834104E+03  0.25500000920E-02 0. -1.
       -2    1    3    3    0  502  0.10242740832E+03 -0.54904440166E+03  0.37806160348E+03  0.67444177288E+03  0.25500000920E-02 0.  1.
</event>
<event>
 5   0  0.2734072E-04  0.1532099E+04  0.7818609E-02  0.8863384E-01
        2   -1    0    0  501    0  0.00000000000E+00  0.00000000000E+00  0.56827732307E+03  0.56827732307E+03  0.25500000920E-02 0.  1.
       -2   -1    0    0    0  501  0.00000000000E+00  0.00000000000E+00 -0.10326501500E+04  0.10326501500E+04  0.25500000920E-02 0. -1.
    10030    2    1    2    0    0  0.00000000000E+00  0.00000000000E+00 -0.46437282694E+03  0.16009274731E+04  0.15320987735E+04 0.  0.
        5    1    3    3  502    0  0.21517897485E+03 -0.63688863973E+03 -0.61594612880E+03  0.91177895030E+03  0.46999998093E+01 0. -1.
       -5    1    3    3    0  502 -0.21517897485E+03  0.63688863973E+03  0.15157330185E+03  0.68914852279E+03  0.46999998093E+01 0.  1.
</event>
<event>
 5   0  0.1443750E-04  0.1503212E+04  0.7818609E-02  0.8882320E-01
        1   -1    0    0  501    0  0.00000000000E+00  0.00000000000E+00  0.52645068458E+03  0.52645068461E+03  0.50400001928E-02 0. -1.
       -1   -1    0    0    0  501  0.00000000000E+00  0.00000000000E+00 -0.10730574069E+04  0.10730574069E+04  0.50400001928E-02 0.  1.
    10030    2    1    2    0    0  0.00000000000E+00  0.00000000000E+00 -0.54660672232E+03  0.15995080915E+04  0.15032123024E+04 0.  0.
        2    1    3    3  502    0  0.60669443512E+03 -0.32358232388E+03  0.49666719334E+02  0.68938410263E+03  0.25500000920E-02 0. -1.
       -2    1    3    3    0  502 -0.60669443512E+03  0.32358232388E+03 -0.59627344166E+03  0.91012398890E+03  0.25500000920E-02 0.  1.
</event>
<event>
 5   0  0.2734072E-04  0.1499203E+04  0.7818609E-02  0.8884983E-01
       -2   -1    0    0    0  501  0.00000000000E+00  0.00000000000E+00  0.64954071816E+03  0.64954071816E+03  0.25500000920E-02 0. -1.
        2   -1    0    0  501    0  0.00000000000E+00  0.00000000000E+00 -0.86507670447E+03  0.86507670447E+03  0.25500000920E-02 0.  1.
    10030    2    1    2    0    0  0.00000000000E+00  0.00000000000E+00 -0.21553598631E+03  0.15146174226E+04  0.14992031802E+04 0.  0.
        5    1    3    3  502    0  0.63097945749E+03 -0.64436344932E+02 -0.51136675876E+03  0.81474239504E+03  0.46999998093E+01 0. -1.
       -5    1    3    3    0  502 -0.63097945749E+03  0.64436344932E+02  0.29583077245E+03  0.69987502759E+03  0.46999998093E+01 0.  1.
</event>
<event>
 5   0  0.1427609E-04  0.1497945E+04  0.7818609E-02  0.8885820E-01
       -1   -1    0    0    0  501  0.00000000000E+00  0.00000000000E+00  0.72734120328E+03  0.72734120330E+03  0.50400001928E-02 0. -1.
        1   -1    0    0  501    0  0.00000000000E+00  0.00000000000E+00 -0.77124742493E+03  0.77124742495E+03  0.50400001928E-02 0.  1.
    10030    2    1    2    0    0  0.00000000000E+00  0.00000000000E+00 -0.43906221648E+02  0.14985886282E+04  0.14979452995E+04 0.  0.
        4    1    3    3  502    0 -0.38770173039E+03 -0.34440310468E+03 -0.56258531613E+03  0.76513396284E+03  0.12699999809E+01 0.  1.
       -4    1    3    3    0  502  0.38770173039E+03  0.34440310468E+03  0.51867909449E+03  0.73345466541E+03  0.12699999809E+01 0. -1.
</event>
<event>
 5   0  0.1484251E-04  0.1499830E+04  0.7818609E-02  0.8884566E-01
        1   -1    0    0  501    0  0.00000000000E+00  0.00000000000E+00  0.10313967656E+04  0.10313967656E+04  0.50400001928E-02 0.  1.
       -1   -1    0    0    0  501  0.00000000000E+00  0.00000000000E+00 -0.54525300076E+03  0.54525300079E+03  0.50400001928E-02 0. -1.
    10030    2    1    2    0    0  0.00000000000E+00  0.00000000000E+00  0.48614376481E+03  0.15766497664E+04  0.14998295656E+04 0.  0.
        5    1    3    3  502    0 -0.14422109000E+03 -0.73549069759E+03  0.21724091130E+03  0.78036016851E+03  0.46999998093E+01 0.  1.
       -5    1    3    3    0  502  0.14422109000E+03  0.73549069759E+03  0.26890285351E+03  0.79628959787E+03  0.46999998093E+01 0. -1.
</event>
<event>
 5   0  0.1484251E-04  0.1501460E+04  0.7818609E-02  0.8883483E-01
        1   -1    0    0  501    0  0.00000000000E+00  0.00000000000E+00  0.14887724215E+04  0.14887724215E+04  0.50400001928E-02 0. -1.
       -1   -1    0    0    0  501  0.00000000000E+00  0.00000000000E+00 -0.37856372221E+03  0.37856372224E+03  0.50400001928E-02 0.  1.
    10030    2    1    2    0    0  0.00000000000E+00  0.00000000000E+00  0.11102086993E+04  0.18673361438E+04  0.15014595958E+04 0.  0.
        5    1    3    3  502    0  0.76908264681E+02 -0.13730413055E+02 -0.37347602444E+03  0.38158856934E+03  0.46999998093E+01 0.  1.
       -5    1    3    3    0  502 -0.76908264681E+02  0.13730413055E+02  0.14836847237E+04  0.14857475744E+04  0.46999998093E+01 0. -1.
</event>
<event>
 5   0  0.1004313E-04  0.1500407E+04  0.7818609E-02  0.8884183E-01
       -3   -1    0    0    0  501  0.00000000000E+00  0.00000000000E+00  0.60406795661E+03  0.60406796506E+03  0.10100000352E+00 0. -1.
        3   -1    0    0  501    0  0.00000000000E+00  0.00000000000E+00 -0.93169149232E+03  0.93169149780E+03  0.10100000352E+00 0.  1.
    10030    2    1    2    0    0  0.00000000000E+00  0.00000000000E+00 -0.32762353571E+03  0.15357594629E+04  0.15004065938E+04 0.  0.
        2    1    3    3  502    0  0.67108669777E+03 -0.19174889433E+03 -0.44539369399E+03  0.82794959814E+03  0.25500000920E-02 0.  1.
       -2    1    3    3    0  502 -0.67108669777E+03  0.19174889433E+03  0.11777015827E+03  0.70780986472E+03  0.25500000920E-02 0. -1.
</event>
<event>
 5   0  0.2646718E-04  0.1457344E+04  0.7818609E-02  0.8913325E-01
       -2   -1    0    0    0  501  0.00000000000E+00  0.00000000000E+00  0.78527033169E+03  0.78527033170E+03  0.25500000920E-02 0.  1.
        2   -1    0    0  501    0  0.00000000000E+00  0.00000000000E+00 -0.67615306375E+03  0.67615306376E+03  0.25500000920E-02 0. -1.
    10030    2    1    2    0    0  0.00000000000E+00  0.00000000000E+00  0.10911726794E+03  0.14614233955E+04  0.14573440783E+04 0.  0.
        3    1    3    3  502    0 -0.28517695348E+03 -0.29673982259E+02  0.72632665595E+03  0.78086929851E+03  0.10100000352E+00 0.  1.
       -3    1    3    3    0  502  0.28517695348E+03  0.29673982259E+02 -0.61720938800E+03  0.68055409694E+03  0.10100000352E+00 0. -1.
</event>
<event>
 5   0  0.1484251E-04  0.1495765E+04  0.7818609E-02  0.8887274E-01
        1   -1    0    0  501    0  0.00000000000E+00  0.00000000000E+00  0.20494782575E+04  0.20494782575E+04  0.50400001928E-02 0. -1.
       -1   -1    0    0    0  501  0.00000000000E+00  0.00000000000E+00 -0.27291251201E+03  0.27291251206E+03  0.50400001928E-02 0.  1.
    10030    2    1    2    0    0  0.00000000000E+00  0.00000000000E+00  0.17765657455E+04  0.23223907695E+04  0.14957650345E+04 0.  0.
        5    1    3    3  502    0 -0.60878221227E+03  0.33010084229E+03  0.13266782582E+04  0.14965559257E+04  0.46999998093E+01 0. -1.
       -5    1    3    3    0  502  0.60878221227E+03 -0.33010084229E+03  0.44988748727E+03  0.82583484381E+03  0.46999998093E+01 0.  1.
</event>
<event>
 5   0  0.1484251E-04  0.1421182E+04  0.7818609E-02  0.8938627E-01
       -1   -1    0    0    0  501  0.00000000000E+00  0.00000000000E+00  0.18190141021E+03  0.18190141028E+03  0.50400001928E-02 0.  1.
        1   -1    0    0  501    0  0.00000000000E+00  0.00000000000E+00 -0.27758966869E+04  0.27758966869E+04  0.50400001928E-02 0. -1.
    10030    2    1    2    0    0  0.00000000000E+00  0.00000000000E+00 -0.25939952767E+04  0.29577980972E+04  0.14211819335E+04 0.  0.
        5    1    3    3  502    0 -0.49217161611E+03  0.51244510464E+03 -0.12778608891E+04  0.14621160784E+04  0.46999998093E+01 0. -1.
       -5    1    3    3    0  502  0.49217161611E+03 -0.51244510464E+03 -0.13161343876E+04  0.14956820188E+04  0.46999998093E+01 0.  1.
</event>
<event>
 5   0  0.2646718E-04  0.1504821E+04  0.7818609E-02  0.8881253E-01
       -2   -1    0    0    0  501  0.00000000000E+00  0.00000000000E+00  0.37864078125E+03  0.37864078125E+03  0.25500000920E-02 0.  1.
        2   -1    0    0  501    0  0.00000000000E+00  0.00000000000E+00 -0.14951411846E+04  0.14951411846E+04  0.25500000920E-02 0. -1.
    10030    2    1    2    0    0  0.00000000000E+00  0.00000000000E+00 -0.11165004034E+04  0.18737819659E+04  0.15048208215E+04 0.  0.
        3    1    3    3  502    0  0.11374771389E+03 -0.17855085935E+03  0.34079008244E+03  0.40119427000E+03  0.10100000352E+00 0.  1.
       -3    1    3    3    0  502 -0.11374771389E+03  0.17855085935E+03 -0.14572904858E+04  0.14725876959E+04  0.10100000352E+00 0. -1.
</event>
<event>
 5   0  0.2618901E-04  0.1506214E+04  0.7818609E-02  0.8880331E-01
        2   -1    0    0  501    0  0.00000000000E+00  0.00000000000E+00  0.24021058291E+04  0.24021058291E+04  0.25500000920E-02 0. -1.
       -2   -1    0    0    0  501  0.00000000000E+00  0.00000000000E+00 -0.23611369732E+03  0.23611369733E+03  0.25500000920E-02 0.  1.
    10030    2    1    2    0    0  0.00000000000E+00  0.00000000000E+00  0.21659921318E+04  0.26382195264E+04  0.15062139140E+04 0.  0.
        1    1    3    3  502    0 -0.55786160659E+03 -0.18440400747E+03  0.19081926196E+04  0.19966004817E+04  0.50400001928E-02 0. -1.
       -1    1    3    3    0  502  0.55786160659E+03  0.18440400747E+03  0.25779951223E+03  0.64161904477E+03  0.50400001928E-02 0.  1.
</event>
<event>
 5   0  0.2641347E-04  0.1500766E+04  0.7818609E-02  0.8883944E-01
        2   -1    0    0  501    0  0.00000000000E+00  0.00000000000E+00  0.22798099747E+04  0.22798099747E+04  0.25500000920E-02 0.  1.
       -2   -1    0    0    0  501  0.00000000000E+00  0.00000000000E+00 -0.24698318703E+03  0.24698318705E+03  0.25500000920E-02 0. -1.
    10030    2    1    2    0    0  0.00000000000E+00  0.00000000000E+00  0.20328267876E+04  0.25267931617E+04  0.15007661155E+04 0.  0.
        4    1    3    3  502    0  0.45442115405E+03  0.50444071022E+03  0.15544347875E+04  0.16962394103E+04  0.12699999809E+01 0.  1.
       -4    1    3    3    0  502 -0.45442115405E+03 -0.50444071022E+03  0.47839200010E+03  0.83055375144E+03  0.12699999809E+01 0. -1.
</event>
<event>
 5   0  0.1443750E-04  0.1500774E+04  0.7818609E-02  0.8883938E-01
        1   -1    0    0  501    0  0.00000000000E+00  0.00000000000E+00  0.15792112214E+04  0.15792112215E+04  0.50400001928E-02 0. -1.
       -1   -1    0    0    0  501  0.00000000000E+00  0.00000000000E+00 -0.35655818550E+03  0.35655818554E+03  0.50400001928E-02 0.  1.
    10030    2    1    2    0    0  0.00000000000E+00  0.00000000000E+00  0.12226530359E+04  0.19357694070E+04  0.15007740505E+04 0.  0.
        2    1    3    3  502    0 -0.66942580336E+03  0.33306648511E+03  0.69307168503E+03  0.10195158411E+04  0.25500000920E-02 0. -1.
       -2    1    3    3    0  502  0.66942580336E+03 -0.33306648511E+03  0.52958135092E+03  0.91625356587E+03  0.25500000920E-02 0.  1.
</event>
<event>
 5   0  0.2734072E-04  0.1497970E+04  0.7818609E-02  0.8885804E-01
       -2   -1    0    0    0  501  0.00000000000E+00  0.00000000000E+00  0.46843009331E+03  0.46843009332E+03  0.25500000920E-02 0. -1.
        2   -1    0    0  501    0  0.00000000000E+00  0.00000000000E+00 -0.11975721554E+04  0.11975721554E+04  0.25500000920E-02 0.  1.
    10030    2    1    2    0    0  0.00000000000E+00  0.00000000000E+00 -0.72914206210E+03  0.16660022487E+04  0.14979704089E+04 0.  0.
        5    1    3    3  502    0  0.61080362587E+03 -0.41499390602E+02 -0.84442371247E+03  0.10430133101E+04  0.46999998093E+01 0.  1.
       -5    1    3    3    0  502 -0.61080362587E+03  0.41499390602E+02  0.11528165036E+03  0.62298893867E+03  0.46999998093E+01 0. -1.
</event>
<event>
 5   0  0.1427609E-04  0.1495788E+04  0.7818609E-02  0.8887258E-01
       -1   -1    0    0    0  501  0.00000000000E+00  0.00000000000E+00  0.73002827045E+03  0.73002827047E+03  0.50400001928E-02 0. -1.
        1   -1    0    0  501    0  0.00000000000E+00  0.00000000000E+00 -0.76619741655E+03  0.76619741656E+03  0.50400001928E-02 0.  1.
    10030    2    1    2    0    0  0.00000000000E+00  0.00000000000E+00 -0.36169146097E+02  0.14962256870E+04  0.14957884541E+04 0.  0.
        4    1    3    3  502    0  0.27255103609E+03  0.18468131045E+03  0.65364199504E+03  0.73187480096E+03  0.12699999809E+01 0. -1.
       -4    1    3    3    0  502 -0.27255103609E+03 -0.18468131045E+03 -0.68981114114E+03  0.76435088607E+03  0.12699999809E+01 0.  1.
</event>
<event>
 5   0  0.2618901E-04  0.1502230E+04  0.7818609E-02  0.8882971E-01
       -2   -1    0    0    0  501  0.00000000000E+00  0.00000000000E+00  0.35342976769E+03  0.35342976770E+03  0.25500000920E-02 0. -1.
        2   -1    0    0  501    0  0.00000000000E+00  0.00000000000E+00 -0.15962834893E+04  0.15962834893E+04  0.25500000920E-02 0.  1.
    10030    2    1    2    0    0  0.00000000000E+00  0.00000000000E+00 -0.12428537216E+04  0.19497132570E+04  0.15022304787E+04 0.  0.
        1    1    3    3  502    0  0.26187846128E+03 -0.68147922513E+03 -0.39224981506E+03  0.82876666209E+03  0.50400001928E-02 0. -1.
       -1    1    3    3    0  502 -0.26187846128E+03  0.68147922513E+03 -0.85060390651E+03  0.11209465949E+04  0.50400001928E-02 0.  1.
</event>
<event>
 5   0  0.2734072E-04  0.1537823E+04  0.7818609E-02  0.8859683E-01
       -2   -1    0    0    0  501  0.00000000000E+00  0.00000000000E+00  0.11335176925E+04  0.11335176925E+04  0.25500000920E-02 0.  1.
        2   -1    0    0  501    0  0.00000000000E+00  0.00000000000E+00 -0.52158441509E+03  0.52158441510E+03  0.25500000920E-02 0. -1.
    10030    2    1    2    0    0  0.00000000000E+00  0.00000000000E+00  0.61193327744E+03  0.16551021076E+04  0.15378233483E+04 0.  0.
        5    1    3    3  502    0  0.50827205484E+03  0.53240901079E+03  0.66747434954E+02  0.73910563966E+03  0.46999998093E+01 0. -1.
       -5    1    3    3    0  502 -0.50827205484E+03 -0.53240901079E+03  0.54518584249E+03  0.91599646798E+03  0.46999998093E+01 0.  1.
</event>
<event>
 5   0  0.2696040E-04  0.1503368E+04  0.7818609E-02  0.8882216E-01
       -2   -1    0    0    0  501  0.00000000000E+00  0.00000000000E+00  0.19006651819E+03  0.19006651821E+03  0.25500000920E-02 0.  1.
        2   -1    0    0  501    0  0.00000000000E+00  0.00000000000E+00 -0.29727959961E+04  0.29727959961E+04  0.25500000920E-02 0. -1.
    10030    2    1    2    0    0  0.00000000000E+00  0.00000000000E+00 -0.27827294780E+04  0.31628625144E+04  0.15033681975E+04 0.  0.
        2    1    3    3  502    0 -0.82410000581E+02 -0.55185740729E+03 -0.24510269978E+04  0.25137365316E+04  0.25500000920E-02 0. -1.
       -2    1    3    3    0  502  0.82410000581E+02  0.55185740729E+03 -0.33170248015E+03  0.64912598279E+03  0.25500000920E-02 0.  1.
</event>
<event>
 5   0  0.1426929E-04  0.1501879E+04  0.7818609E-02  0.8883204E-01
        1   -1    0    0  501    0  0.00000000000E+00  0.00000000000E+00  0.79846456535E+03  0.79846456537E+03  0.50400001928E-02 0.  1.
       -1   -1    0    0    0  501  0.00000000000E+00  0.00000000000E+00 -0.70624343006E+03  0.70624343007E+03  0.50400001928E-02 0. -1.
    10030    2    1    2    0    0  0.00000000000E+00  0.00000000000E+00  0.92221135298E+02  0.15047079954E+04  0.15018792940E+04 0.  0.
        1    1    3    3  502    0  0.70089753093E+01 -0.63902343320E+03  0.44120121561E+03  0.77656846871E+03  0.50400001928E-02 0.  1.
       -1    1    3    3    0  502 -0.70089753093E+01  0.63902343320E+03 -0.34898008031E+03  0.72813952673E+03  0.50400001928E-02 0. -1.
</event>
<event>
 5   0  0.1427609E-04  0.1513331E+04  0.7818609E-02  0.8875636E-01
        1   -1    0    0  501    0  0.00000000000E+00  0.00000000000E+00  0.12203799641E+04  0.12203799641E+04  0.50400001928E-02 0.  1.
       -1   -1    0    0    0  501  0.00000000000E+00  0.00000000000E+00 -0.46915092898E+03  0.46915092901E+03  0.50400001928E-02 0. -1.
    10030    2    1    2    0    0  0.00000000000E+00  0.00000000000E+00  0.75122903508E+03  0.16895308931E+04  0.15133306233E+04 0.  0.
        4    1    3    3  502    0 -0.73685609811E+03 -0.98360899194E+01  0.18390286205E+03  0.75952322780E+03  0.12699999809E+01 0.  1.
       -4    1    3    3    0  502  0.73685609811E+03  0.98360899194E+01  0.56732617303E+03  0.93000766529E+03  0.12699999809E+01 0. -1.
</event>
<event>
 5   0  0.2696040E-04  0.1498553E+04  0.7818609E-02  0.8885416E-01
        2   -1    0    0  501    0  0.00000000000E+00  0.00000000000E+00  0.17613515637E+04  0.17613515637E+04  0.25500000920E-02 0. -1.
       -2   -1    0    0    0  501  0.00000000000E+00  0.00000000000E+00 -0.31874126763E+03  0.31874126764E+03  0.25500000920E-02 0.  1.
    10030    2    1    2    0    0  0.00000000000E+00  0.00000000000E+00  0.14426102961E+04  0.20800928314E+04  0.14985532092E+04 0.  0.
        2    1    3    3  502    0  0.23343130753E+03 -0.40083072740E+03  0.15380975719E+04  0.16065178455E+04  0.25500000920E-02 0. -1.
       -2    1    3    3    0  502 -0.23343130753E+03  0.40083072740E+03 -0.95487275799E+02  0.47357498583E+03  0.25500000920E-02 0.  1.
</event>
<event>
 5   0  0.2734072E-04  0.1497381E+04  0.7818609E-02  0.8886196E-01
        2   -1    0    0  501    0  0.00000000000E+00  0.00000000000E+00  0.71419442298E+03  0.71419442298E+03  0.25500000920E-02 0.  1.
       -2   -1    0    0    0  501  0.00000000000E+00  0.00000000000E+00 -0.78485265326E+03  0.78485265327E+03  0.25500000920E-02 0. -1.
    10030    2    1    2    0    0  0.00000000000E+00  0.00000000000E+00 -0.70658230286E+02  0.14990470763E+04  0.14973808972E+04 0.  0.
        5    1    3    3  502    0  0.40117346443E+03 -0.63207129816E+03 -0.27508681108E+02  0.74915491860E+03  0.46999998093E+01 0.  1.
       -5    1    3    3    0  502 -0.40117346443E+03  0.63207129816E+03 -0.43149549177E+02  0.74989215766E+03  0.46999998093E+01 0. -1.
</event>
<event>
 5   0  0.1427609E-04  0.1471694E+04  0.7818609E-02  0.8903497E-01
       -1   -1    0    0    0  501  0.00000000000E+00  0.00000000000E+00  0.58191813938E+03  0.58191813940E+03  0.50400001928E-02 0.  1.
        1   -1    0    0  501    0  0.00000000000E+00  0.00000000000E+00 -0.93049307720E+03  0.93049307722E+03  0.50400001928E-02 0. -1.
    10030    2    1    2    0    0  0.00000000000E+00  0.00000000000E+00 -0.34857493783E+03  0.15124112166E+04  0.14716939902E+04 0.  0.
        4    1    3    3  502    0  0.61047745664E+03  0.88785673897E+02  0.23793836788E+03  0.66119732362E+03  0.12699999809E+01 0.  1.
       -4    1    3    3    0  502 -0.61047745664E+03 -0.88785673897E+02 -0.58651330571E+03  0.85121389300E+03  0.12699999809E+01 0. -1.
</event>
<event>
 5   0  0.1443750E-04  0.1498639E+04  0.7818609E-02  0.8885359E-01
       -1   -1    0    0    0  501  0.00000000000E+00  0.00000000000E+00  0.98046111596E+03  0.98046111597E+03  0.50400001928E-02 0. -1.
        1   -1    0    0  501    0  0.00000000000E+00  0.00000000000E+00 -0.57266879597E+03  0.57266879600E+03  0.50400001928E-02 0.  1.
    10030    2    1    2    0    0  0.00000000000E+00  0.00000000000E+00  0.40779231999E+03  0.15531299120E+04  0.14986386980E+04 0.  0.
        2    1    3    3  502    0 -0.20325561204E+03  0.34486096273E+03 -0.45256892295E+03  0.60420241432E+03  0.25500000920E-02 0.  1.
       -2    1    3    3    0  502  0.20325561204E+03 -0.34486096273E+03  0.86036124294E+03  0.94892749765E+03  0.25500000920E-02 0. -1.
</event>
<event>
 5   0  0.2641347E-04  0.1581936E+04  0.7818609E-02  0.8831723E-01
       -2   -1    0    0    0  501  0.00000000000E+00  0.00000000000E+00  0.53672064955E+03  0.53672064956E+03  0.25500000920E-02 0. -1.
        2   -1    0    0  501    0  0.00000000000E+00  0.00000000000E+00 -0.11656531632E+04  0.11656531632E+04  0.25500000920E-02 0.  1.
    10030    2    1    2    0    0  0.00000000000E+00  0.00000000000E+00 -0.62893251369E+03  0.17023738128E+04  0.15819356788E+04 0.  0.
        4    1    3    3  502    0 -0.26278345766E+03  0.12950694719E+03  0.47618156340E+03  0.55908647740E+03  0.12699999809E+01 0. -1.
       -4    1    3    3    0  502  0.26278345766E+03 -0.12950694719E+03 -0.11051140771E+04  0.11432873354E+04  0.12699999809E+01 0.  1.
</event>
<event>
 5   0  0.1484251E-04  0.1505948E+04  0.7818609E-02  0.8880507E-01
        1   -1    0    0  501    0  0.00000000000E+00  0.00000000000E+00  0.97573702523E+03  0.97573702525E+03  0.50400001928E-02 0.  1.
       -1   -1    0    0    0  501  0.00000000000E+00  0.00000000000E+00 -0.58106805969E+03  0.58106805971E+03  0.50400001928E-02 0. -1.
    10030    2    1    2    0    0  0.00000000000E+00  0.00000000000E+00  0.39466896555E+03  0.15568050850E+04  0.15059477017E+04 0.  0.
        5    1    3    3  502    0 -0.23777546579E+03  0.71024400201E+03  0.27716821844E+03  0.79864136247E+03  0.46999998093E+01 0. -1.
       -5    1    3    3    0  502  0.23777546579E+03 -0.71024400201E+03  0.11750074711E+03  0.75816372249E+03  0.46999998093E+01 0.  1.
</event>
<event>
 5   0  0.2641347E-04  0.1499485E+04  0.7818609E-02  0.8884796E-01
        2   -1    0    0  501    0  0.00000000000E+00  0.00000000000E+00  0.24422738945E+04  0.24422738945E+04  0.25500000920E-02 0. -1.
       -2   -1    0    0    0  501  0.00000000000E+00  0.00000000000E+00 -0.23016000316E+03  0.23016000318E+03  0.25500000920E-02 0.  1.
    10030    2    1    2    0    0  0.00000000000E+00  0.00000000000E+00  0.22121138913E+04  0.26724338977E+04  0.14994849346E+04 0.  0.
        4    1    3    3  502    0 -0.50280571299E+03  0.11862346925E+03  0.13768336468E+03  0.53464327760E+03  0.12699999809E+01 0.  1.
       -4    1    3    3    0  502  0.50280571299E+03 -0.11862346925E+03  0.20744305267E+04  0.21377906201E+04  0.12699999809E+01 0. -1.
</event>
<event>
 5   0  0.2641347E-04  0.1498699E+04  0.7818609E-02  0.8885318E-01
        2   -1    0    0  501    0  0.00000000000E+00  0.00000000000E+00  0.12436024517E+04  0.12436024517E+04  0.25500000920E-02 0.  1.
       -2   -1    0    0    0  501  0.00000000000E+00  0.00000000000E+00 -0.45153083718E+03  0.45153083718E+03  0.25500000920E-02 0. -1.
    10030    2    1    2    0    0  0.00000000000E+00  0.00000000000E+00  0.79207161452E+03  0.16951332889E+04  0.14986992442E+04 0.  0.
        4    1    3    3  502    0  0.20014692595E+03 -0.30513013441E+03  0.11363121075E+04  0.11934697355E+04  0.12699999809E+01 0.  1.
       -4    1    3    3    0  502 -0.20014692595E+03  0.30513013441E+03 -0.34424049300E+03  0.50166355341E+03  0.12699999809E+01 0. -1.
</event>
<event>
 5   0  0.2646718E-04  0.1513831E+04  0.7818609E-02  0.8875307E-01
       -2   -1    0    0    0  501  0.00000000000E+00  0.00000000000E+00  0.69722058171E+03  0.69722058172E+03  0.25500000920E-02 0.  1.
        2   -1    0    0  501    0  0.00000000000E+00  0.00000000000E+00 -0.82172101219E+03  0.82172101220E+03  0.25500000920E-02 0. -1.
    10030    2    1    2    0    0  0.00000000000E+00  0.00000000000E+00 -0.12450043048E+03  0.15189415939E+04  0.15138306406E+04 0.  0.
        3    1    3    3  502    0  0.50906217294E+03 -0.30207794235E+03  0.41106840636E+03  0.72067511687E+03  0.10100000352E+00 0.  1.
       -3    1    3    3    0  502 -0.50906217294E+03  0.30207794235E+03 -0.53556883684E+03  0.79826647704E+03  0.10100000352E+00 0. -1.
</event>
<event>
 5   0  0.1443750E-04  0.1527722E+04  0.7818609E-02  0.8866225E-01
        1   -1    0    0  501    0  0.00000000000E+00  0.00000000000E+00  0.91975418318E+03  0.91975418319E+03  0.50400001928E-02 0.  1.
       -1   -1    0    0    0  501  0.00000000000E+00  0.00000000000E+00 -0.63439044914E+03  0.63439044916E+03  0.50400001928E-02 0. -1.
    10030    2    1    2    0    0  0.00000000000E+00  0.00000000000E+00  0.28536373404E+03  0.15541446323E+04  0.15277215314E+04 0.  0.
        2    1    3    3  502    0  0.25754353251E+02  0.41498331300E+03 -0.50918870674E+03  0.65737932418E+03  0.25500000920E-02 0. -1.
       -2    1    3    3    0  502 -0.25754353251E+02 -0.41498331300E+03  0.79455244078E+03  0.89676530817E+03  0.25500000920E-02 0.  1.
</event>
<event>
 5   0  0.1427609E-04  0.1521793E+04  0.7818609E-02  0.8870089E-01
       -1   -1    0    0    0  501  0.00000000000E+00  0.00000000000E+00  0.27941014263E+03  0.27941014267E+03  0.50400001928E-02 0.  1.
        1   -1    0    0  501    0  0.00000000000E+00  0.00000000000E+00 -0.20720923895E+04  0.20720923895E+04  0.50400001928E-02 0. -1.
    10030    2    1    2    0    0  0.00000000000E+00  0.00000000000E+00 -0.17926822468E+04  0.23515025321E+04  0.15217931924E+04 0.  0.
        4    1    3    3  502    0  0.28683545392E+03 -0.41421951698E+03 -0.15282651500E+02  0.50407098529E+03  0.12699999809E+01 0.  1.
       -4    1    3    3    0  502 -0.28683545392E+03  0.41421951698E+03 -0.17773995953E+04  0.18474315468E+04  0.12699999809E+01 0. -1.
</event>
<event>
 5   0  0.1484251E-04  0.1492946E+04  0.7818609E-02  0.8889157E-01
       -1   -1    0    0    0  501  0.00000000000E+00  0.00000000000E+00  0.99613509287E+03  0.99613509288E+03  0.50400001928E-02 0.  1.
        1   -1    0    0  501    0  0.00000000000E+00  0.00000000000E+00 -0.55938394278E+03  0.55938394280E+03  0.50400001928E-02 0. -1.
    10030    2    1    2    0    0  0.00000000000E+00  0.00000000000E+00  0.43675115009E+03  0.15555190357E+04  0.14929460483E+04 0.  0.
        5    1    3    3  502    0  0.46307812525E+03 -0.58457846219E+03  0.18499277132E+03  0.76838645484E+03  0.46999998093E+01 0.  1.
       -5    1    3    3    0  502 -0.46307812525E+03  0.58457846219E+03  0.25175837877E+03  0.78713258084E+03  0.46999998093E+01 0. -1.
</event>
<event>
 5   0  0.2618901E-04  0.1514443E+04  0.7818609E-02  0.8874905E-01
       -2   -1    0    0    0  501  0.00000000000E+00  0.00000000000E+00  0.42569337393E+03  0.42569337394E+03  0.25500000920E-02 0.  1.
        2   -1    0    0  501    0  0.00000000000E+00  0.00000000000E+00 -0.13469426488E+04  0.13469426488E+04  0.25500000920E-02 0. -1.
    10030    2    1    2    0    0  0.00000000000E+00  0.00000000000E+00 -0.92124927489E+03  0.17726360228E+04  0.15144432121E+04 0.  0.
        1    1    3    3  502    0  0.32341033803E+03  0.56935486949E+03 -0.90575660415E+03  0.11176556894E+04  0.50400001928E-02 0. -1.
       -1    1    3    3    0  502 -0.32341033803E+03 -0.56935486949E+03 -0.15492670736E+02  0.65498033332E+03  0.50400001928E-02 0.  1.
</event>
<event>
 5   0  0.2734072E-04  0.1497457E+04  0.7818609E-02  0.8886146E-01
       -2   -1    0    0    0  501  0.00000000000E+00  0.00000000000E+00  0.64206606858E+03  0.64206606859E+03  0.25500000920E-02 0. -1.
        2   -1    0    0  501    0  0.00000000000E+00  0.00000000000E+00 -0.87311002282E+03  0.87311002283E+03  0.25500000920E-02 0.  1.
    10030    2    1    2    0    0  0.00000000000E+00  0.00000000000E+00 -0.23104395424E+03  0.15151760914E+04  0.14974569373E+04 0.  0.
        5    1    3    3  502    0 -0.45210866655E+03  0.58757270965E+03 -0.22129744570E+03  0.77371738055E+03  0.46999998093E+01 0.  1.
       -5    1    3    3    0  502  0.45210866655E+03 -0.58757270965E+03 -0.97465085428E+01  0.74145871087E+03  0.46999998093E+01 0. -1.
</event>
<event>
 5   0  0.2641347E-04  0.1497597E+04  0.7818609E-02  0.8886052E-01
       -2   -1    0    0    0  501  0.00000000000E+00  0.00000000000E+00  0.39717805623E+03  0.39717805624E+03  0.25500000920E-02 0.  1.
        2   -1    0    0  501    0  0.00000000000E+00  0.00000000000E+00 -0.14117080360E+04  0.14117080360E+04  0.25500000920E-02 0. -1.
    10030    2    1    2    0    0  0.00000000000E+00  0.00000000000E+00 -0.10145299798E+04  0.18088860923E+04  0.14975973474E+04 0.  0.
        4    1    3    3  502    0  0.85604117545E+02  0.51967049035E+03 -0.11501731179E+04  0.12650238328E+04  0.12699999809E+01 0. -1.
       -4    1    3    3    0  502 -0.85604117545E+02 -0.51967049035E+03  0.13564313809E+03  0.54386225949E+03  0.12699999809E+01 0.  1.
</event>
<event>
 5   0  0.1484251E-04  0.1501808E+04  0.7818609E-02  0.8883252E-01
        1   -1    0    0  501    0  0.00000000000E+00  0.00000000000E+00  0.19736622027E+04  0.19736622027E+04  0.50400001928E-02 0.  1.
       -1   -1    0    0    0  501  0.00000000000E+00  0.00000000000E+00 -0.28569051268E+03  0.28569051272E+03  0.50400001928E-02 0. -1.
    10030    2    1    2    0    0  0.00000000000E+00  0.00000000000E+00  0.16879716900E+04  0.22593527154E+04  0.15018076663E+04 0.  0.
        5    1    3    3  502    0  0.12594889506E+03 -0.16679044886E+02 -0.26938123983E+03  0.29787523743E+03  0.46999998093E+01 0. -1.
       -5    1    3    3    0  502 -0.12594889506E+03  0.16679044886E+02  0.19573529299E+04  0.19614774780E+04  0.46999998093E+01 0.  1.
</event>
<event>
 5   0  0.1426929E-04  0.1578803E+04  0.7818609E-02  0.8833677E-01
        1   -1    0    0  501    0  0.00000000000E+00  0.00000000000E+00  0.68393346041E+03  0.68393346043E+03  0.50400001928E-02 0. -1.
       -1   -1    0    0    0  501  0.00000000000E+00  0.00000000000E+00 -0.91113400747E+03  0.91113400748E+03  0.50400001928E-02 0.  1.
    10030    2    1    2    0    0  0.00000000000E+00  0.00000000000E+00 -0.22720054706E+03  0.15950674679E+04  0.15788033882E+04 0.  0.
        1    1    3    3  502    0  0.52330037049E+02  0.78619368880E+03 -0.64978778818E+02  0.79060811456E+03  0.50400001928E-02 0.  1.
       -1    1    3    3    0  502 -0.52330037049E+02 -0.78619368880E+03 -0.16222176824E+03  0.80445935335E+03  0.50400001928E-02 0. -1.
</event>
<event>
 5   0  0.1443750E-04  0.1502091E+04  0.7818609E-02  0.8883064E-01
       -1   -1    0    0    0  501  0.00000000000E+00  0.00000000000E+00  0.69654022925E+03  0.69654022927E+03  0.50400001928E-02 0.  1.
        1   -1    0    0  501    0  0.00000000000E+00  0.00000000000E+00 -0.80981590043E+03  0.80981590044E+03  0.50400001928E-02 0. -1.
    10030    2    1    2    0    0  0.00000000000E+00  0.00000000000E+00 -0.11327567118E+03  0.15063561297E+04  0.15020910132E+04 0.  0.
        2    1    3    3  502    0 -0.22285391584E+03  0.55386429210E+02  0.66047149396E+03  0.69925254285E+03  0.25500000920E-02 0.  1.
       -2    1    3    3    0  502  0.22285391584E+03 -0.55386429210E+02 -0.77374716514E+03  0.80710358686E+03  0.25500000920E-02 0. -1.
</event>
<event>
 5   0  0.1443750E-04  0.1472760E+04  0.7818609E-02  0.8902772E-01
       -1   -1    0    0    0  501  0.00000000000E+00  0.00000000000E+00  0.71835789159E+03  0.71835789161E+03  0.50400001928E-02 0. -1.
        1   -1    0    0  501    0  0.00000000000E+00  0.00000000000E+00 -0.75485449931E+03  0.75485449933E+03  0.50400001928E-02 0.  1.
    10030    2    1    2    0    0  0.00000000000E+00  0.00000000000E+00 -0.36496607717E+02  0.14732123909E+04  0.14727602474E+04 0.  0.
        2    1    3    3  502    0  0.28883733602E+03 -0.80328782606E+01  0.65928094350E+03  0.71982143361E+03  0.25500000920E-02 0. -1.
       -2    1    3    3    0  502 -0.28883733602E+03  0.80328782606E+01 -0.69577755121E+03  0.75339095733E+03  0.25500000920E-02 0.  1.
</event>
<event>
 5   0  0.1474203E-04  0.1488924E+04  0.7818609E-02  0.8891852E-01
       -1   -1    0    0    0  501  0.00000000000E+00  0.00000000000E+00  0.46417344955E+03  0.46417344958E+03  0.50400001928E-02 0. -1.
        1   -1    0    0  501    0  0.00000000000E+00  0.00000000000E+00 -0.11940015692E+04  0.11940015693E+04  0.50400001928E-02 0.  1.
    10030    2    1    2    0    0  0.00000000000E+00  0.00000000000E+00 -0.72982811969E+03  0.16581750188E+04  0.14889242119E+04 0.  0.
        3    1    3    3  502    0  0.65669262808E+03  0.19744051549E+03 -0.42148865679E+02  0.68702583795E+03  0.10100000352E+00 0.  1.
       -3    1    3    3    0  502 -0.65669262808E+03 -0.19744051549E+03 -0.68767925401E+03  0.97114918088E+03  0.10100000352E+00 0. -1.
</event>
<event>
 5   0  0.2618901E-04  0.1494330E+04  0.7818609E-02  0.8888232E-01
       -2   -1    0    0    0  501  0.00000000000E+00  0.00000000000E+00  0.89691924385E+03  0.89691924386E+03  0.25500000920E-02 0.  1.
        2   -1    0    0  501    0  0.00000000000E+00  0.00000000000E+00 -0.62241410900E+03  0.62241410901E+03  0.25500000920E-02 0. -1.
    10030    2    1    2    0    0  0.00000000000E+00  0.00000000000E+00  0.27450513485E+03  0.15193333529E+04  0.14943295380E+04 0.  0.
        1    1    3    3  502    0  0.33677426107E+03  0.49423142749E+03 -0.31809556458E+03  0.67739677816E+03  0.50400001928E-02 0. -1.
       -1    1    3    3    0  502 -0.33677426107E+03 -0.49423142749E+03  0.59260069943E+03  0.84193657470E+03  0.50400001928E-02 0.  1.
</event>
<event>
 5   0  0.1443750E-04  0.1501136E+04  0.7818609E-02  0.8883698E-01
       -1   -1    0    0    0  501  0.00000000000E+00  0.00000000000E+00  0.64718320548E+03  0.64718320550E+03  0.50400001928E-02 0. -1.
        1   -1    0    0  501    0  0.00000000000E+00  0.00000000000E+00 -0.87046858789E+03  0.87046858791E+03  0.50400001928E-02 0.  1.
    10030    2    1    2    0    0  0.00000000000E+00  0.00000000000E+00 -0.22328538241E+03  0.15176517934E+04  0.15011364375E+04 0.  0.
        2    1    3    3  502    0 -0.35491770406E+03  0.12492661683E+03 -0.76823329366E+03  0.85542716215E+03  0.25500000920E-02 0.  1.
       -2    1    3    3    0  502  0.35491770406E+03 -0.12492661683E+03  0.54494791126E+03  0.66222463125E+03  0.25500000920E-02 0. -1.
</event>
<event>
 5   0  0.1427609E-04  0.1513101E+04  0.7818609E-02  0.8875787E-01
        1   -1    0    0  501    0  0.00000000000E+00  0.00000000000E+00  0.57541467070E+03  0.57541467072E+03  0.50400001928E-02 0.  1.
       -1   -1    0    0    0  501  0.00000000000E+00  0.00000000000E+00 -0.99470626677E+03  0.99470626678E+03  0.50400001928E-02 0. -1.
    10030    2    1    2    0    0  0.00000000000E+00  0.00000000000E+00 -0.41929159607E+03  0.15701209375E+04  0.15131008941E+04 0.  0.
        4    1    3    3  502    0 -0.38550904206E+03  0.30131756009E+03  0.38912360529E+03  0.62516260814E+03  0.12699999809E+01 0.  1.
       -4    1    3    3    0  502  0.38550904206E+03 -0.30131756009E+03 -0.80841520136E+03  0.94495832936E+03  0.12699999809E+01 0. -1.
</event>
<event>
 5   0  0.2641347E-04  0.1499628E+04  0.7818609E-02  0.8884700E-01
        2   -1    0    0  501    0  0.00000000000E+00  0.00000000000E+00  0.11152983652E+04  0.11152983652E+04  0.25500000920E-02 0.  1.
       -2   -1    0    0    0  501  0.00000000000E+00  0.00000000000E+00 -0.50409929766E+03  0.50409929766E+03  0.25500000920E-02 0. -1.
    10030    2    1    2    0    0  0.00000000000E+00  0.00000000000E+00  0.61119906752E+03  0.16193976628E+04  0.14996281173E+04 0.  0.
        4    1    3    3  502    0  0.16188894040E+03  0.58390489097E+03 -0.17133782793E+03  0.62969136480E+03  0.12699999809E+01 0. -1.
       -4    1    3    3    0  502 -0.16188894040E+03 -0.58390489097E+03  0.78253689545E+03  0.98970629803E+03  0.12699999809E+01 0.  1.
</event>
<event>
 5   0  0.1484251E-04  0.1498339E+04  0.7818609E-02  0.8885558E-01
       -1   -1    0    0    0  501  0.00000000000E+00  0.00000000000E+00  0.37501885000E+03  0.37501885003E+03  0.50400001928E-02 0. -1.
        1   -1    0    0  501    0  0.00000000000E+00  0.00000000000E+00 -0.14966045518E+04  0.14966045519E+04  0.50400001928E-02 0.  1.
    10030    2    1    2    0    0  0.00000000000E+00  0.00000000000E+00 -0.11215857018E+04  0.18716234019E+04  0.14983389710E+04 0.  0.
        5    1    3    3  502    0 -0.48057795506E+03 -0.11499283085E+03 -0.12641488876E+04  0.13573035851E+04  0.46999998093E+01 0.  1.
       -5    1    3    3    0  502  0.48057795506E+03  0.11499283085E+03  0.14256318576E+03  0.51431981681E+03  0.46999998093E+01 0. -1.
</event>
<event>
 5   0  0.1484251E-04  0.1501122E+04  0.7818609E-02  0.8883707E-01
        1   -1    0    0  501    0  0.00000000000E+00  0.00000000000E+00  0.14934561563E+04  0.14934561563E+04  0.50400001928E-02 0.  1.
       -1   -1    0    0    0  501  0.00000000000E+00  0.00000000000E+00 -0.37720676266E+03  0.37720676269E+03  0.50400001928E-02 0. -1.
    10030    2    1    2    0    0  0.00000000000E+00  0.00000000000E+00  0.11162493936E+04  0.18706629190E+04  0.15011219297E+04 0.  0.
        5    1    3    3  502    0  0.66831634379E+03  0.75066319186E+02  0.14286923571E+03  0.68754301404E+03  0.46999998093E+01 0. -1.
       -5    1    3    3    0  502 -0.66831634379E+03 -0.75066319186E+02  0.97338015793E+03  0.11831199050E+04  0.46999998093E+01 0.  1.
</event>
<event>
 5   0  0.1443750E-04  0.1478617E+04  0.7818609E-02  0.8898798E-01
       -1   -1    0    0    0  501  0.00000000000E+00  0.00000000000E+00  0.15693263141E+04  0.15693263141E+04  0.50400001928E-02 0. -1.
        1   -1    0    0  501    0  0.00000000000E+00  0.00000000000E+00 -0.34828769274E+03  0.34828769278E+03  0.50400001928E-02 0.  1.
    10030    2    1    2    0    0  0.00000000000E+00  0.00000000000E+00  0.12210386214E+04  0.19176140069E+04  0.14786169770E+04 0.  0.
        2    1    3    3  502    0  0.36554223899E+03  0.54578770317E+03  0.10504555738E+04  0.12389359378E+04  0.25500000920E-02 0. -1.
       -2    1    3    3    0  502 -0.36554223899E+03 -0.54578770317E+03  0.17058304764E+03  0.67867806917E+03  0.25500000920E-02 0.  1.
</event>
<event>
 5   0  0.2618901E-04  0.1503762E+04  0.7818609E-02  0.8881955E-01
        2   -1    0    0  501    0  0.00000000000E+00  0.00000000000E+00  0.91050445630E+03  0.91050445631E+03  0.25500000920E-02 0. -1.
       -2   -1    0    0    0  501  0.00000000000E+00  0.00000000000E+00 -0.62089183502E+03  0.62089183503E+03  0.25500000920E-02 0.  1.
    10030    2    1    2    0    0  0.00000000000E+00  0.00000000000E+00  0.28961262128E+03  0.15313962913E+04  0.15037616602E+04 0.  0.
        1    1    3    3  502    0 -0.45211566253E+03 -0.60036503932E+03  0.16707199863E+03  0.76990895922E+03  0.50400001928E-02 0.  1.
       -1    1    3    3    0  502  0.45211566253E+03  0.60036503932E+03  0.12254062265E+03  0.76148733211E+03  0.50400001928E-02 0. -1.
</event>
<event>
 5   0  0.1443750E-04  0.1500183E+04  0.7818609E-02  0.8884331E-01
        1   -1    0    0  501    0  0.00000000000E+00  0.00000000000E+00  0.21357475900E+04  0.21357475900E+04  0.50400001928E-02 0.  1.
       -1   -1    0    0    0  501  0.00000000000E+00  0.00000000000E+00 -0.26343806015E+03  0.26343806020E+03  0.50400001928E-02 0. -1.
    10030    2    1    2    0    0  0.00000000000E+00  0.00000000000E+00  0.18723095298E+04  0.23991856502E+04  0.15001829250E+04 0.  0.
        2    1    3    3  502    0 -0.54943165737E+03  0.64914548482E+01  0.17527498126E+04  0.18368585113E+04  0.25500000920E-02 0.  1.
       -2    1    3    3    0  502  0.54943165737E+03 -0.64914548482E+01  0.11955971724E+03  0.56232713886E+03  0.25500000920E-02 0. -1.
</event>
<event>
 5   0  0.2618901E-04  0.1503333E+04  0.7818609E-02  0.8882240E-01
       -2   -1    0    0    0  501  0.00000000000E+00  0.00000000000E+00  0.68147187279E+03  0.68147187280E+03  0.25500000920E-02 0. -1.
        2   -1    0    0  501    0  0.00000000000E+00  0.00000000000E+00 -0.82909146767E+03  0.82909146767E+03  0.25500000920E-02 0.  1.
    10030    2    1    2    0    0  0.00000000000E+00  0.00000000000E+00 -0.14761959488E+03  0.15105633405E+04  0.15033329840E+04 0.  0.
        1    1    3    3  502    0 -0.74326851856E+03 -0.44169018914E+02 -0.17727845888E+03  0.76539313096E+03  0.50400001928E-02 0. -1.
       -1    1    3    3    0  502  0.74326851856E+03  0.44169018914E+02  0.29658864003E+02  0.74517020951E+03  0.50400001928E-02 0.  1.
</event>
<event>
 5   0  0.2646718E-04  0.1497981E+04  0.7818609E-02  0.8885797E-01
       -2   -1    0    0    0  501  0.00000000000E+00  0.00000000000E+00  0.56609291260E+03  0.56609291260E+03  0.25500000920E-02 0.  1.
        2   -1    0    0  501    0  0.00000000000E+00  0.00000000000E+00 -0.99097974866E+03  0.99097974867E+03  0.25500000920E-02 0. -1.
    10030    2    1    2    0    0  0.00000000000E+00  0.00000000000E+00 -0.42488683607E+03  0.15570726613E+04  0.14979807906E+04 0.  0.
        3    1    3    3  502    0  0.52634824950E+02 -0.48181485533E+03  0.38110817041E+03  0.61657069940E+03  0.10100000352E+00 0.  1.
       -3    1    3    3    0  502 -0.52634824950E+02  0.48181485533E+03 -0.80599500647E+03  0.94050196186E+03  0.10100000352E+00 0. -1.
</event>
<event>
 5   0  0.2646718E-04  0.1500812E+04  0.7818609E-02  0.8883913E-01
        2   -1    0    0  501    0  0.00000000000E+00  0.00000000000E+00  0.94669197538E+03  0.94669197539E+03  0.25500000920E-02 0.  1.
       -2   -1    0    0    0  501  0.00000000000E+00  0.00000000000E+00 -0.59481784019E+03  0.59481784019E+03  0.25500000920E-02 0. -1.
    10030    2    1    2    0    0  0.00000000000E+00  0.00000000000E+00  0.35187413520E+03  0.15415098156E+04  0.15008121483E+04 0.  0.
        3    1    3    3  502    0 -0.94179371603E+02  0.49385130038E+03 -0.39626064354E+03  0.64014167865E+03  0.10100000352E+00 0. -1.
       -3    1    3    3    0  502  0.94179371603E+02 -0.49385130038E+03  0.74813477873E+03  0.90136813693E+03  0.10100000352E+00 0.  1.
</event>
<event>
 5   0  0.1426929E-04  0.1498987E+04  0.7818609E-02  0.8885127E-01
        1   -1    0    0  501    0  0.00000000000E+00  0.00000000000E+00  0.60528078133E+03  0.60528078135E+03  0.50400001928E-02 0.  1.
       -1   -1    0    0    0  501  0.00000000000E+00  0.00000000000E+00 -0.92806603215E+03  0.92806603216E+03  0.50400001928E-02 0. -1.
    10030    2    1    2    0    0  0.00000000000E+00  0.00000000000E+00 -0.32278525082E+03  0.15333468135E+04  0.14989870354E+04 0.  0.
        1    1    3    3  502    0 -0.36037291261E+03 -0.14964431784E+03  0.49318032861E+03  0.62887907785E+03  0.50400001928E-02 0.  1.
       -1    1    3    3    0  502  0.36037291261E+03  0.14964431784E+03 -0.81596557943E+03  0.90446773566E+03  0.50400001928E-02 0. -1.
</event>
<event>
 5   0  0.1484251E-04  0.1499121E+04  0.7818609E-02  0.8885038E-01
        1   -1    0    0  501    0  0.00000000000E+00  0.00000000000E+00  0.10323604187E+04  0.10323604187E+04  0.50400001928E-02 0. -1.
       -1   -1    0    0    0  501  0.00000000000E+00  0.00000000000E+00 -0.54422909398E+03  0.54422909400E+03  0.50400001928E-02 0.  1.
    10030    2    1    2    0    0  0.00000000000E+00  0.00000000000E+00  0.48813132468E+03  0.15765895127E+04  0.14991205093E+04 0.  0.
        5    1    3    3  502    0  0.38410499090E+03  0.23314758789E+03  0.87500487173E+03  0.98364122388E+03  0.46999998093E+01 0. -1.
       -5    1    3    3    0  502 -0.38410499090E+03 -0.23314758789E+03 -0.38687354705E+03  0.59294828879E+03  0.46999998093E+01 0.  1.
</event>
<event>
 5   0  0.2646718E-04  0.1492305E+04  0.7818609E-02  0.8889586E-01
        2   -1    0    0  501    0  0.00000000000E+00  0.00000000000E+00  0.76544717797E+03  0.76544717797E+03  0.25500000920E-02 0.  1.
       -2   -1    0    0    0  501  0.00000000000E+00  0.00000000000E+00 -0.72734428674E+03  0.72734428674E+03  0.25500000920E-02 0. -1.
    10030    2    1    2    0    0  0.00000000000E+00  0.00000000000E+00  0.38102891231E+02  0.14927914647E+04  0.14923051051E+04 0.  0.
        3    1    3    3  502    0 -0.26264288171E+02  0.99696131771E+02  0.75828788824E+03  0.76526444003E+03  0.10100000352E+00 0.  1.
       -3    1    3    3    0  502  0.26264288171E+02 -0.99696131771E+02 -0.72018499701E+03  0.72752702468E+03  0.10100000352E+00 0. -1.
</event>
<event>
 5   0  0.1484251E-04  0.1480967E+04  0.7818609E-02  0.8897209E-01
        1   -1    0    0  501    0  0.00000000000E+00  0.00000000000E+00  0.81371359116E+03  0.81371359117E+03  0.50400001928E-02 0. -1.
       -1   -1    0    0    0  501  0.00000000000E+00  0.00000000000E+00 -0.67384397795E+03  0.67384397797E+03  0.50400001928E-02 0.  1.
    10030    2    1    2    0    0  0.00000000000E+00  0.00000000000E+00  0.13986961321E+03  0.14875575691E+04  0.14809672558E+04 0.  0.
        5    1    3    3  502    0 -0.66902796874E+03 -0.29222350157E+03  0.19418212730E+03  0.75546130701E+03  0.46999998093E+01 0. -1.
       -5    1    3    3    0  502  0.66902796874E+03  0.29222350157E+03 -0.54312514093E+02  0.73209626213E+03  0.46999998093E+01 0.  1.
</event>
<event>
 5   0  0.2696040E-04  0.1476007E+04  0.7818609E-02  0.8900567E-01
       -2   -1    0    0    0  501  0.00000000000E+00  0.00000000000E+00  0.49150215798E+03  0.49150215798E+03  0.25500000920E-02 0. -1.
        2   -1    0    0  501    0  0.00000000000E+00  0.00000000000E+00 -0.11081316974E+04  0.11081316974E+04  0.25500000920E-02 0.  1.
    10030    2    1    2    0    0  0.00000000000E+00  0.00000000000E+00 -0.61662953939E+03  0.15996338554E+04  0.14760069384E+04 0.  0.
        2    1    3    3  502    0 -0.28298106118E+03  0.25829215859E+03 -0.99190389356E+03  0.10633280088E+04  0.25500000920E-02 0.  1.
       -2    1    3    3    0  502  0.28298106118E+03 -0.25829215859E+03  0.37527435417E+03  0.53630584658E+03  0.25500000920E-02 0. -1.
</event>
<event>
 5   0  0.1426929E-04  0.1501801E+04  0.7818609E-02  0.8883256E-01
       -1   -1    0    0    0  501  0.00000000000E+00  0.00000000000E+00  0.14693712288E+04  0.14693712289E+04  0.50400001928E-02 0. -1.
        1   -1    0    0  501    0  0.00000000000E+00  0.00000000000E+00 -0.38373670168E+03  0.38373670172E+03  0.50400001928E-02 0.  1.
    10030    2    1    2    0    0  0.00000000000E+00  0.00000000000E+00  0.10856345272E+04  0.18531079306E+04  0.15018011439E+04 0.  0.
        1    1    3    3  502    0 -0.52662029281E+03 -0.53355148804E+03  0.59582639517E+03  0.95760911461E+03  0.50400001928E-02 0. -1.
       -1    1    3    3    0  502  0.52662029281E+03  0.53355148804E+03  0.48980813200E+03  0.89549881596E+03  0.50400001928E-02 0.  1.
</event>
<event>
 5   0  0.1426929E-04  0.1527738E+04  0.7818609E-02  0.8866214E-01
        1   -1    0    0  501    0  0.00000000000E+00  0.00000000000E+00  0.19960893822E+04  0.19960893822E+04  0.50400001928E-02 0. -1.
       -1   -1    0    0    0  501  0.00000000000E+00  0.00000000000E+00 -0.29231936921E+03  0.29231936925E+03  0.50400001928E-02 0.  1.
    10030    2    1    2    0    0  0.00000000000E+00  0.00000000000E+00  0.17037700130E+04  0.22884087514E+04  0.15277376596E+04 0.  0.
        1    1    3    3  502    0  0.74563861588E+03 -0.12375706240E+03  0.10173534386E+04  0.12673992169E+04  0.50400001928E-02 0.  1.
       -1    1    3    3    0  502 -0.74563861588E+03  0.12375706240E+03  0.68641657437E+03  0.10210095345E+04  0.50400001928E-02 0. -1.
</event>
<event>
 5   0  0.1443750E-04  0.1511429E+04  0.7818609E-02  0.8876888E-01
       -1   -1    0    0    0  501  0.00000000000E+00  0.00000000000E+00  0.54914777680E+03  0.54914777682E+03  0.50400001928E-02 0.  1.
        1   -1    0    0  501    0  0.00000000000E+00  0.00000000000E+00 -0.10399829010E+04  0.10399829010E+04  0.50400001928E-02 0. -1.
    10030    2    1    2    0    0  0.00000000000E+00  0.00000000000E+00 -0.49083512424E+03  0.15891306779E+04  0.15114288578E+04 0.  0.
        2    1    3    3  502    0 -0.14908552999E+02  0.14248619916E+03  0.53473943057E+03  0.55359808573E+03  0.25500000920E-02 0.  1.
       -2    1    3    3    0  502  0.14908552999E+02 -0.14248619916E+03 -0.10255745548E+04  0.10355325921E+04  0.25500000920E-02 0. -1.
</event>
<event>
 5   0  0.2641347E-04  0.1503843E+04  0.7818609E-02  0.8881901E-01
       -2   -1    0    0    0  501  0.00000000000E+00  0.00000000000E+00  0.48683527033E+03  0.48683527034E+03  0.25500000920E-02 0. -1.
        2   -1    0    0  501    0  0.00000000000E+00  0.00000000000E+00 -0.11613498958E+04  0.11613498958E+04  0.25500000920E-02 0.  1.
    10030    2    1    2    0    0  0.00000000000E+00  0.00000000000E+00 -0.67451462548E+03  0.16481851662E+04  0.15038431973E+04 0.  0.
        4    1    3    3  502    0  0.12155971742E+03  0.36523649821E+03 -0.10451718112E+04  0.11138043780E+04  0.12699999809E+01 0.  1.
       -4    1    3    3    0  502 -0.12155971742E+03 -0.36523649821E+03  0.37065718574E+03  0.53438078817E+03  0.12699999809E+01 0. -1.
</event>
<event>
 5   0  0.1474203E-04  0.1497526E+04  0.7818609E-02  0.8886100E-01
        1   -1    0    0  501    0  0.00000000000E+00  0.00000000000E+00  0.18131047348E+04  0.18131047348E+04  0.50400001928E-02 0. -1.
       -1   -1    0    0    0  501  0.00000000000E+00  0.00000000000E+00 -0.30921868616E+03  0.30921868620E+03  0.50400001928E-02 0.  1.
    10030    2    1    2    0    0  0.00000000000E+00  0.00000000000E+00  0.15038860487E+04  0.21223234210E+04  0.14975257781E+04 0.  0.
        3    1    3    3  502    0  0.54604129162E+03  0.40542103106E+03  0.11958713111E+04  0.13757308994E+04  0.10100000352E+00 0. -1.
       -3    1    3    3    0  502 -0.54604129162E+03 -0.40542103106E+03  0.30801473752E+03  0.74659252160E+03  0.10100000352E+00 0.  1.
</event>
<event>
 5   0  0.1484251E-04  0.1499672E+04  0.7818609E-02  0.8884671E-01
        1   -1    0    0  501    0  0.00000000000E+00  0.00000000000E+00  0.11595332859E+04  0.11595332859E+04  0.50400001928E-02 0.  1.
       -1   -1    0    0    0  501  0.00000000000E+00  0.00000000000E+00 -0.48489695617E+03  0.48489695619E+03  0.50400001928E-02 0. -1.
    10030    2    1    2    0    0  0.00000000000E+00  0.00000000000E+00  0.67463632970E+03  0.16444302421E+04  0.14996721787E+04 0.  0.
        5    1    3    3  502    0 -0.57658800949E+03 -0.47416000370E+03  0.26016578680E+03  0.79056294400E+03  0.46999998093E+01 0.  1.
       -5    1    3    3    0  502  0.57658800949E+03  0.47416000370E+03  0.41447054290E+03  0.85386729808E+03  0.46999998093E+01 0. -1.
</event>
<event>
 5   0  0.1443750E-04  0.1502784E+04  0.7818609E-02  0.8882604E-01
        1   -1    0    0  501    0  0.00000000000E+00  0.00000000000E+00  0.86713689455E+03  0.86713689457E+03  0.50400001928E-02 0.  1.
       -1   -1    0    0    0  501  0.00000000000E+00  0.00000000000E+00 -0.65109644831E+03  0.65109644833E+03  0.50400001928E-02 0. -1.
    10030    2    1    2    0    0  0.00000000000E+00  0.00000000000E+00  0.21604044625E+03  0.15182333429E+04  0.15027837533E+04 0.  0.
        2    1    3    3  502    0 -0.16045036731E+03 -0.83773770750E+02  0.84478250262E+03  0.86395592583E+03  0.25500000920E-02 0.  1.
       -2    1    3    3    0  502  0.16045036731E+03  0.83773770750E+02 -0.62874205637E+03  0.65427741707E+03  0.25500000920E-02 0. -1.
</event>
<event>
 5   0  0.2696040E-04  0.1499026E+04  0.7818609E-02  0.8885101E-01
        2   -1    0    0  501    0  0.00000000000E+00  0.00000000000E+00  0.91125686507E+03  0.91125686507E+03  0.25500000920E-02 0.  1.
       -2   -1    0    0    0  501  0.00000000000E+00  0.00000000000E+00 -0.61647807622E+03  0.61647807623E+03  0.25500000920E-02 0. -1.
    10030    2    1    2    0    0  0.00000000000E+00  0.00000000000E+00  0.29477878885E+03  0.15277349413E+04  0.14990261894E+04 0.  0.
        2    1    3    3  502    0  0.59245973569E+03 -0.36161303331E+03  0.43564423214E+03  0.81948668158E+03  0.25500000920E-02 0. -1.
       -2    1    3    3    0  502 -0.59245973569E+03  0.36161303331E+03 -0.14086544329E+03  0.70824825972E+03  0.25500000920E-02 0.  1.
</event>
<event>
 5   0  0.2641347E-04  0.1496123E+04  0.7818609E-02  0.8887035E-01
        2   -1    0    0  501    0  0.00000000000E+00  0.00000000000E+00  0.82582790466E+03  0.82582790466E+03  0.25500000920E-02 0. -1.
       -2   -1    0    0    0  501  0.00000000000E+00  0.00000000000E+00 -0.67761826601E+03  0.67761826601E+03  0.25500000920E-02 0.  1.
    10030    2    1    2    0    0  0.00000000000E+00  0.00000000000E+00  0.14820963865E+03  0.15034461707E+04  0.14961230869E+04 0.  0.
        4    1    3    3  502    0  0.71084011019E+01  0.48301152709E+02 -0.67601453592E+03  0.67777636164E+03  0.12699999809E+01 0.  1.
       -4    1    3    3    0  502 -0.71084011019E+01 -0.48301152709E+02  0.82422417457E+03  0.82566980904E+03  0.12699999809E+01 0. -1.
</event>
<event>
 5   0  0.2641347E-04  0.1496482E+04  0.7818609E-02  0.8886796E-01
        2   -1    0    0  501    0  0.00000000000E+00  0.00000000000E+00  0.12422609121E+04  0.12422609121E+04  0.25500000920E-02 0. -1.
       -2   -1    0    0    0  501  0.00000000000E+00  0.00000000000E+00 -0.45068195559E+03  0.45068195559E+03  0.25500000920E-02 0.  1.
    10030    2    1    2    0    0  0.00000000000E+00  0.00000000000E+00  0.79157895654E+03  0.16929428677E+04  0.14964819775E+04 0.  0.
        4    1    3    3  502    0 -0.44445878333E+03 -0.48476332699E+03 -0.78798279614E+01  0.65772547302E+03  0.12699999809E+01 0. -1.
       -4    1    3    3    0  502  0.44445878333E+03  0.48476332699E+03  0.79945878450E+03  0.10352173947E+04  0.12699999809E+01 0.  1.
</event>
<event>
 5   0  0.1427609E-04  0.1502536E+04  0.7818609E-02  0.8882768E-01
       -1   -1    0    0    0  501  0.00000000000E+00  0.00000000000E+00  0.13354026095E+04  0.13354026095E+04  0.50400001928E-02 0.  1.
        1   -1    0    0  501    0  0.00000000000E+00  0.00000000000E+00 -0.42264669630E+03  0.42264669633E+03  0.50400001928E-02 0. -1.
    10030    2    1    2    0    0  0.00000000000E+00  0.00000000000E+00  0.91275591323E+03  0.17580493059E+04  0.15025358580E+04 0.  0.
        4    1    3    3  502    0  0.71357895874E+02  0.10049299986E+03  0.13234912759E+04  0.13292184029E+04  0.12699999809E+01 0.  1.
       -4    1    3    3    0  502 -0.71357895874E+02 -0.10049299986E+03 -0.41073536265E+03  0.42883090298E+03  0.12699999809E+01 0. -1.
</event>
<event>
 5   0  0.2696040E-04  0.1498873E+04  0.7818609E-02  0.8885202E-01
        2   -1    0    0  501    0  0.00000000000E+00  0.00000000000E+00  0.80692626900E+03  0.80692626901E+03  0.25500000920E-02 0.  1.
       -2   -1    0    0    0  501  0.00000000000E+00  0.00000000000E+00 -0.69604306784E+03  0.69604306784E+03  0.25500000920E-02 0. -1.
    10030    2    1    2    0    0  0.00000000000E+00  0.00000000000E+00  0.11088320116E+03  0.15029693369E+04  0.14988734914E+04 0.  0.
        2    1    3    3  502    0  0.30072128490E+03 -0.49731139100E+03  0.52991908325E+03  0.78648976192E+03  0.25500000920E-02 0.  1.
       -2    1    3    3    0  502 -0.30072128490E+03  0.49731139100E+03 -0.41903588208E+03  0.71647957493E+03  0.25500000920E-02 0. -1.
</event>
<event>
 5   0  0.2641347E-04  0.1507412E+04  0.7818609E-02  0.8879539E-01
        2   -1    0    0  501    0  0.00000000000E+00  0.00000000000E+00  0.65320095219E+03  0.65320095219E+03  0.25500000920E-02 0. -1.
       -2   -1    0    0    0  501  0.00000000000E+00  0.00000000000E+00 -0.86967514551E+03  0.86967514551E+03  0.25500000920E-02 0.  1.
    10030    2    1    2    0    0  0.00000000000E+00  0.00000000000E+00 -0.21647419332E+03  0.15228760977E+04  0.15074118656E+04 0.  0.
        4    1    3    3  502    0 -0.23815026404E+03 -0.76989697157E+02  0.60999087466E+03  0.65934318969E+03  0.12699999809E+01 0. -1.
       -4    1    3    3    0  502  0.23815026404E+03  0.76989697157E+02 -0.82646506798E+03  0.86353290801E+03  0.12699999809E+01 0.  1.
</event>
<event>
 5   0  0.2734072E-04  0.1480731E+04  0.7818609E-02  0.8897369E-01
       -2   -1    0    0    0  501  0.00000000000E+00  0.00000000000E+00  0.75835444975E+03  0.75835444976E+03  0.25500000920E-02 0.  1.
        2   -1    0    0  501    0  0.00000000000E+00  0.00000000000E+00 -0.72280287387E+03  0.72280287387E+03  0.25500000920E-02 0. -1.
    10030    2    1    2    0    0  0.00000000000E+00  0.00000000000E+00  0.35551575884E+02  0.14811573236E+04  0.14807305976E+04 0.  0.
        5    1    3    3  502    0 -0.59700710323E+03 -0.42155132749E+03 -0.10056165571E+03  0.73773825956E+03  0.46999998093E+01 0. -1.
       -5    1    3    3    0  502  0.59700710323E+03  0.42155132749E+03  0.13611323160E+03  0.74341906407E+03  0.46999998093E+01 0.  1.
</event>
<event>
 5   0  0.1004313E-04  0.1498280E+04  0.7818609E-02  0.8885597E-01
        4   -1    0    0  501    0  0.00000000000E+00  0.00000000000E+00  0.12727932643E+04  0.12727938979E+04  0.12699999809E+01 0. -1.
       -4   -1    0    0    0  501  0.00000000000E+00  0.00000000000E+00 -0.44092684982E+03  0.44092867881E+03  0.12699999809E+01 0.  1.
    10030    2    1    2    0    0  0.00000000000E+00  0.00000000000E+00  0.83186641448E+03  0.17137225767E+04  0.14982801268E+04 0.  0.
        4    1    3    3  502    0  0.68003665539E+03 -0.25782904008E+03  0.21042073862E+03  0.75710248099E+03  0.12699999809E+01 0. -1.
       -4    1    3    3    0  502 -0.68003665539E+03  0.25782904008E+03  0.62144567587E+03  0.95662009572E+03  0.12699999809E+01 0.  1.
</event>
<event>
 5   0  0.2646718E-04  0.1499712E+04  0.7818609E-02  0.8884645E-01
        2   -1    0    0  501    0  0.00000000000E+00  0.00000000000E+00  0.21371945210E+04  0.21371945210E+04  0.25500000920E-02 0. -1.
       -2   -1    0    0    0  501  0.00000000000E+00  0.00000000000E+00 -0.26309428700E+03  0.26309428701E+03  0.25500000920E-02 0.  1.
    10030    2    1    2    0    0  0.00000000000E+00  0.00000000000E+00  0.18741002340E+04  0.24002888080E+04  0.14997115305E+04 0.  0.
        3    1    3    3  502    0 -0.64876702602E+03 -0.37519876084E+03  0.89749170904E+03  0.11692579451E+04  0.10100000352E+00 0.  1.
       -3    1    3    3    0  502  0.64876702602E+03  0.37519876084E+03  0.97660852493E+03  0.12310308629E+04  0.10100000352E+00 0. -1.
</event>
<event>
 5   0  0.1484251E-04  0.1499366E+04  0.7818609E-02  0.8884875E-01
        1   -1    0    0  501    0  0.00000000000E+00  0.00000000000E+00  0.80325030933E+03  0.80325030935E+03  0.50400001928E-02 0.  1.
       -1   -1    0    0    0  501  0.00000000000E+00  0.00000000000E+00 -0.69968796007E+03  0.69968796009E+03  0.50400001928E-02 0. -1.
    10030    2    1    2    0    0  0.00000000000E+00  0.00000000000E+00  0.10356234926E+03  0.15029382694E+04  0.14993659598E+04 0.  0.
        5    1    3    3  502    0 -0.13957276195E+03 -0.34969912820E+03 -0.59801669906E+03  0.70669377986E+03  0.46999998093E+01 0. -1.
       -5    1    3    3    0  502  0.13957276195E+03  0.34969912820E+03  0.70157904832E+03  0.79624448957E+03  0.46999998093E+01 0.  1.
</event>
<event>
 5   0  0.1443750E-04  0.1499240E+04  0.7818609E-02  0.8884958E-01
        1   -1    0    0  501    0  0.00000000000E+00  0.00000000000E+00  0.13576327109E+04  0.13576327109E+04  0.50400001928E-02 0.  1.
       -1   -1    0    0    0  501  0.00000000000E+00  0.00000000000E+00 -0.41390466938E+03  0.41390466941E+03  0.50400001928E-02 0. -1.
    10030    2    1    2    0    0  0.00000000000E+00  0.00000000000E+00  0.94372804149E+03  0.17715373803E+04  0.14992404989E+04 0.  0.
        2    1    3    3  502    0 -0.30663505397E+03 -0.65114522756E+02  0.12764666272E+04  0.13143941600E+04  0.25500000920E-02 0.  1.
       -2    1    3    3    0  502  0.30663505397E+03  0.65114522756E+02 -0.33273858575E+03  0.45714322028E+03  0.25500000920E-02 0. -1.
</event>
<event>
 5   0  0.2618901E-04  0.1506104E+04  0.7818609E-02  0.8880404E-01
       -2   -1    0    0    0  501  0.00000000000E+00  0.00000000000E+00  0.32175536212E+03  0.32175536213E+03  0.25500000920E-02 0. -1.
        2   -1    0    0  501    0  0.00000000000E+00  0.00000000000E+00 -0.17624807368E+04  0.17624807368E+04  0.25500000920E-02 0.  1.
    10030    2    1    2    0    0  0.00000000000E+00  0.00000000000E+00 -0.14407253746E+04  0.20842360989E+04  0.15061044156E+04 0.  0.
        1    1    3    3  502    0 -0.38069063696E+03 -0.53395815570E+03 -0.12326727239E+04  0.13962516670E+04  0.50400001928E-02 0.  1.
       -1    1    3    3    0  502  0.38069063696E+03  0.53395815570E+03 -0.20805265070E+03  0.68798443194E+03  0.50400001928E-02 0. -1.
</event>
<event>
 5   0  0.1427609E-04  0.1503006E+04  0.7818609E-02  0.8882456E-01
        1   -1    0    0  501    0  0.00000000000E+00  0.00000000000E+00  0.12689587769E+04  0.12689587769E+04  0.50400001928E-02 0. -1.
       -1   -1    0    0    0  501  0.00000000000E+00  0.00000000000E+00 -0.44505545449E+03  0.44505545452E+03  0.50400001928E-02 0.  1.
    10030    2    1    2    0    0  0.00000000000E+00  0.00000000000E+00  0.82390332245E+03  0.17140142315E+04  0.15030063543E+04 0.  0.
        4    1    3    3  502    0 -0.47646889103E+03  0.77644438586E+02  0.10687454832E+04  0.11727189705E+04  0.12699999809E+01 0. -1.
       -4    1    3    3    0  502  0.47646889103E+03 -0.77644438586E+02 -0.24484216077E+03  0.54129526097E+03  0.12699999809E+01 0.  1.
</event>
<event>
 5   0  0.2646718E-04  0.1514143E+04  0.7818609E-02  0.8875102E-01
        2   -1    0    0  501    0  0.00000000000E+00  0.00000000000E+00  0.13281200043E+04  0.13281200043E+04  0.25500000920E-02 0. -1.
       -2   -1    0    0    0  501  0.00000000000E+00  0.00000000000E+00 -0.43155545606E+03  0.43155545606E+03  0.25500000920E-02 0.  1.
    10030    2    1    2    0    0  0.00000000000E+00  0.00000000000E+00  0.89656454827E+03  0.17596754604E+04  0.15141432352E+04 0.  0.
        3    1    3    3  502    0 -0.69175309960E+02 -0.48231381843E+03  0.11216786422E+04  0.12229369687E+04  0.10100000352E+00 0. -1.
       -3    1    3    3    0  502  0.69175309960E+02  0.48231381843E+03 -0.22511409391E+03  0.53673849166E+03  0.10100000352E+00 0.  1.
</event>
<event>
 5   0  0.1484251E-04  0.1562193E+04  0.7818609E-02  0.8844117E-01
       -1   -1    0    0    0  501  0.00000000000E+00  0.00000000000E+00  0.55152976753E+03  0.55152976756E+03  0.50400001928E-02 0. -1.
        1   -1    0    0  501    0  0.00000000000E+00  0.00000000000E+00 -0.11062169608E+04  0.11062169608E+04  0.50400001928E-02 0.  1.
    10030    2    1    2    0    0  0.00000000000E+00  0.00000000000E+00 -0.55468719328E+03  0.16577467284E+04  0.15621927964E+04 0.  0.
        5    1    3    3  502    0  0.64516039141E+03 -0.20690629406E+03 -0.68976396052E+03  0.96687049619E+03  0.46999998093E+01 0.  1.
       -5    1    3    3    0  502 -0.64516039141E+03  0.20690629406E+03  0.13507676724E+03  0.69087623219E+03  0.46999998093E+01 0. -1.
</event>
<event>
 5   0  0.1474203E-04  0.1506439E+04  0.7818609E-02  0.8880183E-01
        1   -1    0    0  501    0  0.00000000000E+00  0.00000000000E+00  0.39576565859E+03  0.39576565862E+03  0.50400001928E-02 0. -1.
       -1   -1    0    0    0  501  0.00000000000E+00  0.00000000000E+00 -0.14335234768E+04  0.14335234768E+04  0.50400001928E-02 0.  1.
    10030    2    1    2    0    0  0.00000000000E+00  0.00000000000E+00 -0.10377578182E+04  0.18292891354E+04  0.15064386651E+04 0.  0.
        3    1    3    3  502    0 -0.58497731859E+03  0.29450705607E+03 -0.97064030654E+03  0.11709293250E+04  0.10100000352E+00 0.  1.
       -3    1    3    3    0  502  0.58497731859E+03 -0.29450705607E+03 -0.67117511639E+02  0.65835981037E+03  0.10100000352E+00 0. -1.
</event>
<event>
 5   0  0.1004313E-04  0.1518924E+04  0.7818609E-02  0.8871966E-01
        3   -1    0    0  501    0  0.00000000000E+00  0.00000000000E+00  0.27119028177E+03  0.27119030058E+03  0.10100000352E+00 0.  1.
       -3   -1    0    0    0  501  0.00000000000E+00  0.00000000000E+00 -0.21268544564E+04  0.21268544588E+04  0.10100000352E+00 0. -1.
    10030    2    1    2    0    0  0.00000000000E+00  0.00000000000E+00 -0.18556641747E+04  0.23980447594E+04  0.15189236778E+04 0.  0.
        2    1    3    3  502    0 -0.20174064980E+03 -0.40025013264E+03  0.40105989680E+02  0.45000883200E+03  0.25500000920E-02 0.  1.
       -2    1    3    3    0  502  0.20174064980E+03  0.40025013264E+03 -0.18957701643E+04  0.19480359274E+04  0.25500000920E-02 0. -1.
</event>
<event>
 5   0  0.2696040E-04  0.1497082E+04  0.7818609E-02  0.8886395E-01
       -2   -1    0    0    0  501  0.00000000000E+00  0.00000000000E+00  0.29541056154E+03  0.29541056155E+03  0.25500000920E-02 0. -1.
        2   -1    0    0  501    0  0.00000000000E+00  0.00000000000E+00 -0.18967297381E+04  0.18967297381E+04  0.25500000920E-02 0.  1.
    10030    2    1    2    0    0  0.00000000000E+00  0.00000000000E+00 -0.16013191766E+04  0.21921402997E+04  0.14970824921E+04 0.  0.
        2    1    3    3  502    0 -0.12270009340E+03 -0.36397927015E+03  0.14010457958E+03  0.40885879622E+03  0.25500000920E-02 0. -1.
       -2    1    3    3    0  502  0.12270009340E+03  0.36397927015E+03 -0.17414237562E+04  0.17832815035E+04  0.25500000920E-02 0.  1.
</event>
<event>
 5   0  0.2734072E-04  0.1567094E+04  0.7818609E-02  0.8841022E-01
        2   -1    0    0  501    0  0.00000000000E+00  0.00000000000E+00  0.76195243450E+03  0.76195243450E+03  0.25500000920E-02 0.  1.
       -2   -1    0    0    0  501  0.00000000000E+00  0.00000000000E+00 -0.80575363860E+03  0.80575363861E+03  0.25500000920E-02 0. -1.
    10030    2    1    2    0    0  0.00000000000E+00  0.00000000000E+00 -0.43801204105E+02  0.15677060731E+04  0.15670940579E+04 0.  0.
        5    1    3    3  502    0  0.46532874512E+03 -0.43863235517E+03  0.43103959448E+03  0.77119803296E+03  0.46999998093E+01 0.  1.
       -5    1    3    3    0  502 -0.46532874512E+03  0.43863235517E+03 -0.47484079858E+03  0.79650804015E+03  0.46999998093E+01 0. -1.
</event>
<event>
 5   0  0.1427609E-04  0.1525432E+04  0.7818609E-02  0.8867715E-01
        1   -1    0    0  501    0  0.00000000000E+00  0.00000000000E+00  0.16720768832E+04  0.16720768832E+04  0.50400001928E-02 0.  1.
       -1   -1    0    0    0  501  0.00000000000E+00  0.00000000000E+00 -0.34791183290E+03  0.34791183294E+03  0.50400001928E-02 0. -1.
    10030    2    1    2    0    0  0.00000000000E+00  0.00000000000E+00  0.13241650503E+04  0.20199887161E+04  0.15254315235E+04 0.  0.
        4    1    3    3  502    0  0.28463464243E+03  0.70692605311E+03  0.70337565750E+03  0.10370632829E+04  0.12699999809E+01 0.  1.
       -4    1    3    3    0  502 -0.28463464243E+03 -0.70692605311E+03  0.62078939278E+03  0.98292543325E+03  0.12699999809E+01 0. -1.
</event>
<event>
 5   0  0.2641347E-04  0.1498488E+04  0.7818609E-02  0.8885459E-01
       -2   -1    0    0    0  501  0.00000000000E+00  0.00000000000E+00  0.48175921193E+03  0.48175921194E+03  0.25500000920E-02 0. -1.
        2   -1    0    0  501    0  0.00000000000E+00  0.00000000000E+00 -0.11652429189E+04  0.11652429189E+04  0.25500000920E-02 0.  1.
    10030    2    1    2    0    0  0.00000000000E+00  0.00000000000E+00 -0.68348370692E+03  0.16470021308E+04  0.14984879183E+04 0.  0.
        4    1    3    3  502    0  0.16888439980E+03 -0.40732346780E+03 -0.10075250821E+04  0.10997921403E+04  0.12699999809E+01 0.  1.
       -4    1    3    3    0  502 -0.16888439980E+03  0.40732346780E+03  0.32404137521E+03  0.54720999046E+03  0.12699999809E+01 0. -1.
</event>
<event>
 5   0  0.1484251E-04  0.1504506E+04  0.7818609E-02  0.8881462E-01
       -1   -1    0    0    0  501  0.00000000000E+00  0.00000000000E+00  0.11770116130E+04  0.11770116130E+04  0.50400001928E-02 0. -1.
        1   -1    0    0  501    0  0.00000000000E+00  0.00000000000E+00 -0.48078110693E+03  0.48078110696E+03  0.50400001928E-02 0.  1.
    10030    2    1    2    0    0  0.00000000000E+00  0.00000000000E+00  0.69623050602E+03  0.16577927199E+04  0.15045064921E+04 0.  0.
        5    1    3    3  502    0  0.44574608008E+03  0.58375951467E+03  0.16908656080E+03  0.75370889202E+03  0.46999998093E+01 0.  1.
       -5    1    3    3    0  502 -0.44574608008E+03 -0.58375951467E+03  0.52714394523E+03  0.90408382789E+03  0.46999998093E+01 0. -1.
</event>
<event>
 5   0  0.2696040E-04  0.1489441E+04  0.7818609E-02  0.8891505E-01
       -2   -1    0    0    0  501  0.00000000000E+00  0.00000000000E+00  0.59698826876E+03  0.59698826877E+03  0.25500000920E-02 0. -1.
        2   -1    0    0  501    0  0.00000000000E+00  0.00000000000E+00 -0.92901120393E+03  0.92901120394E+03  0.25500000920E-02 0.  1.
    10030    2    1    2    0    0  0.00000000000E+00  0.00000000000E+00 -0.33202293517E+03  0.15259994727E+04  0.14894412245E+04 0.  0.
        2    1    3    3  502    0  0.35882529810E+03  0.43992919870E+03  0.32781015606E+03  0.65555533164E+03  0.25500000920E-02 0. -1.
       -2    1    3    3    0  502 -0.35882529810E+03 -0.43992919870E+03 -0.65983309123E+03  0.87044414106E+03  0.25500000920E-02 0.  1.
</event>
<event>
 5   0  0.2646718E-04  0.1500535E+04  0.7818609E-02  0.8884097E-01
        2   -1    0    0  501    0  0.00000000000E+00  0.00000000000E+00  0.18004191569E+04  0.18004191569E+04  0.25500000920E-02 0.  1.
       -2   -1    0    0    0  501  0.00000000000E+00  0.00000000000E+00 -0.31265019220E+03  0.31265019221E+03  0.25500000920E-02 0. -1.
    10030    2    1    2    0    0  0.00000000000E+00  0.00000000000E+00  0.14877689647E+04  0.21130693491E+04  0.15005350985E+04 0.  0.
        3    1    3    3  502    0  0.67116236002E+03 -0.31026508380E+03  0.92299895246E+03  0.11826455142E+04  0.10100000352E+00 0. -1.
       -3    1    3    3    0  502 -0.67116236002E+03  0.31026508380E+03  0.56477001227E+03  0.93042383498E+03  0.10100000352E+00 0.  1.
</event>
<event>
 5   0  0.1443750E-04  0.1501755E+04  0.7818609E-02  0.8883287E-01
        1   -1    0    0  501    0  0.00000000000E+00  0.00000000000E+00  0.59623381468E+03  0.59623381470E+03  0.50400001928E-02 0.  1.
       -1   -1    0    0    0  501  0.00000000000E+00  0.00000000000E+00 -0.94563082521E+03  0.94563082522E+03  0.50400001928E-02 0. -1.
    10030    2    1    2    0    0  0.00000000000E+00  0.00000000000E+00 -0.34939701052E+03  0.15418646399E+04  0.15017550722E+04 0.  0.
        2    1    3    3  502    0 -0.25056663120E+03 -0.63725699371E+03  0.14164928501E+03  0.69924575984E+03  0.25500000920E-02 0.  1.
       -2    1    3    3    0  502  0.25056663120E+03  0.63725699371E+03 -0.49104629554E+03  0.84261888008E+03  0.25500000920E-02 0. -1.
</event>
<event>
 5   0  0.1484251E-04  0.1501860E+04  0.7818609E-02  0.8883217E-01
        1   -1    0    0  501    0  0.00000000000E+00  0.00000000000E+00  0.48521833426E+03  0.48521833429E+03  0.50400001928E-02 0. -1.
       -1   -1    0    0    0  501  0.00000000000E+00  0.00000000000E+00 -0.11621487778E+04  0.11621487778E+04  0.50400001928E-02 0.  1.
    10030    2    1    2    0    0  0.00000000000E+00  0.00000000000E+00 -0.67693044351E+03  0.16473671121E+04  0.15018600390E+04 0.  0.
        5    1    3    3  502    0 -0.17728349193E+03 -0.39789936392E+03  0.33244848052E+03  0.54799399862E+03  0.46999998093E+01 0. -1.
       -5    1    3    3    0  502  0.17728349193E+03  0.39789936392E+03 -0.10093789240E+04  0.10993731135E+04  0.46999998093E+01 0.  1.
</event>
<event>
 5   0  0.2646718E-04  0.1505015E+04  0.7818609E-02  0.8881125E-01
        2   -1    0    0  501    0  0.00000000000E+00  0.00000000000E+00  0.17342127652E+04  0.17342127652E+04  0.25500000920E-02 0. -1.
       -2   -1    0    0    0  501  0.00000000000E+00  0.00000000000E+00 -0.32652715700E+03  0.32652715701E+03  0.25500000920E-02 0.  1.
    10030    2    1    2    0    0  0.00000000000E+00  0.00000000000E+00  0.14076856082E+04  0.20607399222E+04  0.15050150350E+04 0.  0.
        3    1    3    3  502    0 -0.53977903409E+03 -0.43947843393E+03  0.10953733765E+04  0.12978233869E+04  0.10100000352E+00 0. -1.
       -3    1    3    3    0  502  0.53977903409E+03  0.43947843393E+03  0.31231223170E+03  0.76291653528E+03  0.10100000352E+00 0.  1.
</event>
<event>
 5   0  0.2646718E-04  0.1507542E+04  0.7818609E-02  0.8879453E-01
        2   -1    0    0  501    0  0.00000000000E+00  0.00000000000E+00  0.11375790216E+04  0.11375790216E+04  0.25500000920E-02 0.  1.
       -2   -1    0    0    0  501  0.00000000000E+00  0.00000000000E+00 -0.49945575504E+03  0.49945575505E+03  0.25500000920E-02 0. -1.
    10030    2    1    2    0    0  0.00000000000E+00  0.00000000000E+00  0.63812326655E+03  0.16370347766E+04  0.15075415605E+04 0.  0.
        3    1    3    3  502    0 -0.18521522095E+03 -0.72961701170E+03  0.36146333150E+03  0.83504575446E+03  0.10100000352E+00 0. -1.
       -3    1    3    3    0  502  0.18521522095E+03  0.72961701170E+03  0.27665993505E+03  0.80198902217E+03  0.10100000352E+00 0.  1.
</event>
<event>
 5   0  0.2696040E-04  0.1525069E+04  0.7818609E-02  0.8867952E-01
       -2   -1    0    0    0  501  0.00000000000E+00  0.00000000000E+00  0.54908956934E+03  0.54908956935E+03  0.25500000920E-02 0. -1.
        2   -1    0    0  501    0  0.00000000000E+00  0.00000000000E+00 -0.10589503477E+04  0.10589503477E+04  0.25500000920E-02 0.  1.
    10030    2    1    2    0    0  0.00000000000E+00  0.00000000000E+00 -0.50986077838E+03  0.16080399171E+04  0.15250686416E+04 0.  0.
        2    1    3    3  502    0 -0.43046755113E+03  0.27614089858E+03  0.34144022922E+03  0.61492888904E+03  0.25500000920E-02 0. -1.
       -2    1    3    3    0  502  0.43046755113E+03 -0.27614089858E+03 -0.85130100760E+03  0.99311102803E+03  0.25500000920E-02 0.  1.
</event>
<event>
 5   0  0.1426929E-04  0.1490270E+04  0.7818609E-02  0.8890949E-01
       -1   -1    0    0    0  501  0.00000000000E+00  0.00000000000E+00  0.38603336928E+03  0.38603336932E+03  0.50400001928E-02 0. -1.
        1   -1    0    0  501    0  0.00000000000E+00  0.00000000000E+00 -0.14382850184E+04  0.14382850184E+04  0.50400001928E-02 0.  1.
    10030    2    1    2    0    0  0.00000000000E+00  0.00000000000E+00 -0.10522516492E+04  0.18243183878E+04  0.14902697899E+04 0.  0.
        1    1    3    3  502    0 -0.72906813221E+03 -0.14701584620E+02 -0.33858839120E+03  0.80398916453E+03  0.50400001928E-02 0.  1.
       -1    1    3    3    0  502  0.72906813221E+03  0.14701584620E+02 -0.71366325796E+03  0.10203292232E+04  0.50400001928E-02 0. -1.
</event>
<event>
 5   0  0.2641347E-04  0.1497112E+04  0.7818609E-02  0.8886376E-01
       -2   -1    0    0    0  501  0.00000000000E+00  0.00000000000E+00  0.66928989639E+03  0.66928989639E+03  0.25500000920E-02 0. -1.
        2   -1    0    0  501    0  0.00000000000E+00  0.00000000000E+00 -0.83720989061E+03  0.83720989062E+03  0.25500000920E-02 0.  1.
    10030    2    1    2    0    0  0.00000000000E+00  0.00000000000E+00 -0.16791999423E+03  0.15064997870E+04  0.14971120478E+04 0.  0.
        4    1    3    3  502    0  0.92469819111E+02  0.15572212196E+03  0.64691008900E+03  0.67178443184E+03  0.12699999809E+01 0. -1.
       -4    1    3    3    0  502 -0.92469819111E+02 -0.15572212196E+03 -0.81483008323E+03  0.83471535516E+03  0.12699999809E+01 0.  1.
</event>
<event>
 5   0  0.2646718E-04  0.1507322E+04  0.7818609E-02  0.8879598E-01
        2   -1    0    0  501    0  0.00000000000E+00  0.00000000000E+00  0.20534499466E+04  0.20534499466E+04  0.25500000920E-02 0.  1.
       -2   -1    0    0    0  501  0.00000000000E+00  0.00000000000E+00 -0.27661016197E+03  0.27661016198E+03  0.25500000920E-02 0. -1.
    10030    2    1    2    0    0  0.00000000000E+00  0.00000000000E+00  0.17768397847E+04  0.23300601086E+04  0.15073222911E+04 0.  0.
        3    1    3    3  502    0 -0.28863024176E+03 -0.51778713630E+02  0.19616479738E+04  0.19834442858E+04  0.10100000352E+00 0.  1.
       -3    1    3    3    0  502  0.28863024176E+03  0.51778713630E+02 -0.18480818913E+03  0.34661582280E+03  0.10100000352E+00 0. -1.
</event>
<event>
 5   0  0.1443750E-04  0.1512819E+04  0.7818609E-02  0.8875973E-01
        1   -1    0    0  501    0  0.00000000000E+00  0.00000000000E+00  0.11190188665E+04  0.11190188665E+04  0.50400001928E-02 0.  1.
       -1   -1    0    0    0  501  0.00000000000E+00  0.00000000000E+00 -0.51130102832E+03  0.51130102835E+03  0.50400001928E-02 0. -1.
    10030    2    1    2    0    0  0.00000000000E+00  0.00000000000E+00  0.60771783816E+03  0.16303198948E+04  0.15128192188E+04 0.  0.
        2    1    3    3  502    0 -0.81478216203E+02  0.52219261009E+02  0.11123197068E+04  0.11165216886E+04  0.25500000920E-02 0.  1.
       -2    1    3    3    0  502  0.81478216203E+02 -0.52219261009E+02 -0.50460186863E+03  0.51379820627E+03  0.25500000920E-02 0. -1.
</event>
<event>
 5   0  0.1426929E-04  0.1525996E+04  0.7818609E-02  0.8867347E-01
       -1   -1    0    0    0  501  0.00000000000E+00  0.00000000000E+00  0.41726110624E+03  0.41726110627E+03  0.50400001928E-02 0.  1.
        1   -1    0    0  501    0  0.00000000000E+00  0.00000000000E+00 -0.13952082966E+04  0.13952082966E+04  0.50400001928E-02 0. -1.
    10030    2    1    2    0    0  0.00000000000E+00  0.00000000000E+00 -0.97794719036E+03  0.18124694029E+04  0.15259962743E+04 0.  0.
        1    1    3    3  502    0  0.14436261931E+03  0.74400952833E+03 -0.59370548716E+03  0.96274448822E+03  0.50400001928E-02 0.  1.
       -1    1    3    3    0  502 -0.14436261931E+03 -0.74400952833E+03 -0.38424170320E+03  0.84972491466E+03  0.50400001928E-02 0. -1.
</event>
<event>
 5   0  0.2618901E-04  0.1500611E+04  0.7818609E-02  0.8884047E-01
       -2   -1    0    0    0  501  0.00000000000E+00  0.00000000000E+00  0.26481147649E+03  0.26481147650E+03  0.25500000920E-02 0. -1.
        2   -1    0    0  501    0  0.00000000000E+00  0.00000000000E+00 -0.21258834078E+04  0.21258834078E+04  0.25500000920E-02 0.  1.
    10030    2    1    2    0    0  0.00000000000E+00  0.00000000000E+00 -0.18610719314E+04  0.23906948843E+04  0.15006109743E+04 0.  0.
        1    1    3    3  502    0 -0.19570325337E+03 -0.72429310864E+03 -0.94267460697E+03  0.12047969477E+04  0.50400001928E-02 0. -1.
       -1    1    3    3    0  502  0.19570325337E+03  0.72429310864E+03 -0.91839732439E+03  0.11858979366E+04  0.50400001928E-02 0.  1.
</event>
<event>
 5   0  0.1484251E-04  0.1499055E+04  0.7818609E-02  0.8885081E-01
        1   -1    0    0  501    0  0.00000000000E+00  0.00000000000E+00  0.24749790431E+04  0.24749790431E+04  0.50400001928E-02 0.  1.
       -1   -1    0    0    0  501  0.00000000000E+00  0.00000000000E+00 -0.22698848034E+03  0.22698848040E+03  0.50400001928E-02 0. -1.
    10030    2    1    2    0    0  0.00000000000E+00  0.00000000000E+00  0.22479905627E+04  0.27019675235E+04  0.14990553452E+04 0.  0.
        5    1    3    3  502    0 -0.24689094968E+02  0.74013574227E+03  0.91566507043E+03  0.11776566051E+04  0.46999998093E+01 0. -1.
       -5    1    3    3    0  502  0.24689094968E+02 -0.74013574227E+03  0.13323254923E+04  0.15243109184E+04  0.46999998093E+01 0.  1.
</event>
<event>
 5   0  0.1427609E-04  0.1498343E+04  0.7818609E-02  0.8885556E-01
       -1   -1    0    0    0  501  0.00000000000E+00  0.00000000000E+00  0.65426364011E+03  0.65426364013E+03  0.50400001928E-02 0. -1.
        1   -1    0    0  501    0  0.00000000000E+00  0.00000000000E+00 -0.85784658342E+03  0.85784658343E+03  0.50400001928E-02 0.  1.
    10030    2    1    2    0    0  0.00000000000E+00  0.00000000000E+00 -0.20358294331E+03  0.15121102236E+04  0.14983428557E+04 0.  0.
        4    1    3    3  502    0 -0.69646266023E+03  0.13534314066E+03 -0.34458091744E+03  0.78874306614E+03  0.12699999809E+01 0.  1.
       -4    1    3    3    0  502  0.69646266023E+03 -0.13534314066E+03  0.14099797413E+03  0.72336715742E+03  0.12699999809E+01 0. -1.
</event>
<event>
 5   0  0.2646718E-04  0.1499459E+04  0.7818609E-02  0.8884812E-01
        2   -1    0    0  501    0  0.00000000000E+00  0.00000000000E+00  0.11161108480E+04  0.11161108480E+04  0.25500000920E-02 0.  1.
       -2   -1    0    0    0  501  0.00000000000E+00  0.00000000000E+00 -0.50361899601E+03  0.50361899602E+03  0.25500000920E-02 0. -1.
    10030    2    1    2    0    0  0.00000000000E+00  0.00000000000E+00  0.61249185199E+03  0.16197298440E+04  0.14994594022E+04 0.  0.
        3    1    3    3  502    0  0.28047546290E+03 -0.23504624814E+03 -0.40059512929E+03  0.54257689950E+03  0.10100000352E+00 0. -1.
       -3    1    3    3    0  502 -0.28047546290E+03  0.23504624814E+03  0.10130869813E+04  0.10771529445E+04  0.10100000352E+00 0.  1.
</event>
<event>
 5   0  0.1427609E-04  0.1498312E+04  0.7818609E-02  0.8885576E-01
       -1   -1    0    0    0  501  0.00000000000E+00  0.00000000000E+00  0.67361557533E+03  0.67361557535E+03  0.50400001928E-02 0. -1.
        1   -1    0    0  501    0  0.00000000000E+00  0.00000000000E+00 -0.83316752869E+03  0.83316752871E+03  0.50400001928E-02 0.  1.
    10030    2    1    2    0    0  0.00000000000E+00  0.00000000000E+00 -0.15955195336E+03  0.15067831041E+04  0.14983118824E+04 0.  0.
        4    1    3    3  502    0  0.53090420672E+03 -0.52801471375E+03 -0.10387385727E+03  0.75594325566E+03  0.12699999809E+01 0.  1.
       -4    1    3    3    0  502 -0.53090420672E+03  0.52801471375E+03 -0.55678096090E+02  0.75083984840E+03  0.12699999809E+01 0. -1.
</event>
<event>
 5   0  0.1426929E-04  0.1499459E+04  0.7818609E-02  0.8884813E-01
       -1   -1    0    0    0  501  0.00000000000E+00  0.00000000000E+00  0.75128813965E+03  0.75128813967E+03  0.50400001928E-02 0.  1.
        1   -1    0    0  501    0  0.00000000000E+00  0.00000000000E+00 -0.74817430965E+03  0.74817430967E+03  0.50400001928E-02 0. -1.
    10030    2    1    2    0    0  0.00000000000E+00  0.00000000000E+00  0.31138299995E+01  0.14994624493E+04  0.14994592162E+04 0.  0.
        1    1    3    3  502    0  0.94041434520E+02 -0.66868794885E+03 -0.32418466735E+03  0.74905477965E+03  0.50400001928E-02 0. -1.
       -1    1    3    3    0  502 -0.94041434520E+02  0.66868794885E+03  0.32729849735E+03  0.75040766969E+03  0.50400001928E-02 0.  1.
</event>
<event>
 5   0  0.1443750E-04  0.1498944E+04  0.7818609E-02  0.8885155E-01
       -1   -1    0    0    0  501  0.00000000000E+00  0.00000000000E+00  0.42005187942E+03  0.42005187945E+03  0.50400001928E-02 0.  1.
        1   -1    0    0  501    0  0.00000000000E+00  0.00000000000E+00 -0.13372358467E+04  0.13372358467E+04  0.50400001928E-02 0. -1.
    10030    2    1    2    0    0  0.00000000000E+00  0.00000000000E+00 -0.91718396728E+03  0.17572877262E+04  0.14989442027E+04 0.  0.
        2    1    3    3  502    0  0.15782309178E+03 -0.70860802743E+03 -0.24028610550E+03  0.76470313020E+03  0.25500000920E-02 0.  1.
       -2    1    3    3    0  502 -0.15782309178E+03  0.70860802743E+03 -0.67689786177E+03  0.99258459595E+03  0.25500000920E-02 0. -1.
</event>
<event>
 5   0  0.2618901E-04  0.1496761E+04  0.7818609E-02  0.8886610E-01
       -2   -1    0    0    0  501  0.00000000000E+00  0.00000000000E+00  0.48652802436E+03  0.48652802436E+03  0.25500000920E-02 0.  1.
        2   -1    0    0  501    0  0.00000000000E+00  0.00000000000E+00 -0.11511637454E+04  0.11511637454E+04  0.25500000920E-02 0. -1.
    10030    2    1    2    0    0  0.00000000000E+00  0.00000000000E+00 -0.66463572102E+03  0.16376917697E+04  0.14967610668E+04 0.  0.
        1    1    3    3  502    0  0.57643960673E+03  0.30006820147E+03 -0.73841066880E+03  0.98365332387E+03  0.50400001928E-02 0. -1.
       -1    1    3    3    0  502 -0.57643960673E+03 -0.30006820147E+03  0.73774947781E+02  0.65403844587E+03  0.50400001928E-02 0.  1.
</event>
<event>
 5   0  0.1004313E-04  0.1506055E+04  0.7818609E-02  0.8880437E-01
       -3   -1    0    0    0  501  0.00000000000E+00  0.00000000000E+00  0.12254726005E+04  0.12254726047E+04  0.10100000352E+00 0.  1.
        3   -1    0    0  501    0  0.00000000000E+00  0.00000000000E+00 -0.46271965610E+03  0.46271966712E+03  0.10100000352E+00 0. -1.
    10030    2    1    2    0    0  0.00000000000E+00  0.00000000000E+00  0.76275294443E+03  0.16881922718E+04  0.15060548105E+04 0.  0.
        2    1    3    3  502    0  0.19693381527E+03 -0.65875021321E+03  0.37127485407E+02  0.68855880009E+03  0.25500000920E-02 0.  1.
       -2    1    3    3    0  502 -0.19693381527E+03  0.65875021321E+03  0.72562545902E+03  0.99963347172E+03  0.25500000920E-02 0. -1.
</event>
<event>
 5   0  0.2646718E-04  0.1497399E+04  0.7818609E-02  0.8886184E-01
       -2   -1    0    0    0  501  0.00000000000E+00  0.00000000000E+00  0.36070777518E+03  0.36070777519E+03  0.25500000920E-02 0.  1.
        2   -1    0    0  501    0  0.00000000000E+00  0.00000000000E+00 -0.15540304416E+04  0.15540304416E+04  0.25500000920E-02 0. -1.
    10030    2    1    2    0    0  0.00000000000E+00  0.00000000000E+00 -0.11933226664E+04  0.19147382168E+04  0.14973988957E+04 0.  0.
        3    1    3    3  502    0 -0.74425381161E+03 -0.80431170330E+02 -0.61323252666E+03  0.96769677648E+03  0.10100000352E+00 0.  1.
       -3    1    3    3    0  502  0.74425381161E+03  0.80431170330E+02 -0.58009013979E+03  0.94704144035E+03  0.10100000352E+00 0. -1.
</event>
<event>
 5   0  0.2696040E-04  0.1494646E+04  0.7818609E-02  0.8888021E-01
        2   -1    0    0  501    0  0.00000000000E+00  0.00000000000E+00  0.49352792152E+03  0.49352792152E+03  0.25500000920E-02 0. -1.
       -2   -1    0    0    0  501  0.00000000000E+00  0.00000000000E+00 -0.11316306693E+04  0.11316306693E+04  0.25500000920E-02 0.  1.
    10030    2    1    2    0    0  0.00000000000E+00  0.00000000000E+00 -0.63810274776E+03  0.16251585908E+04  0.14946455528E+04 0.  0.
        2    1    3    3  502    0  0.12416297624E+03  0.58989654525E+03  0.16121566030E+03  0.62400710565E+03  0.25500000920E-02 0. -1.
       -2    1    3    3    0  502 -0.12416297624E+03 -0.58989654525E+03 -0.79931840806E+03  0.10011514852E+04  0.25500000920E-02 0.  1.
</event>
<event>
 5   0  0.2641347E-04  0.1500419E+04  0.7818609E-02  0.8884174E-01
       -2   -1    0    0    0  501  0.00000000000E+00  0.00000000000E+00  0.26814931027E+03  0.26814931029E+03  0.25500000920E-02 0.  1.
        2   -1    0    0  501    0  0.00000000000E+00  0.00000000000E+00 -0.20988846993E+04  0.20988846993E+04  0.25500000920E-02 0. -1.
    10030    2    1    2    0    0  0.00000000000E+00  0.00000000000E+00 -0.18307353890E+04  0.23670340096E+04  0.15004192540E+04 0.  0.
        4    1    3    3  502    0  0.42649274487E+03  0.58621983315E+03 -0.61083672750E+03  0.94798358360E+03  0.12699999809E+01 0. -1.
       -4    1    3    3    0  502 -0.42649274487E+03 -0.58621983315E+03 -0.12198986615E+04  0.14190504260E+04  0.12699999809E+01 0.  1.
</event>
<event>
 5   0  0.2646718E-04  0.1501799E+04  0.7818609E-02  0.8883257E-01
        2   -1    0    0  501    0  0.00000000000E+00  0.00000000000E+00  0.78133515504E+03  0.78133515504E+03  0.25500000920E-02 0. -1.
       -2   -1    0    0    0  501  0.00000000000E+00  0.00000000000E+00 -0.72164960120E+03  0.72164960121E+03  0.25500000920E-02 0.  1.
    10030    2    1    2    0    0  0.00000000000E+00  0.00000000000E+00  0.59685553838E+02  0.15029847563E+04  0.15017991917E+04 0.  0.
        3    1    3    3  502    0  0.34526780989E+03  0.27185276627E+03  0.63920471970E+03  0.77569096357E+03  0.10100000352E+00 0. -1.
       -3    1    3    3    0  502 -0.34526780989E+03 -0.27185276627E+03 -0.57951916586E+03  0.72729379268E+03  0.10100000352E+00 0.  1.
</event>
<event>
 5   0  0.1426929E-04  0.1513154E+04  0.7818609E-02  0.8875753E-01
        1   -1    0    0  501    0  0.00000000000E+00  0.00000000000E+00  0.28852298847E+03  0.28852298852E+03  0.50400001928E-02 0.  1.
       -1   -1    0    0    0  501  0.00000000000E+00  0.00000000000E+00 -0.19839270592E+04  0.19839270592E+04  0.50400001928E-02 0. -1.
    10030    2    1    2    0    0  0.00000000000E+00  0.00000000000E+00 -0.16954040707E+04  0.22724500477E+04  0.15131537451E+04 0.  0.
        1    1    3    3  502    0  0.10993644827E+03 -0.49407934069E+02  0.27401219233E+03  0.29934904072E+03  0.50400001928E-02 0.  1.
       -1    1    3    3    0  502 -0.10993644827E+03  0.49407934069E+02 -0.19694162631E+04  0.19731010070E+04  0.50400001928E-02 0. -1.
</event>
<event>
 5   0  0.1484251E-04  0.1487870E+04  0.7818609E-02  0.8892560E-01
       -1   -1    0    0    0  501  0.00000000000E+00  0.00000000000E+00  0.11856621104E+04  0.11856621104E+04  0.50400001928E-02 0. -1.
        1   -1    0    0  501    0  0.00000000000E+00  0.00000000000E+00 -0.46677652177E+03  0.46677652180E+03  0.50400001928E-02 0.  1.
    10030    2    1    2    0    0  0.00000000000E+00  0.00000000000E+00  0.71888558859E+03  0.16524386322E+04  0.14878699350E+04 0.  0.
        5    1    3    3  502    0 -0.30405681363E+02  0.61806752479E+03 -0.99125138544E+02  0.62672151212E+03  0.46999998093E+01 0.  1.
       -5    1    3    3    0  502  0.30405681363E+02 -0.61806752479E+03  0.81801072714E+03  0.10257171201E+04  0.46999998093E+01 0. -1.
</event>
<event>
 5   0  0.1004313E-04  0.1500199E+04  0.7818609E-02  0.8884321E-01
        3   -1    0    0  501    0  0.00000000000E+00  0.00000000000E+00  0.14186730202E+04  0.14186730238E+04  0.10100000352E+00 0.  1.
       -3   -1    0    0    0  501  0.00000000000E+00  0.00000000000E+00 -0.39660226983E+03  0.39660228269E+03  0.10100000352E+00 0. -1.
    10030    2    1    2    0    0  0.00000000000E+00  0.00000000000E+00  0.10220707504E+04  0.18152753065E+04  0.15001985934E+04 0.  0.
        1    1    3    3  502    0 -0.60385993479E+03  0.38775752534E+03  0.77515948286E+03  0.10563498205E+04  0.50400001928E-02 0.  1.
       -1    1    3    3    0  502  0.60385993479E+03 -0.38775752534E+03  0.24691126755E+03  0.75892548605E+03  0.50400001928E-02 0. -1.
</event>
<event>
 5   0  0.2641347E-04  0.1501998E+04  0.7818609E-02  0.8883125E-01
        2   -1    0    0  501    0  0.00000000000E+00  0.00000000000E+00  0.15593454762E+04  0.15593454762E+04  0.25500000920E-02 0. -1.
       -2   -1    0    0    0  501  0.00000000000E+00  0.00000000000E+00 -0.36169005834E+03  0.36169005835E+03  0.25500000920E-02 0.  1.
    10030    2    1    2    0    0  0.00000000000E+00  0.00000000000E+00  0.11976554178E+04  0.19210355345E+04  0.15019983439E+04 0.  0.
        4    1    3    3  502    0 -0.44503746998E+01 -0.19020580921E+03  0.15280094638E+04  0.15398092706E+04  0.12699999809E+01 0. -1.
       -4    1    3    3    0  502  0.44503746998E+01  0.19020580921E+03 -0.33035404595E+03  0.38122626387E+03  0.12699999809E+01 0.  1.
</event>
<event>
 5   0  0.2696040E-04  0.1498732E+04  0.7818609E-02  0.8885296E-01
        2   -1    0    0  501    0  0.00000000000E+00  0.00000000000E+00  0.62603214448E+03  0.62603214449E+03  0.25500000920E-02 0.  1.
       -2   -1    0    0    0  501  0.00000000000E+00  0.00000000000E+00 -0.89699786342E+03  0.89699786342E+03  0.25500000920E-02 0. -1.
    10030    2    1    2    0    0  0.00000000000E+00  0.00000000000E+00 -0.27096571893E+03  0.15230300079E+04  0.14987321256E+04 0.  0.
        2    1    3    3  502    0  0.32089770609E+03  0.37689576916E+03 -0.70720839007E+03  0.86323198827E+03  0.25500000920E-02 0. -1.
       -2    1    3    3    0  502 -0.32089770609E+03 -0.37689576916E+03  0.43624267114E+03  0.65979801964E+03  0.25500000920E-02 0.  1.
</event>
<event>
 5   0  0.1443750E-04  0.1505869E+04  0.7818609E-02  0.8880560E-01
       -1   -1    0    0    0  501  0.00000000000E+00  0.00000000000E+00  0.68064566310E+03  0.68064566312E+03  0.50400001928E-02 0.  1.
        1   -1    0    0  501    0  0.00000000000E+00  0.00000000000E+00 -0.83290031159E+03  0.83290031161E+03  0.50400001928E-02 0. -1.
    10030    2    1    2    0    0  0.00000000000E+00  0.00000000000E+00 -0.15225464849E+03  0.15135459747E+04  0.15058685001E+04 0.  0.
        2    1    3    3  502    0  0.24115243721E+03  0.61472112282E+03  0.28748141083E+03  0.72019588890E+03  0.25500000920E-02 0.  1.
       -2    1    3    3    0  502 -0.24115243721E+03 -0.61472112282E+03 -0.43973605933E+03  0.79335008583E+03  0.25500000920E-02 0. -1.
</event>
<event>
 5   0  0.1004313E-04  0.1494061E+04  0.7818609E-02  0.8888412E-01
        4   -1    0    0  501    0  0.00000000000E+00  0.00000000000E+00  0.89912189492E+03  0.89912279185E+03  0.12699999809E+01 0.  1.
       -4   -1    0    0    0  501  0.00000000000E+00  0.00000000000E+00 -0.62066423827E+03  0.62066553760E+03  0.12699999809E+01 0. -1.
    10030    2    1    2    0    0  0.00000000000E+00  0.00000000000E+00  0.27845765666E+03  0.15197883295E+04  0.14940608755E+04 0.  0.
        4    1    3    3  502    0 -0.55104234529E+03  0.26053141202E+03  0.57855543201E+03  0.84038817445E+03  0.12699999809E+01 0. -1.
       -4    1    3    3    0  502  0.55104234529E+03 -0.26053141202E+03 -0.30009777535E+03  0.67940015500E+03  0.12699999809E+01 0.  1.
</event>
<event>
 5   0  0.2618901E-04  0.1474824E+04  0.7818609E-02  0.8901369E-01
        2   -1    0    0  501    0  0.00000000000E+00  0.00000000000E+00  0.83156822199E+03  0.83156822199E+03  0.25500000920E-02 0. -1.
       -2   -1    0    0    0  501  0.00000000000E+00  0.00000000000E+00 -0.65391725974E+03  0.65391725974E+03  0.25500000920E-02 0.  1.
    10030    2    1    2    0    0  0.00000000000E+00  0.00000000000E+00  0.17765096225E+03  0.14854854817E+04  0.14748244818E+04 0.  0.
        1    1    3    3  502    0  0.49595867026E+02  0.59899591892E+03  0.51913845102E+03  0.79420437688E+03  0.50400001928E-02 0. -1.
       -1    1    3    3    0  502 -0.49595867026E+02 -0.59899591892E+03 -0.34148748878E+03  0.69128110485E+03  0.50400001928E-02 0.  1.
</event>
<event>
 5   0  0.1427609E-04  0.1497111E+04  0.7818609E-02  0.8886377E-01
       -1   -1    0    0    0  501  0.00000000000E+00  0.00000000000E+00  0.30850175438E+03  0.30850175442E+03  0.50400001928E-02 0.  1.
        1   -1    0    0  501    0  0.00000000000E+00  0.00000000000E+00 -0.18163110844E+04  0.18163110844E+04  0.50400001928E-02 0. -1.
    10030    2    1    2    0    0  0.00000000000E+00  0.00000000000E+00 -0.15078093300E+04  0.21248128388E+04  0.14971107589E+04 0.  0.
        4    1    3    3  502    0  0.91016511328E+02  0.61171273523E+03 -0.13524572545E+04  0.14871512075E+04  0.12699999809E+01 0. -1.
       -4    1    3    3    0  502 -0.91016511328E+02 -0.61171273523E+03 -0.15535207548E+03  0.63766163131E+03  0.12699999809E+01 0.  1.
</event>
<event>
 5   0  0.1484251E-04  0.1505295E+04  0.7818609E-02  0.8880939E-01
       -1   -1    0    0    0  501  0.00000000000E+00  0.00000000000E+00  0.24682106328E+03  0.24682106333E+03  0.50400001928E-02 0. -1.
        1   -1    0    0  501    0  0.00000000000E+00  0.00000000000E+00 -0.22950983851E+04  0.22950983852E+04  0.50400001928E-02 0.  1.
    10030    2    1    2    0    0  0.00000000000E+00  0.00000000000E+00 -0.20482773219E+04  0.25419194485E+04  0.15052954844E+04 0.  0.
        5    1    3    3  502    0 -0.21886720401E+03 -0.24042857242E+03  0.12209102498E+03  0.34732846098E+03  0.46999998093E+01 0. -1.
       -5    1    3    3    0  502  0.21886720401E+03  0.24042857242E+03 -0.21703683469E+04  0.21945909875E+04  0.46999998093E+01 0.  1.
</event>
<event>
 5   0  0.1426929E-04  0.1484765E+04  0.7818609E-02  0.8894648E-01
       -1   -1    0    0    0  501  0.00000000000E+00  0.00000000000E+00  0.19077123670E+04  0.19077123670E+04  0.50400001928E-02 0. -1.
        1   -1    0    0  501    0  0.00000000000E+00  0.00000000000E+00 -0.28889666702E+03  0.28889666707E+03  0.50400001928E-02 0.  1.
    10030    2    1    2    0    0  0.00000000000E+00  0.00000000000E+00  0.16188156999E+04  0.21966090340E+04  0.14847649572E+04 0.  0.
        1    1    3    3  502    0 -0.70506583118E+03  0.22008340691E+03  0.91989293147E+03  0.11797277388E+04  0.50400001928E-02 0. -1.
       -1    1    3    3    0  502  0.70506583118E+03 -0.22008340691E+03  0.69892276847E+03  0.10168812952E+04  0.50400001928E-02 0.  1.
</event>
<event>
 5   0  0.1474203E-04  0.1499712E+04  0.7818609E-02  0.8884644E-01
        1   -1    0    0  501    0  0.00000000000E+00  0.00000000000E+00  0.73161606965E+03  0.73161606967E+03  0.50400001928E-02 0. -1.
       -1   -1    0    0    0  501  0.00000000000E+00  0.00000000000E+00 -0.76855075544E+03  0.76855075546E+03  0.50400001928E-02 0.  1.
    10030    2    1    2    0    0  0.00000000000E+00  0.00000000000E+00 -0.36934685792E+02  0.15001668251E+04  0.14997120831E+04 0.  0.
        3    1    3    3  502    0  0.98543432089E+02 -0.17036992397E+03  0.70531777823E+03  0.73226354374E+03  0.10100000352E+00 0. -1.
       -3    1    3    3    0  502 -0.98543432089E+02  0.17036992397E+03 -0.74225246403E+03  0.76790328138E+03  0.10100000352E+00 0.  1.
</event>
<event>
 5   0  0.2618901E-04  0.1497267E+04  0.7818609E-02  0.8886272E-01
        2   -1    0    0  501    0  0.00000000000E+00  0.00000000000E+00  0.15244408043E+04  0.15244408043E+04  0.25500000920E-02 0.  1.
       -2   -1    0    0    0  501  0.00000000000E+00  0.00000000000E+00 -0.36764446565E+03  0.36764446565E+03  0.25500000920E-02 0. -1.
    10030    2    1    2    0    0  0.00000000000E+00  0.00000000000E+00  0.11567963387E+04  0.18920852700E+04  0.14972671437E+04 0.  0.
        1    1    3    3  502    0  0.16032579698E+03  0.64207776822E+03  0.10206616672E+04  0.12164367886E+04  0.50400001928E-02 0.  1.
       -1    1    3    3    0  502 -0.16032579698E+03 -0.64207776822E+03  0.13613467144E+03  0.67564848139E+03  0.50400001928E-02 0. -1.
</event>
<event>
 5   0  0.2618901E-04  0.1494478E+04  0.7818609E-02  0.8888133E-01
        2   -1    0    0  501    0  0.00000000000E+00  0.00000000000E+00  0.84394437201E+03  0.84394437201E+03  0.25500000920E-02 0.  1.
       -2   -1    0    0    0  501  0.00000000000E+00  0.00000000000E+00 -0.66161518498E+03  0.66161518499E+03  0.25500000920E-02 0. -1.
    10030    2    1    2    0    0  0.00000000000E+00  0.00000000000E+00  0.18232918703E+03  0.15055595570E+04  0.14944783863E+04 0.  0.
        1    1    3    3  502    0 -0.53492520878E+02 -0.72681386629E+03 -0.75124661135E+02  0.73264149538E+03  0.50400001928E-02 0. -1.
       -1    1    3    3    0  502  0.53492520878E+02  0.72681386629E+03  0.25745384816E+03  0.77291806162E+03  0.50400001928E-02 0.  1.
</event>
<event>
 5   0  0.1004313E-04  0.1497678E+04  0.7818609E-02  0.8885999E-01
        3   -1    0    0  501    0  0.00000000000E+00  0.00000000000E+00  0.86287822520E+03  0.86287823112E+03  0.10100000352E+00 0. -1.
       -3   -1    0    0    0  501  0.00000000000E+00  0.00000000000E+00 -0.64987092463E+03  0.64987093248E+03  0.10100000352E+00 0.  1.
    10030    2    1    2    0    0  0.00000000000E+00  0.00000000000E+00  0.21300730057E+03  0.15127491636E+04  0.14976775093E+04 0.  0.
        4    1    3    3  502    0 -0.45202049868E+03  0.44358848592E+03 -0.29709798810E+03  0.69954421126E+03  0.12699999809E+01 0.  1.
       -4    1    3    3    0  502  0.45202049868E+03 -0.44358848592E+03  0.51010528868E+03  0.81320495234E+03  0.12699999809E+01 0. -1.
</event>
<event>
 5   0  0.2641347E-04  0.1496317E+04  0.7818609E-02  0.8886906E-01
       -2   -1    0    0    0  501  0.00000000000E+00  0.00000000000E+00  0.62466726953E+03  0.62466726954E+03  0.25500000920E-02 0.  1.
        2   -1    0    0  501    0  0.00000000000E+00  0.00000000000E+00 -0.89606259950E+03  0.89606259950E+03  0.25500000920E-02 0. -1.
    10030    2    1    2    0    0  0.00000000000E+00  0.00000000000E+00 -0.27139532996E+03  0.15207298690E+04  0.14963167811E+04 0.  0.
        4    1    3    3  502    0  0.24603178737E+03 -0.31197603770E+03 -0.77997968393E+03  0.87534599373E+03  0.12699999809E+01 0. -1.
       -4    1    3    3    0  502 -0.24603178737E+03  0.31197603770E+03  0.50858435397E+03  0.64538387530E+03  0.12699999809E+01 0.  1.
</event>
<event>
 5   0  0.1443750E-04  0.1438931E+04  0.7818609E-02  0.8926110E-01
       -1   -1    0    0    0  501  0.00000000000E+00  0.00000000000E+00  0.46472001182E+03  0.46472001185E+03  0.50400001928E-02 0. -1.
        1   -1    0    0  501    0  0.00000000000E+00  0.00000000000E+00 -0.11138552336E+04  0.11138552337E+04  0.50400001928E-02 0.  1.
    10030    2    1    2    0    0  0.00000000000E+00  0.00000000000E+00 -0.64913522182E+03  0.15785752455E+04  0.14389312942E+04 0.  0.
        2    1    3    3  502    0 -0.31483235536E+03  0.62627075718E+03 -0.50246636937E+03  0.86244241874E+03  0.25500000920E-02 0.  1.
       -2    1    3    3    0  502  0.31483235536E+03 -0.62627075718E+03 -0.14666885246E+03  0.71613282677E+03  0.25500000920E-02 0. -1.
</event>
<event>
 5   0  0.2734072E-04  0.1487079E+04  0.7818609E-02  0.8893091E-01
        2   -1    0    0  501    0  0.00000000000E+00  0.00000000000E+00  0.94092043306E+03  0.94092043307E+03  0.25500000920E-02 0. -1.
       -2   -1    0    0    0  501  0.00000000000E+00  0.00000000000E+00 -0.58756364121E+03  0.58756364121E+03  0.25500000920E-02 0.  1.
    10030    2    1    2    0    0  0.00000000000E+00  0.00000000000E+00  0.35335679185E+03  0.15284840743E+04  0.14870785262E+04 0.  0.
        5    1    3    3  502    0 -0.62340272572E+03 -0.17498872115E+03  0.55233592897E+03  0.85108699872E+03  0.46999998093E+01 0. -1.
       -5    1    3    3    0  502  0.62340272572E+03  0.17498872115E+03 -0.19897913711E+03  0.67739707556E+03  0.46999998093E+01 0.  1.
</event>
<event>
 5   0  0.2734072E-04  0.1489734E+04  0.7818609E-02  0.8891309E-01
       -2   -1    0    0    0  501  0.00000000000E+00  0.00000000000E+00  0.41663093830E+03  0.41663093831E+03  0.25500000920E-02 0.  1.
        2   -1    0    0  501    0  0.00000000000E+00  0.00000000000E+00 -0.13316986466E+04  0.13316986466E+04  0.25500000920E-02 0. -1.
    10030    2    1    2    0    0  0.00000000000E+00  0.00000000000E+00 -0.91506770831E+03  0.17483295849E+04  0.14897340121E+04 0.  0.
        5    1    3    3  502    0  0.26222125059E+03  0.26264643251E+03  0.30037100872E+03  0.47748085370E+03  0.46999998093E+01 0.  1.
       -5    1    3    3    0  502 -0.26222125059E+03 -0.26264643251E+03 -0.12154387170E+04  0.12708487312E+04  0.46999998093E+01 0. -1.
</event>
<event>
 5   0  0.2646718E-04  0.1512144E+04  0.7818609E-02  0.8876417E-01
       -2   -1    0    0    0  501  0.00000000000E+00  0.00000000000E+00  0.34793333461E+03  0.34793333462E+03  0.25500000920E-02 0. -1.
        2   -1    0    0  501    0  0.00000000000E+00  0.00000000000E+00 -0.16429725508E+04  0.16429725508E+04  0.25500000920E-02 0.  1.
    10030    2    1    2    0    0  0.00000000000E+00  0.00000000000E+00 -0.12950392162E+04  0.19909058854E+04  0.15121440649E+04 0.  0.
        3    1    3    3  502    0  0.55369026137E+03  0.38810436164E+03 -0.20210979498E+03  0.70572394071E+03  0.10100000352E+00 0. -1.
       -3    1    3    3    0  502 -0.55369026137E+03 -0.38810436164E+03 -0.10929294212E+04  0.12851819447E+04  0.10100000352E+00 0.  1.
</event>
<event>
 5   0  0.2734072E-04  0.1502340E+04  0.7818609E-02  0.8882899E-01
       -2   -1    0    0    0  501  0.00000000000E+00  0.00000000000E+00  0.48573879165E+03  0.48573879165E+03  0.25500000920E-02 0. -1.
        2   -1    0    0  501    0  0.00000000000E+00  0.00000000000E+00 -0.11616451537E+04  0.11616451537E+04  0.25500000920E-02 0.  1.
    10030    2    1    2    0    0  0.00000000000E+00  0.00000000000E+00 -0.67590636210E+03  0.16473839454E+04  0.15023396597E+04 0.  0.
        5    1    3    3  502    0  0.27544610558E+03  0.16841325304E+03  0.40576058749E+03  0.51855310744E+03  0.46999998093E+01 0. -1.
       -5    1    3    3    0  502 -0.27544610558E+03 -0.16841325304E+03 -0.10816669496E+04  0.11288308380E+04  0.46999998093E+01 0.  1.
</event>
<event>
 5   0  0.2696040E-04  0.1499613E+04  0.7818609E-02  0.8884710E-01
       -2   -1    0    0    0  501  0.00000000000E+00  0.00000000000E+00  0.51179081584E+03  0.51179081584E+03  0.25500000920E-02 0. -1.
        2   -1    0    0  501    0  0.00000000000E+00  0.00000000000E+00 -0.10985144782E+04  0.10985144782E+04  0.25500000920E-02 0.  1.
    10030    2    1    2    0    0  0.00000000000E+00  0.00000000000E+00 -0.58672366233E+03  0.16103052940E+04  0.14996127780E+04 0.  0.
        2    1    3    3  502    0  0.22249181026E+03 -0.39209826365E+03 -0.93672430583E+03  0.10395653318E+04  0.25500000920E-02 0.  1.
       -2    1    3    3    0  502 -0.22249181026E+03  0.39209826365E+03  0.35000064349E+03  0.57073996220E+03  0.25500000920E-02 0. -1.
</event>
<event>
 5   0  0.2734072E-04  0.1497867E+04  0.7818609E-02  0.8885873E-01
        2   -1    0    0  501    0  0.00000000000E+00  0.00000000000E+00  0.63258814279E+03  0.63258814280E+03  0.25500000920E-02 0.  1.
       -2   -1    0    0    0  501  0.00000000000E+00  0.00000000000E+00 -0.88667648035E+03  0.88667648036E+03  0.25500000920E-02 0. -1.
    10030    2    1    2    0    0  0.00000000000E+00  0.00000000000E+00 -0.25408833756E+03  0.15192646232E+04  0.14978665200E+04 0.  0.
        5    1    3    3  502    0  0.17481519692E+02  0.59700959170E+02  0.62994814249E+03  0.63302966778E+03  0.46999998093E+01 0.  1.
       -5    1    3    3    0  502 -0.17481519692E+02 -0.59700959170E+02 -0.88403648006E+03  0.88623495537E+03  0.46999998093E+01 0. -1.
</event>
<event>
 5   0  0.2696040E-04  0.1508835E+04  0.7818609E-02  0.8878599E-01
       -2   -1    0    0    0  501  0.00000000000E+00  0.00000000000E+00  0.24619236826E+03  0.24619236827E+03  0.25500000920E-02 0. -1.
        2   -1    0    0  501    0  0.00000000000E+00  0.00000000000E+00 -0.23117926059E+04  0.23117926059E+04  0.25500000920E-02 0.  1.
    10030    2    1    2    0    0  0.00000000000E+00  0.00000000000E+00 -0.20656002376E+04  0.25579849741E+04  0.15088349102E+04 0.  0.
        2    1    3    3  502    0  0.34010584564E+03 -0.57209295808E+03 -0.16350230730E+04  0.17652939665E+04  0.25500000920E-02 0.  1.
       -2    1    3    3    0  502 -0.34010584564E+03  0.57209295808E+03 -0.43057716464E+03  0.79269100767E+03  0.25500000920E-02 0. -1.
</event>
<event>
 5   0  0.2641347E-04  0.1500854E+04  0.7818609E-02  0.8883885E-01
        2   -1    0    0  501    0  0.00000000000E+00  0.00000000000E+00  0.58561242871E+03  0.58561242872E+03  0.25500000920E-02 0. -1.
       -2   -1    0    0    0  501  0.00000000000E+00  0.00000000000E+00 -0.96162754896E+03  0.96162754896E+03  0.25500000920E-02 0.  1.
    10030    2    1    2    0    0  0.00000000000E+00  0.00000000000E+00 -0.37601512024E+03  0.15472399777E+04  0.15008544826E+04 0.  0.
        4    1    3    3  502    0  0.43117617304E+03  0.89433545616E+02  0.43841373271E+03  0.62138511827E+03  0.12699999809E+01 0. -1.
       -4    1    3    3    0  502 -0.43117617304E+03 -0.89433545616E+02 -0.81442885295E+03  0.92585485941E+03  0.12699999809E+01 0.  1.
</event>
<event>
 5   0  0.2618901E-04  0.1500539E+04  0.7818609E-02  0.8884094E-01
        2   -1    0    0  501    0  0.00000000000E+00  0.00000000000E+00  0.19125319016E+04  0.19125319016E+04  0.25500000920E-02 0.  1.
       -2   -1    0    0    0  501  0.00000000000E+00  0.00000000000E+00 -0.29432421919E+03  0.29432421920E+03  0.25500000920E-02 0. -1.
    10030    2    1    2    0    0  0.00000000000E+00  0.00000000000E+00  0.16182076825E+04  0.22068561208E+04  0.15005391813E+04 0.  0.
        1    1    3    3  502    0 -0.35455284499E+03  0.31051464146E+03  0.16676468771E+04  0.17329665805E+04  0.50400001928E-02 0.  1.
       -1    1    3    3    0  502  0.35455284499E+03 -0.31051464146E+03 -0.49439194636E+02  0.47388954034E+03  0.50400001928E-02 0. -1.
</event>
<event>
 5   0  0.1426929E-04  0.1495551E+04  0.7818609E-02  0.8887417E-01
        1   -1    0    0  501    0  0.00000000000E+00  0.00000000000E+00  0.18080207782E+04  0.18080207782E+04  0.50400001928E-02 0.  1.
       -1   -1    0    0    0  501  0.00000000000E+00  0.00000000000E+00 -0.30927079901E+03  0.30927079905E+03  0.50400001928E-02 0. -1.
    10030    2    1    2    0    0  0.00000000000E+00  0.00000000000E+00  0.14987499792E+04  0.21172915773E+04  0.14955507758E+04 0.  0.
        1    1    3    3  502    0  0.32444189110E+01  0.20707337443E+03  0.17666101623E+04  0.17787077821E+04  0.50400001928E-02 0.  1.
       -1    1    3    3    0  502 -0.32444189110E+01 -0.20707337443E+03 -0.26786018307E+03  0.33858379517E+03  0.50400001928E-02 0. -1.
</event>
<event>
 5   0  0.1484251E-04  0.1500808E+04  0.7818609E-02  0.8883916E-01
        1   -1    0    0  501    0  0.00000000000E+00  0.00000000000E+00  0.12200899477E+04  0.12200899477E+04  0.50400001928E-02 0.  1.
       -1   -1    0    0    0  501  0.00000000000E+00  0.00000000000E+00 -0.46152821371E+03  0.46152821374E+03  0.50400001928E-02 0. -1.
    10030    2    1    2    0    0  0.00000000000E+00  0.00000000000E+00  0.75856173400E+03  0.16816181615E+04  0.15008076948E+04 0.  0.
        5    1    3    3  502    0 -0.70963048206E+02  0.49369445751E+03  0.10074608828E+04  0.11241750273E+04  0.46999998093E+01 0.  1.
       -5    1    3    3    0  502  0.70963048206E+02 -0.49369445751E+03 -0.24889914880E+03  0.55744313419E+03  0.46999998093E+01 0. -1.
</event>
<event>
 5   0  0.1443750E-04  0.1470240E+04  0.7818609E-02  0.8904488E-01
       -1   -1    0    0    0  501  0.00000000000E+00  0.00000000000E+00  0.15717695996E+04  0.15717695996E+04  0.50400001928E-02 0. -1.
        1   -1    0    0  501    0  0.00000000000E+00  0.00000000000E+00 -0.34381731380E+03  0.34381731384E+03  0.50400001928E-02 0.  1.
    10030    2    1    2    0    0  0.00000000000E+00  0.00000000000E+00  0.12279522858E+04  0.19155869134E+04  0.14702402548E+04 0.  0.
        2    1    3    3  502    0  0.40545472791E+02  0.27068378237E+02 -0.34170885291E+03  0.34516890449E+03  0.25500000920E-02 0.  1.
       -2    1    3    3    0  502 -0.40545472791E+02 -0.27068378237E+02  0.15696611387E+04  0.15704180089E+04  0.25500000920E-02 0. -1.
</event>
<event>
 5   0  0.1484251E-04  0.1528481E+04  0.7818609E-02  0.8865731E-01
       -1   -1    0    0    0  501  0.00000000000E+00  0.00000000000E+00  0.11106859519E+04  0.11106859519E+04  0.50400001928E-02 0. -1.
        1   -1    0    0  501    0  0.00000000000E+00  0.00000000000E+00 -0.52585861988E+03  0.52585861990E+03  0.50400001928E-02 0.  1.
    10030    2    1    2    0    0  0.00000000000E+00  0.00000000000E+00  0.58482733205E+03  0.16365445718E+04  0.15284813140E+04 0.  0.
        5    1    3    3  502    0 -0.27102566184E+03  0.17889265545E+03 -0.44829407373E+03  0.55357669576E+03  0.46999998093E+01 0.  1.
       -5    1    3    3    0  502  0.27102566184E+03 -0.17889265545E+03  0.10331214058E+04  0.10829678761E+04  0.46999998093E+01 0. -1.
</event>
<event>
 5   0  0.2618901E-04  0.1497273E+04  0.7818609E-02  0.8886268E-01
        2   -1    0    0  501    0  0.00000000000E+00  0.00000000000E+00  0.17064069710E+04  0.17064069710E+04  0.25500000920E-02 0. -1.
       -2   -1    0    0    0  501  0.00000000000E+00  0.00000000000E+00 -0.32844248837E+03  0.32844248838E+03  0.25500000920E-02 0.  1.
    10030    2    1    2    0    0  0.00000000000E+00  0.00000000000E+00  0.13779644826E+04  0.20348494594E+04  0.14972729233E+04 0.  0.
        1    1    3    3  502    0 -0.31382637074E+03  0.40413790751E+03 -0.53706497194E+02  0.51448889893E+03  0.50400001928E-02 0.  1.
       -1    1    3    3    0  502  0.31382637074E+03 -0.40413790751E+03  0.14316709798E+04  0.15203605605E+04  0.50400001928E-02 0. -1.
</event>
<event>
 5   0  0.2641347E-04  0.1443581E+04  0.7818609E-02  0.8922863E-01
       -2   -1    0    0    0  501  0.00000000000E+00  0.00000000000E+00  0.39001998289E+03  0.39001998289E+03  0.25500000920E-02 0. -1.
        2   -1    0    0  501    0  0.00000000000E+00  0.00000000000E+00 -0.13357814891E+04  0.13357814891E+04  0.25500000920E-02 0.  1.
    10030    2    1    2    0    0  0.00000000000E+00  0.00000000000E+00 -0.94576150623E+03  0.17258014720E+04  0.14435809275E+04 0.  0.
        4    1    3    3  502    0  0.79105236450E+02 -0.90243617974E+02  0.37800841607E+03  0.39660247672E+03  0.12699999809E+01 0. -1.
       -4    1    3    3    0  502 -0.79105236450E+02  0.90243617974E+02 -0.13237699223E+04  0.13291989953E+04  0.12699999809E+01 0.  1.
</event>
<event>
 5   0  0.1427609E-04  0.1497854E+04  0.7818609E-02  0.8885881E-01
        1   -1    0    0  501    0  0.00000000000E+00  0.00000000000E+00  0.66799691685E+03  0.66799691687E+03  0.50400001928E-02 0. -1.
       -1   -1    0    0    0  501  0.00000000000E+00  0.00000000000E+00 -0.83966242167E+03  0.83966242168E+03  0.50400001928E-02 0.  1.
    10030    2    1    2    0    0  0.00000000000E+00  0.00000000000E+00 -0.17166550482E+03  0.15076593386E+04  0.14978543439E+04 0.  0.
        4    1    3    3  502    0 -0.47160927585E+03  0.56565040016E+03 -0.22279186813E+03  0.76942414419E+03  0.12699999809E+01 0.  1.
       -4    1    3    3    0  502  0.47160927585E+03 -0.56565040016E+03  0.51126363312E+02  0.73823519436E+03  0.12699999809E+01 0. -1.
</event>
<event>
 5   0  0.1443750E-04  0.1493255E+04  0.7818609E-02  0.8888951E-01
       -1   -1    0    0    0  501  0.00000000000E+00  0.00000000000E+00  0.47163005924E+03  0.47163005927E+03  0.50400001928E-02 0.  1.
        1   -1    0    0  501    0  0.00000000000E+00  0.00000000000E+00 -0.11819700572E+04  0.11819700572E+04  0.50400001928E-02 0. -1.
    10030    2    1    2    0    0  0.00000000000E+00  0.00000000000E+00 -0.71033999799E+03  0.16536001165E+04  0.14932549791E+04 0.  0.
        2    1    3    3  502    0  0.31220300039E+03  0.66997175606E+03 -0.47194337980E+03  0.87696261101E+03  0.25500000920E-02 0.  1.
       -2    1    3    3    0  502 -0.31220300039E+03 -0.66997175606E+03 -0.23839661819E+03  0.77663750550E+03  0.25500000920E-02 0. -1.
</event>
<event>
 5   0  0.1443750E-04  0.1502294E+04  0.7818609E-02  0.8882929E-01
        1   -1    0    0  501    0  0.00000000000E+00  0.00000000000E+00  0.10138112434E+04  0.10138112435E+04  0.50400001928E-02 0.  1.
       -1   -1    0    0    0  501  0.00000000000E+00  0.00000000000E+00 -0.55653528766E+03  0.55653528768E+03  0.50400001928E-02 0. -1.
    10030    2    1    2    0    0  0.00000000000E+00  0.00000000000E+00  0.45727595578E+03  0.15703465311E+04  0.15022938887E+04 0.  0.
        2    1    3    3  502    0  0.26634312886E+03  0.50753241500E+03 -0.27883717885E+03  0.63739939354E+03  0.25500000920E-02 0. -1.
       -2    1    3    3    0  502 -0.26634312886E+03 -0.50753241500E+03  0.73611313464E+03  0.93294713760E+03  0.25500000920E-02 0.  1.
</event>
<event>
 5   0  0.2696040E-04  0.1502322E+04  0.7818609E-02  0.8882910E-01
       -2   -1    0    0    0  501  0.00000000000E+00  0.00000000000E+00  0.15676189364E+04  0.15676189364E+04  0.25500000920E-02 0. -1.
        2   -1    0    0  501    0  0.00000000000E+00  0.00000000000E+00 -0.35993626370E+03  0.35993626370E+03  0.25500000920E-02 0.  1.
    10030    2    1    2    0    0  0.00000000000E+00  0.00000000000E+00  0.12076826727E+04  0.19275552001E+04  0.15023220732E+04 0.  0.
        2    1    3    3  502    0 -0.25341753612E+02  0.52903934296E+02  0.15646756472E+04  0.15657748599E+04  0.25500000920E-02 0. -1.
       -2    1    3    3    0  502  0.25341753612E+02 -0.52903934296E+02 -0.35699297451E+03  0.36178034026E+03  0.25500000920E-02 0.  1.
</event>
<event>
 5   0  0.1426929E-04  0.1498279E+04  0.7818609E-02  0.8885598E-01
        1   -1    0    0  501    0  0.00000000000E+00  0.00000000000E+00  0.61468562415E+03  0.61468562417E+03  0.50400001928E-02 0. -1.
       -1   -1    0    0    0  501  0.00000000000E+00  0.00000000000E+00 -0.91300351179E+03  0.91300351181E+03  0.50400001928E-02 0.  1.
    10030    2    1    2    0    0  0.00000000000E+00  0.00000000000E+00 -0.29831788764E+03  0.15276891360E+04  0.14982791910E+04 0.  0.
        1    1    3    3  502    0 -0.57117337967E+03  0.10273041554E+03  0.33386723142E+03  0.66952214016E+03  0.50400001928E-02 0. -1.
       -1    1    3    3    0  502  0.57117337967E+03 -0.10273041554E+03 -0.63218511906E+03  0.85816699582E+03  0.50400001928E-02 0.  1.
</event>
<event>
 5   0  0.1443750E-04  0.1475816E+04  0.7818609E-02  0.8900696E-01
       -1   -1    0    0    0  501  0.00000000000E+00  0.00000000000E+00  0.45883763916E+03  0.45883763919E+03  0.50400001928E-02 0.  1.
        1   -1    0    0  501    0  0.00000000000E+00  0.00000000000E+00 -0.11867128806E+04  0.11867128806E+04  0.50400001928E-02 0. -1.
    10030    2    1    2    0    0  0.00000000000E+00  0.00000000000E+00 -0.72787524141E+03  0.16455505198E+04  0.14758164337E+04 0.  0.
        2    1    3    3  502    0  0.15968469634E+03 -0.21229451809E+03 -0.11315478091E+04  0.11623117521E+04  0.25500000920E-02 0. -1.
       -2    1    3    3    0  502 -0.15968469634E+03  0.21229451809E+03  0.40367256772E+03  0.48323876769E+03  0.25500000920E-02 0.  1.
</event>
<event>
 5   0  0.1474203E-04  0.1499419E+04  0.7818609E-02  0.8884839E-01
        1   -1    0    0  501    0  0.00000000000E+00  0.00000000000E+00  0.40568065653E+03  0.40568065656E+03  0.50400001928E-02 0.  1.
       -1   -1    0    0    0  501  0.00000000000E+00  0.00000000000E+00 -0.13854848570E+04  0.13854848570E+04  0.50400001928E-02 0. -1.
    10030    2    1    2    0    0  0.00000000000E+00  0.00000000000E+00 -0.97980420050E+03  0.17911655136E+04  0.14994190961E+04 0.  0.
        3    1    3    3  502    0 -0.28829319308E+03 -0.59306567274E+03 -0.63815257131E+02  0.66250453176E+03  0.10100000352E+00 0.  1.
       -3    1    3    3    0  502  0.28829319308E+03  0.59306567274E+03 -0.91598894337E+03  0.11286609818E+04  0.10100000352E+00 0. -1.
</event>
<event>
 5   0  0.1427609E-04  0.1500929E+04  0.7818609E-02  0.8883835E-01
       -1   -1    0    0    0  501  0.00000000000E+00  0.00000000000E+00  0.53789067874E+03  0.53789067876E+03  0.50400001928E-02 0.  1.
        1   -1    0    0  501    0  0.00000000000E+00  0.00000000000E+00 -0.10470474384E+04  0.10470474385E+04  0.50400001928E-02 0. -1.
    10030    2    1    2    0    0  0.00000000000E+00  0.00000000000E+00 -0.50915675971E+03  0.15849381172E+04  0.15009291221E+04 0.  0.
        4    1    3    3  502    0 -0.24103071815E+03 -0.42180003265E+03 -0.85859432044E+03  0.98650742249E+03  0.12699999809E+01 0. -1.
       -4    1    3    3    0  502  0.24103071815E+03  0.42180003265E+03  0.34943756074E+03  0.59843069473E+03  0.12699999809E+01 0.  1.
</event>
<event>
 5   0  0.2641347E-04  0.1497625E+04  0.7818609E-02  0.8886034E-01
       -2   -1    0    0    0  501  0.00000000000E+00  0.00000000000E+00  0.35348129164E+03  0.35348129165E+03  0.25500000920E-02 0. -1.
        2   -1    0    0  501    0  0.00000000000E+00  0.00000000000E+00 -0.15862785667E+04  0.15862785667E+04  0.25500000920E-02 0.  1.
    10030    2    1    2    0    0  0.00000000000E+00  0.00000000000E+00 -0.12327972751E+04  0.19397598584E+04  0.14976245146E+04 0.  0.
        4    1    3    3  502    0 -0.40694488566E+02 -0.42762345096E+02 -0.15832587538E+04  0.15843593512E+04  0.12699999809E+01 0.  1.
       -4    1    3    3    0  502  0.40694488566E+02  0.42762345096E+02  0.35046147867E+03  0.35540050716E+03  0.12699999809E+01 0. -1.
</event>
<event>
 5   0  0.2696040E-04  0.1504594E+04  0.7818609E-02  0.8881404E-01
       -2   -1    0    0    0  501  0.00000000000E+00  0.00000000000E+00  0.78255310578E+03  0.78255310578E+03  0.25500000920E-02 0. -1.
        2   -1    0    0  501    0  0.00000000000E+00  0.00000000000E+00 -0.72321082632E+03  0.72321082633E+03  0.25500000920E-02 0.  1.
    10030    2    1    2    0    0  0.00000000000E+00  0.00000000000E+00  0.59342279453E+02  0.15057639321E+04  0.15045941357E+04 0.  0.
        2    1    3    3  502    0  0.61795709968E+03 -0.30264115949E+03 -0.27468408330E+03  0.74088730188E+03  0.25500000920E-02 0.  1.
       -2    1    3    3    0  502 -0.61795709968E+03  0.30264115949E+03  0.33402636275E+03  0.76487663023E+03  0.25500000920E-02 0. -1.
</event>
<event>
 5   0  0.2734072E-04  0.1503820E+04  0.7818609E-02  0.8881917E-01
       -2   -1    0    0    0  501  0.00000000000E+00  0.00000000000E+00  0.46657058804E+03  0.46657058804E+03  0.25500000920E-02 0.  1.
        2   -1    0    0  501    0  0.00000000000E+00  0.00000000000E+00 -0.12117530839E+04  0.12117530839E+04  0.25500000920E-02 0. -1.
    10030    2    1    2    0    0  0.00000000000E+00  0.00000000000E+00 -0.74518249584E+03  0.16783236719E+04  0.15038196021E+04 0.  0.
        5    1    3    3  502    0  0.67590318071E+03  0.21362897442E+03 -0.65241226436E+03  0.96340349858E+03  0.46999998093E+01 0. -1.
       -5    1    3    3    0  502 -0.67590318071E+03 -0.21362897442E+03 -0.92770231476E+02  0.71492017334E+03  0.46999998093E+01 0.  1.
</event>
<event>
 5   0  0.2646718E-04  0.1480459E+04  0.7818609E-02  0.8897552E-01
       -2   -1    0    0    0  501  0.00000000000E+00  0.00000000000E+00  0.38268959487E+03  0.38268959488E+03  0.25500000920E-02 0. -1.
        2   -1    0    0  501    0  0.00000000000E+00  0.00000000000E+00 -0.14318130792E+04  0.14318130792E+04  0.25500000920E-02 0.  1.
    10030    2    1    2    0    0  0.00000000000E+00  0.00000000000E+00 -0.10491234844E+04  0.18145026741E+04  0.14804593439E+04 0.  0.
        3    1    3    3  502    0  0.52853874872E+03  0.92779625226E+02 -0.11494897687E+04  0.12685771582E+04  0.10100000352E+00 0.  1.
       -3    1    3    3    0  502 -0.52853874872E+03 -0.92779625226E+02  0.10036628430E+03  0.54592551596E+03  0.10100000352E+00 0. -1.
</event>
<event>
 5   0  0.2618901E-04  0.1499614E+04  0.7818609E-02  0.8884710E-01
       -2   -1    0    0    0  501  0.00000000000E+00  0.00000000000E+00  0.61824962011E+03  0.61824962011E+03  0.25500000920E-02 0. -1.
        2   -1    0    0  501    0  0.00000000000E+00  0.00000000000E+00 -0.90935868857E+03  0.90935868857E+03  0.25500000920E-02 0.  1.
    10030    2    1    2    0    0  0.00000000000E+00  0.00000000000E+00 -0.29110906846E+03  0.15276083087E+04  0.14996141687E+04 0.  0.
        1    1    3    3  502    0  0.29548347201E+03  0.41912697119E+03 -0.70278781719E+03  0.86999345758E+03  0.50400001928E-02 0.  1.
       -1    1    3    3    0  502 -0.29548347201E+03 -0.41912697119E+03  0.41167874873E+03  0.65761485111E+03  0.50400001928E-02 0. -1.
</event>
<event>
 5   0  0.1474203E-04  0.1501673E+04  0.7818609E-02  0.8883341E-01
        1   -1    0    0  501    0  0.00000000000E+00  0.00000000000E+00  0.14615981570E+04  0.14615981570E+04  0.50400001928E-02 0. -1.
       -1   -1    0    0    0  501  0.00000000000E+00  0.00000000000E+00 -0.38571151688E+03  0.38571151691E+03  0.50400001928E-02 0.  1.
    10030    2    1    2    0    0  0.00000000000E+00  0.00000000000E+00  0.10758866401E+04  0.18473096739E+04  0.15016727237E+04 0.  0.
        3    1    3    3  502    0  0.73084551079E+03  0.40017485871E+02  0.33202822359E+03  0.80372838153E+03  0.10100000352E+00 0.  1.
       -3    1    3    3    0  502 -0.73084551079E+03 -0.40017485871E+02  0.74385841655E+03  0.10435812924E+04  0.10100000352E+00 0. -1.
</event>
<event>
 5   0  0.1474203E-04  0.1496273E+04  0.7818609E-02  0.8886935E-01
       -1   -1    0    0    0  501  0.00000000000E+00  0.00000000000E+00  0.63987352072E+03  0.63987352074E+03  0.50400001928E-02 0. -1.
        1   -1    0    0  501    0  0.00000000000E+00  0.00000000000E+00 -0.87471676894E+03  0.87471676896E+03  0.50400001928E-02 0.  1.
    10030    2    1    2    0    0  0.00000000000E+00  0.00000000000E+00 -0.23484324822E+03  0.15145902897E+04  0.14962728342E+04 0.  0.
        3    1    3    3  502    0 -0.23026099118E+02  0.25582721796E+03  0.59383983578E+03  0.64701122668E+03  0.10100000352E+00 0. -1.
       -3    1    3    3    0  502  0.23026099118E+02 -0.25582721796E+03 -0.82868308400E+03  0.86757906302E+03  0.10100000352E+00 0.  1.
</event>
<event>
 5   0  0.2646718E-04  0.1503701E+04  0.7818609E-02  0.8881996E-01
        2   -1    0    0  501    0  0.00000000000E+00  0.00000000000E+00  0.10563430443E+04  0.10563430443E+04  0.25500000920E-02 0. -1.
       -2   -1    0    0    0  501  0.00000000000E+00  0.00000000000E+00 -0.53512816730E+03  0.53512816730E+03  0.25500000920E-02 0.  1.
    10030    2    1    2    0    0  0.00000000000E+00  0.00000000000E+00  0.52121487700E+03  0.15914712116E+04  0.15037006582E+04 0.  0.
        3    1    3    3  502    0  0.26148951305E+02 -0.60508570882E+03 -0.21089171784E+03  0.64131724562E+03  0.10100000352E+00 0.  1.
       -3    1    3    3    0  502 -0.26148951305E+02  0.60508570882E+03  0.73210659484E+03  0.95015396599E+03  0.10100000352E+00 0. -1.
</event>
<event>
 5   0  0.1427609E-04  0.1500826E+04  0.7818609E-02  0.8883904E-01
        1   -1    0    0  501    0  0.00000000000E+00  0.00000000000E+00  0.71524193009E+03  0.71524193011E+03  0.50400001928E-02 0. -1.
       -1   -1    0    0    0  501  0.00000000000E+00  0.00000000000E+00 -0.78731368185E+03  0.78731368186E+03  0.50400001928E-02 0.  1.
    10030    2    1    2    0    0  0.00000000000E+00  0.00000000000E+00 -0.72071751754E+02  0.15025556120E+04  0.15008261157E+04 0.  0.
        4    1    3    3  502    0 -0.21192087260E+02  0.47816007437E+02 -0.78548563528E+03  0.78722599758E+03  0.12699999809E+01 0.  1.
       -4    1    3    3    0  502  0.21192087260E+02 -0.47816007437E+02  0.71341388352E+03  0.71532961440E+03  0.12699999809E+01 0. -1.
</event>
<event>
 5   0  0.2618901E-04  0.1502173E+04  0.7818609E-02  0.8883009E-01
       -2   -1    0    0    0  501  0.00000000000E+00  0.00000000000E+00  0.83771540281E+03  0.83771540281E+03  0.25500000920E-02 0. -1.
        2   -1    0    0  501    0  0.00000000000E+00  0.00000000000E+00 -0.67341625027E+03  0.67341625027E+03  0.25500000920E-02 0.  1.
    10030    2    1    2    0    0  0.00000000000E+00  0.00000000000E+00  0.16429915254E+03  0.15111316531E+04  0.15021733127E+04 0.  0.
        1    1    3    3  502    0  0.30112144453E+03  0.32139752281E+03 -0.52988703062E+03  0.68902159419E+03  0.50400001928E-02 0.  1.
       -1    1    3    3    0  502 -0.30112144453E+03 -0.32139752281E+03  0.69418618316E+03  0.82211005889E+03  0.50400001928E-02 0. -1.
</event>
<event>
 5   0  0.2646718E-04  0.1502915E+04  0.7818609E-02  0.8882517E-01
        2   -1    0    0  501    0  0.00000000000E+00  0.00000000000E+00  0.62573459209E+03  0.62573459210E+03  0.25500000920E-02 0.  1.
       -2   -1    0    0    0  501  0.00000000000E+00  0.00000000000E+00 -0.90244121126E+03  0.90244121127E+03  0.25500000920E-02 0. -1.
    10030    2    1    2    0    0  0.00000000000E+00  0.00000000000E+00 -0.27670661917E+03  0.15281758034E+04  0.15029154111E+04 0.  0.
        3    1    3    3  502    0  0.17679268675E+03 -0.45314659457E+03  0.44406639633E+03  0.65862923168E+03  0.10100000352E+00 0.  1.
       -3    1    3    3    0  502 -0.17679268675E+03  0.45314659457E+03 -0.72077301550E+03  0.86954657169E+03  0.10100000352E+00 0. -1.
</event>
<event>
 5   0  0.1426929E-04  0.1506269E+04  0.7818609E-02  0.8880295E-01
        1   -1    0    0  501    0  0.00000000000E+00  0.00000000000E+00  0.84766757169E+03  0.84766757171E+03  0.50400001928E-02 0.  1.
       -1   -1    0    0    0  501  0.00000000000E+00  0.00000000000E+00 -0.66914414958E+03  0.66914414960E+03  0.50400001928E-02 0. -1.
    10030    2    1    2    0    0  0.00000000000E+00  0.00000000000E+00  0.17852342212E+03  0.15168117213E+04  0.15062692939E+04 0.  0.
        1    1    3    3  502    0 -0.20614739227E+03  0.56179603583E+03 -0.37121359257E+03  0.70420953170E+03  0.50400001928E-02 0. -1.
       -1    1    3    3    0  502  0.20614739227E+03 -0.56179603583E+03  0.54973701468E+03  0.81260218960E+03  0.50400001928E-02 0.  1.
</event>
<event>
 5   0  0.2646718E-04  0.1509892E+04  0.7818609E-02  0.8877901E-01
       -2   -1    0    0    0  501  0.00000000000E+00  0.00000000000E+00  0.29281886830E+03  0.29281886831E+03  0.25500000920E-02 0. -1.
        2   -1    0    0  501    0  0.00000000000E+00  0.00000000000E+00 -0.19464037003E+04  0.19464037003E+04  0.25500000920E-02 0.  1.
    10030    2    1    2    0    0  0.00000000000E+00  0.00000000000E+00 -0.16535848320E+04  0.22392225686E+04  0.15098923522E+04 0.  0.
        3    1    3    3  502    0  0.67966361894E+03 -0.10763475930E+02 -0.13139082825E+04  0.14793287235E+04  0.10100000352E+00 0. -1.
       -3    1    3    3    0  502 -0.67966361894E+03  0.10763475930E+02 -0.33967654956E+03  0.75989384511E+03  0.10100000352E+00 0.  1.
</event>
<event>
 5   0  0.2618901E-04  0.1499003E+04  0.7818609E-02  0.8885116E-01
       -2   -1    0    0    0  501  0.00000000000E+00  0.00000000000E+00  0.47837188376E+03  0.47837188377E+03  0.25500000920E-02 0.  1.
        2   -1    0    0  501    0  0.00000000000E+00  0.00000000000E+00 -0.11743007054E+04  0.11743007054E+04  0.25500000920E-02 0. -1.
    10030    2    1    2    0    0  0.00000000000E+00  0.00000000000E+00 -0.69592882168E+03  0.16526725892E+04  0.14990029227E+04 0.  0.
        1    1    3    3  502    0  0.14368873252E+03  0.45576972343E+03  0.28861718942E+03  0.55827625303E+03  0.50400001928E-02 0.  1.
       -1    1    3    3    0  502 -0.14368873252E+03 -0.45576972343E+03 -0.98454601110E+03  0.10943963362E+04  0.50400001928E-02 0. -1.
</event>
<event>
 5   0  0.1443750E-04  0.1494420E+04  0.7818609E-02  0.8888172E-01
       -1   -1    0    0    0  501  0.00000000000E+00  0.00000000000E+00  0.76466501681E+03  0.76466501683E+03  0.50400001928E-02 0.  1.
        1   -1    0    0  501    0  0.00000000000E+00  0.00000000000E+00 -0.73015317239E+03  0.73015317241E+03  0.50400001928E-02 0. -1.
    10030    2    1    2    0    0  0.00000000000E+00  0.00000000000E+00  0.34511844418E+02  0.14948181892E+04  0.14944197374E+04 0.  0.
        2    1    3    3  502    0  0.13457422587E+03  0.72539757034E+03 -0.10114256932E+03  0.74467555127E+03  0.25500000920E-02 0.  1.
       -2    1    3    3    0  502 -0.13457422587E+03 -0.72539757034E+03  0.13565441374E+03  0.75014263797E+03  0.25500000920E-02 0. -1.
</event>
<event>
 5   0  0.2641347E-04  0.1495842E+04  0.7818609E-02  0.8887222E-01
       -2   -1    0    0    0  501  0.00000000000E+00  0.00000000000E+00  0.35641839175E+03  0.35641839176E+03  0.25500000920E-02 0. -1.
        2   -1    0    0  501    0  0.00000000000E+00  0.00000000000E+00 -0.15694650063E+04  0.15694650063E+04  0.25500000920E-02 0.  1.
    10030    2    1    2    0    0  0.00000000000E+00  0.00000000000E+00 -0.12130466145E+04  0.19258833981E+04  0.14958424963E+04 0.  0.
        4    1    3    3  502    0 -0.20563217107E+03 -0.15755912531E+03  0.29681008056E+03  0.39396358280E+03  0.12699999809E+01 0. -1.
       -4    1    3    3    0  502  0.20563217107E+03  0.15755912531E+03 -0.15098566951E+04  0.15319198153E+04  0.12699999809E+01 0.  1.
</event>
<event>
 5   0  0.2696040E-04  0.1500935E+04  0.7818609E-02  0.8883831E-01
       -2   -1    0    0    0  501  0.00000000000E+00  0.00000000000E+00  0.51246266384E+03  0.51246266385E+03  0.25500000920E-02 0.  1.
        2   -1    0    0  501    0  0.00000000000E+00  0.00000000000E+00 -0.10990104221E+04  0.10990104221E+04  0.25500000920E-02 0. -1.
    10030    2    1    2    0    0  0.00000000000E+00  0.00000000000E+00 -0.58654775823E+03  0.16114730859E+04  0.15009354530E+04 0.  0.
        2    1    3    3  502    0 -0.16553827283E+03  0.17327844363E+03 -0.10568266594E+04  0.10836562771E+04  0.25500000920E-02 0. -1.
       -2    1    3    3    0  502  0.16553827283E+03 -0.17327844363E+03  0.47027890118E+03  0.52781680885E+03  0.25500000920E-02 0.  1.
</event>
<event>
 5   0  0.1474203E-04  0.1502404E+04  0.7818609E-02  0.8882856E-01
       -1   -1    0    0    0  501  0.00000000000E+00  0.00000000000E+00  0.13951186006E+04  0.13951186006E+04  0.50400001928E-02 0. -1.
        1   -1    0    0  501    0  0.00000000000E+00  0.00000000000E+00 -0.40448503083E+03  0.40448503086E+03  0.50400001928E-02 0.  1.
    10030    2    1    2    0    0  0.00000000000E+00  0.00000000000E+00  0.99063356981E+03  0.17996036315E+04  0.15024041936E+04 0.  0.
        3    1    3    3  502    0 -0.25518212370E+03 -0.58985387268E+03  0.29461753410E+02  0.64336110582E+03  0.10100000352E+00 0.  1.
       -3    1    3    3    0  502  0.25518212370E+03  0.58985387268E+03  0.96117181640E+03  0.11562425257E+04  0.10100000352E+00 0. -1.
</event>
<event>
 5   0  0.1427609E-04  0.1491868E+04  0.7818609E-02  0.8889879E-01
        1   -1    0    0  501    0  0.00000000000E+00  0.00000000000E+00  0.53633111128E+03  0.53633111130E+03  0.50400001928E-02 0.  1.
       -1   -1    0    0    0  501  0.00000000000E+00  0.00000000000E+00 -0.10374514746E+04  0.10374514746E+04  0.50400001928E-02 0. -1.
    10030    2    1    2    0    0  0.00000000000E+00  0.00000000000E+00 -0.50112036336E+03  0.15737825859E+04  0.14918679597E+04 0.  0.
        4    1    3    3  502    0 -0.94038245890E+02  0.69661914407E+03  0.12732678133E+02  0.70305416404E+03  0.12699999809E+01 0.  1.
       -4    1    3    3    0  502  0.94038245890E+02 -0.69661914407E+03 -0.51385304149E+03  0.87072842191E+03  0.12699999809E+01 0. -1.
</event>
<event>
 5   0  0.1484251E-04  0.1499277E+04  0.7818609E-02  0.8884934E-01
       -1   -1    0    0    0  501  0.00000000000E+00  0.00000000000E+00  0.49439319869E+03  0.49439319872E+03  0.50400001928E-02 0. -1.
        1   -1    0    0  501    0  0.00000000000E+00  0.00000000000E+00 -0.11366617762E+04  0.11366617762E+04  0.50400001928E-02 0.  1.
    10030    2    1    2    0    0  0.00000000000E+00  0.00000000000E+00 -0.64226857751E+03  0.16310549749E+04  0.14992769609E+04 0.  0.
        5    1    3    3  502    0  0.61737940656E+03 -0.40553849686E+03 -0.46009957323E+03  0.87024853425E+03  0.46999998093E+01 0.  1.
       -5    1    3    3    0  502 -0.61737940656E+03  0.40553849686E+03 -0.18216900428E+03  0.76080644069E+03  0.46999998093E+01 0. -1.
</event>
<event>
 5   0  0.1427609E-04  0.1499712E+04  0.7818609E-02  0.8884645E-01
        1   -1    0    0  501    0  0.00000000000E+00  0.00000000000E+00  0.85795592697E+03  0.85795592698E+03  0.50400001928E-02 0. -1.
       -1   -1    0    0    0  501  0.00000000000E+00  0.00000000000E+00 -0.65537618345E+03  0.65537618347E+03  0.50400001928E-02 0.  1.
    10030    2    1    2    0    0  0.00000000000E+00  0.00000000000E+00  0.20257974352E+03  0.15133321104E+04  0.14997118137E+04 0.  0.
        4    1    3    3  502    0 -0.31736818012E+03  0.69020914135E+02 -0.58071502851E+03  0.66537057763E+03  0.12699999809E+01 0.  1.
       -4    1    3    3    0  502  0.31736818012E+03 -0.69020914135E+02  0.78329477203E+03  0.84796153281E+03  0.12699999809E+01 0. -1.
</event>
<event>
 5   0  0.1426929E-04  0.1508128E+04  0.7818609E-02  0.8879066E-01
        1   -1    0    0  501    0  0.00000000000E+00  0.00000000000E+00  0.86513097968E+03  0.86513097970E+03  0.50400001928E-02 0.  1.
       -1   -1    0    0    0  501  0.00000000000E+00  0.00000000000E+00 -0.65725564461E+03  0.65725564463E+03  0.50400001928E-02 0. -1.
    10030    2    1    2    0    0  0.00000000000E+00  0.00000000000E+00  0.20787533507E+03  0.15223866243E+04  0.15081276070E+04 0.  0.
        1    1    3    3  502    0  0.40961011655E+03  0.24598734963E+03  0.69282454862E+03  0.84160327884E+03  0.50400001928E-02 0.  1.
       -1    1    3    3    0  502 -0.40961011655E+03 -0.24598734963E+03 -0.48494921355E+03  0.68078334549E+03  0.50400001928E-02 0. -1.
</event>
<event>
 5   0  0.2734072E-04  0.1507739E+04  0.7818609E-02  0.8879323E-01
       -2   -1    0    0    0  501  0.00000000000E+00  0.00000000000E+00  0.44140358362E+03  0.44140358363E+03  0.25500000920E-02 0. -1.
        2   -1    0    0  501    0  0.00000000000E+00  0.00000000000E+00 -0.12875266354E+04  0.12875266354E+04  0.25500000920E-02 0.  1.
    10030    2    1    2    0    0  0.00000000000E+00  0.00000000000E+00 -0.84612305173E+03  0.17289302190E+04  0.15077385329E+04 0.  0.
        5    1    3    3  502    0 -0.21638660199E+03  0.59122250764E+03  0.52412409017E+02  0.63177240022E+03  0.46999998093E+01 0. -1.
       -5    1    3    3    0  502  0.21638660199E+03 -0.59122250764E+03 -0.89853546074E+03  0.10971578188E+04  0.46999998093E+01 0.  1.
</event>
<event>
 5   0  0.1427609E-04  0.1501921E+04  0.7818609E-02  0.8883177E-01
       -1   -1    0    0    0  501  0.00000000000E+00  0.00000000000E+00  0.14742742526E+04  0.14742742526E+04  0.50400001928E-02 0. -1.
        1   -1    0    0  501    0  0.00000000000E+00  0.00000000000E+00 -0.38252146017E+03  0.38252146020E+03  0.50400001928E-02 0.  1.
    10030    2    1    2    0    0  0.00000000000E+00  0.00000000000E+00  0.10917527924E+04  0.18567957128E+04  0.15019208233E+04 0.  0.
        4    1    3    3  502    0  0.47770785528E+02 -0.37078363283E+03  0.13510524253E+04  0.14018226775E+04  0.12699999809E+01 0. -1.
       -4    1    3    3    0  502 -0.47770785528E+02  0.37078363283E+03 -0.25929963290E+03  0.45497303529E+03  0.12699999809E+01 0.  1.
</event>
<event>
 5   0  0.2734072E-04  0.1497796E+04  0.7818609E-02  0.8885920E-01
        2   -1    0    0  501    0  0.00000000000E+00  0.00000000000E+00  0.60177292562E+03  0.60177292563E+03  0.25500000920E-02 0.  1.
       -2   -1    0    0    0  501  0.00000000000E+00  0.00000000000E+00 -0.93199257325E+03  0.93199257325E+03  0.25500000920E-02 0. -1.
    10030    2    1    2    0    0  0.00000000000E+00  0.00000000000E+00 -0.33021964763E+03  0.15337654989E+04  0.14977955768E+04 0.  0.
        5    1    3    3  502    0 -0.99081352283E+02  0.64647924129E+03 -0.53866250456E+03  0.84730862595E+03  0.46999998093E+01 0. -1.
       -5    1    3    3    0  502  0.99081352283E+02 -0.64647924129E+03  0.20844285694E+03  0.68645687293E+03  0.46999998093E+01 0.  1.
</event>
<event>
 5   0  0.2646718E-04  0.1490160E+04  0.7818609E-02  0.8891023E-01
       -2   -1    0    0    0  501  0.00000000000E+00  0.00000000000E+00  0.29309745088E+03  0.29309745089E+03  0.25500000920E-02 0. -1.
        2   -1    0    0  501    0  0.00000000000E+00  0.00000000000E+00 -0.18940592911E+04  0.18940592911E+04  0.25500000920E-02 0.  1.
    10030    2    1    2    0    0  0.00000000000E+00  0.00000000000E+00 -0.16009618402E+04  0.21871567420E+04  0.14901596559E+04 0.  0.
        3    1    3    3  502    0  0.20761480379E+03 -0.63670219952E+01  0.24974291962E+03  0.32483223643E+03  0.10100000352E+00 0. -1.
       -3    1    3    3    0  502 -0.20761480379E+03  0.63670219952E+01 -0.18507047598E+04  0.18623245055E+04  0.10100000352E+00 0.  1.
</event>
<event>
 5   0  0.2646718E-04  0.1502399E+04  0.7818609E-02  0.8882859E-01
       -2   -1    0    0    0  501  0.00000000000E+00  0.00000000000E+00  0.54284771335E+03  0.54284771335E+03  0.25500000920E-02 0. -1.
        2   -1    0    0  501    0  0.00000000000E+00  0.00000000000E+00 -0.10395191992E+04  0.10395191992E+04  0.25500000920E-02 0.  1.
    10030    2    1    2    0    0  0.00000000000E+00  0.00000000000E+00 -0.49667148583E+03  0.15823669125E+04  0.15023989088E+04 0.  0.
        3    1    3    3  502    0  0.27152133352E+03  0.30491727200E+03  0.41578392334E+03  0.58273034795E+03  0.10100000352E+00 0. -1.
       -3    1    3    3    0  502 -0.27152133352E+03 -0.30491727200E+03 -0.91245540917E+03  0.99963656458E+03  0.10100000352E+00 0.  1.
</event>
<event>
 5   0  0.1484251E-04  0.1503150E+04  0.7818609E-02  0.8882361E-01
       -1   -1    0    0    0  501  0.00000000000E+00  0.00000000000E+00  0.55863220245E+03  0.55863220248E+03  0.50400001928E-02 0.  1.
        1   -1    0    0  501    0  0.00000000000E+00  0.00000000000E+00 -0.10111570278E+04  0.10111570279E+04  0.50400001928E-02 0. -1.
    10030    2    1    2    0    0  0.00000000000E+00  0.00000000000E+00 -0.45252482539E+03  0.15697892303E+04  0.15031498628E+04 0.  0.
        5    1    3    3  502    0 -0.73730080441E+03 -0.13159665984E+03 -0.16093830601E+03  0.76606356486E+03  0.46999998093E+01 0.  1.
       -5    1    3    3    0  502  0.73730080441E+03  0.13159665984E+03 -0.29158651938E+03  0.80372566547E+03  0.46999998093E+01 0. -1.
</event>
<event>
 5   0  0.2734072E-04  0.1495834E+04  0.7818609E-02  0.8887228E-01
        2   -1    0    0  501    0  0.00000000000E+00  0.00000000000E+00  0.43491684024E+03  0.43491684024E+03  0.25500000920E-02 0.  1.
       -2   -1    0    0    0  501  0.00000000000E+00  0.00000000000E+00 -0.12861764493E+04  0.12861764493E+04  0.25500000920E-02 0. -1.
    10030    2    1    2    0    0  0.00000000000E+00  0.00000000000E+00 -0.85125960902E+03  0.17210932895E+04  0.14958339444E+04 0.  0.
        5    1    3    3  502    0 -0.39412031769E+03 -0.63227356194E+03 -0.35055846833E+03  0.82341606230E+03  0.46999998093E+01 0.  1.
       -5    1    3    3    0  502  0.39412031769E+03  0.63227356194E+03 -0.50070114070E+03  0.89767722720E+03  0.46999998093E+01 0. -1.
</event>
<event>
 5   0  0.2646718E-04  0.1499025E+04  0.7818609E-02  0.8885101E-01
        2   -1    0    0  501    0  0.00000000000E+00  0.00000000000E+00  0.13193818586E+04  0.13193818586E+04  0.25500000920E-02 0.  1.
       -2   -1    0    0    0  501  0.00000000000E+00  0.00000000000E+00 -0.42578221785E+03  0.42578221786E+03  0.25500000920E-02 0. -1.
    10030    2    1    2    0    0  0.00000000000E+00  0.00000000000E+00  0.89359964078E+03  0.17451640765E+04  0.14990254621E+04 0.  0.
        3    1    3    3  502    0  0.99263000016E+02  0.73951328956E+03  0.52941920962E+03  0.91488674617E+03  0.10100000352E+00 0. -1.
       -3    1    3    3    0  502 -0.99263000016E+02 -0.73951328956E+03  0.36418043115E+03  0.83027733032E+03  0.10100000352E+00 0.  1.
</event>
<event>
 5   0  0.1474203E-04  0.1492723E+04  0.7818609E-02  0.8889307E-01
        1   -1    0    0  501    0  0.00000000000E+00  0.00000000000E+00  0.13427322869E+04  0.13427322869E+04  0.50400001928E-02 0. -1.
       -1   -1    0    0    0  501  0.00000000000E+00  0.00000000000E+00 -0.41486688686E+03  0.41486688689E+03  0.50400001928E-02 0.  1.
    10030    2    1    2    0    0  0.00000000000E+00  0.00000000000E+00  0.92786540003E+03  0.17575991738E+04  0.14927225647E+04 0.  0.
        3    1    3    3  502    0 -0.15916634479E+02 -0.17285188447E+03  0.13186347558E+04  0.13300108054E+04  0.10100000352E+00 0. -1.
       -3    1    3    3    0  502  0.15916634479E+02  0.17285188447E+03 -0.39076935572E+03  0.42758836840E+03  0.10100000352E+00 0.  1.
</event>
<event>
 5   0  0.1474203E-04  0.1506814E+04  0.7818609E-02  0.8879935E-01
       -1   -1    0    0    0  501  0.00000000000E+00  0.00000000000E+00  0.10425145187E+04  0.10425145187E+04  0.50400001928E-02 0. -1.
        1   -1    0    0  501    0  0.00000000000E+00  0.00000000000E+00 -0.54447375618E+03  0.54447375620E+03  0.50400001928E-02 0.  1.
    10030    2    1    2    0    0  0.00000000000E+00  0.00000000000E+00  0.49804076249E+03  0.15869882749E+04  0.15068135862E+04 0.  0.
        3    1    3    3  502    0 -0.55216657951E+03 -0.49915943259E+03  0.12631501558E+03  0.75498580386E+03  0.10100000352E+00 0. -1.
       -3    1    3    3    0  502  0.55216657951E+03  0.49915943259E+03  0.37172574692E+03  0.83200247102E+03  0.10100000352E+00 0.  1.
</event>
<event>
 5   0  0.1427609E-04  0.1498803E+04  0.7818609E-02  0.8885249E-01
        1   -1    0    0  501    0  0.00000000000E+00  0.00000000000E+00  0.69731021378E+03  0.69731021379E+03  0.50400001928E-02 0.  1.
       -1   -1    0    0    0  501  0.00000000000E+00  0.00000000000E+00 -0.80538407309E+03  0.80538407311E+03  0.50400001928E-02 0. -1.
    10030    2    1    2    0    0  0.00000000000E+00  0.00000000000E+00 -0.10807385932E+03  0.15026942869E+04  0.14988029093E+04 0.  0.
        4    1    3    3  502    0  0.54669345846E+03 -0.39863506704E+03 -0.37708036240E+03  0.77458044567E+03  0.12699999809E+01 0. -1.
       -4    1    3    3    0  502 -0.54669345846E+03  0.39863506704E+03  0.26900650308E+03  0.72811384124E+03  0.12699999809E+01 0.  1.
</event>
<event>
 5   0  0.2618901E-04  0.1502762E+04  0.7818609E-02  0.8882618E-01
       -2   -1    0    0    0  501  0.00000000000E+00  0.00000000000E+00  0.70078203310E+03  0.70078203311E+03  0.25500000920E-02 0. -1.
        2   -1    0    0  501    0  0.00000000000E+00  0.00000000000E+00 -0.80563309218E+03  0.80563309218E+03  0.25500000920E-02 0.  1.
    10030    2    1    2    0    0  0.00000000000E+00  0.00000000000E+00 -0.10485105907E+03  0.15064151253E+04  0.15027617193E+04 0.  0.
        1    1    3    3  502    0  0.73753450425E+03 -0.85802995271E+02 -0.16783098641E+03  0.76124013227E+03  0.50400001928E-02 0.  1.
       -1    1    3    3    0  502 -0.73753450425E+03  0.85802995271E+02  0.62979927332E+02  0.74517499302E+03  0.50400001928E-02 0. -1.
</event>
<event>
 5   0  0.2734072E-04  0.1498442E+04  0.7818609E-02  0.8885489E-01
        2   -1    0    0  501    0  0.00000000000E+00  0.00000000000E+00  0.66680472478E+03  0.66680472478E+03  0.25500000920E-02 0.  1.
       -2   -1    0    0    0  501  0.00000000000E+00  0.00000000000E+00 -0.84182434556E+03  0.84182434556E+03  0.25500000920E-02 0. -1.
    10030    2    1    2    0    0  0.00000000000E+00  0.00000000000E+00 -0.17501962078E+03  0.15086290703E+04  0.14984424594E+04 0.  0.
        5    1    3    3  502    0  0.21243706422E+03  0.31577095644E+03  0.56222185393E+03  0.67893763058E+03  0.46999998093E+01 0.  1.
       -5    1    3    3    0  502 -0.21243706422E+03 -0.31577095644E+03 -0.73724147471E+03  0.82969143976E+03  0.46999998093E+01 0. -1.
</event>
<event>
 5   0  0.2696040E-04  0.1495229E+04  0.7818609E-02  0.8887631E-01
        2   -1    0    0  501    0  0.00000000000E+00  0.00000000000E+00  0.10559475760E+04  0.10559475760E+04  0.25500000920E-02 0.  1.
       -2   -1    0    0    0  501  0.00000000000E+00  0.00000000000E+00 -0.52931394622E+03  0.52931394622E+03  0.25500000920E-02 0. -1.
    10030    2    1    2    0    0  0.00000000000E+00  0.00000000000E+00  0.52663362981E+03  0.15852615223E+04  0.14952294519E+04 0.  0.
        2    1    3    3  502    0 -0.24154585515E+03  0.41118212517E+03  0.87375700715E+03  0.99542274826E+03  0.25500000920E-02 0.  1.
       -2    1    3    3    0  502  0.24154585515E+03 -0.41118212517E+03 -0.34712337734E+03  0.58983877399E+03  0.25500000920E-02 0. -1.
</event>
<event>
 5   0  0.2646718E-04  0.1504934E+04  0.7818609E-02  0.8881178E-01
        2   -1    0    0  501    0  0.00000000000E+00  0.00000000000E+00  0.12386950939E+04  0.12386950939E+04  0.25500000920E-02 0. -1.
       -2   -1    0    0    0  501  0.00000000000E+00  0.00000000000E+00 -0.45709933183E+03  0.45709933183E+03  0.25500000920E-02 0.  1.
    10030    2    1    2    0    0  0.00000000000E+00  0.00000000000E+00  0.78159576207E+03  0.16957944257E+04  0.15049341511E+04 0.  0.
        3    1    3    3  502    0  0.42165286462E+03 -0.93620716217E+02 -0.30350315856E+03  0.52789218047E+03  0.10100000352E+00 0.  1.
       -3    1    3    3    0  502 -0.42165286462E+03  0.93620716217E+02  0.10850989206E+04  0.11679022453E+04  0.10100000352E+00 0. -1.
</event>
<event>
 5   0  0.1443750E-04  0.1497957E+04  0.7818609E-02  0.8885812E-01
       -1   -1    0    0    0  501  0.00000000000E+00  0.00000000000E+00  0.12539949542E+04  0.12539949542E+04  0.50400001928E-02 0.  1.
        1   -1    0    0  501    0  0.00000000000E+00  0.00000000000E+00 -0.44734546972E+03  0.44734546975E+03  0.50400001928E-02 0. -1.
    10030    2    1    2    0    0  0.00000000000E+00  0.00000000000E+00  0.80664948445E+03  0.17013404239E+04  0.14979572248E+04 0.  0.
        2    1    3    3  502    0 -0.42680496026E+03 -0.56644895341E+03  0.12993084518E+03  0.72104709656E+03  0.25500000920E-02 0.  1.
       -2    1    3    3    0  502  0.42680496026E+03  0.56644895341E+03  0.67671863927E+03  0.98029332736E+03  0.25500000920E-02 0. -1.
</event>
<event>
 5   0  0.1426929E-04  0.1501862E+04  0.7818609E-02  0.8883216E-01
       -1   -1    0    0    0  501  0.00000000000E+00  0.00000000000E+00  0.50533709636E+03  0.50533709638E+03  0.50400001928E-02 0. -1.
        1   -1    0    0  501    0  0.00000000000E+00  0.00000000000E+00 -0.11158831925E+04  0.11158831925E+04  0.50400001928E-02 0.  1.
    10030    2    1    2    0    0  0.00000000000E+00  0.00000000000E+00 -0.61054609618E+03  0.16212202889E+04  0.15018617412E+04 0.  0.
        1    1    3    3  502    0  0.11815224795E+03  0.37436271199E+03 -0.99629626150E+03  0.10708471574E+04  0.50400001928E-02 0.  1.
       -1    1    3    3    0  502 -0.11815224795E+03 -0.37436271199E+03  0.38575016532E+03  0.55037313152E+03  0.50400001928E-02 0. -1.
</event>
<event>
 5   0  0.2646718E-04  0.1503520E+04  0.7818609E-02  0.8882116E-01
        2   -1    0    0  501    0  0.00000000000E+00  0.00000000000E+00  0.45169238277E+03  0.45169238277E+03  0.25500000920E-02 0. -1.
       -2   -1    0    0    0  501  0.00000000000E+00  0.00000000000E+00 -0.12511681835E+04  0.12511681835E+04  0.25500000920E-02 0.  1.
    10030    2    1    2    0    0  0.00000000000E+00  0.00000000000E+00 -0.79947580072E+03  0.17028605663E+04  0.15035200538E+04 0.  0.
        3    1    3    3  502    0  0.66849425940E+03 -0.33206910381E+03 -0.50096736077E+03  0.89895649022E+03  0.10100000352E+00 0.  1.
       -3    1    3    3    0  502 -0.66849425940E+03  0.33206910381E+03 -0.29850843995E+03  0.80390407604E+03  0.10100000352E+00 0. -1.
</event>
<event>
 5   0  0.2734072E-04  0.1514158E+04  0.7818609E-02  0.8875092E-01
       -2   -1    0    0    0  501  0.00000000000E+00  0.00000000000E+00  0.47911828252E+03  0.47911828253E+03  0.25500000920E-02 0. -1.
        2   -1    0    0  501    0  0.00000000000E+00  0.00000000000E+00 -0.11962993713E+04  0.11962993713E+04  0.25500000920E-02 0.  1.
    10030    2    1    2    0    0  0.00000000000E+00  0.00000000000E+00 -0.71718108877E+03  0.16754176538E+04  0.15141583803E+04 0.  0.
        5    1    3    3  502    0 -0.26344559799E+03 -0.65415112888E+03 -0.53891594065E+02  0.70727906545E+03  0.46999998093E+01 0. -1.
       -5    1    3    3    0  502  0.26344559799E+03  0.65415112888E+03 -0.66328949471E+03  0.96813858837E+03  0.46999998093E+01 0.  1.
</event>
<event>
 5   0  0.1474203E-04  0.1498730E+04  0.7818609E-02  0.8885298E-01
       -1   -1    0    0    0  501  0.00000000000E+00  0.00000000000E+00  0.35894325276E+03  0.35894325280E+03  0.50400001928E-02 0.  1.
        1   -1    0    0  501    0  0.00000000000E+00  0.00000000000E+00 -0.15644480839E+04  0.15644480839E+04  0.50400001928E-02 0. -1.
    10030    2    1    2    0    0  0.00000000000E+00  0.00000000000E+00 -0.12055048311E+04  0.19233913367E+04  0.14987302413E+04 0.  0.
        3    1    3    3  502    0  0.54243533001E+03  0.39844541716E+03 -0.17992263038E+03  0.69668285527E+03  0.10100000352E+00 0.  1.
       -3    1    3    3    0  502 -0.54243533001E+03 -0.39844541716E+03 -0.10255822007E+04  0.12267084814E+04  0.10100000352E+00 0. -1.
</event>
<event>
 5   0  0.1443750E-04  0.1502780E+04  0.7818609E-02  0.8882606E-01
        1   -1    0    0  501    0  0.00000000000E+00  0.00000000000E+00  0.58742351519E+03  0.58742351521E+03  0.50400001928E-02 0. -1.
       -1   -1    0    0    0  501  0.00000000000E+00  0.00000000000E+00 -0.96112469903E+03  0.96112469905E+03  0.50400001928E-02 0.  1.
    10030    2    1    2    0    0  0.00000000000E+00  0.00000000000E+00 -0.37370118384E+03  0.15485482143E+04  0.15027804221E+04 0.  0.
        2    1    3    3  502    0 -0.61782341303E+03 -0.34334421682E+03  0.75857397752E+02  0.71087647712E+03  0.25500000920E-02 0. -1.
       -2    1    3    3    0  502  0.61782341303E+03  0.34334421682E+03 -0.44955858159E+03  0.83767173714E+03  0.25500000920E-02 0.  1.
</event>
<event>
 5   0  0.1443750E-04  0.1497915E+04  0.7818609E-02  0.8885841E-01
        1   -1    0    0  501    0  0.00000000000E+00  0.00000000000E+00  0.12749599198E+04  0.12749599198E+04  0.50400001928E-02 0.  1.
       -1   -1    0    0    0  501  0.00000000000E+00  0.00000000000E+00 -0.43996439712E+03  0.43996439715E+03  0.50400001928E-02 0. -1.
    10030    2    1    2    0    0  0.00000000000E+00  0.00000000000E+00  0.83499552267E+03  0.17149243170E+04  0.14979145136E+04 0.  0.
        2    1    3    3  502    0 -0.68877867008E+03  0.10020325135E+03  0.10088201717E+03  0.70330216076E+03  0.25500000920E-02 0. -1.
       -2    1    3    3    0  502  0.68877867008E+03 -0.10020325135E+03  0.73411350550E+03  0.10116221562E+04  0.25500000920E-02 0.  1.
</event>
<event>
 5   0  0.2641347E-04  0.1506176E+04  0.7818609E-02  0.8880356E-01
        2   -1    0    0  501    0  0.00000000000E+00  0.00000000000E+00  0.76478082512E+03  0.76478082512E+03  0.25500000920E-02 0.  1.
       -2   -1    0    0    0  501  0.00000000000E+00  0.00000000000E+00 -0.74157420613E+03  0.74157420613E+03  0.25500000920E-02 0. -1.
    10030    2    1    2    0    0  0.00000000000E+00  0.00000000000E+00  0.23206618987E+02  0.15063550313E+04  0.15061762623E+04 0.  0.
        4    1    3    3  502    0  0.71246335725E+03 -0.11720436971E+03  0.22563623492E+03  0.75647486615E+03  0.12699999809E+01 0.  1.
       -4    1    3    3    0  502 -0.71246335725E+03  0.11720436971E+03 -0.20242961593E+03  0.74988016510E+03  0.12699999809E+01 0. -1.
</event>
<event>
 5   0  0.1484251E-04  0.1505815E+04  0.7818609E-02  0.8880595E-01
        1   -1    0    0  501    0  0.00000000000E+00  0.00000000000E+00  0.60836952458E+03  0.60836952460E+03  0.50400001928E-02 0. -1.
       -1   -1    0    0    0  501  0.00000000000E+00  0.00000000000E+00 -0.93178538518E+03  0.93178538519E+03  0.50400001928E-02 0.  1.
    10030    2    1    2    0    0  0.00000000000E+00  0.00000000000E+00 -0.32341586060E+03  0.15401549098E+04  0.15058151704E+04 0.  0.
        5    1    3    3  502    0  0.15641423843E+03  0.81132966688E+02 -0.91038407927E+03  0.92729134259E+03  0.46999998093E+01 0.  1.
       -5    1    3    3    0  502 -0.15641423843E+03 -0.81132966688E+02  0.58696821867E+03  0.61286356719E+03  0.46999998093E+01 0. -1.
</event>
<event>
 5   0  0.2734072E-04  0.1491365E+04  0.7818609E-02  0.8890215E-01
       -2   -1    0    0    0  501  0.00000000000E+00  0.00000000000E+00  0.93882870173E+03  0.93882870173E+03  0.25500000920E-02 0.  1.
        2   -1    0    0  501    0  0.00000000000E+00  0.00000000000E+00 -0.59227278546E+03  0.59227278547E+03  0.25500000920E-02 0. -1.
    10030    2    1    2    0    0  0.00000000000E+00  0.00000000000E+00  0.34655591626E+03  0.15311014872E+04  0.14913654016E+04 0.  0.
        5    1    3    3  502    0  0.29273260200E+03  0.64674174092E+03 -0.60952967287E+02  0.71253393599E+03  0.46999998093E+01 0. -1.
       -5    1    3    3    0  502 -0.29273260200E+03 -0.64674174092E+03  0.40750888355E+03  0.81856755121E+03  0.46999998093E+01 0.  1.
</event>
<event>
 5   0  0.1443750E-04  0.1495875E+04  0.7818609E-02  0.8887200E-01
       -1   -1    0    0    0  501  0.00000000000E+00  0.00000000000E+00  0.59265417164E+03  0.59265417167E+03  0.50400001928E-02 0. -1.
        1   -1    0    0  501    0  0.00000000000E+00  0.00000000000E+00 -0.94390763316E+03  0.94390763317E+03  0.50400001928E-02 0.  1.
    10030    2    1    2    0    0  0.00000000000E+00  0.00000000000E+00 -0.35125346151E+03  0.15365618048E+04  0.14958753912E+04 0.  0.
        2    1    3    3  502    0  0.61955397181E+02  0.73700236909E+03 -0.61243453112E+02  0.74213322513E+03  0.25500000920E-02 0. -1.
       -2    1    3    3    0  502 -0.61955397181E+02 -0.73700236909E+03 -0.29001000840E+03  0.79442857971E+03  0.25500000920E-02 0.  1.
</event>
<event>
 5   0  0.2618901E-04  0.1490166E+04  0.7818609E-02  0.8891019E-01
       -2   -1    0    0    0  501  0.00000000000E+00  0.00000000000E+00  0.33963260058E+03  0.33963260059E+03  0.25500000920E-02 0. -1.
        2   -1    0    0  501    0  0.00000000000E+00  0.00000000000E+00 -0.16345560466E+04  0.16345560466E+04  0.25500000920E-02 0.  1.
    10030    2    1    2    0    0  0.00000000000E+00  0.00000000000E+00 -0.12949234460E+04  0.19741886472E+04  0.14901657907E+04 0.  0.
        1    1    3    3  502    0 -0.93229756841E+02  0.26521626319E+03  0.26667453655E+03  0.38748775760E+03  0.50400001928E-02 0. -1.
       -1    1    3    3    0  502  0.93229756841E+02 -0.26521626319E+03 -0.15615979826E+04  0.15867008896E+04  0.50400001928E-02 0.  1.
</event>
<event>
 5   0  0.1484251E-04  0.1574209E+04  0.7818609E-02  0.8836551E-01
       -1   -1    0    0    0  501  0.00000000000E+00  0.00000000000E+00  0.30137609056E+03  0.30137609060E+03  0.50400001928E-02 0. -1.
        1   -1    0    0  501    0  0.00000000000E+00  0.00000000000E+00 -0.20556826039E+04  0.20556826039E+04  0.50400001928E-02 0.  1.
    10030    2    1    2    0    0  0.00000000000E+00  0.00000000000E+00 -0.17543065133E+04  0.23570586945E+04  0.15742091178E+04 0.  0.
        5    1    3    3  502    0 -0.45088601343E+01 -0.46299450940E+03  0.75870446603E+02  0.46921494032E+03  0.46999998093E+01 0. -1.
       -5    1    3    3    0  502  0.45088601343E+01  0.46299450940E+03 -0.18301769599E+04  0.18878437541E+04  0.46999998093E+01 0.  1.
</event>
<event>
 5   0  0.1004313E-04  0.1496963E+04  0.7818609E-02  0.8886475E-01
        4   -1    0    0  501    0  0.00000000000E+00  0.00000000000E+00  0.89307365854E+03  0.89307456155E+03  0.12699999809E+01 0.  1.
       -4   -1    0    0    0  501  0.00000000000E+00  0.00000000000E+00 -0.62729773065E+03  0.62729901624E+03  0.12699999809E+01 0. -1.
    10030    2    1    2    0    0  0.00000000000E+00  0.00000000000E+00  0.26577592790E+03  0.15203735778E+04  0.14969632501E+04 0.  0.
        3    1    3    3  502    0 -0.68538215300E+02  0.61248122932E+03  0.56425823029E+03  0.83559446138E+03  0.10100000352E+00 0.  1.
       -3    1    3    3    0  502  0.68538215300E+02 -0.61248122932E+03 -0.29848230240E+03  0.68477911641E+03  0.10100000352E+00 0. -1.
</event>
<event>
 5   0  0.2696040E-04  0.1492439E+04  0.7818609E-02  0.8889496E-01
       -2   -1    0    0    0  501  0.00000000000E+00  0.00000000000E+00  0.27621882541E+03  0.27621882542E+03  0.25500000920E-02 0.  1.
        2   -1    0    0  501    0  0.00000000000E+00  0.00000000000E+00 -0.20159515933E+04  0.20159515933E+04  0.25500000920E-02 0. -1.
    10030    2    1    2    0    0  0.00000000000E+00  0.00000000000E+00 -0.17397327679E+04  0.22921704187E+04  0.14924393203E+04 0.  0.
        2    1    3    3  502    0  0.18234721741E+03 -0.40648727139E+03 -0.17892797563E+04  0.18439100997E+04  0.25500000920E-02 0. -1.
       -2    1    3    3    0  502 -0.18234721741E+03  0.40648727139E+03  0.49546988444E+02  0.44826031898E+03  0.25500000920E-02 0.  1.
</event>
<event>
 5   0  0.2696040E-04  0.1496966E+04  0.7818609E-02  0.8886473E-01
       -2   -1    0    0    0  501  0.00000000000E+00  0.00000000000E+00  0.40925237788E+03  0.40925237789E+03  0.25500000920E-02 0.  1.
        2   -1    0    0  501    0  0.00000000000E+00  0.00000000000E+00 -0.13689031107E+04  0.13689031107E+04  0.25500000920E-02 0. -1.
    10030    2    1    2    0    0  0.00000000000E+00  0.00000000000E+00 -0.95965073282E+03  0.17781554886E+04  0.14969660693E+04 0.  0.
        2    1    3    3  502    0 -0.41640611375E+03  0.61977579859E+03 -0.41798053685E+03  0.85570077789E+03  0.25500000920E-02 0. -1.
       -2    1    3    3    0  502  0.41640611375E+03 -0.61977579859E+03 -0.54167019598E+03  0.92245471071E+03  0.25500000920E-02 0.  1.
</event>
<event>
 5   0  0.2641347E-04  0.1498106E+04  0.7818609E-02  0.8885713E-01
        2   -1    0    0  501    0  0.00000000000E+00  0.00000000000E+00  0.78086267451E+03  0.78086267452E+03  0.25500000920E-02 0.  1.
       -2   -1    0    0    0  501  0.00000000000E+00  0.00000000000E+00 -0.71853929580E+03  0.71853929581E+03  0.25500000920E-02 0. -1.
    10030    2    1    2    0    0  0.00000000000E+00  0.00000000000E+00  0.62323378710E+02  0.14994019703E+04  0.14981061595E+04 0.  0.
        4    1    3    3  502    0  0.60296613760E+03 -0.13635840129E+03  0.45451352293E+03  0.76729781188E+03  0.12699999809E+01 0.  1.
       -4    1    3    3    0  502 -0.60296613760E+03  0.13635840129E+03 -0.39219014422E+03  0.73210415845E+03  0.12699999809E+01 0. -1.
</event>
<event>
 5   0  0.2696040E-04  0.1495545E+04  0.7818609E-02  0.8887421E-01
        2   -1    0    0  501    0  0.00000000000E+00  0.00000000000E+00  0.23091224495E+04  0.23091224495E+04  0.25500000920E-02 0.  1.
       -2   -1    0    0    0  501  0.00000000000E+00  0.00000000000E+00 -0.24215427754E+03  0.24215427755E+03  0.25500000920E-02 0. -1.
    10030    2    1    2    0    0  0.00000000000E+00  0.00000000000E+00  0.20669681720E+04  0.25512767271E+04  0.14955452230E+04 0.  0.
        2    1    3    3  502    0  0.12620318917E+03  0.11189767882E+03 -0.20928064845E+03  0.26878750958E+03  0.25500000920E-02 0. -1.
       -2    1    3    3    0  502 -0.12620318917E+03 -0.11189767882E+03  0.22762488204E+04  0.22824892175E+04  0.25500000920E-02 0.  1.
</event>
<event>
 5   0  0.2696040E-04  0.1489692E+04  0.7818609E-02  0.8891337E-01
        2   -1    0    0  501    0  0.00000000000E+00  0.00000000000E+00  0.78016993963E+03  0.78016993963E+03  0.25500000920E-02 0. -1.
       -2   -1    0    0    0  501  0.00000000000E+00  0.00000000000E+00 -0.71112167834E+03  0.71112167835E+03  0.25500000920E-02 0.  1.
    10030    2    1    2    0    0  0.00000000000E+00  0.00000000000E+00  0.69048261287E+02  0.14912916180E+04  0.14896922593E+04 0.  0.
        2    1    3    3  502    0 -0.18731511634E+02 -0.67001556040E+03 -0.29066926190E+03  0.73058903668E+03  0.25500000920E-02 0.  1.
       -2    1    3    3    0  502  0.18731511634E+02  0.67001556040E+03  0.35971752318E+03  0.76070258130E+03  0.25500000920E-02 0. -1.
</event>
<event>
 5   0  0.2646718E-04  0.1488241E+04  0.7818609E-02  0.8892311E-01
        2   -1    0    0  501    0  0.00000000000E+00  0.00000000000E+00  0.93194872087E+03  0.93194872087E+03  0.25500000920E-02 0.  1.
       -2   -1    0    0    0  501  0.00000000000E+00  0.00000000000E+00 -0.59414744286E+03  0.59414744286E+03  0.25500000920E-02 0. -1.
    10030    2    1    2    0    0  0.00000000000E+00  0.00000000000E+00  0.33780127801E+03  0.15260961637E+04  0.14882405039E+04 0.  0.
        3    1    3    3  502    0  0.21659159682E+03 -0.33254213751E+03  0.81437097807E+03  0.90592289581E+03  0.10100000352E+00 0.  1.
       -3    1    3    3    0  502 -0.21659159682E+03  0.33254213751E+03 -0.47656970006E+03  0.62017326792E+03  0.10100000352E+00 0. -1.
</event>
<event>
 5   0  0.1427609E-04  0.1485245E+04  0.7818609E-02  0.8894324E-01
       -1   -1    0    0    0  501  0.00000000000E+00  0.00000000000E+00  0.60887426070E+03  0.60887426072E+03  0.50400001928E-02 0. -1.
        1   -1    0    0  501    0  0.00000000000E+00  0.00000000000E+00 -0.90575076918E+03  0.90575076920E+03  0.50400001928E-02 0.  1.
    10030    2    1    2    0    0  0.00000000000E+00  0.00000000000E+00 -0.29687650848E+03  0.15146250299E+04  0.14852452053E+04 0.  0.
        4    1    3    3  502    0  0.31126268737E+03 -0.67215739629E+03 -0.94412071500E+02  0.74672302635E+03  0.12699999809E+01 0.  1.
       -4    1    3    3    0  502 -0.31126268737E+03  0.67215739629E+03 -0.20246443698E+03  0.76790200356E+03  0.12699999809E+01 0. -1.
</event>
<event>
 5   0  0.1426929E-04  0.1500294E+04  0.7818609E-02  0.8884258E-01
       -1   -1    0    0    0  501  0.00000000000E+00  0.00000000000E+00  0.91628526947E+03  0.91628526949E+03  0.50400001928E-02 0. -1.
        1   -1    0    0  501    0  0.00000000000E+00  0.00000000000E+00 -0.61413214903E+03  0.61413214905E+03  0.50400001928E-02 0.  1.
    10030    2    1    2    0    0  0.00000000000E+00  0.00000000000E+00  0.30215312045E+03  0.15304174185E+04  0.15002936268E+04 0.  0.
        1    1    3    3  502    0  0.10354449008E+03  0.74019836094E+03  0.85718518101E+02  0.75230495103E+03  0.50400001928E-02 0.  1.
       -1    1    3    3    0  502 -0.10354449008E+03 -0.74019836094E+03  0.21643460234E+03  0.77811246750E+03  0.50400001928E-02 0. -1.
</event>
<event>
 5   0  0.1474203E-04  0.1499407E+04  0.7818609E-02  0.8884847E-01
        1   -1    0    0  501    0  0.00000000000E+00  0.00000000000E+00  0.68844737089E+03  0.68844737091E+03  0.50400001928E-02 0.  1.
       -1   -1    0    0    0  501  0.00000000000E+00  0.00000000000E+00 -0.81641017858E+03  0.81641017859E+03  0.50400001928E-02 0. -1.
    10030    2    1    2    0    0  0.00000000000E+00  0.00000000000E+00 -0.12796280769E+03  0.15048575495E+04  0.14994071376E+04 0.  0.
        3    1    3    3  502    0  0.75670699869E+02  0.71033803650E+03  0.16433012758E+03  0.73301472151E+03  0.10100000352E+00 0.  1.
       -3    1    3    3    0  502 -0.75670699869E+02 -0.71033803650E+03 -0.29229293527E+03  0.77184282799E+03  0.10100000352E+00 0. -1.
</event>
<event>
 5   0  0.1443750E-04  0.1497888E+04  0.7818609E-02  0.8885858E-01
       -1   -1    0    0    0  501  0.00000000000E+00  0.00000000000E+00  0.56834927502E+03  0.56834927504E+03  0.50400001928E-02 0.  1.
        1   -1    0    0  501    0  0.00000000000E+00  0.00000000000E+00 -0.98692382630E+03  0.98692382632E+03  0.50400001928E-02 0. -1.
    10030    2    1    2    0    0  0.00000000000E+00  0.00000000000E+00 -0.41857455129E+03  0.15552731014E+04  0.14978884354E+04 0.  0.
        2    1    3    3  502    0  0.30411679540E+03  0.16448136665E+02  0.50114762323E+03  0.58643542416E+03  0.25500000920E-02 0.  1.
       -2    1    3    3    0  502 -0.30411679540E+03 -0.16448136665E+02 -0.91972217451E+03  0.96883767719E+03  0.25500000920E-02 0. -1.
</event>
<event>
 5   0  0.1426929E-04  0.1484999E+04  0.7818609E-02  0.8894490E-01
       -1   -1    0    0    0  501  0.00000000000E+00  0.00000000000E+00  0.57258698363E+03  0.57258698365E+03  0.50400001928E-02 0. -1.
        1   -1    0    0  501    0  0.00000000000E+00  0.00000000000E+00 -0.96283331627E+03  0.96283331629E+03  0.50400001928E-02 0.  1.
    10030    2    1    2    0    0  0.00000000000E+00  0.00000000000E+00 -0.39024633264E+03  0.15354202999E+04  0.14849994267E+04 0.  0.
        1    1    3    3  502    0  0.98353287712E+02 -0.11544438012E+03  0.55640173161E+03  0.57670066852E+03  0.50400001928E-02 0. -1.
       -1    1    3    3    0  502 -0.98353287712E+02  0.11544438012E+03 -0.94664806425E+03  0.95871963142E+03  0.50400001928E-02 0.  1.
</event>
<event>
 5   0  0.2641347E-04  0.1500832E+04  0.7818609E-02  0.8883900E-01
       -2   -1    0    0    0  501  0.00000000000E+00  0.00000000000E+00  0.43844502956E+03  0.43844502956E+03  0.25500000920E-02 0. -1.
        2   -1    0    0  501    0  0.00000000000E+00  0.00000000000E+00 -0.12843660467E+04  0.12843660467E+04  0.25500000920E-02 0.  1.
    10030    2    1    2    0    0  0.00000000000E+00  0.00000000000E+00 -0.84592101715E+03  0.17228110763E+04  0.15008316485E+04 0.  0.
        4    1    3    3  502    0  0.64109720086E+02  0.63328038180E+03 -0.87919751431E+03  0.10854234106E+04  0.12699999809E+01 0.  1.
       -4    1    3    3    0  502 -0.64109720086E+02 -0.63328038180E+03  0.33276497169E+02  0.63738766567E+03  0.12699999809E+01 0. -1.
</event>
<event>
 5   0  0.2641347E-04  0.1500298E+04  0.7818609E-02  0.8884255E-01
       -2   -1    0    0    0  501  0.00000000000E+00  0.00000000000E+00  0.94095348696E+03  0.94095348696E+03  0.25500000920E-02 0.  1.
        2   -1    0    0  501    0  0.00000000000E+00  0.00000000000E+00 -0.59803573439E+03  0.59803573439E+03  0.25500000920E-02 0. -1.
    10030    2    1    2    0    0  0.00000000000E+00  0.00000000000E+00  0.34291775257E+03  0.15389892214E+04  0.15002983831E+04 0.  0.
        4    1    3    3  502    0  0.36612761022E+03  0.63385291507E+03  0.32068415235E+01  0.73200467324E+03  0.12699999809E+01 0. -1.
       -4    1    3    3    0  502 -0.36612761022E+03 -0.63385291507E+03  0.33971091104E+03  0.80698454811E+03  0.12699999809E+01 0.  1.
</event>
<event>
 5   0  0.2696040E-04  0.1499715E+04  0.7818609E-02  0.8884643E-01
       -2   -1    0    0    0  501  0.00000000000E+00  0.00000000000E+00  0.66609514371E+03  0.66609514371E+03  0.25500000920E-02 0. -1.
        2   -1    0    0  501    0  0.00000000000E+00  0.00000000000E+00 -0.84415252305E+03  0.84415252306E+03  0.25500000920E-02 0.  1.
    10030    2    1    2    0    0  0.00000000000E+00  0.00000000000E+00 -0.17805737934E+03  0.15102476668E+04  0.14997145010E+04 0.  0.
        2    1    3    3  502    0  0.35684913478E+03  0.48962948079E+03 -0.53395480951E+03  0.80758038117E+03  0.25500000920E-02 0.  1.
       -2    1    3    3    0  502 -0.35684913478E+03 -0.48962948079E+03  0.35589743017E+03  0.70266728560E+03  0.25500000920E-02 0. -1.
</event>
<event>
 5   0  0.1484251E-04  0.1580946E+04  0.7818609E-02  0.8832340E-01
       -1   -1    0    0    0  501  0.00000000000E+00  0.00000000000E+00  0.90305912886E+03  0.90305912888E+03  0.50400001928E-02 0.  1.
        1   -1    0    0  501    0  0.00000000000E+00  0.00000000000E+00 -0.69192315730E+03  0.69192315732E+03  0.50400001928E-02 0. -1.
    10030    2    1    2    0    0  0.00000000000E+00  0.00000000000E+00  0.21113597156E+03  0.15949822862E+04  0.15809459494E+04 0.  0.
        5    1    3    3  502    0 -0.49637502623E+03  0.20855677696E+03 -0.47831150058E+03  0.72020002601E+03  0.46999998093E+01 0. -1.
       -5    1    3    3    0  502  0.49637502623E+03 -0.20855677696E+03  0.68944747214E+03  0.87478226018E+03  0.46999998093E+01 0.  1.
</event>
<event>
 5   0  0.1427609E-04  0.1500277E+04  0.7818609E-02  0.8884269E-01
       -1   -1    0    0    0  501  0.00000000000E+00  0.00000000000E+00  0.51289419398E+03  0.51289419401E+03  0.50400001928E-02 0.  1.
        1   -1    0    0  501    0  0.00000000000E+00  0.00000000000E+00 -0.10971220094E+04  0.10971220094E+04  0.50400001928E-02 0. -1.
    10030    2    1    2    0    0  0.00000000000E+00  0.00000000000E+00 -0.58422781539E+03  0.16100162034E+04  0.15002766528E+04 0.  0.
        4    1    3    3  502    0  0.37674799897E+03 -0.16439289432E+03 -0.96550081287E+03  0.10493605248E+04  0.12699999809E+01 0. -1.
       -4    1    3    3    0  502 -0.37674799897E+03  0.16439289432E+03  0.38127299749E+03  0.56065567859E+03  0.12699999809E+01 0.  1.
</event>
<event>
 5   0  0.1474203E-04  0.1500235E+04  0.7818609E-02  0.8884297E-01
       -1   -1    0    0    0  501  0.00000000000E+00  0.00000000000E+00  0.97843960169E+03  0.97843960171E+03  0.50400001928E-02 0.  1.
        1   -1    0    0  501    0  0.00000000000E+00  0.00000000000E+00 -0.57507478116E+03  0.57507478118E+03  0.50400001928E-02 0. -1.
    10030    2    1    2    0    0  0.00000000000E+00  0.00000000000E+00  0.40336482054E+03  0.15535143829E+04  0.15002345681E+04 0.  0.
        3    1    3    3  502    0  0.53897570445E+03  0.50628304484E+03  0.33208568801E+03  0.81061596694E+03  0.10100000352E+00 0.  1.
       -3    1    3    3    0  502 -0.53897570445E+03 -0.50628304484E+03  0.71279132522E+02  0.74289841594E+03  0.10100000352E+00 0. -1.
</event>
<event>
 5   0  0.1427609E-04  0.1505371E+04  0.7818609E-02  0.8880889E-01
        1   -1    0    0  501    0  0.00000000000E+00  0.00000000000E+00  0.79559378538E+03  0.79559378540E+03  0.50400001928E-02 0.  1.
       -1   -1    0    0    0  501  0.00000000000E+00  0.00000000000E+00 -0.71209113518E+03  0.71209113520E+03  0.50400001928E-02 0. -1.
    10030    2    1    2    0    0  0.00000000000E+00  0.00000000000E+00  0.83502650198E+02  0.15076849206E+04  0.15053707607E+04 0.  0.
        4    1    3    3  502    0 -0.37560473064E+03 -0.62713627218E+03 -0.13784207300E+03  0.74389573702E+03  0.12699999809E+01 0.  1.
       -4    1    3    3    0  502  0.37560473064E+03  0.62713627218E+03  0.22134472320E+03  0.76378918358E+03  0.12699999809E+01 0. -1.
</event>
<event>
 5   0  0.1443750E-04  0.1500672E+04  0.7818609E-02  0.8884006E-01
        1   -1    0    0  501    0  0.00000000000E+00  0.00000000000E+00  0.11681420412E+04  0.11681420412E+04  0.50400001928E-02 0. -1.
       -1   -1    0    0    0  501  0.00000000000E+00  0.00000000000E+00 -0.48196559666E+03  0.48196559669E+03  0.50400001928E-02 0.  1.
    10030    2    1    2    0    0  0.00000000000E+00  0.00000000000E+00  0.68617644452E+03  0.16501076379E+04  0.15006722172E+04 0.  0.
        2    1    3    3  502    0  0.65780224198E+03 -0.49376855363E+02 -0.50097627192E+02  0.66155244362E+03  0.25500000920E-02 0.  1.
       -2    1    3    3    0  502 -0.65780224198E+03  0.49376855363E+02  0.73627407171E+03  0.98855519426E+03  0.25500000920E-02 0. -1.
</event>
<event>
 5   0  0.2618901E-04  0.1501581E+04  0.7818609E-02  0.8883402E-01
       -2   -1    0    0    0  501  0.00000000000E+00  0.00000000000E+00  0.40094368430E+03  0.40094368431E+03  0.25500000920E-02 0. -1.
        2   -1    0    0  501    0  0.00000000000E+00  0.00000000000E+00 -0.14058995746E+04  0.14058995746E+04  0.25500000920E-02 0.  1.
    10030    2    1    2    0    0  0.00000000000E+00  0.00000000000E+00 -0.10049558903E+04  0.18068432590E+04  0.15015812402E+04 0.  0.
        1    1    3    3  502    0  0.27368956900E+03 -0.36888066494E+03  0.21214848327E+03  0.50595049572E+03  0.50400001928E-02 0. -1.
       -1    1    3    3    0  502 -0.27368956900E+03  0.36888066494E+03 -0.12171043736E+04  0.13008927632E+04  0.50400001928E-02 0.  1.
</event>
<event>
 5   0  0.2696040E-04  0.1497575E+04  0.7818609E-02  0.8886067E-01
        2   -1    0    0  501    0  0.00000000000E+00  0.00000000000E+00  0.65463166147E+03  0.65463166147E+03  0.25500000920E-02 0. -1.
       -2   -1    0    0    0  501  0.00000000000E+00  0.00000000000E+00 -0.85648574205E+03  0.85648574206E+03  0.25500000920E-02 0.  1.
    10030    2    1    2    0    0  0.00000000000E+00  0.00000000000E+00 -0.20185408058E+03  0.15111174035E+04  0.14975749522E+04 0.  0.
        2    1    3    3  502    0 -0.36805674273E+03  0.54150105941E+03 -0.46752154200E+03  0.80452815703E+03  0.25500000920E-02 0. -1.
       -2    1    3    3    0  502  0.36805674273E+03 -0.54150105941E+03  0.26566746141E+03  0.70658924650E+03  0.25500000920E-02 0.  1.
</event>
<event>
 5   0  0.2646718E-04  0.1496539E+04  0.7818609E-02  0.8886758E-01
       -2   -1    0    0    0  501  0.00000000000E+00  0.00000000000E+00  0.24267969675E+03  0.24267969676E+03  0.25500000920E-02 0. -1.
        2   -1    0    0  501    0  0.00000000000E+00  0.00000000000E+00 -0.23071853183E+04  0.23071853183E+04  0.25500000920E-02 0.  1.
    10030    2    1    2    0    0  0.00000000000E+00  0.00000000000E+00 -0.20645056216E+04  0.25498650151E+04  0.14965387177E+04 0.  0.
        3    1    3    3  502    0  0.72400055369E+03  0.10367306877E+03 -0.13015574568E+04  0.14929757970E+04  0.10100000352E+00 0. -1.
       -3    1    3    3    0  502 -0.72400055369E+03 -0.10367306877E+03 -0.76294816477E+03  0.10568892181E+04  0.10100000352E+00 0.  1.
</event>
<event>
 5   0  0.2734072E-04  0.1498713E+04  0.7818609E-02  0.8885309E-01
        2   -1    0    0  501    0  0.00000000000E+00  0.00000000000E+00  0.94954808351E+03  0.94954808352E+03  0.25500000920E-02 0. -1.
       -2   -1    0    0    0  501  0.00000000000E+00  0.00000000000E+00 -0.59137105415E+03  0.59137105416E+03  0.25500000920E-02 0.  1.
    10030    2    1    2    0    0  0.00000000000E+00  0.00000000000E+00  0.35817702936E+03  0.15409191377E+04  0.14987131161E+04 0.  0.
        5    1    3    3  502    0 -0.39431101978E+03  0.49525283202E+03 -0.23314734237E+03  0.67463791859E+03  0.46999998093E+01 0.  1.
       -5    1    3    3    0  502  0.39431101978E+03 -0.49525283202E+03  0.59132437173E+03  0.86628121909E+03  0.46999998093E+01 0. -1.
</event>
<event>
 5   0  0.1484251E-04  0.1500128E+04  0.7818609E-02  0.8884368E-01
       -1   -1    0    0    0  501  0.00000000000E+00  0.00000000000E+00  0.61759906405E+03  0.61759906407E+03  0.50400001928E-02 0.  1.
        1   -1    0    0  501    0  0.00000000000E+00  0.00000000000E+00 -0.91094096132E+03  0.91094096133E+03  0.50400001928E-02 0. -1.
    10030    2    1    2    0    0  0.00000000000E+00  0.00000000000E+00 -0.29334189727E+03  0.15285400254E+04  0.15001283747E+04 0.  0.
        5    1    3    3  502    0  0.12677142181E+03 -0.67990099830E+03 -0.44240544475E+03  0.82102437748E+03  0.46999998093E+01 0. -1.
       -5    1    3    3    0  502 -0.12677142181E+03  0.67990099830E+03  0.14906354748E+03  0.70751564792E+03  0.46999998093E+01 0.  1.
</event>
<event>
 5   0  0.1443750E-04  0.1534137E+04  0.7818609E-02  0.8862064E-01
        1   -1    0    0  501    0  0.00000000000E+00  0.00000000000E+00  0.68449630246E+03  0.68449630248E+03  0.50400001928E-02 0.  1.
       -1   -1    0    0    0  501  0.00000000000E+00  0.00000000000E+00 -0.85960141527E+03  0.85960141528E+03  0.50400001928E-02 0. -1.
    10030    2    1    2    0    0  0.00000000000E+00  0.00000000000E+00 -0.17510511281E+03  0.15440977178E+04  0.15341368783E+04 0.  0.
        2    1    3    3  502    0  0.27371352022E+03 -0.36991466434E+03  0.53014056057E+03  0.70200068661E+03  0.25500000920E-02 0.  1.
       -2    1    3    3    0  502 -0.27371352022E+03  0.36991466434E+03 -0.70524567338E+03  0.84209703115E+03  0.25500000920E-02 0. -1.
</event>
<event>
 5   0  0.1484251E-04  0.1500707E+04  0.7818609E-02  0.8883983E-01
        1   -1    0    0  501    0  0.00000000000E+00  0.00000000000E+00  0.12830139815E+04  0.12830139815E+04  0.50400001928E-02 0. -1.
       -1   -1    0    0    0  501  0.00000000000E+00  0.00000000000E+00 -0.43883400927E+03  0.43883400929E+03  0.50400001928E-02 0.  1.
    10030    2    1    2    0    0  0.00000000000E+00  0.00000000000E+00  0.84417997227E+03  0.17218479908E+04  0.15007067262E+04 0.  0.
        5    1    3    3  502    0  0.59642871088E+03  0.45173012594E+03  0.48720461092E+03  0.89284810396E+03  0.46999998093E+01 0. -1.
       -5    1    3    3    0  502 -0.59642871088E+03 -0.45173012594E+03  0.35697536135E+03  0.82899988688E+03  0.46999998093E+01 0.  1.
</event>
<event>
 5   0  0.2696040E-04  0.1500650E+04  0.7818609E-02  0.8884021E-01
        2   -1    0    0  501    0  0.00000000000E+00  0.00000000000E+00  0.43152168525E+03  0.43152168526E+03  0.25500000920E-02 0. -1.
       -2   -1    0    0    0  501  0.00000000000E+00  0.00000000000E+00 -0.13046566228E+04  0.13046566228E+04  0.25500000920E-02 0.  1.
    10030    2    1    2    0    0  0.00000000000E+00  0.00000000000E+00 -0.87313493757E+03  0.17361783081E+04  0.15006500252E+04 0.  0.
        2    1    3    3  502    0 -0.65906589663E+03  0.26250153520E+03 -0.71928211354E+03  0.10102681184E+04  0.25500000920E-02 0.  1.
       -2    1    3    3    0  502  0.65906589663E+03 -0.26250153520E+03 -0.15385282403E+03  0.72591018973E+03  0.25500000920E-02 0. -1.
</event>
<event>
 5   0  0.2618901E-04  0.1505898E+04  0.7818609E-02  0.8880540E-01
       -2   -1    0    0    0  501  0.00000000000E+00  0.00000000000E+00  0.30156296692E+03  0.30156296693E+03  0.25500000920E-02 0.  1.
        2   -1    0    0  501    0  0.00000000000E+00  0.00000000000E+00 -0.18799805736E+04  0.18799805736E+04  0.25500000920E-02 0. -1.
    10030    2    1    2    0    0  0.00000000000E+00  0.00000000000E+00 -0.15784176067E+04  0.21815435405E+04  0.15058984289E+04 0.  0.
        1    1    3    3  502    0  0.67968485157E+03  0.20316437136E+03 -0.11547932148E+04  0.13552839659E+04  0.50400001928E-02 0. -1.
       -1    1    3    3    0  502 -0.67968485157E+03 -0.20316437136E+03 -0.42362439186E+03  0.82625957462E+03  0.50400001928E-02 0.  1.
</event>
<event>
 5   0  0.2618901E-04  0.1493831E+04  0.7818609E-02  0.8888566E-01
        2   -1    0    0  501    0  0.00000000000E+00  0.00000000000E+00  0.20163984953E+04  0.20163984953E+04  0.25500000920E-02 0.  1.
       -2   -1    0    0    0  501  0.00000000000E+00  0.00000000000E+00 -0.27667272388E+03  0.27667272390E+03  0.25500000920E-02 0. -1.
    10030    2    1    2    0    0  0.00000000000E+00  0.00000000000E+00  0.17397257714E+04  0.22930712192E+04  0.14938305984E+04 0.  0.
        1    1    3    3  502    0  0.69474814262E+02  0.50406709157E+03  0.30535274845E+02  0.50974776670E+03  0.50400001928E-02 0. -1.
       -1    1    3    3    0  502 -0.69474814262E+02 -0.50406709157E+03  0.17091904966E+04  0.17833234525E+04  0.50400001928E-02 0.  1.
</event>
<event>
 5   0  0.2646718E-04  0.1497460E+04  0.7818609E-02  0.8886144E-01
        2   -1    0    0  501    0  0.00000000000E+00  0.00000000000E+00  0.76048735142E+03  0.76048735143E+03  0.25500000920E-02 0.  1.
       -2   -1    0    0    0  501  0.00000000000E+00  0.00000000000E+00 -0.73715430812E+03  0.73715430813E+03  0.25500000920E-02 0. -1.
    10030    2    1    2    0    0  0.00000000000E+00  0.00000000000E+00  0.23333043303E+02  0.14976416596E+04  0.14974598858E+04 0.  0.
        3    1    3    3  502    0 -0.37823881769E+03  0.64036289520E+03  0.98090415416E+02  0.75016730171E+03  0.10100000352E+00 0.  1.
       -3    1    3    3    0  502  0.37823881769E+03 -0.64036289520E+03 -0.74757372113E+02  0.74747435785E+03  0.10100000352E+00 0. -1.
</event>
<event>
 5   0  0.1427609E-04  0.1500067E+04  0.7818609E-02  0.8884408E-01
       -1   -1    0    0    0  501  0.00000000000E+00  0.00000000000E+00  0.11885325092E+04  0.11885325092E+04  0.50400001928E-02 0.  1.
        1   -1    0    0  501    0  0.00000000000E+00  0.00000000000E+00 -0.47331505036E+03  0.47331505039E+03  0.50400001928E-02 0. -1.
    10030    2    1    2    0    0  0.00000000000E+00  0.00000000000E+00  0.71521745882E+03  0.16618475596E+04  0.15000670978E+04 0.  0.
        4    1    3    3  502    0 -0.48016261129E+03 -0.10866946008E+02 -0.28060689527E+03  0.55625180123E+03  0.12699999809E+01 0. -1.
       -4    1    3    3    0  502  0.48016261129E+03  0.10866946008E+02  0.99582435409E+03  0.11055957584E+04  0.12699999809E+01 0.  1.
</event>
<event>
 5   0  0.2646718E-04  0.1498934E+04  0.7818609E-02  0.8885162E-01
        2   -1    0    0  501    0  0.00000000000E+00  0.00000000000E+00  0.55231814791E+03  0.55231814791E+03  0.25500000920E-02 0.  1.
       -2   -1    0    0    0  501  0.00000000000E+00  0.00000000000E+00 -0.10169881477E+04  0.10169881477E+04  0.25500000920E-02 0. -1.
    10030    2    1    2    0    0  0.00000000000E+00  0.00000000000E+00 -0.46466999983E+03  0.15693062957E+04  0.14989343017E+04 0.  0.
        3    1    3    3  502    0 -0.29154560979E+03  0.49961566951E+03 -0.73124317974E+03  0.93237935301E+03  0.10100000352E+00 0. -1.
       -3    1    3    3    0  502  0.29154560979E+03 -0.49961566951E+03  0.26657317991E+03  0.63692694264E+03  0.10100000352E+00 0.  1.
</event>
<event>
 5   0  0.1443750E-04  0.1496113E+04  0.7818609E-02  0.8887042E-01
       -1   -1    0    0    0  501  0.00000000000E+00  0.00000000000E+00  0.46487459937E+03  0.46487459940E+03  0.50400001928E-02 0. -1.
        1   -1    0    0  501    0  0.00000000000E+00  0.00000000000E+00 -0.12037400871E+04  0.12037400871E+04  0.50400001928E-02 0.  1.
    10030    2    1    2    0    0  0.00000000000E+00  0.00000000000E+00 -0.73886548776E+03  0.16686146865E+04  0.14961125503E+04 0.  0.
        2    1    3    3  502    0 -0.29605564717E+03  0.15204181156E+03  0.37775393661E+03  0.50345178052E+03  0.25500000920E-02 0. -1.
       -2    1    3    3    0  502  0.29605564717E+03 -0.15204181156E+03 -0.11166194244E+04  0.11651629060E+04  0.25500000920E-02 0.  1.
</event>
<event>
 5   0  0.2734072E-04  0.1485262E+04  0.7818609E-02  0.8894313E-01
        2   -1    0    0  501    0  0.00000000000E+00  0.00000000000E+00  0.13505408596E+04  0.13505408596E+04  0.25500000920E-02 0. -1.
       -2   -1    0    0    0  501  0.00000000000E+00  0.00000000000E+00 -0.40835527789E+03  0.40835527790E+03  0.25500000920E-02 0.  1.
    10030    2    1    2    0    0  0.00000000000E+00  0.00000000000E+00  0.94218558169E+03  0.17588961375E+04  0.14852615770E+04 0.  0.
        5    1    3    3  502    0 -0.40000013179E+03  0.27077843062E+02 -0.26916674377E+03  0.48291421699E+03  0.46999998093E+01 0.  1.
       -5    1    3    3    0  502  0.40000013179E+03 -0.27077843062E+02  0.12113523255E+04  0.12759819205E+04  0.46999998093E+01 0. -1.
</event>
<event>
 5   0  0.2646718E-04  0.1494758E+04  0.7818609E-02  0.8887946E-01
        2   -1    0    0  501    0  0.00000000000E+00  0.00000000000E+00  0.14782017844E+04  0.14782017844E+04  0.25500000920E-02 0.  1.
       -2   -1    0    0    0  501  0.00000000000E+00  0.00000000000E+00 -0.37787484806E+03  0.37787484807E+03  0.25500000920E-02 0. -1.
    10030    2    1    2    0    0  0.00000000000E+00  0.00000000000E+00  0.11003269363E+04  0.18560766325E+04  0.14947578730E+04 0.  0.
        3    1    3    3  502    0  0.60631207585E+03 -0.18356692560E+03  0.57738720294E+02  0.63611706432E+03  0.10100000352E+00 0. -1.
       -3    1    3    3    0  502 -0.60631207585E+03  0.18356692560E+03  0.10425882160E+04  0.12199595681E+04  0.10100000352E+00 0.  1.
</event>
<event>
 5   0  0.1443750E-04  0.1506972E+04  0.7818609E-02  0.8879830E-01
       -1   -1    0    0    0  501  0.00000000000E+00  0.00000000000E+00  0.53975380774E+03  0.53975380777E+03  0.50400001928E-02 0.  1.
        1   -1    0    0  501    0  0.00000000000E+00  0.00000000000E+00 -0.10518523391E+04  0.10518523391E+04  0.50400001928E-02 0. -1.
    10030    2    1    2    0    0  0.00000000000E+00  0.00000000000E+00 -0.51209853131E+03  0.15916061468E+04  0.15069722031E+04 0.  0.
        2    1    3    3  502    0 -0.52270063684E+03  0.46879569750E+03  0.32721503488E+02  0.70289121387E+03  0.25500000920E-02 0.  1.
       -2    1    3    3    0  502  0.52270063684E+03 -0.46879569750E+03 -0.54482003480E+03  0.88871493296E+03  0.25500000920E-02 0. -1.
</event>
<event>
 5   0  0.1443750E-04  0.1492603E+04  0.7818609E-02  0.8889387E-01
       -1   -1    0    0    0  501  0.00000000000E+00  0.00000000000E+00  0.86098110210E+03  0.86098110212E+03  0.50400001928E-02 0.  1.
        1   -1    0    0  501    0  0.00000000000E+00  0.00000000000E+00 -0.64689649106E+03  0.64689649108E+03  0.50400001928E-02 0. -1.
    10030    2    1    2    0    0  0.00000000000E+00  0.00000000000E+00  0.21408461104E+03  0.15078775932E+04  0.14926026314E+04 0.  0.
        2    1    3    3  502    0  0.61643833844E+03 -0.42067721751E+03  0.10737339447E+03  0.75398580376E+03  0.25500000920E-02 0.  1.
       -2    1    3    3    0  502 -0.61643833844E+03  0.42067721751E+03  0.10671121657E+03  0.75389178944E+03  0.25500000920E-02 0. -1.
</event>
<event>
 5   0  0.1484251E-04  0.1497428E+04  0.7818609E-02  0.8886165E-01
        1   -1    0    0  501    0  0.00000000000E+00  0.00000000000E+00  0.78651440390E+03  0.78651440392E+03  0.50400001928E-02 0.  1.
       -1   -1    0    0    0  501  0.00000000000E+00  0.00000000000E+00 -0.71273037028E+03  0.71273037030E+03  0.50400001928E-02 0. -1.
    10030    2    1    2    0    0  0.00000000000E+00  0.00000000000E+00  0.73784033621E+02  0.14992447742E+04  0.14974280648E+04 0.  0.
        5    1    3    3  502    0  0.30702287232E+03  0.66843362521E+03 -0.10286263419E+03  0.74274448295E+03  0.46999998093E+01 0.  1.
       -5    1    3    3    0  502 -0.30702287232E+03 -0.66843362521E+03  0.17664666781E+03  0.75650029127E+03  0.46999998093E+01 0. -1.
</event>
<event>
 5   0  0.2696040E-04  0.1500402E+04  0.7818609E-02  0.8884186E-01
        2   -1    0    0  501    0  0.00000000000E+00  0.00000000000E+00  0.43881083839E+03  0.43881083840E+03  0.25500000920E-02 0.  1.
       -2   -1    0    0    0  501  0.00000000000E+00  0.00000000000E+00 -0.12825606163E+04  0.12825606163E+04  0.25500000920E-02 0. -1.
    10030    2    1    2    0    0  0.00000000000E+00  0.00000000000E+00 -0.84374977788E+03  0.17213714547E+04  0.15004019452E+04 0.  0.
        2    1    3    3  502    0 -0.99293262579E+02  0.63589997070E+03  0.20344484028E+02  0.64392687688E+03  0.25500000920E-02 0.  1.
       -2    1    3    3    0  502  0.99293262579E+02 -0.63589997070E+03 -0.86409426191E+03  0.10774445778E+04  0.25500000920E-02 0. -1.
</event>
<event>
 5   0  0.2696040E-04  0.1480636E+04  0.7818609E-02  0.8897433E-01
        2   -1    0    0  501    0  0.00000000000E+00  0.00000000000E+00  0.13129505355E+04  0.13129505355E+04  0.25500000920E-02 0.  1.
       -2   -1    0    0    0  501  0.00000000000E+00  0.00000000000E+00 -0.41743415241E+03  0.41743415242E+03  0.25500000920E-02 0. -1.
    10030    2    1    2    0    0  0.00000000000E+00  0.00000000000E+00  0.89551638305E+03  0.17303846879E+04  0.14806355310E+04 0.  0.
        2    1    3    3  502    0  0.44352480862E+03  0.29303889142E+03  0.10499210377E+04  0.11768263394E+04  0.25500000920E-02 0.  1.
       -2    1    3    3    0  502 -0.44352480862E+03 -0.29303889142E+03 -0.15440465466E+03  0.55355834845E+03  0.25500000920E-02 0. -1.
</event>
<event>
 5   0  0.1474203E-04  0.1530578E+04  0.7818609E-02  0.8864369E-01
       -1   -1    0    0    0  501  0.00000000000E+00  0.00000000000E+00  0.64133809049E+03  0.64133809051E+03  0.50400001928E-02 0.  1.
        1   -1    0    0  501    0  0.00000000000E+00  0.00000000000E+00 -0.91319630418E+03  0.91319630420E+03  0.50400001928E-02 0. -1.
    10030    2    1    2    0    0  0.00000000000E+00  0.00000000000E+00 -0.27185821369E+03  0.15545343947E+04  0.15305784188E+04 0.  0.
        3    1    3    3  502    0  0.27747635432E+03  0.17151782151E+03  0.56718945411E+03  0.65430526313E+03  0.10100000352E+00 0.  1.
       -3    1    3    3    0  502 -0.27747635432E+03 -0.17151782151E+03 -0.83904766780E+03  0.90022913158E+03  0.10100000352E+00 0. -1.
</event>
<event>
 5   0  0.2641347E-04  0.1484850E+04  0.7818609E-02  0.8894591E-01
       -2   -1    0    0    0  501  0.00000000000E+00  0.00000000000E+00  0.15392889853E+03  0.15392889855E+03  0.25500000920E-02 0.  1.
        2   -1    0    0  501    0  0.00000000000E+00  0.00000000000E+00 -0.35808398343E+04  0.35808398343E+04  0.25500000920E-02 0. -1.
    10030    2    1    2    0    0  0.00000000000E+00  0.00000000000E+00 -0.34269109357E+04  0.37347687328E+04  0.14848497992E+04 0.  0.
        4    1    3    3  502    0  0.51022064564E+03  0.53779600027E+03 -0.16114877872E+04  0.17738219038E+04  0.12699999809E+01 0. -1.
       -4    1    3    3    0  502 -0.51022064564E+03 -0.53779600027E+03 -0.18154231485E+04  0.19609468290E+04  0.12699999809E+01 0.  1.
</event>
<event>
 5   0  0.1426929E-04  0.1498819E+04  0.7818609E-02  0.8885239E-01
        1   -1    0    0  501    0  0.00000000000E+00  0.00000000000E+00  0.62700302476E+03  0.62700302478E+03  0.50400001928E-02 0.  1.
       -1   -1    0    0    0  501  0.00000000000E+00  0.00000000000E+00 -0.89571284896E+03  0.89571284897E+03  0.50400001928E-02 0. -1.
    10030    2    1    2    0    0  0.00000000000E+00  0.00000000000E+00 -0.26870982420E+03  0.15227158738E+04  0.14988190893E+04 0.  0.
        1    1    3    3  502    0 -0.54531813154E+01 -0.16770147972E+03  0.60767438841E+03  0.63041390042E+03  0.50400001928E-02 0.  1.
       -1    1    3    3    0  502  0.54531813154E+01  0.16770147972E+03 -0.87638421261E+03  0.89230197334E+03  0.50400001928E-02 0. -1.
</event>
<event>
 5   0  0.2696040E-04  0.1454409E+04  0.7818609E-02  0.8915350E-01
        2   -1    0    0  501    0  0.00000000000E+00  0.00000000000E+00  0.22706490794E+04  0.22706490794E+04  0.25500000920E-02 0. -1.
       -2   -1    0    0    0  501  0.00000000000E+00  0.00000000000E+00 -0.23289642300E+03  0.23289642301E+03  0.25500000920E-02 0.  1.
    10030    2    1    2    0    0  0.00000000000E+00  0.00000000000E+00  0.20377526564E+04  0.25035455024E+04  0.14544085375E+04 0.  0.
        2    1    3    3  502    0  0.66243143323E+03  0.17300441789E+03  0.59695210861E+03  0.90834891552E+03  0.25500000920E-02 0.  1.
       -2    1    3    3    0  502 -0.66243143323E+03 -0.17300441789E+03  0.14408005478E+04  0.15951965869E+04  0.25500000920E-02 0. -1.
</event>
<event>
 5   0  0.1474203E-04  0.1500738E+04  0.7818609E-02  0.8883962E-01
       -1   -1    0    0    0  501  0.00000000000E+00  0.00000000000E+00  0.10679850904E+04  0.10679850904E+04  0.50400001928E-02 0.  1.
        1   -1    0    0  501    0  0.00000000000E+00  0.00000000000E+00 -0.52721134160E+03  0.52721134162E+03  0.50400001928E-02 0. -1.
    10030    2    1    2    0    0  0.00000000000E+00  0.00000000000E+00  0.54077374883E+03  0.15951964321E+04  0.15007382881E+04 0.  0.
        3    1    3    3  502    0 -0.17957487104E+03 -0.57558398230E+03  0.74516566462E+03  0.95854886831E+03  0.10100000352E+00 0.  1.
       -3    1    3    3    0  502  0.17957487104E+03  0.57558398230E+03 -0.20439191579E+03  0.63664756376E+03  0.10100000352E+00 0. -1.
</event>
<event>
 5   0  0.2618901E-04  0.1494506E+04  0.7818609E-02  0.8888114E-01
        2   -1    0    0  501    0  0.00000000000E+00  0.00000000000E+00  0.16341697505E+04  0.16341697505E+04  0.25500000920E-02 0. -1.
       -2   -1    0    0    0  501  0.00000000000E+00  0.00000000000E+00 -0.34169472652E+03  0.34169472653E+03  0.25500000920E-02 0.  1.
    10030    2    1    2    0    0  0.00000000000E+00  0.00000000000E+00  0.12924750240E+04  0.19758644770E+04  0.14945061873E+04 0.  0.
        1    1    3    3  502    0  0.54415219889E+03 -0.48728910746E+03  0.43788890061E+03  0.85164486678E+03  0.50400001928E-02 0.  1.
       -1    1    3    3    0  502 -0.54415219889E+03  0.48728910746E+03  0.85458612337E+03  0.11242196103E+04  0.50400001928E-02 0. -1.
</event>
<event>
 5   0  0.2734072E-04  0.1451635E+04  0.7818609E-02  0.8917268E-01
        2   -1    0    0  501    0  0.00000000000E+00  0.00000000000E+00  0.67414434246E+03  0.67414434246E+03  0.25500000920E-02 0.  1.
       -2   -1    0    0    0  501  0.00000000000E+00  0.00000000000E+00 -0.78145161761E+03  0.78145161761E+03  0.25500000920E-02 0. -1.
    10030    2    1    2    0    0  0.00000000000E+00  0.00000000000E+00 -0.10730727515E+03  0.14555959601E+04  0.14516351979E+04 0.  0.
        5    1    3    3  502    0 -0.14384766927E+03 -0.19076124946E+03  0.63356813394E+03  0.67713564121E+03  0.46999998093E+01 0.  1.
       -5    1    3    3    0  502  0.14384766927E+03  0.19076124946E+03 -0.74087540910E+03  0.77846031887E+03  0.46999998093E+01 0. -1.
</event>
<event>
 5   0  0.1426929E-04  0.1499357E+04  0.7818609E-02  0.8884881E-01
        1   -1    0    0  501    0  0.00000000000E+00  0.00000000000E+00  0.87069948083E+03  0.87069948085E+03  0.50400001928E-02 0. -1.
       -1   -1    0    0    0  501  0.00000000000E+00  0.00000000000E+00 -0.64547823099E+03  0.64547823101E+03  0.50400001928E-02 0.  1.
    10030    2    1    2    0    0  0.00000000000E+00  0.00000000000E+00  0.22522124984E+03  0.15161777119E+04  0.14993566095E+04 0.  0.
        1    1    3    3  502    0 -0.40203828822E+03 -0.55901534881E+03  0.41238989473E+03  0.80261969245E+03  0.50400001928E-02 0. -1.
       -1    1    3    3    0  502  0.40203828822E+03  0.55901534881E+03 -0.18716864488E+03  0.71355801940E+03  0.50400001928E-02 0.  1.
</event>
<event>
 5   0  0.1427609E-04  0.1485167E+04  0.7818609E-02  0.8894377E-01
        1   -1    0    0  501    0  0.00000000000E+00  0.00000000000E+00  0.80046104499E+03  0.80046104501E+03  0.50400001928E-02 0. -1.
       -1   -1    0    0    0  501  0.00000000000E+00  0.00000000000E+00 -0.68889118808E+03  0.68889118810E+03  0.50400001928E-02 0.  1.
    10030    2    1    2    0    0  0.00000000000E+00  0.00000000000E+00  0.11156985691E+03  0.14893522331E+04  0.14851674119E+04 0.  0.
        4    1    3    3  502    0 -0.25317114910E+03  0.45286139637E+03  0.58855385490E+03  0.78458672438E+03  0.12699999809E+01 0. -1.
       -4    1    3    3    0  502  0.25317114910E+03 -0.45286139637E+03 -0.47698399798E+03  0.70476550872E+03  0.12699999809E+01 0.  1.
</event>
<event>
 5   0  0.1427609E-04  0.1565573E+04  0.7818609E-02  0.8841981E-01
        1   -1    0    0  501    0  0.00000000000E+00  0.00000000000E+00  0.75225465648E+03  0.75225465649E+03  0.50400001928E-02 0. -1.
       -1   -1    0    0    0  501  0.00000000000E+00  0.00000000000E+00 -0.81455784569E+03  0.81455784571E+03  0.50400001928E-02 0.  1.
    10030    2    1    2    0    0  0.00000000000E+00  0.00000000000E+00 -0.62303189218E+02  0.15668125022E+04  0.15655732911E+04 0.  0.
        4    1    3    3  502    0 -0.11428031061E+03 -0.95137423134E+02 -0.80029241571E+03  0.81399059099E+03  0.12699999809E+01 0.  1.
       -4    1    3    3    0  502  0.11428031061E+03  0.95137423134E+02  0.73798922650E+03  0.75282191121E+03  0.12699999809E+01 0. -1.
</event>
<event>
 5   0  0.2696040E-04  0.1505132E+04  0.7818609E-02  0.8881048E-01
       -2   -1    0    0    0  501  0.00000000000E+00  0.00000000000E+00  0.25624167091E+03  0.25624167093E+03  0.25500000920E-02 0.  1.
        2   -1    0    0  501    0  0.00000000000E+00  0.00000000000E+00 -0.22102386955E+04  0.22102386955E+04  0.25500000920E-02 0. -1.
    10030    2    1    2    0    0  0.00000000000E+00  0.00000000000E+00 -0.19539970246E+04  0.24664803664E+04  0.15051315643E+04 0.  0.
        2    1    3    3  502    0  0.17229852895E+03  0.55818877025E+03 -0.17544708340E+04  0.18491699202E+04  0.25500000920E-02 0. -1.
       -2    1    3    3    0  502 -0.17229852895E+03 -0.55818877025E+03 -0.19952619059E+03  0.61731044625E+03  0.25500000920E-02 0.  1.
</event>
<event>
 5   0  0.2696040E-04  0.1504612E+04  0.7818609E-02  0.8881392E-01
        2   -1    0    0  501    0  0.00000000000E+00  0.00000000000E+00  0.18766801410E+04  0.18766801410E+04  0.25500000920E-02 0.  1.
       -2   -1    0    0    0  501  0.00000000000E+00  0.00000000000E+00 -0.30157722304E+03  0.30157722305E+03  0.25500000920E-02 0. -1.
    10030    2    1    2    0    0  0.00000000000E+00  0.00000000000E+00  0.15751029180E+04  0.21782573641E+04  0.15046115585E+04 0.  0.
        2    1    3    3  502    0  0.59737483255E+03  0.30975913910E+03  0.30055625329E+03  0.73698132691E+03  0.25500000920E-02 0. -1.
       -2    1    3    3    0  502 -0.59737483255E+03 -0.30975913910E+03  0.12745466647E+04  0.14412760372E+04  0.25500000920E-02 0.  1.
</event>
<event>
 5   0  0.2641347E-04  0.1496750E+04  0.7818609E-02  0.8886617E-01
        2   -1    0    0  501    0  0.00000000000E+00  0.00000000000E+00  0.11531696743E+04  0.11531696743E+04  0.25500000920E-02 0.  1.
       -2   -1    0    0    0  501  0.00000000000E+00  0.00000000000E+00 -0.48567438156E+03  0.48567438157E+03  0.25500000920E-02 0. -1.
    10030    2    1    2    0    0  0.00000000000E+00  0.00000000000E+00  0.66749529275E+03  0.16388440559E+04  0.14967497699E+04 0.  0.
        4    1    3    3  502    0  0.41413664185E+03 -0.51724497504E+03  0.71464008412E+03  0.97455814863E+03  0.12699999809E+01 0.  1.
       -4    1    3    3    0  502 -0.41413664185E+03  0.51724497504E+03 -0.47144791377E+02  0.66428590725E+03  0.12699999809E+01 0. -1.
</event>
<event>
 5   0  0.2734072E-04  0.1496696E+04  0.7818609E-02  0.8886653E-01
       -2   -1    0    0    0  501  0.00000000000E+00  0.00000000000E+00  0.56398264905E+03  0.56398264906E+03  0.25500000920E-02 0.  1.
        2   -1    0    0  501    0  0.00000000000E+00  0.00000000000E+00 -0.99298203723E+03  0.99298203723E+03  0.25500000920E-02 0. -1.
    10030    2    1    2    0    0  0.00000000000E+00  0.00000000000E+00 -0.42899938818E+03  0.15569646863E+04  0.14966958807E+04 0.  0.
        5    1    3    3  502    0  0.16872980766E+03 -0.16146966384E+03 -0.95408580325E+03  0.98226473534E+03  0.46999998093E+01 0. -1.
       -5    1    3    3    0  502 -0.16872980766E+03  0.16146966384E+03  0.52508641507E+03  0.57469995095E+03  0.46999998093E+01 0.  1.
</event>
<event>
 5   0  0.2696040E-04  0.1497916E+04  0.7818609E-02  0.8885840E-01
        2   -1    0    0  501    0  0.00000000000E+00  0.00000000000E+00  0.95072056569E+03  0.95072056569E+03  0.25500000920E-02 0. -1.
       -2   -1    0    0    0  501  0.00000000000E+00  0.00000000000E+00 -0.59001376814E+03  0.59001376814E+03  0.25500000920E-02 0.  1.
    10030    2    1    2    0    0  0.00000000000E+00  0.00000000000E+00  0.36070679755E+03  0.15407343338E+04  0.14979161838E+04 0.  0.
        2    1    3    3  502    0 -0.30174291934E+02 -0.23461698252E+03  0.91128789300E+03  0.94148884237E+03  0.25500000920E-02 0. -1.
       -2    1    3    3    0  502  0.30174291934E+02  0.23461698252E+03 -0.55058109544E+03  0.59924549147E+03  0.25500000920E-02 0.  1.
</event>
<event>
 5   0  0.2618901E-04  0.1447773E+04  0.7818609E-02  0.8919946E-01
       -2   -1    0    0    0  501  0.00000000000E+00  0.00000000000E+00  0.44983400731E+03  0.44983400731E+03  0.25500000920E-02 0.  1.
        2   -1    0    0  501    0  0.00000000000E+00  0.00000000000E+00 -0.11649005012E+04  0.11649005012E+04  0.25500000920E-02 0. -1.
    10030    2    1    2    0    0  0.00000000000E+00  0.00000000000E+00 -0.71506649388E+03  0.16147345085E+04  0.14477732703E+04 0.  0.
        1    1    3    3  502    0 -0.31376882959E+03  0.25705769122E+03  0.31117910277E+03  0.51123572749E+03  0.50400001928E-02 0.  1.
       -1    1    3    3    0  502  0.31376882959E+03 -0.25705769122E+03 -0.10262455967E+04  0.11034987810E+04  0.50400001928E-02 0. -1.
</event>
<event>
 5   0  0.2641347E-04  0.1502338E+04  0.7818609E-02  0.8882900E-01
        2   -1    0    0  501    0  0.00000000000E+00  0.00000000000E+00  0.11803593712E+04  0.11803593712E+04  0.25500000920E-02 0. -1.
       -2   -1    0    0    0  501  0.00000000000E+00  0.00000000000E+00 -0.47803646854E+03  0.47803646855E+03  0.25500000920E-02 0.  1.
    10030    2    1    2    0    0  0.00000000000E+00  0.00000000000E+00  0.70232290268E+03  0.16583958398E+04  0.15023379453E+04 0.  0.
        4    1    3    3  502    0 -0.11869397511E+03  0.73700847184E+03  0.44340925848E+03  0.86826443593E+03  0.12699999809E+01 0.  1.
       -4    1    3    3    0  502  0.11869397511E+03 -0.73700847184E+03  0.25891364421E+03  0.79013140385E+03  0.12699999809E+01 0. -1.
</event>
<event>
 5   0  0.2641347E-04  0.1495283E+04  0.7818609E-02  0.8887596E-01
        2   -1    0    0  501    0  0.00000000000E+00  0.00000000000E+00  0.20272775462E+04  0.20272775462E+04  0.25500000920E-02 0.  1.
       -2   -1    0    0    0  501  0.00000000000E+00  0.00000000000E+00 -0.27572340038E+03  0.27572340039E+03  0.25500000920E-02 0. -1.
    10030    2    1    2    0    0  0.00000000000E+00  0.00000000000E+00  0.17515541458E+04  0.23030009466E+04  0.14952830616E+04 0.  0.
        4    1    3    3  502    0  0.83179544098E+00 -0.10415181157E+03 -0.26449297523E+03  0.28426473328E+03  0.12699999809E+01 0. -1.
       -4    1    3    3    0  502 -0.83179544098E+00  0.10415181157E+03  0.20160471210E+04  0.20187362133E+04  0.12699999809E+01 0.  1.
</event>
<event>
 5   0  0.2734072E-04  0.1497929E+04  0.7818609E-02  0.8885831E-01
        2   -1    0    0  501    0  0.00000000000E+00  0.00000000000E+00  0.11249369584E+04  0.11249369584E+04  0.25500000920E-02 0. -1.
       -2   -1    0    0    0  501  0.00000000000E+00  0.00000000000E+00 -0.49864829405E+03  0.49864829405E+03  0.25500000920E-02 0.  1.
    10030    2    1    2    0    0  0.00000000000E+00  0.00000000000E+00  0.62628866437E+03  0.16235852525E+04  0.14979290974E+04 0.  0.
        5    1    3    3  502    0 -0.16716906816E+02 -0.28092612084E+03 -0.43914390998E+03  0.52160176765E+03  0.46999998093E+01 0.  1.
       -5    1    3    3    0  502  0.16716906816E+02  0.28092612084E+03  0.10654325743E+04  0.11019834848E+04  0.46999998093E+01 0. -1.
</event>
<event>
 5   0  0.1443750E-04  0.1465816E+04  0.7818609E-02  0.8907508E-01
       -1   -1    0    0    0  501  0.00000000000E+00  0.00000000000E+00  0.49628827509E+03  0.49628827511E+03  0.50400001928E-02 0. -1.
        1   -1    0    0  501    0  0.00000000000E+00  0.00000000000E+00 -0.10823433461E+04  0.10823433461E+04  0.50400001928E-02 0.  1.
    10030    2    1    2    0    0  0.00000000000E+00  0.00000000000E+00 -0.58605507103E+03  0.15786316212E+04  0.14658162400E+04 0.  0.
        2    1    3    3  502    0  0.10740504234E+03  0.27351560925E+03  0.43007006805E+03  0.52087128454E+03  0.25500000920E-02 0. -1.
       -2    1    3    3    0  502 -0.10740504234E+03 -0.27351560925E+03 -0.10161251391E+04  0.10577603367E+04  0.25500000920E-02 0.  1.
</event>
<event>
 5   0  0.2734072E-04  0.1512642E+04  0.7818609E-02  0.8876089E-01
        2   -1    0    0  501    0  0.00000000000E+00  0.00000000000E+00  0.70793248113E+03  0.70793248113E+03  0.25500000920E-02 0. -1.
       -2   -1    0    0    0  501  0.00000000000E+00  0.00000000000E+00 -0.80801748270E+03  0.80801748271E+03  0.25500000920E-02 0.  1.
    10030    2    1    2    0    0  0.00000000000E+00  0.00000000000E+00 -0.10008500157E+03  0.15159499638E+04  0.15126424843E+04 0.  0.
        5    1    3    3  502    0 -0.63870947042E+02  0.56116113898E+03  0.45406671136E+03  0.72469303166E+03  0.46999998093E+01 0. -1.
       -5    1    3    3    0  502  0.63870947042E+02 -0.56116113898E+03 -0.55415171293E+03  0.79125693218E+03  0.46999998093E+01 0.  1.
</event>
<event>
 5   0  0.2646718E-04  0.1510040E+04  0.7818609E-02  0.8877803E-01
       -2   -1    0    0    0  501  0.00000000000E+00  0.00000000000E+00  0.68290148607E+03  0.68290148607E+03  0.25500000920E-02 0. -1.
        2   -1    0    0  501    0  0.00000000000E+00  0.00000000000E+00 -0.83475512053E+03  0.83475512054E+03  0.25500000920E-02 0.  1.
    10030    2    1    2    0    0  0.00000000000E+00  0.00000000000E+00 -0.15185363446E+03  0.15176566066E+04  0.15100404131E+04 0.  0.
        3    1    3    3  502    0 -0.33482467409E+03  0.23899993789E+02  0.60378055278E+03  0.69081816580E+03  0.10100000352E+00 0. -1.
       -3    1    3    3    0  502  0.33482467409E+03 -0.23899993789E+02 -0.75563418724E+03  0.82683844081E+03  0.10100000352E+00 0.  1.
</event>
<event>
 5   0  0.1004313E-04  0.1493565E+04  0.7818609E-02  0.8888743E-01
        4   -1    0    0  501    0  0.00000000000E+00  0.00000000000E+00  0.11434644038E+04  0.11434651091E+04  0.12699999809E+01 0.  1.
       -4   -1    0    0    0  501  0.00000000000E+00  0.00000000000E+00 -0.48771299483E+03  0.48771464836E+03  0.12699999809E+01 0. -1.
    10030    2    1    2    0    0  0.00000000000E+00  0.00000000000E+00  0.65575140899E+03  0.16311797574E+04  0.14935653620E+04 0.  0.
        2    1    3    3  502    0 -0.42590550990E+03 -0.60445116737E+03  0.44204283591E+03  0.86148626564E+03  0.25500000920E-02 0.  1.
       -2    1    3    3    0  502  0.42590550990E+03  0.60445116737E+03  0.21370857307E+03  0.76969349180E+03  0.25500000920E-02 0. -1.
</event>
<event>
 5   0  0.1426929E-04  0.1505107E+04  0.7818609E-02  0.8881064E-01
       -1   -1    0    0    0  501  0.00000000000E+00  0.00000000000E+00  0.26740337815E+03  0.26740337820E+03  0.50400001928E-02 0. -1.
        1   -1    0    0  501    0  0.00000000000E+00  0.00000000000E+00 -0.21179118444E+04  0.21179118445E+04  0.50400001928E-02 0.  1.
    10030    2    1    2    0    0  0.00000000000E+00  0.00000000000E+00 -0.18505084663E+04  0.23853152227E+04  0.15051070153E+04 0.  0.
        1    1    3    3  502    0  0.36618481216E+03  0.61490232578E+03 -0.55649753995E+03  0.90657911894E+03  0.50400001928E-02 0. -1.
       -1    1    3    3    0  502 -0.36618481216E+03 -0.61490232578E+03 -0.12940109263E+04  0.14787361037E+04  0.50400001928E-02 0.  1.
</event>
<event>
 5   0  0.1484251E-04  0.1501225E+04  0.7818609E-02  0.8883639E-01
        1   -1    0    0  501    0  0.00000000000E+00  0.00000000000E+00  0.19820013126E+04  0.19820013126E+04  0.50400001928E-02 0.  1.
       -1   -1    0    0    0  501  0.00000000000E+00  0.00000000000E+00 -0.28426767686E+03  0.28426767691E+03  0.50400001928E-02 0. -1.
    10030    2    1    2    0    0  0.00000000000E+00  0.00000000000E+00  0.16977336357E+04  0.22662689895E+04  0.15012247116E+04 0.  0.
        5    1    3    3  502    0 -0.20844526051E+03  0.10343563563E+03 -0.22841818554E+03  0.32610629376E+03  0.46999998093E+01 0. -1.
       -5    1    3    3    0  502  0.20844526051E+03 -0.10343563563E+03  0.19261518212E+04  0.19401626957E+04  0.46999998093E+01 0.  1.
</event>
<event>
 5   0  0.1484251E-04  0.1500366E+04  0.7818609E-02  0.8884209E-01
        1   -1    0    0  501    0  0.00000000000E+00  0.00000000000E+00  0.15048390761E+04  0.15048390761E+04  0.50400001928E-02 0.  1.
       -1   -1    0    0    0  501  0.00000000000E+00  0.00000000000E+00 -0.37397668356E+03  0.37397668359E+03  0.50400001928E-02 0. -1.
    10030    2    1    2    0    0  0.00000000000E+00  0.00000000000E+00  0.11308623926E+04  0.18788157597E+04  0.15003662580E+04 0.  0.
        5    1    3    3  502    0 -0.12254297634E+03 -0.41217130267E+03  0.13351764256E+04  0.14027188390E+04  0.46999998093E+01 0.  1.
       -5    1    3    3    0  502  0.12254297634E+03  0.41217130267E+03 -0.20431403306E+03  0.47609692070E+03  0.46999998093E+01 0. -1.
</event>
<event>
 5   0  0.2618901E-04  0.1502430E+04  0.7818609E-02  0.8882838E-01
       -2   -1    0    0    0  501  0.00000000000E+00  0.00000000000E+00  0.45086995956E+03  0.45086995957E+03  0.25500000920E-02 0. -1.
        2   -1    0    0  501    0  0.00000000000E+00  0.00000000000E+00 -0.12516341074E+04  0.12516341074E+04  0.25500000920E-02 0.  1.
    10030    2    1    2    0    0  0.00000000000E+00  0.00000000000E+00 -0.80076414787E+03  0.17025040670E+04  0.15024303237E+04 0.  0.
        1    1    3    3  502    0 -0.10441780239E+03 -0.45642760845E+03  0.26529429278E+03  0.53815453266E+03  0.50400001928E-02 0. -1.
       -1    1    3    3    0  502  0.10441780239E+03  0.45642760845E+03 -0.10660584407E+04  0.11643495343E+04  0.50400001928E-02 0.  1.
</event>
<event>
 5   0  0.2618901E-04  0.1509161E+04  0.7818609E-02  0.8878384E-01
       -2   -1    0    0    0  501  0.00000000000E+00  0.00000000000E+00  0.30198997892E+03  0.30198997893E+03  0.25500000920E-02 0.  1.
        2   -1    0    0  501    0  0.00000000000E+00  0.00000000000E+00 -0.18854646584E+04  0.18854646584E+04  0.25500000920E-02 0. -1.
    10030    2    1    2    0    0  0.00000000000E+00  0.00000000000E+00 -0.15834746795E+04  0.21874546374E+04  0.15091606044E+04 0.  0.
        1    1    3    3  502    0 -0.49109340904E+03  0.19591734369E+03 -0.11405948485E+02  0.52885389064E+03  0.50400001928E-02 0.  1.
       -1    1    3    3    0  502  0.49109340904E+03 -0.19591734369E+03 -0.15720687310E+04  0.16586007467E+04  0.50400001928E-02 0. -1.
</event>
<event>
 5   0  0.1427609E-04  0.1502266E+04  0.7818609E-02  0.8882947E-01
       -1   -1    0    0    0  501  0.00000000000E+00  0.00000000000E+00  0.15841111856E+04  0.15841111856E+04  0.50400001928E-02 0.  1.
        1   -1    0    0  501    0  0.00000000000E+00  0.00000000000E+00 -0.35616239747E+03  0.35616239751E+03  0.50400001928E-02 0. -1.
    10030    2    1    2    0    0  0.00000000000E+00  0.00000000000E+00  0.12279487881E+04  0.19402735831E+04  0.15022660720E+04 0.  0.
        4    1    3    3  502    0  0.10151466642E+03 -0.14986209739E+03 -0.32757114730E+03  0.37425705761E+03  0.12699999809E+01 0. -1.
       -4    1    3    3    0  502 -0.10151466642E+03  0.14986209739E+03  0.15555199354E+04  0.15660165255E+04  0.12699999809E+01 0.  1.
</event>
<event>
 5   0  0.2696040E-04  0.1500889E+04  0.7818609E-02  0.8883862E-01
        2   -1    0    0  501    0  0.00000000000E+00  0.00000000000E+00  0.10542008209E+04  0.10542008209E+04  0.25500000920E-02 0.  1.
       -2   -1    0    0    0  501  0.00000000000E+00  0.00000000000E+00 -0.53421213573E+03  0.53421213574E+03  0.25500000920E-02 0. -1.
    10030    2    1    2    0    0  0.00000000000E+00  0.00000000000E+00  0.51998868520E+03  0.15884129567E+04  0.15008888993E+04 0.  0.
        2    1    3    3  502    0  0.39380211160E+03  0.11593975523E+03 -0.40484702763E+03  0.57656157150E+03  0.25500000920E-02 0. -1.
       -2    1    3    3    0  502 -0.39380211160E+03 -0.11593975523E+03  0.92483571283E+03  0.10118513852E+04  0.25500000920E-02 0.  1.
</event>
<event>
 5   0  0.1004313E-04  0.1494888E+04  0.7818609E-02  0.8887860E-01
       -3   -1    0    0    0  501  0.00000000000E+00  0.00000000000E+00  0.13197427766E+04  0.13197427805E+04  0.10100000352E+00 0.  1.
        3   -1    0    0  501    0  0.00000000000E+00  0.00000000000E+00 -0.42331909835E+03  0.42331911039E+03  0.10100000352E+00 0. -1.
    10030    2    1    2    0    0  0.00000000000E+00  0.00000000000E+00  0.89642367824E+03  0.17430618908E+04  0.14948877364E+04 0.  0.
        4    1    3    3  502    0  0.62894816101E+03  0.28108986060E+03  0.78632293520E+03  0.10454150708E+04  0.12699999809E+01 0.  1.
       -4    1    3    3    0  502 -0.62894816101E+03 -0.28108986060E+03  0.11010074304E+03  0.69764682003E+03  0.12699999809E+01 0. -1.
</event>
<event>
 5   0  0.2734072E-04  0.1492000E+04  0.7818609E-02  0.8889790E-01
        2   -1    0    0  501    0  0.00000000000E+00  0.00000000000E+00  0.56181687933E+03  0.56181687934E+03  0.25500000920E-02 0. -1.
       -2   -1    0    0    0  501  0.00000000000E+00  0.00000000000E+00 -0.99056512900E+03  0.99056512900E+03  0.25500000920E-02 0.  1.
    10030    2    1    2    0    0  0.00000000000E+00  0.00000000000E+00 -0.42874824966E+03  0.15523820083E+04  0.14920002809E+04 0.  0.
        5    1    3    3  502    0  0.24882030621E+03 -0.70207753983E+03 -0.17185842913E+03  0.76444870748E+03  0.46999998093E+01 0.  1.
       -5    1    3    3    0  502 -0.24882030621E+03  0.70207753983E+03 -0.25688982054E+03  0.78793330086E+03  0.46999998093E+01 0. -1.
</event>
<event>
 5   0  0.2734072E-04  0.1501612E+04  0.7818609E-02  0.8883382E-01
       -2   -1    0    0    0  501  0.00000000000E+00  0.00000000000E+00  0.11145605435E+04  0.11145605435E+04  0.25500000920E-02 0.  1.
        2   -1    0    0  501    0  0.00000000000E+00  0.00000000000E+00 -0.50576854415E+03  0.50576854416E+03  0.25500000920E-02 0. -1.
    10030    2    1    2    0    0  0.00000000000E+00  0.00000000000E+00  0.60879199937E+03  0.16203290877E+04  0.15016120184E+04 0.  0.
        5    1    3    3  502    0 -0.34008124248E+03  0.19595395372E+03 -0.38623121351E+03  0.55068125422E+03  0.46999998093E+01 0. -1.
       -5    1    3    3    0  502  0.34008124248E+03 -0.19595395372E+03  0.99502321288E+03  0.10696478335E+04  0.46999998093E+01 0.  1.
</event>
<event>
 5   0  0.1426929E-04  0.1507255E+04  0.7818609E-02  0.8879643E-01
       -1   -1    0    0    0  501  0.00000000000E+00  0.00000000000E+00  0.92400972264E+03  0.92400972265E+03  0.50400001928E-02 0. -1.
        1   -1    0    0  501    0  0.00000000000E+00  0.00000000000E+00 -0.61466268369E+03  0.61466268371E+03  0.50400001928E-02 0.  1.
    10030    2    1    2    0    0  0.00000000000E+00  0.00000000000E+00  0.30934703895E+03  0.15386724064E+04  0.15072548502E+04 0.  0.
        1    1    3    3  502    0 -0.34071403079E+03 -0.15598544911E+02 -0.53136488666E+03  0.63140954077E+03  0.50400001928E-02 0.  1.
       -1    1    3    3    0  502  0.34071403079E+03  0.15598544911E+02  0.84071192562E+03  0.90726286559E+03  0.50400001928E-02 0. -1.
</event>
<event>
 5   0  0.1427609E-04  0.1490104E+04  0.7818609E-02  0.8891061E-01
        1   -1    0    0  501    0  0.00000000000E+00  0.00000000000E+00  0.92189430663E+03  0.92189430665E+03  0.50400001928E-02 0.  1.
       -1   -1    0    0    0  501  0.00000000000E+00  0.00000000000E+00 -0.60213213244E+03  0.60213213247E+03  0.50400001928E-02 0. -1.
    10030    2    1    2    0    0  0.00000000000E+00  0.00000000000E+00  0.31976217419E+03  0.15240264391E+04  0.14901036001E+04 0.  0.
        4    1    3    3  502    0  0.42674281129E+03 -0.17688521933E+03  0.75774216837E+03  0.88745288012E+03  0.12699999809E+01 0.  1.
       -4    1    3    3    0  502 -0.42674281129E+03  0.17688521933E+03 -0.43797999418E+03  0.63657355899E+03  0.12699999809E+01 0. -1.
</event>
<event>
 5   0  0.2646718E-04  0.1502803E+04  0.7818609E-02  0.8882591E-01
       -2   -1    0    0    0  501  0.00000000000E+00  0.00000000000E+00  0.26470626530E+03  0.26470626531E+03  0.25500000920E-02 0.  1.
        2   -1    0    0  501    0  0.00000000000E+00  0.00000000000E+00 -0.21329450605E+04  0.21329450605E+04  0.25500000920E-02 0. -1.
    10030    2    1    2    0    0  0.00000000000E+00  0.00000000000E+00 -0.18682387952E+04  0.23976513258E+04  0.15028026099E+04 0.  0.
        3    1    3    3  502    0  0.22148560306E+03  0.49814642641E+03 -0.17591371750E+04  0.18416756894E+04  0.10100000352E+00 0. -1.
       -3    1    3    3    0  502 -0.22148560306E+03 -0.49814642641E+03 -0.10910162024E+03  0.55597563638E+03  0.10100000352E+00 0.  1.
</event>
<event>
 5   0  0.2618901E-04  0.1498487E+04  0.7818609E-02  0.8885460E-01
        2   -1    0    0  501    0  0.00000000000E+00  0.00000000000E+00  0.14776605535E+04  0.14776605535E+04  0.25500000920E-02 0.  1.
       -2   -1    0    0    0  501  0.00000000000E+00  0.00000000000E+00 -0.37990157823E+03  0.37990157824E+03  0.25500000920E-02 0. -1.
    10030    2    1    2    0    0  0.00000000000E+00  0.00000000000E+00  0.10977589752E+04  0.18575621317E+04  0.14984866718E+04 0.  0.
        1    1    3    3  502    0 -0.33551861311E+03  0.58516845153E+02  0.13761551905E+04  0.14176741760E+04  0.50400001928E-02 0.  1.
       -1    1    3    3    0  502  0.33551861311E+03 -0.58516845153E+02 -0.27839621525E+03  0.43988795573E+03  0.50400001928E-02 0. -1.
</event>
<event>
 5   0  0.2734072E-04  0.1500949E+04  0.7818609E-02  0.8883822E-01
       -2   -1    0    0    0  501  0.00000000000E+00  0.00000000000E+00  0.60087957084E+03  0.60087957084E+03  0.25500000920E-02 0. -1.
        2   -1    0    0  501    0  0.00000000000E+00  0.00000000000E+00 -0.93731201128E+03  0.93731201129E+03  0.25500000920E-02 0.  1.
    10030    2    1    2    0    0  0.00000000000E+00  0.00000000000E+00 -0.33643244044E+03  0.15381915821E+04  0.15009485522E+04 0.  0.
        5    1    3    3  502    0 -0.29851793227E+03 -0.52618186218E+03  0.28688526728E+03  0.66955623704E+03  0.46999998093E+01 0. -1.
       -5    1    3    3    0  502  0.29851793227E+03  0.52618186218E+03 -0.62331770772E+03  0.86863534509E+03  0.46999998093E+01 0.  1.
</event>
<event>
 5   0  0.1004313E-04  0.1513657E+04  0.7818609E-02  0.8875422E-01
       -4   -1    0    0    0  501  0.00000000000E+00  0.00000000000E+00  0.10254479774E+04  0.10254487639E+04  0.12699999809E+01 0. -1.
        4   -1    0    0  501    0  0.00000000000E+00  0.00000000000E+00 -0.55857279174E+03  0.55857423550E+03  0.12699999809E+01 0.  1.
    10030    2    1    2    0    0  0.00000000000E+00  0.00000000000E+00  0.46687518571E+03  0.15840229994E+04  0.15136566399E+04 0.  0.
        2    1    3    3  502    0 -0.23735773635E+03  0.52149844070E+03 -0.28400773987E+03  0.63949958168E+03  0.25500000920E-02 0.  1.
       -2    1    3    3    0  502  0.23735773635E+03 -0.52149844070E+03  0.75088292558E+03  0.94452341771E+03  0.25500000920E-02 0. -1.
</event>
<event>
 5   0  0.2646718E-04  0.1504638E+04  0.7818609E-02  0.8881375E-01
        2   -1    0    0  501    0  0.00000000000E+00  0.00000000000E+00  0.12549857014E+04  0.12549857014E+04  0.25500000920E-02 0.  1.
       -2   -1    0    0    0  501  0.00000000000E+00  0.00000000000E+00 -0.45098822791E+03  0.45098822791E+03  0.25500000920E-02 0. -1.
    10030    2    1    2    0    0  0.00000000000E+00  0.00000000000E+00  0.80399747348E+03  0.17059739293E+04  0.15046378668E+04 0.  0.
        3    1    3    3  502    0  0.62676991861E+03  0.41086006670E+03  0.47666892250E+03  0.88817779592E+03  0.10100000352E+00 0.  1.
       -3    1    3    3    0  502 -0.62676991861E+03 -0.41086006670E+03  0.32732855098E+03  0.81779613338E+03  0.10100000352E+00 0. -1.
</event>
<event>
 5   0  0.2641347E-04  0.1494553E+04  0.7818609E-02  0.8888083E-01
        2   -1    0    0  501    0  0.00000000000E+00  0.00000000000E+00  0.13552327568E+04  0.13552327568E+04  0.25500000920E-02 0.  1.
       -2   -1    0    0    0  501  0.00000000000E+00  0.00000000000E+00 -0.41204909459E+03  0.41204909460E+03  0.25500000920E-02 0. -1.
    10030    2    1    2    0    0  0.00000000000E+00  0.00000000000E+00  0.94318366221E+03  0.17672818514E+04  0.14945533519E+04 0.  0.
        4    1    3    3  502    0 -0.15498078714E+03 -0.56948688365E+03  0.10135845208E+04  0.11728979276E+04  0.12699999809E+01 0.  1.
       -4    1    3    3    0  502  0.15498078714E+03  0.56948688365E+03 -0.70400858557E+02  0.59438392376E+03  0.12699999809E+01 0. -1.
</event>
<event>
 5   0  0.1484251E-04  0.1497889E+04  0.7818609E-02  0.8885858E-01
       -1   -1    0    0    0  501  0.00000000000E+00  0.00000000000E+00  0.76870652400E+03  0.76870652401E+03  0.50400001928E-02 0.  1.
        1   -1    0    0  501    0  0.00000000000E+00  0.00000000000E+00 -0.72969095425E+03  0.72969095427E+03  0.50400001928E-02 0. -1.
    10030    2    1    2    0    0  0.00000000000E+00  0.00000000000E+00  0.39015569746E+02  0.14983974783E+04  0.14978894446E+04 0.  0.
        5    1    3    3  502    0 -0.31808275815E+03  0.93604478925E+02  0.69126936368E+03  0.76669019992E+03  0.46999998093E+01 0.  1.
       -5    1    3    3    0  502  0.31808275815E+03 -0.93604478925E+02 -0.65225379393E+03  0.73170727836E+03  0.46999998093E+01 0. -1.
</event>
<event>
 5   0  0.2646718E-04  0.1500452E+04  0.7818609E-02  0.8884153E-01
       -2   -1    0    0    0  501  0.00000000000E+00  0.00000000000E+00  0.33810253572E+03  0.33810253573E+03  0.25500000920E-02 0.  1.
        2   -1    0    0  501    0  0.00000000000E+00  0.00000000000E+00 -0.16646984486E+04  0.16646984486E+04  0.25500000920E-02 0. -1.
    10030    2    1    2    0    0  0.00000000000E+00  0.00000000000E+00 -0.13265959129E+04  0.20028009843E+04  0.15004516209E+04 0.  0.
        3    1    3    3  502    0  0.70895716187E+03  0.10840063230E+02 -0.33606531362E+03  0.78465130444E+03  0.10100000352E+00 0.  1.
       -3    1    3    3    0  502 -0.70895716187E+03 -0.10840063230E+02 -0.99053059928E+03  0.12181496799E+04  0.10100000352E+00 0. -1.
</event>
<event>
 5   0  0.2641347E-04  0.1536452E+04  0.7818609E-02  0.8860568E-01
        2   -1    0    0  501    0  0.00000000000E+00  0.00000000000E+00  0.15253281991E+04  0.15253281991E+04  0.25500000920E-02 0. -1.
       -2   -1    0    0    0  501  0.00000000000E+00  0.00000000000E+00 -0.38691398925E+03  0.38691398925E+03  0.25500000920E-02 0.  1.
    10030    2    1    2    0    0  0.00000000000E+00  0.00000000000E+00  0.11384142098E+04  0.19122421883E+04  0.15364515201E+04 0.  0.
        4    1    3    3  502    0 -0.52657281109E+03 -0.44059794802E+02  0.12632217363E+04  0.13692884864E+04  0.12699999809E+01 0. -1.
       -4    1    3    3    0  502  0.52657281109E+03  0.44059794802E+02 -0.12480752650E+03  0.54295370195E+03  0.12699999809E+01 0.  1.
</event>
<event>
 5   0  0.2618901E-04  0.1498105E+04  0.7818609E-02  0.8885714E-01
        2   -1    0    0  501    0  0.00000000000E+00  0.00000000000E+00  0.12859837259E+04  0.12859837259E+04  0.25500000920E-02 0. -1.
       -2   -1    0    0    0  501  0.00000000000E+00  0.00000000000E+00 -0.43630385315E+03  0.43630385316E+03  0.25500000920E-02 0.  1.
    10030    2    1    2    0    0  0.00000000000E+00  0.00000000000E+00  0.84967987277E+03  0.17222875791E+04  0.14981050093E+04 0.  0.
        1    1    3    3  502    0 -0.23970678449E+03 -0.70965199053E+03  0.42048272590E+03  0.85899418683E+03  0.50400001928E-02 0. -1.
       -1    1    3    3    0  502  0.23970678449E+03  0.70965199053E+03  0.42919714686E+03  0.86329339225E+03  0.50400001928E-02 0.  1.
</event>
<event>
 5   0  0.1427609E-04  0.1507256E+04  0.7818609E-02  0.8879642E-01
       -1   -1    0    0    0  501  0.00000000000E+00  0.00000000000E+00  0.70188093400E+03  0.70188093402E+03  0.50400001928E-02 0.  1.
        1   -1    0    0  501    0  0.00000000000E+00  0.00000000000E+00 -0.80919052261E+03  0.80919052262E+03  0.50400001928E-02 0. -1.
    10030    2    1    2    0    0  0.00000000000E+00  0.00000000000E+00 -0.10730958861E+03  0.15110714566E+04  0.15072563151E+04 0.  0.
        4    1    3    3  502    0  0.41509391650E+03 -0.62673435479E+03 -0.10722107700E+03  0.75933976799E+03  0.12699999809E+01 0. -1.
       -4    1    3    3    0  502 -0.41509391650E+03  0.62673435479E+03 -0.88511607460E-01  0.75173168866E+03  0.12699999809E+01 0.  1.
</event>
<event>
 5   0  0.2646718E-04  0.1508606E+04  0.7818609E-02  0.8878750E-01
        2   -1    0    0  501    0  0.00000000000E+00  0.00000000000E+00  0.41720312629E+03  0.41720312629E+03  0.25500000920E-02 0.  1.
       -2   -1    0    0    0  501  0.00000000000E+00  0.00000000000E+00 -0.13637797380E+04  0.13637797380E+04  0.25500000920E-02 0. -1.
    10030    2    1    2    0    0  0.00000000000E+00  0.00000000000E+00 -0.94657661168E+03  0.17809828643E+04  0.15086062048E+04 0.  0.
        3    1    3    3  502    0 -0.35922469335E+03  0.42109078539E+03  0.13169338982E+03  0.56894902142E+03  0.10100000352E+00 0.  1.
       -3    1    3    3    0  502  0.35922469335E+03 -0.42109078539E+03 -0.10782700015E+04  0.12120338428E+04  0.10100000352E+00 0. -1.
</event>
<event>
 5   0  0.2734072E-04  0.1499999E+04  0.7818609E-02  0.8884453E-01
        2   -1    0    0  501    0  0.00000000000E+00  0.00000000000E+00  0.11887097954E+04  0.11887097954E+04  0.25500000920E-02 0. -1.
       -2   -1    0    0    0  501  0.00000000000E+00  0.00000000000E+00 -0.47320174937E+03  0.47320174938E+03  0.25500000920E-02 0.  1.
    10030    2    1    2    0    0  0.00000000000E+00  0.00000000000E+00  0.71550804605E+03  0.16619115448E+04  0.14999994063E+04 0.  0.
        5    1    3    3  502    0 -0.12001133611E+03  0.73769488619E+03  0.28873185905E+03  0.80123944133E+03  0.46999998093E+01 0.  1.
       -5    1    3    3    0  502  0.12001133611E+03 -0.73769488619E+03  0.42677618699E+03  0.86067210347E+03  0.46999998093E+01 0. -1.
</event>
<event>
 5   0  0.1474203E-04  0.1410463E+04  0.7818609E-02  0.8946280E-01
        1   -1    0    0  501    0  0.00000000000E+00  0.00000000000E+00  0.13427142604E+04  0.13427142604E+04  0.50400001928E-02 0. -1.
       -1   -1    0    0    0  501  0.00000000000E+00  0.00000000000E+00 -0.37040727612E+03  0.37040727615E+03  0.50400001928E-02 0.  1.
    10030    2    1    2    0    0  0.00000000000E+00  0.00000000000E+00  0.97230698424E+03  0.17131215365E+04  0.14104625225E+04 0.  0.
        3    1    3    3  502    0  0.44116080923E+03  0.49611153932E+03  0.19719132369E+03  0.69255609693E+03  0.10100000352E+00 0.  1.
       -3    1    3    3    0  502 -0.44116080923E+03 -0.49611153932E+03  0.77511566055E+03  0.10205654396E+04  0.10100000352E+00 0. -1.
</event>
<event>
 5   0  0.1004313E-04  0.1498212E+04  0.7818609E-02  0.8885643E-01
       -3   -1    0    0    0  501  0.00000000000E+00  0.00000000000E+00  0.88135695704E+03  0.88135696282E+03  0.10100000352E+00 0. -1.
        3   -1    0    0  501    0  0.00000000000E+00  0.00000000000E+00 -0.63669967777E+03  0.63669968578E+03  0.10100000352E+00 0.  1.
    10030    2    1    2    0    0  0.00000000000E+00  0.00000000000E+00  0.24465727926E+03  0.15180566486E+04  0.14982118689E+04 0.  0.
        5    1    3    3  502    0 -0.46110029147E+03 -0.30069828394E+03  0.63709798873E+03  0.84199101777E+03  0.46999998093E+01 0. -1.
       -5    1    3    3    0  502  0.46110029147E+03  0.30069828394E+03 -0.39244070947E+03  0.67606563084E+03  0.46999998093E+01 0.  1.
</event>
<event>
 5   0  0.1427609E-04  0.1506547E+04  0.7818609E-02  0.8880111E-01
       -1   -1    0    0    0  501  0.00000000000E+00  0.00000000000E+00  0.83083680658E+03  0.83083680659E+03  0.50400001928E-02 0.  1.
        1   -1    0    0  501    0  0.00000000000E+00  0.00000000000E+00 -0.68295126651E+03  0.68295126652E+03  0.50400001928E-02 0. -1.
    10030    2    1    2    0    0  0.00000000000E+00  0.00000000000E+00  0.14788554007E+03  0.15137880731E+04  0.15065471109E+04 0.  0.
        4    1    3    3  502    0  0.11644718640E+03 -0.63238240220E+03 -0.32031023382E+03  0.71837852740E+03  0.12699999809E+01 0. -1.
       -4    1    3    3    0  502 -0.11644718640E+03  0.63238240220E+03  0.46819577389E+03  0.79540954572E+03  0.12699999809E+01 0.  1.
</event>
<event>
 5   0  0.2641347E-04  0.1494222E+04  0.7818609E-02  0.8888305E-01
       -2   -1    0    0    0  501  0.00000000000E+00  0.00000000000E+00  0.48639154958E+03  0.48639154958E+03  0.25500000920E-02 0. -1.
        2   -1    0    0  501    0  0.00000000000E+00  0.00000000000E+00 -0.11475828907E+04  0.11475828907E+04  0.25500000920E-02 0.  1.
    10030    2    1    2    0    0  0.00000000000E+00  0.00000000000E+00 -0.66119134117E+03  0.16339744403E+04  0.14942216977E+04 0.  0.
        4    1    3    3  502    0  0.37423758937E+03 -0.61794870366E+03 -0.53882214175E+03  0.90124651843E+03  0.12699999809E+01 0.  1.
       -4    1    3    3    0  502 -0.37423758937E+03  0.61794870366E+03 -0.12236919942E+03  0.73272792189E+03  0.12699999809E+01 0. -1.
</event>
<event>
 5   0  0.1474203E-04  0.1495468E+04  0.7818609E-02  0.8887472E-01
        1   -1    0    0  501    0  0.00000000000E+00  0.00000000000E+00  0.14518291514E+04  0.14518291514E+04  0.50400001928E-02 0. -1.
       -1   -1    0    0    0  501  0.00000000000E+00  0.00000000000E+00 -0.38510474426E+03  0.38510474429E+03  0.50400001928E-02 0.  1.
    10030    2    1    2    0    0  0.00000000000E+00  0.00000000000E+00  0.10667244072E+04  0.18369338957E+04  0.14954682131E+04 0.  0.
        3    1    3    3  502    0  0.40195978080E+03  0.41700474435E+02 -0.23941067470E+03  0.46971063040E+03  0.10100000352E+00 0.  1.
       -3    1    3    3    0  502 -0.40195978080E+03 -0.41700474435E+02  0.13061350819E+04  0.13672232653E+04  0.10100000352E+00 0. -1.
</event>
<event>
 5   0  0.2734072E-04  0.1499042E+04  0.7818609E-02  0.8885091E-01
        2   -1    0    0  501    0  0.00000000000E+00  0.00000000000E+00  0.69289856518E+03  0.69289856518E+03  0.25500000920E-02 0.  1.
       -2   -1    0    0    0  501  0.00000000000E+00  0.00000000000E+00 -0.81077004652E+03  0.81077004652E+03  0.25500000920E-02 0. -1.
    10030    2    1    2    0    0  0.00000000000E+00  0.00000000000E+00 -0.11787148134E+03  0.15036686117E+04  0.14990415630E+04 0.  0.
        5    1    3    3  502    0  0.66950718386E+02  0.25635122997E+03 -0.76221393440E+03  0.80696376845E+03  0.46999998093E+01 0. -1.
       -5    1    3    3    0  502 -0.66950718386E+02 -0.25635122997E+03  0.64434245306E+03  0.69670484325E+03  0.46999998093E+01 0.  1.
</event>
<event>
 5   0  0.2696040E-04  0.1505046E+04  0.7818609E-02  0.8881104E-01
       -2   -1    0    0    0  501  0.00000000000E+00  0.00000000000E+00  0.41776512803E+03  0.41776512803E+03  0.25500000920E-02 0.  1.
        2   -1    0    0  501    0  0.00000000000E+00  0.00000000000E+00 -0.13555241044E+04  0.13555241044E+04  0.25500000920E-02 0. -1.
    10030    2    1    2    0    0  0.00000000000E+00  0.00000000000E+00 -0.93775897637E+03  0.17732892324E+04  0.15050457814E+04 0.  0.
        2    1    3    3  502    0 -0.70326195739E+03 -0.26342555074E+03 -0.52563419588E+03  0.91665790205E+03  0.25500000920E-02 0.  1.
       -2    1    3    3    0  502  0.70326195739E+03  0.26342555074E+03 -0.41212478049E+03  0.85663133038E+03  0.25500000920E-02 0. -1.
</event>
<event>
 5   0  0.2734072E-04  0.1499463E+04  0.7818609E-02  0.8884810E-01
        2   -1    0    0  501    0  0.00000000000E+00  0.00000000000E+00  0.16272834851E+04  0.16272834851E+04  0.25500000920E-02 0.  1.
       -2   -1    0    0    0  501  0.00000000000E+00  0.00000000000E+00 -0.34542042154E+03  0.34542042155E+03  0.25500000920E-02 0. -1.
    10030    2    1    2    0    0  0.00000000000E+00  0.00000000000E+00  0.12818630635E+04  0.19727039066E+04  0.14994625002E+04 0.  0.
        5    1    3    3  502    0 -0.89571933840E+02  0.45124596912E+03  0.14197319789E+04  0.14924165095E+04  0.46999998093E+01 0.  1.
       -5    1    3    3    0  502  0.89571933840E+02 -0.45124596912E+03 -0.13786891537E+03  0.48028739709E+03  0.46999998093E+01 0. -1.
</event>
<event>
 5   0  0.1484251E-04  0.1504649E+04  0.7818609E-02  0.8881367E-01
       -1   -1    0    0    0  501  0.00000000000E+00  0.00000000000E+00  0.61158860811E+03  0.61158860813E+03  0.50400001928E-02 0.  1.
        1   -1    0    0  501    0  0.00000000000E+00  0.00000000000E+00 -0.92544617874E+03  0.92544617876E+03  0.50400001928E-02 0. -1.
    10030    2    1    2    0    0  0.00000000000E+00  0.00000000000E+00 -0.31385757064E+03  0.15370347869E+04  0.15046492486E+04 0.  0.
        5    1    3    3  502    0  0.19304165213E+03 -0.72437046752E+03 -0.22147579773E+03  0.78169768622E+03  0.46999998093E+01 0.  1.
       -5    1    3    3    0  502 -0.19304165213E+03  0.72437046752E+03 -0.92381772911E+02  0.75533710066E+03  0.46999998093E+01 0. -1.
</event>
<event>
 5   0  0.1427609E-04  0.1494185E+04  0.7818609E-02  0.8888329E-01
        1   -1    0    0  501    0  0.00000000000E+00  0.00000000000E+00  0.82385928952E+03  0.82385928954E+03  0.50400001928E-02 0.  1.
       -1   -1    0    0    0  501  0.00000000000E+00  0.00000000000E+00 -0.67747879394E+03  0.67747879396E+03  0.50400001928E-02 0. -1.
    10030    2    1    2    0    0  0.00000000000E+00  0.00000000000E+00  0.14638049558E+03  0.15013380835E+04  0.14941849924E+04 0.  0.
        4    1    3    3  502    0  0.23481497051E+03 -0.49932963692E+03  0.57926543486E+03  0.80001138342E+03  0.12699999809E+01 0.  1.
       -4    1    3    3    0  502 -0.23481497051E+03  0.49932963692E+03 -0.43288493928E+03  0.70132670008E+03  0.12699999809E+01 0. -1.
</event>
<event>
 5   0  0.2646718E-04  0.1480259E+04  0.7818609E-02  0.8897687E-01
        2   -1    0    0  501    0  0.00000000000E+00  0.00000000000E+00  0.16557650120E+04  0.16557650120E+04  0.25500000920E-02 0. -1.
       -2   -1    0    0    0  501  0.00000000000E+00  0.00000000000E+00 -0.33083920075E+03  0.33083920075E+03  0.25500000920E-02 0.  1.
    10030    2    1    2    0    0  0.00000000000E+00  0.00000000000E+00  0.13249258112E+04  0.19866042127E+04  0.14802594005E+04 0.  0.
        3    1    3    3  502    0  0.51067453880E+03  0.42477281738E+03  0.11005839647E+04  0.12854981542E+04  0.10100000352E+00 0. -1.
       -3    1    3    3    0  502 -0.51067453880E+03 -0.42477281738E+03  0.22434184652E+03  0.70110605850E+03  0.10100000352E+00 0.  1.
</event>
<event>
 5   0  0.1443750E-04  0.1509474E+04  0.7818609E-02  0.8878177E-01
       -1   -1    0    0    0  501  0.00000000000E+00  0.00000000000E+00  0.31941714967E+03  0.31941714971E+03  0.50400001928E-02 0. -1.
        1   -1    0    0  501    0  0.00000000000E+00  0.00000000000E+00 -0.17833359021E+04  0.17833359021E+04  0.50400001928E-02 0.  1.
    10030    2    1    2    0    0  0.00000000000E+00  0.00000000000E+00 -0.14639187524E+04  0.21027530518E+04  0.15094741744E+04 0.  0.
        2    1    3    3  502    0  0.29430854393E+03 -0.63185372320E+03 -0.32876864992E+03  0.77067857875E+03  0.25500000920E-02 0. -1.
       -2    1    3    3    0  502 -0.29430854393E+03  0.63185372320E+03 -0.11351501025E+04  0.13320744731E+04  0.25500000920E-02 0.  1.
</event>
<event>
 5   0  0.2641347E-04  0.1488841E+04  0.7818609E-02  0.8891907E-01
        2   -1    0    0  501    0  0.00000000000E+00  0.00000000000E+00  0.11001747586E+04  0.11001747586E+04  0.25500000920E-02 0. -1.
       -2   -1    0    0    0  501  0.00000000000E+00  0.00000000000E+00 -0.50370378346E+03  0.50370378347E+03  0.25500000920E-02 0.  1.
    10030    2    1    2    0    0  0.00000000000E+00  0.00000000000E+00  0.59647097517E+03  0.16038785421E+04  0.14888414132E+04 0.  0.
        4    1    3    3  502    0  0.37394442770E+03  0.61188603123E+03  0.82993425780E+02  0.72189228549E+03  0.12699999809E+01 0.  1.
       -4    1    3    3    0  502 -0.37394442770E+03 -0.61188603123E+03  0.51347754939E+03  0.88198625661E+03  0.12699999809E+01 0. -1.
</event>
<event>
 5   0  0.1427609E-04  0.1499422E+04  0.7818609E-02  0.8884838E-01
       -1   -1    0    0    0  501  0.00000000000E+00  0.00000000000E+00  0.57639426990E+03  0.57639426992E+03  0.50400001928E-02 0.  1.
        1   -1    0    0  501    0  0.00000000000E+00  0.00000000000E+00 -0.97514197742E+03  0.97514197744E+03  0.50400001928E-02 0. -1.
    10030    2    1    2    0    0  0.00000000000E+00  0.00000000000E+00 -0.39874770753E+03  0.15515362474E+04  0.14994215527E+04 0.  0.
        4    1    3    3  502    0  0.10576833538E+03 -0.27284844779E+03  0.51485661658E+03  0.59220956153E+03  0.12699999809E+01 0.  1.
       -4    1    3    3    0  502 -0.10576833538E+03  0.27284844779E+03 -0.91360432410E+03  0.95932668583E+03  0.12699999809E+01 0. -1.
</event>
<event>
 5   0  0.1426929E-04  0.1494219E+04  0.7818609E-02  0.8888306E-01
       -1   -1    0    0    0  501  0.00000000000E+00  0.00000000000E+00  0.21659131922E+03  0.21659131927E+03  0.50400001928E-02 0. -1.
        1   -1    0    0  501    0  0.00000000000E+00  0.00000000000E+00 -0.25770777421E+04  0.25770777421E+04  0.50400001928E-02 0.  1.
    10030    2    1    2    0    0  0.00000000000E+00  0.00000000000E+00 -0.23604864229E+04  0.27936690614E+04  0.14942190843E+04 0.  0.
        1    1    3    3  502    0 -0.54170828811E+03 -0.40433626597E+03 -0.58536196869E+03  0.89419478851E+03  0.50400001928E-02 0. -1.
       -1    1    3    3    0  502  0.54170828811E+03  0.40433626597E+03 -0.17751244542E+04  0.18994742729E+04  0.50400001928E-02 0.  1.
</event>
<event>
 5   0  0.1484251E-04  0.1495113E+04  0.7818609E-02  0.8887710E-01
        1   -1    0    0  501    0  0.00000000000E+00  0.00000000000E+00  0.14082275215E+04  0.14082275215E+04  0.50400001928E-02 0.  1.
       -1   -1    0    0    0  501  0.00000000000E+00  0.00000000000E+00 -0.39683954296E+03  0.39683954300E+03  0.50400001928E-02 0. -1.
    10030    2    1    2    0    0  0.00000000000E+00  0.00000000000E+00  0.10113879786E+04  0.18050670645E+04  0.14951125256E+04 0.  0.
        5    1    3    3  502    0  0.56896538861E+03 -0.48387774885E+03  0.46830654500E+03  0.88158516284E+03  0.46999998093E+01 0. -1.
       -5    1    3    3    0  502 -0.56896538861E+03  0.48387774885E+03  0.54308143356E+03  0.92348190168E+03  0.46999998093E+01 0.  1.
</event>
<event>
 5   0  0.1474203E-04  0.1497060E+04  0.7818609E-02  0.8886410E-01
        1   -1    0    0  501    0  0.00000000000E+00  0.00000000000E+00  0.18965714353E+04  0.18965714353E+04  0.50400001928E-02 0. -1.
       -1   -1    0    0    0  501  0.00000000000E+00  0.00000000000E+00 -0.29542645741E+03  0.29542645745E+03  0.50400001928E-02 0.  1.
    10030    2    1    2    0    0  0.00000000000E+00  0.00000000000E+00  0.16011449778E+04  0.21919978927E+04  0.14970602932E+04 0.  0.
        3    1    3    3  502    0 -0.10253199527E+03  0.71587435984E+03  0.51775614202E+03  0.88941573065E+03  0.10100000352E+00 0.  1.
       -3    1    3    3    0  502  0.10253199527E+03 -0.71587435984E+03  0.10833888358E+04  0.13025821621E+04  0.10100000352E+00 0. -1.
</event>
<event>
 5   0  0.2696040E-04  0.1495612E+04  0.7818609E-02  0.8887376E-01
       -2   -1    0    0    0  501  0.00000000000E+00  0.00000000000E+00  0.53148275965E+03  0.53148275966E+03  0.25500000920E-02 0. -1.
        2   -1    0    0  501    0  0.00000000000E+00  0.00000000000E+00 -0.10521773128E+04  0.10521773128E+04  0.25500000920E-02 0.  1.
    10030    2    1    2    0    0  0.00000000000E+00  0.00000000000E+00 -0.52069455317E+03  0.15836600725E+04  0.14956123854E+04 0.  0.
        2    1    3    3  502    0  0.62180150261E+02 -0.59552452539E+03  0.21402000762E+03  0.63586193085E+03  0.25500000920E-02 0. -1.
       -2    1    3    3    0  502 -0.62180150261E+02  0.59552452539E+03 -0.73471456079E+03  0.94779814163E+03  0.25500000920E-02 0.  1.
</event>
<event>
 5   0  0.1427609E-04  0.1501603E+04  0.7818609E-02  0.8883388E-01
       -1   -1    0    0    0  501  0.00000000000E+00  0.00000000000E+00  0.53212379379E+03  0.53212379381E+03  0.50400001928E-02 0.  1.
        1   -1    0    0  501    0  0.00000000000E+00  0.00000000000E+00 -0.10593451886E+04  0.10593451886E+04  0.50400001928E-02 0. -1.
    10030    2    1    2    0    0  0.00000000000E+00  0.00000000000E+00 -0.52722139483E+03  0.15914689824E+04  0.15016028513E+04 0.  0.
        4    1    3    3  502    0  0.22429163053E+03  0.48712501203E+03 -0.82051320356E+03  0.98022499610E+03  0.12699999809E+01 0. -1.
       -4    1    3    3    0  502 -0.22429163053E+03 -0.48712501203E+03  0.29329180873E+03  0.61124398634E+03  0.12699999809E+01 0.  1.
</event>
<event>
 5   0  0.2646718E-04  0.1497641E+04  0.7818609E-02  0.8886023E-01
        2   -1    0    0  501    0  0.00000000000E+00  0.00000000000E+00  0.80838902192E+03  0.80838902193E+03  0.25500000920E-02 0. -1.
       -2   -1    0    0    0  501  0.00000000000E+00  0.00000000000E+00 -0.69364163117E+03  0.69364163117E+03  0.25500000920E-02 0.  1.
    10030    2    1    2    0    0  0.00000000000E+00  0.00000000000E+00  0.11474739076E+03  0.15020306531E+04  0.14976411850E+04 0.  0.
        3    1    3    3  502    0 -0.73056498545E+03  0.16070498414E+03  0.22907588031E+02  0.74838229381E+03  0.10100000352E+00 0. -1.
       -3    1    3    3    0  502  0.73056498545E+03 -0.16070498414E+03  0.91839802725E+02  0.75364835929E+03  0.10100000352E+00 0.  1.
</event>
<event>
 5   0  0.1004313E-04  0.1499155E+04  0.7818609E-02  0.8885015E-01
        3   -1    0    0  501    0  0.00000000000E+00  0.00000000000E+00  0.31435209150E+03  0.31435210773E+03  0.10100000352E+00 0. -1.
       -3   -1    0    0    0  501  0.00000000000E+00  0.00000000000E+00 -0.17873804034E+04  0.17873804062E+04  0.10100000352E+00 0.  1.
    10030    2    1    2    0    0  0.00000000000E+00  0.00000000000E+00 -0.14730283119E+04  0.21017325140E+04  0.14991554798E+04 0.  0.
        5    1    3    3  502    0  0.15551478803E+03 -0.57598041333E+03 -0.13726731946E+04  0.14967271211E+04  0.46999998093E+01 0.  1.
       -5    1    3    3    0  502 -0.15551478803E+03  0.57598041333E+03 -0.10035511727E+03  0.60500539286E+03  0.46999998093E+01 0. -1.
</event>
<event>
 5   0  0.2641347E-04  0.1501552E+04  0.7818609E-02  0.8883422E-01
        2   -1    0    0  501    0  0.00000000000E+00  0.00000000000E+00  0.13425058030E+04  0.13425058030E+04  0.25500000920E-02 0.  1.
       -2   -1    0    0    0  501  0.00000000000E+00  0.00000000000E+00 -0.41986002870E+03  0.41986002871E+03  0.25500000920E-02 0. -1.
    10030    2    1    2    0    0  0.00000000000E+00  0.00000000000E+00  0.92264577429E+03  0.17623658317E+04  0.15015518972E+04 0.  0.
        4    1    3    3  502    0  0.12204157198E+03 -0.24850621268E+03 -0.35775685627E+03  0.45237270490E+03  0.12699999809E+01 0. -1.
       -4    1    3    3    0  502 -0.12204157198E+03  0.24850621268E+03  0.12804026306E+04  0.13099931268E+04  0.12699999809E+01 0.  1.
</event>
<event>
 5   0  0.1426929E-04  0.1460229E+04  0.7818609E-02  0.8911339E-01
       -1   -1    0    0    0  501  0.00000000000E+00  0.00000000000E+00  0.80502000315E+03  0.80502000316E+03  0.50400001928E-02 0. -1.
        1   -1    0    0  501    0  0.00000000000E+00  0.00000000000E+00 -0.66217903754E+03  0.66217903755E+03  0.50400001928E-02 0.  1.
    10030    2    1    2    0    0  0.00000000000E+00  0.00000000000E+00  0.14284096561E+03  0.14671990407E+04  0.14602292572E+04 0.  0.
        1    1    3    3  502    0 -0.19595629829E+03  0.67554701858E+03 -0.12522961517E+03  0.71445440841E+03  0.50400001928E-02 0. -1.
       -1    1    3    3    0  502  0.19595629829E+03 -0.67554701858E+03  0.26807058079E+03  0.75274463231E+03  0.50400001928E-02 0.  1.
</event>
<event>
 5   0  0.2734072E-04  0.1502276E+04  0.7818609E-02  0.8882941E-01
        2   -1    0    0  501    0  0.00000000000E+00  0.00000000000E+00  0.97475880692E+03  0.97475880692E+03  0.25500000920E-02 0.  1.
       -2   -1    0    0    0  501  0.00000000000E+00  0.00000000000E+00 -0.57881824185E+03  0.57881824185E+03  0.25500000920E-02 0. -1.
    10030    2    1    2    0    0  0.00000000000E+00  0.00000000000E+00  0.39594056508E+03  0.15535770488E+04  0.15022758453E+04 0.  0.
        5    1    3    3  502    0  0.46506424281E+03  0.20303325173E+03  0.77066742554E+03  0.92274461366E+03  0.46999998093E+01 0.  1.
       -5    1    3    3    0  502 -0.46506424281E+03 -0.20303325173E+03 -0.37472686046E+03  0.63083243512E+03  0.46999998093E+01 0. -1.
</event>
<event>
 5   0  0.1004313E-04  0.1501702E+04  0.7818609E-02  0.8883322E-01
       -3   -1    0    0    0  501  0.00000000000E+00  0.00000000000E+00  0.31750089544E+03  0.31750091150E+03  0.10100000352E+00 0.  1.
        3   -1    0    0  501    0  0.00000000000E+00  0.00000000000E+00 -0.17756717624E+04  0.17756717653E+04  0.10100000352E+00 0. -1.
    10030    2    1    2    0    0  0.00000000000E+00  0.00000000000E+00 -0.14581708670E+04  0.20931726768E+04  0.15017022267E+04 0.  0.
        3    1    3    3  502    0  0.23759457694E+03 -0.46927906896E+01  0.26370012763E+03  0.35498024282E+03  0.10100000352E+00 0.  1.
       -3    1    3    3    0  502 -0.23759457694E+03  0.46927906896E+01 -0.17218709946E+04  0.17381924340E+04  0.10100000352E+00 0. -1.
</event>
<event>
 5   0  0.2618901E-04  0.1502978E+04  0.7818609E-02  0.8882475E-01
        2   -1    0    0  501    0  0.00000000000E+00  0.00000000000E+00  0.79120465252E+03  0.79120465252E+03  0.25500000920E-02 0. -1.
       -2   -1    0    0    0  501  0.00000000000E+00  0.00000000000E+00 -0.71376733396E+03  0.71376733397E+03  0.25500000920E-02 0.  1.
    10030    2    1    2    0    0  0.00000000000E+00  0.00000000000E+00  0.77437318550E+02  0.15049719865E+04  0.15029784236E+04 0.  0.
        1    1    3    3  502    0  0.16423303861E+03  0.73303332587E+03  0.18059094078E+02  0.75142296925E+03  0.50400001928E-02 0.  1.
       -1    1    3    3    0  502 -0.16423303861E+03 -0.73303332587E+03  0.59378224472E+02  0.75354901724E+03  0.50400001928E-02 0. -1.
</event>
<event>
 5   0  0.2646718E-04  0.1498250E+04  0.7818609E-02  0.8885618E-01
        2   -1    0    0  501    0  0.00000000000E+00  0.00000000000E+00  0.79687673446E+03  0.79687673447E+03  0.25500000920E-02 0. -1.
       -2   -1    0    0    0  501  0.00000000000E+00  0.00000000000E+00 -0.70423464296E+03  0.70423464296E+03  0.25500000920E-02 0.  1.
    10030    2    1    2    0    0  0.00000000000E+00  0.00000000000E+00  0.92642091506E+02  0.15011113774E+04  0.14982499158E+04 0.  0.
        3    1    3    3  502    0 -0.37954353737E+02  0.73136564012E+03 -0.11162507959E+03  0.74080793807E+03  0.10100000352E+00 0.  1.
       -3    1    3    3    0  502  0.37954353737E+02 -0.73136564012E+03  0.20426717110E+03  0.76030343936E+03  0.10100000352E+00 0. -1.
</event>
<event>
 5   0  0.1426929E-04  0.1495666E+04  0.7818609E-02  0.8887340E-01
        1   -1    0    0  501    0  0.00000000000E+00  0.00000000000E+00  0.79471737353E+03  0.79471737355E+03  0.50400001928E-02 0.  1.
       -1   -1    0    0    0  501  0.00000000000E+00  0.00000000000E+00 -0.70371469434E+03  0.70371469436E+03  0.50400001928E-02 0. -1.
    10030    2    1    2    0    0  0.00000000000E+00  0.00000000000E+00  0.91002679191E+02  0.14984320679E+04  0.14956661307E+04 0.  0.
        1    1    3    3  502    0 -0.68544724781E+03  0.58163373050E+02  0.33935824973E+03  0.76706253277E+03  0.50400001928E-02 0.  1.
       -1    1    3    3    0  502  0.68544724781E+03 -0.58163373050E+02 -0.24835557053E+03  0.73136953514E+03  0.50400001928E-02 0. -1.
</event>
<event>
 5   0  0.1443750E-04  0.1475279E+04  0.7818609E-02  0.8901061E-01
       -1   -1    0    0    0  501  0.00000000000E+00  0.00000000000E+00  0.93511770512E+03  0.93511770513E+03  0.50400001928E-02 0.  1.
        1   -1    0    0  501    0  0.00000000000E+00  0.00000000000E+00 -0.58186448390E+03  0.58186448392E+03  0.50400001928E-02 0. -1.
    10030    2    1    2    0    0  0.00000000000E+00  0.00000000000E+00  0.35325322122E+03  0.15169821891E+04  0.14752786596E+04 0.  0.
        2    1    3    3  502    0 -0.42848260388E+03  0.38235009103E+03  0.65266355218E+03  0.86934380212E+03  0.25500000920E-02 0.  1.
       -2    1    3    3    0  502  0.42848260388E+03 -0.38235009103E+03 -0.29941033096E+03  0.64763838694E+03  0.25500000920E-02 0. -1.
</event>
<event>
 5   0  0.2618901E-04  0.1516175E+04  0.7818609E-02  0.8873768E-01
        2   -1    0    0  501    0  0.00000000000E+00  0.00000000000E+00  0.52276371073E+03  0.52276371073E+03  0.25500000920E-02 0. -1.
       -2   -1    0    0    0  501  0.00000000000E+00  0.00000000000E+00 -0.10993428664E+04  0.10993428664E+04  0.25500000920E-02 0.  1.
    10030    2    1    2    0    0  0.00000000000E+00  0.00000000000E+00 -0.57657915565E+03  0.16221065771E+04  0.15161748662E+04 0.  0.
        1    1    3    3  502    0 -0.35715213457E+03  0.41894689034E+02 -0.10022880345E+04  0.10648446443E+04  0.50400001928E-02 0.  1.
       -1    1    3    3    0  502  0.35715213457E+03 -0.41894689034E+02  0.42570887890E+03  0.55726193284E+03  0.50400001928E-02 0. -1.
</event>
<event>
 5   0  0.2646718E-04  0.1483951E+04  0.7818609E-02  0.8895196E-01
       -2   -1    0    0    0  501  0.00000000000E+00  0.00000000000E+00  0.98985489325E+03  0.98985489326E+03  0.25500000920E-02 0. -1.
        2   -1    0    0  501    0  0.00000000000E+00  0.00000000000E+00 -0.55617039953E+03  0.55617039953E+03  0.25500000920E-02 0.  1.
    10030    2    1    2    0    0  0.00000000000E+00  0.00000000000E+00  0.43368449373E+03  0.15460252928E+04  0.14839514702E+04 0.  0.
        3    1    3    3  502    0 -0.58223583553E+02 -0.49656585601E+03  0.78800876014E+03  0.93323386742E+03  0.10100000352E+00 0. -1.
       -3    1    3    3    0  502  0.58223583553E+02  0.49656585601E+03 -0.35432426642E+03  0.61279142537E+03  0.10100000352E+00 0.  1.
</event>
<event>
 5   0  0.1484251E-04  0.1494627E+04  0.7818609E-02  0.8888034E-01
       -1   -1    0    0    0  501  0.00000000000E+00  0.00000000000E+00  0.85036957754E+03  0.85036957755E+03  0.50400001928E-02 0.  1.
        1   -1    0    0  501    0  0.00000000000E+00  0.00000000000E+00 -0.65674699421E+03  0.65674699423E+03  0.50400001928E-02 0. -1.
    10030    2    1    2    0    0  0.00000000000E+00  0.00000000000E+00  0.19362258333E+03  0.15071165718E+04  0.14946272633E+04 0.  0.
        5    1    3    3  502    0  0.42002683683E+03 -0.13515485627E+03  0.70498146086E+03  0.83169124619E+03  0.46999998093E+01 0.  1.
       -5    1    3    3    0  502 -0.42002683683E+03  0.13515485627E+03 -0.51135887753E+03  0.67542532560E+03  0.46999998093E+01 0. -1.
</event>
<event>
 5   0  0.2646718E-04  0.1500549E+04  0.7818609E-02  0.8884088E-01
       -2   -1    0    0    0  501  0.00000000000E+00  0.00000000000E+00  0.74046767065E+03  0.74046767065E+03  0.25500000920E-02 0.  1.
        2   -1    0    0  501    0  0.00000000000E+00  0.00000000000E+00 -0.76021121944E+03  0.76021121944E+03  0.25500000920E-02 0. -1.
    10030    2    1    2    0    0  0.00000000000E+00  0.00000000000E+00 -0.19743548789E+02  0.15006788901E+04  0.15005490074E+04 0.  0.
        3    1    3    3  502    0  0.20670460273E+03 -0.71830449586E+03 -0.74867238198E+02  0.75119455211E+03  0.10100000352E+00 0. -1.
       -3    1    3    3    0  502 -0.20670460273E+03  0.71830449586E+03  0.55123689409E+02  0.74948433799E+03  0.10100000352E+00 0.  1.
</event>
<event>
 5   0  0.1443750E-04  0.1498199E+04  0.7818609E-02  0.8885651E-01
        1   -1    0    0  501    0  0.00000000000E+00  0.00000000000E+00  0.22199171441E+04  0.22199171441E+04  0.50400001928E-02 0. -1.
       -1   -1    0    0    0  501  0.00000000000E+00  0.00000000000E+00 -0.25277983936E+03  0.25277983941E+03  0.50400001928E-02 0.  1.
    10030    2    1    2    0    0  0.00000000000E+00  0.00000000000E+00  0.19671373048E+04  0.24726969836E+04  0.14981993181E+04 0.  0.
        2    1    3    3  502    0 -0.90156793554E+02 -0.21214981381E+03 -0.19278894494E+03  0.30050518835E+03  0.25500000920E-02 0.  1.
       -2    1    3    3    0  502  0.90156793554E+02  0.21214981381E+03  0.21599262497E+04  0.21721917952E+04  0.25500000920E-02 0. -1.
</event>
<event>
 5   0  0.1427609E-04  0.1483223E+04  0.7818609E-02  0.8895687E-01
        1   -1    0    0  501    0  0.00000000000E+00  0.00000000000E+00  0.11490923304E+04  0.11490923304E+04  0.50400001928E-02 0.  1.
       -1   -1    0    0    0  501  0.00000000000E+00  0.00000000000E+00 -0.47862791145E+03  0.47862791148E+03  0.50400001928E-02 0. -1.
    10030    2    1    2    0    0  0.00000000000E+00  0.00000000000E+00  0.67046441892E+03  0.16277202419E+04  0.14832230610E+04 0.  0.
        4    1    3    3  502    0  0.61072395478E+02  0.52416861882E+03  0.90705437775E+03  0.10493959384E+04  0.12699999809E+01 0.  1.
       -4    1    3    3    0  502 -0.61072395478E+02 -0.52416861882E+03 -0.23658995883E+03  0.57832430345E+03  0.12699999809E+01 0. -1.
</event>
<event>
 5   0  0.2646718E-04  0.1493395E+04  0.7818609E-02  0.8888857E-01
       -2   -1    0    0    0  501  0.00000000000E+00  0.00000000000E+00  0.48678185941E+03  0.48678185942E+03  0.25500000920E-02 0. -1.
        2   -1    0    0  501    0  0.00000000000E+00  0.00000000000E+00 -0.11453938186E+04  0.11453938186E+04  0.25500000920E-02 0.  1.
    10030    2    1    2    0    0  0.00000000000E+00  0.00000000000E+00 -0.65861195918E+03  0.16321756780E+04  0.14933947004E+04 0.  0.
        3    1    3    3  502    0  0.19296138035E+03 -0.71522742949E+03 -0.43167187300E+03  0.85739430039E+03  0.10100000352E+00 0.  1.
       -3    1    3    3    0  502 -0.19296138035E+03  0.71522742949E+03 -0.22694008617E+03  0.77478137762E+03  0.10100000352E+00 0. -1.
</event>
<event>
 5   0  0.1474203E-04  0.1499246E+04  0.7818609E-02  0.8884955E-01
       -1   -1    0    0    0  501  0.00000000000E+00  0.00000000000E+00  0.49586835195E+03  0.49586835198E+03  0.50400001928E-02 0. -1.
        1   -1    0    0  501    0  0.00000000000E+00  0.00000000000E+00 -0.11332329995E+04  0.11332329995E+04  0.50400001928E-02 0.  1.
    10030    2    1    2    0    0  0.00000000000E+00  0.00000000000E+00 -0.63736464757E+03  0.16291013515E+04  0.14992456502E+04 0.  0.
        3    1    3    3  502    0 -0.64862336023E+03  0.76695272905E+02 -0.71843216370E+03  0.97094758476E+03  0.10100000352E+00 0.  1.
       -3    1    3    3    0  502  0.64862336023E+03 -0.76695272905E+02  0.81067516123E+02  0.65815376675E+03  0.10100000352E+00 0. -1.
</event>
<event>
 5   0  0.1426929E-04  0.1498675E+04  0.7818609E-02  0.8885335E-01
       -1   -1    0    0    0  501  0.00000000000E+00  0.00000000000E+00  0.11730424172E+04  0.11730424172E+04  0.50400001928E-02 0.  1.
        1   -1    0    0  501    0  0.00000000000E+00  0.00000000000E+00 -0.47867524661E+03  0.47867524664E+03  0.50400001928E-02 0. -1.
    10030    2    1    2    0    0  0.00000000000E+00  0.00000000000E+00  0.69436717057E+03  0.16517176638E+04  0.14986745722E+04 0.  0.
        1    1    3    3  502    0  0.15353324123E+03 -0.46924877819E+03  0.96843025820E+03  0.10870253157E+04  0.50400001928E-02 0.  1.
       -1    1    3    3    0  502 -0.15353324123E+03  0.46924877819E+03 -0.27406308762E+03  0.56469234811E+03  0.50400001928E-02 0. -1.
</event>
<event>
 5   0  0.1427609E-04  0.1497992E+04  0.7818609E-02  0.8885789E-01
       -1   -1    0    0    0  501  0.00000000000E+00  0.00000000000E+00  0.43938051218E+03  0.43938051221E+03  0.50400001928E-02 0. -1.
        1   -1    0    0  501    0  0.00000000000E+00  0.00000000000E+00 -0.12767870704E+04  0.12767870705E+04  0.50400001928E-02 0.  1.
    10030    2    1    2    0    0  0.00000000000E+00  0.00000000000E+00 -0.83740655826E+03  0.17161675827E+04  0.14979924659E+04 0.  0.
        4    1    3    3  502    0 -0.51019265860E+03 -0.43288658194E+03 -0.80433903114E+03  0.10462553377E+04  0.12699999809E+01 0.  1.
       -4    1    3    3    0  502  0.51019265860E+03  0.43288658194E+03 -0.33067527124E+02  0.66991224498E+03  0.12699999809E+01 0. -1.
</event>
<event>
 5   0  0.2696040E-04  0.1500960E+04  0.7818609E-02  0.8883815E-01
       -2   -1    0    0    0  501  0.00000000000E+00  0.00000000000E+00  0.56906762619E+03  0.56906762620E+03  0.25500000920E-02 0. -1.
        2   -1    0    0  501    0  0.00000000000E+00  0.00000000000E+00 -0.98972421902E+03  0.98972421902E+03  0.25500000920E-02 0.  1.
    10030    2    1    2    0    0  0.00000000000E+00  0.00000000000E+00 -0.42065659283E+03  0.15587918452E+04  0.15009597089E+04 0.  0.
        2    1    3    3  502    0 -0.62327973209E+03  0.17254583113E+03  0.18509171559E+03  0.67268761804E+03  0.25500000920E-02 0. -1.
       -2    1    3    3    0  502  0.62327973209E+03 -0.17254583113E+03 -0.60574830842E+03  0.88610422718E+03  0.25500000920E-02 0.  1.
</event>
<event>
 5   0  0.2696040E-04  0.1500332E+04  0.7818609E-02  0.8884232E-01
       -2   -1    0    0    0  501  0.00000000000E+00  0.00000000000E+00  0.69969405289E+03  0.69969405290E+03  0.25500000920E-02 0.  1.
        2   -1    0    0  501    0  0.00000000000E+00  0.00000000000E+00 -0.80427872638E+03  0.80427872638E+03  0.25500000920E-02 0. -1.
    10030    2    1    2    0    0  0.00000000000E+00  0.00000000000E+00 -0.10458467349E+03  0.15039727793E+04  0.15003320189E+04 0.  0.
        2    1    3    3  502    0  0.14950409099E+03  0.34446525697E+03  0.59869964793E+03  0.70671709681E+03  0.25500000920E-02 0.  1.
       -2    1    3    3    0  502 -0.14950409099E+03 -0.34446525697E+03 -0.70328432142E+03  0.79725568248E+03  0.25500000920E-02 0. -1.
</event>
<event>
 5   0  0.2696040E-04  0.1497300E+04  0.7818609E-02  0.8886250E-01
        2   -1    0    0  501    0  0.00000000000E+00  0.00000000000E+00  0.12507935604E+04  0.12507935604E+04  0.25500000920E-02 0.  1.
       -2   -1    0    0    0  501  0.00000000000E+00  0.00000000000E+00 -0.44809719318E+03  0.44809719319E+03  0.25500000920E-02 0. -1.
    10030    2    1    2    0    0  0.00000000000E+00  0.00000000000E+00  0.80269636720E+03  0.16988907536E+04  0.14973003489E+04 0.  0.
        2    1    3    3  502    0 -0.61249985396E+03 -0.28398486039E+03  0.76844036229E+03  0.10228900539E+04  0.25500000920E-02 0.  1.
       -2    1    3    3    0  502  0.61249985396E+03  0.28398486039E+03  0.34256004902E+02  0.67600069964E+03  0.25500000920E-02 0. -1.
</event>
<event>
 5   0  0.1443750E-04  0.1491239E+04  0.7818609E-02  0.8890300E-01
        1   -1    0    0  501    0  0.00000000000E+00  0.00000000000E+00  0.78207107648E+03  0.78207107649E+03  0.50400001928E-02 0.  1.
       -1   -1    0    0    0  501  0.00000000000E+00  0.00000000000E+00 -0.71086718079E+03  0.71086718081E+03  0.50400001928E-02 0. -1.
    10030    2    1    2    0    0  0.00000000000E+00  0.00000000000E+00  0.71203895685E+02  0.14929382573E+04  0.14912392985E+04 0.  0.
        2    1    3    3  502    0 -0.74196544665E+03  0.73680217811E+02  0.38281340411E+02  0.74659691906E+03  0.25500000920E-02 0. -1.
       -2    1    3    3    0  502  0.74196544665E+03 -0.73680217811E+02  0.32922555274E+02  0.74634133824E+03  0.25500000920E-02 0.  1.
</event>
<event>
 5   0  0.1427609E-04  0.1501636E+04  0.7818609E-02  0.8883365E-01
       -1   -1    0    0    0  501  0.00000000000E+00  0.00000000000E+00  0.14643652208E+04  0.14643652208E+04  0.50400001928E-02 0. -1.
        1   -1    0    0  501    0  0.00000000000E+00  0.00000000000E+00 -0.38496409698E+03  0.38496409701E+03  0.50400001928E-02 0.  1.
    10030    2    1    2    0    0  0.00000000000E+00  0.00000000000E+00  0.10794011239E+04  0.18493293179E+04  0.15016364872E+04 0.  0.
        4    1    3    3  502    0  0.14369519893E+03 -0.22374000933E+03  0.14044316232E+04  0.14293836781E+04  0.12699999809E+01 0. -1.
       -4    1    3    3    0  502 -0.14369519893E+03  0.22374000933E+03 -0.32503049935E+03  0.41994563979E+03  0.12699999809E+01 0.  1.
</event>
<event>
 5   0  0.1474203E-04  0.1498171E+04  0.7818609E-02  0.8885670E-01
       -1   -1    0    0    0  501  0.00000000000E+00  0.00000000000E+00  0.82360535439E+03  0.82360535441E+03  0.50400001928E-02 0. -1.
        1   -1    0    0  501    0  0.00000000000E+00  0.00000000000E+00 -0.68130826244E+03  0.68130826246E+03  0.50400001928E-02 0.  1.
    10030    2    1    2    0    0  0.00000000000E+00  0.00000000000E+00  0.14229709195E+03  0.15049136169E+04  0.14981710623E+04 0.  0.
        3    1    3    3  502    0  0.58688164096E+02  0.53572867999E+03 -0.45146171621E+03  0.70304140033E+03  0.10100000352E+00 0.  1.
       -3    1    3    3    0  502 -0.58688164096E+02 -0.53572867999E+03  0.59375880817E+03  0.80187221653E+03  0.10100000352E+00 0. -1.
</event>
<event>
 5   0  0.2734072E-04  0.1498386E+04  0.7818609E-02  0.8885527E-01
       -2   -1    0    0    0  501  0.00000000000E+00  0.00000000000E+00  0.63325998013E+03  0.63325998013E+03  0.25500000920E-02 0. -1.
        2   -1    0    0  501    0  0.00000000000E+00  0.00000000000E+00 -0.88635075123E+03  0.88635075123E+03  0.25500000920E-02 0.  1.
    10030    2    1    2    0    0  0.00000000000E+00  0.00000000000E+00 -0.25309077110E+03  0.15196107314E+04  0.14983864109E+04 0.  0.
        5    1    3    3  502    0 -0.56999380379E+03  0.20177104602E+03  0.32205935055E+03  0.68509036385E+03  0.46999998093E+01 0. -1.
       -5    1    3    3    0  502  0.56999380379E+03 -0.20177104602E+03 -0.57515012165E+03  0.83452036752E+03  0.46999998093E+01 0.  1.
</event>
<event>
 5   0  0.1427609E-04  0.1503875E+04  0.7818609E-02  0.8881880E-01
        1   -1    0    0  501    0  0.00000000000E+00  0.00000000000E+00  0.99059837497E+03  0.99059837498E+03  0.50400001928E-02 0. -1.
       -1   -1    0    0    0  501  0.00000000000E+00  0.00000000000E+00 -0.57077612730E+03  0.57077612732E+03  0.50400001928E-02 0.  1.
    10030    2    1    2    0    0  0.00000000000E+00  0.00000000000E+00  0.41982224767E+03  0.15613745023E+04  0.15038748674E+04 0.  0.
        4    1    3    3  502    0 -0.54374127695E+03  0.46605228412E+03 -0.28089196293E+02  0.71669374466E+03  0.12699999809E+01 0. -1.
       -4    1    3    3    0  502  0.54374127695E+03 -0.46605228412E+03  0.44791144397E+03  0.84468075764E+03  0.12699999809E+01 0.  1.
</event>
<event>
 5   0  0.2734072E-04  0.1506990E+04  0.7818609E-02  0.8879818E-01
       -2   -1    0    0    0  501  0.00000000000E+00  0.00000000000E+00  0.63783598392E+03  0.63783598392E+03  0.25500000920E-02 0. -1.
        2   -1    0    0  501    0  0.00000000000E+00  0.00000000000E+00 -0.89012649072E+03  0.89012649073E+03  0.25500000920E-02 0.  1.
    10030    2    1    2    0    0  0.00000000000E+00  0.00000000000E+00 -0.25229050681E+03  0.15279624746E+04  0.15069899881E+04 0.  0.
        5    1    3    3  502    0 -0.92932790997E+01 -0.10385320522E+02 -0.88998094155E+03  0.89010245828E+03  0.46999998093E+01 0.  1.
       -5    1    3    3    0  502  0.92932790997E+01  0.10385320522E+02  0.63769043474E+03  0.63786001637E+03  0.46999998093E+01 0. -1.
</event>
<event>
 5   0  0.1427609E-04  0.1505185E+04  0.7818609E-02  0.8881012E-01
        1   -1    0    0  501    0  0.00000000000E+00  0.00000000000E+00  0.11332559569E+04  0.11332559569E+04  0.50400001928E-02 0. -1.
       -1   -1    0    0    0  501  0.00000000000E+00  0.00000000000E+00 -0.49979503894E+03  0.49979503896E+03  0.50400001928E-02 0.  1.
    10030    2    1    2    0    0  0.00000000000E+00  0.00000000000E+00  0.63346091793E+03  0.16330509958E+04  0.15051853110E+04 0.  0.
        4    1    3    3  502    0  0.53758688820E+03  0.51822268526E+03  0.21472392141E+03  0.77695713473E+03  0.12699999809E+01 0. -1.
       -4    1    3    3    0  502 -0.53758688820E+03 -0.51822268526E+03  0.41873699652E+03  0.85609386111E+03  0.12699999809E+01 0.  1.
</event>
<event>
 5   0  0.1484251E-04  0.1505136E+04  0.7818609E-02  0.8881045E-01
       -1   -1    0    0    0  501  0.00000000000E+00  0.00000000000E+00  0.24556004909E+03  0.24556004915E+03  0.50400001928E-02 0.  1.
        1   -1    0    0  501    0  0.00000000000E+00  0.00000000000E+00 -0.23063959802E+04  0.23063959802E+04  0.50400001928E-02 0. -1.
    10030    2    1    2    0    0  0.00000000000E+00  0.00000000000E+00 -0.20608359311E+04  0.25519560293E+04  0.15051361536E+04 0.  0.
        5    1    3    3  502    0 -0.26546037594E+02 -0.75198181617E+03 -0.10515455521E+04  0.12930396290E+04  0.46999998093E+01 0.  1.
       -5    1    3    3    0  502  0.26546037594E+02  0.75198181617E+03 -0.10092903789E+04  0.12589164003E+04  0.46999998093E+01 0. -1.
</event>
<event>
 5   0  0.1474203E-04  0.1499896E+04  0.7818609E-02  0.8884522E-01
        1   -1    0    0  501    0  0.00000000000E+00  0.00000000000E+00  0.10997716057E+04  0.10997716057E+04  0.50400001928E-02 0.  1.
       -1   -1    0    0    0  501  0.00000000000E+00  0.00000000000E+00 -0.51139867793E+03  0.51139867796E+03  0.50400001928E-02 0. -1.
    10030    2    1    2    0    0  0.00000000000E+00  0.00000000000E+00  0.58837292774E+03  0.16111702836E+04  0.14998956566E+04 0.  0.
        3    1    3    3  502    0 -0.56528485452E+03  0.31967059508E+03  0.69709366752E+03  0.95272023575E+03  0.10100000352E+00 0.  1.
       -3    1    3    3    0  502  0.56528485452E+03 -0.31967059508E+03 -0.10872073978E+03  0.65845004789E+03  0.10100000352E+00 0. -1.
</event>
<event>
 5   0  0.1426929E-04  0.1503378E+04  0.7818609E-02  0.8882209E-01
       -1   -1    0    0    0  501  0.00000000000E+00  0.00000000000E+00  0.69887334354E+03  0.69887334356E+03  0.50400001928E-02 0. -1.
        1   -1    0    0  501    0  0.00000000000E+00  0.00000000000E+00 -0.80849655231E+03  0.80849655233E+03  0.50400001928E-02 0.  1.
    10030    2    1    2    0    0  0.00000000000E+00  0.00000000000E+00 -0.10962320877E+03  0.15073698959E+04  0.15033784471E+04 0.  0.
        1    1    3    3  502    0  0.35842490638E+02  0.73438345704E+03  0.10191380235E+03  0.74228712049E+03  0.50400001928E-02 0. -1.
       -1    1    3    3    0  502 -0.35842490638E+02 -0.73438345704E+03 -0.21153701112E+03  0.76508277540E+03  0.50400001928E-02 0.  1.
</event>
<event>
 5   0  0.2641347E-04  0.1502815E+04  0.7818609E-02  0.8882583E-01
        2   -1    0    0  501    0  0.00000000000E+00  0.00000000000E+00  0.11737334109E+04  0.11737334109E+04  0.25500000920E-02 0.  1.
       -2   -1    0    0    0  501  0.00000000000E+00  0.00000000000E+00 -0.48104028633E+03  0.48104028633E+03  0.25500000920E-02 0. -1.
    10030    2    1    2    0    0  0.00000000000E+00  0.00000000000E+00  0.69269312455E+03  0.16547736972E+04  0.15028147671E+04 0.  0.
        4    1    3    3  502    0  0.24548511964E+03 -0.39778301510E+02  0.11271040999E+04  0.11542142445E+04  0.12699999809E+01 0.  1.
       -4    1    3    3    0  502 -0.24548511964E+03  0.39778301510E+02 -0.43441097540E+03  0.50055945269E+03  0.12699999809E+01 0. -1.
</event>
<event>
 5   0  0.2696040E-04  0.1496757E+04  0.7818609E-02  0.8886612E-01
        2   -1    0    0  501    0  0.00000000000E+00  0.00000000000E+00  0.11340392219E+04  0.11340392219E+04  0.25500000920E-02 0.  1.
       -2   -1    0    0    0  501  0.00000000000E+00  0.00000000000E+00 -0.49387220311E+03  0.49387220311E+03  0.25500000920E-02 0. -1.
    10030    2    1    2    0    0  0.00000000000E+00  0.00000000000E+00  0.64016701877E+03  0.16279114250E+04  0.14967570931E+04 0.  0.
        2    1    3    3  502    0 -0.35568411947E+03 -0.56105287159E+03 -0.54759273104E+02  0.66655089496E+03  0.25500000920E-02 0. -1.
       -2    1    3    3    0  502  0.35568411947E+03  0.56105287159E+03  0.69492629187E+03  0.96136053004E+03  0.25500000920E-02 0.  1.
</event>
<event>
 5   0  0.1474203E-04  0.1499520E+04  0.7818609E-02  0.8884772E-01
        1   -1    0    0  501    0  0.00000000000E+00  0.00000000000E+00  0.13524970170E+04  0.13524970170E+04  0.50400001928E-02 0. -1.
       -1   -1    0    0    0  501  0.00000000000E+00  0.00000000000E+00 -0.41563153218E+03  0.41563153221E+03  0.50400001928E-02 0.  1.
    10030    2    1    2    0    0  0.00000000000E+00  0.00000000000E+00  0.93686548482E+03  0.17681285492E+04  0.14995204666E+04 0.  0.
        3    1    3    3  502    0  0.71182520558E+03 -0.25625662755E+02  0.74443112563E+03  0.10303055415E+04  0.10100000352E+00 0. -1.
       -3    1    3    3    0  502 -0.71182520558E+03  0.25625662755E+02  0.19243435919E+03  0.73782300770E+03  0.10100000352E+00 0.  1.
</event>
<event>
 5   0  0.2646718E-04  0.1493478E+04  0.7818609E-02  0.8888801E-01
       -2   -1    0    0    0  501  0.00000000000E+00  0.00000000000E+00  0.46907838216E+03  0.46907838216E+03  0.25500000920E-02 0. -1.
        2   -1    0    0  501    0  0.00000000000E+00  0.00000000000E+00 -0.11887550304E+04  0.11887550304E+04  0.25500000920E-02 0.  1.
    10030    2    1    2    0    0  0.00000000000E+00  0.00000000000E+00 -0.71967664824E+03  0.16578334126E+04  0.14934782040E+04 0.  0.
        3    1    3    3  502    0 -0.51336576995E+03 -0.14062538595E+03  0.22153406112E+03  0.57653903889E+03  0.10100000352E+00 0. -1.
       -3    1    3    3    0  502  0.51336576995E+03  0.14062538595E+03 -0.94121070936E+03  0.10812943737E+04  0.10100000352E+00 0.  1.
</event>
<event>
 5   0  0.1426929E-04  0.1507658E+04  0.7818609E-02  0.8879376E-01
        1   -1    0    0  501    0  0.00000000000E+00  0.00000000000E+00  0.17056361693E+04  0.17056361693E+04  0.50400001928E-02 0.  1.
       -1   -1    0    0    0  501  0.00000000000E+00  0.00000000000E+00 -0.33316502529E+03  0.33316502533E+03  0.50400001928E-02 0. -1.
    10030    2    1    2    0    0  0.00000000000E+00  0.00000000000E+00  0.13724711440E+04  0.20388011947E+04  0.15076582073E+04 0.  0.
        1    1    3    3  502    0  0.24276921543E+03  0.51657101525E+03  0.20339897072E+02  0.57113590081E+03  0.50400001928E-02 0. -1.
       -1    1    3    3    0  502 -0.24276921543E+03 -0.51657101525E+03  0.13521312470E+04  0.14676652939E+04  0.50400001928E-02 0.  1.
</event>
<event>
 5   0  0.1427609E-04  0.1497753E+04  0.7818609E-02  0.8885949E-01
        1   -1    0    0  501    0  0.00000000000E+00  0.00000000000E+00  0.56217394404E+03  0.56217394406E+03  0.50400001928E-02 0. -1.
       -1   -1    0    0    0  501  0.00000000000E+00  0.00000000000E+00 -0.99758398999E+03  0.99758399001E+03  0.50400001928E-02 0.  1.
    10030    2    1    2    0    0  0.00000000000E+00  0.00000000000E+00 -0.43541004595E+03  0.15597579341E+04  0.14977526180E+04 0.  0.
        4    1    3    3  502    0 -0.62576003286E+03  0.10794728222E+03 -0.63111006116E+03  0.89528194255E+03  0.12699999809E+01 0.  1.
       -4    1    3    3    0  502  0.62576003286E+03 -0.10794728222E+03  0.19570001521E+03  0.66447599152E+03  0.12699999809E+01 0. -1.
</event>
<event>
 5   0  0.1484251E-04  0.1495988E+04  0.7818609E-02  0.8887125E-01
        1   -1    0    0  501    0  0.00000000000E+00  0.00000000000E+00  0.17729403291E+04  0.17729403291E+04  0.50400001928E-02 0. -1.
       -1   -1    0    0    0  501  0.00000000000E+00  0.00000000000E+00 -0.31557471933E+03  0.31557471937E+03  0.50400001928E-02 0.  1.
    10030    2    1    2    0    0  0.00000000000E+00  0.00000000000E+00  0.14573656097E+04  0.20885150484E+04  0.14959881641E+04 0.  0.
        5    1    3    3  502    0  0.21023878186E+03  0.86554724067E+02 -0.26614444053E+03  0.35006716339E+03  0.46999998093E+01 0.  1.
       -5    1    3    3    0  502 -0.21023878186E+03 -0.86554724067E+02  0.17235100503E+04  0.17384478851E+04  0.46999998093E+01 0. -1.
</event>
<event>
 5   0  0.2646718E-04  0.1499834E+04  0.7818609E-02  0.8884564E-01
        2   -1    0    0  501    0  0.00000000000E+00  0.00000000000E+00  0.87522359221E+03  0.87522359222E+03  0.25500000920E-02 0. -1.
       -2   -1    0    0    0  501  0.00000000000E+00  0.00000000000E+00 -0.64255039635E+03  0.64255039636E+03  0.25500000920E-02 0.  1.
    10030    2    1    2    0    0  0.00000000000E+00  0.00000000000E+00  0.23267319586E+03  0.15177739886E+04  0.14998336789E+04 0.  0.
        3    1    3    3  502    0  0.19784081899E+03 -0.70727663898E+03  0.26978821770E+03  0.78241097022E+03  0.10100000352E+00 0. -1.
       -3    1    3    3    0  502 -0.19784081899E+03  0.70727663898E+03 -0.37115021835E+02  0.73536301835E+03  0.10100000352E+00 0.  1.
</event>
<event>
 5   0  0.1426929E-04  0.1504334E+04  0.7818609E-02  0.8881576E-01
        1   -1    0    0  501    0  0.00000000000E+00  0.00000000000E+00  0.90814281398E+03  0.90814281400E+03  0.50400001928E-02 0. -1.
       -1   -1    0    0    0  501  0.00000000000E+00  0.00000000000E+00 -0.62298020135E+03  0.62298020137E+03  0.50400001928E-02 0.  1.
    10030    2    1    2    0    0  0.00000000000E+00  0.00000000000E+00  0.28516261263E+03  0.15311230154E+04  0.15043337304E+04 0.  0.
        1    1    3    3  502    0  0.46726707632E+03 -0.52986552109E+03  0.40536311355E+03  0.81450306623E+03  0.50400001928E-02 0.  1.
       -1    1    3    3    0  502 -0.46726707632E+03  0.52986552109E+03 -0.12020050092E+03  0.71661994914E+03  0.50400001928E-02 0. -1.
</event>
<event>
 5   0  0.2618901E-04  0.1500793E+04  0.7818609E-02  0.8883926E-01
        2   -1    0    0  501    0  0.00000000000E+00  0.00000000000E+00  0.52987562219E+03  0.52987562219E+03  0.25500000920E-02 0. -1.
       -2   -1    0    0    0  501  0.00000000000E+00  0.00000000000E+00 -0.10626922740E+04  0.10626922740E+04  0.25500000920E-02 0.  1.
    10030    2    1    2    0    0  0.00000000000E+00  0.00000000000E+00 -0.53281665179E+03  0.15925678962E+04  0.15007927637E+04 0.  0.
        1    1    3    3  502    0  0.74918374609E+03 -0.17540743381E+02 -0.22516288582E+03  0.78248468883E+03  0.50400001928E-02 0. -1.
       -1    1    3    3    0  502 -0.74918374609E+03  0.17540743381E+02 -0.30765376598E+03  0.81008320735E+03  0.50400001928E-02 0.  1.
</event>
<event>
 5   0  0.1427609E-04  0.1499394E+04  0.7818609E-02  0.8884856E-01
        1   -1    0    0  501    0  0.00000000000E+00  0.00000000000E+00  0.10652782929E+04  0.10652782929E+04  0.50400001928E-02 0.  1.
       -1   -1    0    0    0  501  0.00000000000E+00  0.00000000000E+00 -0.52760416580E+03  0.52760416583E+03  0.50400001928E-02 0. -1.
    10030    2    1    2    0    0  0.00000000000E+00  0.00000000000E+00  0.53767412707E+03  0.15928824587E+04  0.14993935642E+04 0.  0.
        4    1    3    3  502    0  0.16048809465E+02 -0.72209445039E+03  0.55397810811E+02  0.72439525807E+03  0.12699999809E+01 0.  1.
       -4    1    3    3    0  502 -0.16048809465E+02  0.72209445039E+03  0.48227631626E+03  0.86848720065E+03  0.12699999809E+01 0. -1.
</event>
<event>
 5   0  0.1484251E-04  0.1495068E+04  0.7818609E-02  0.8887739E-01
        1   -1    0    0  501    0  0.00000000000E+00  0.00000000000E+00  0.14543096780E+04  0.14543096780E+04  0.50400001928E-02 0.  1.
       -1   -1    0    0    0  501  0.00000000000E+00  0.00000000000E+00 -0.38424209965E+03  0.38424209968E+03  0.50400001928E-02 0. -1.
    10030    2    1    2    0    0  0.00000000000E+00  0.00000000000E+00  0.10700675783E+04  0.18385517777E+04  0.14950678971E+04 0.  0.
        5    1    3    3  502    0  0.51754099395E+03  0.72060018400E+02  0.11923936703E+04  0.13018702246E+04  0.46999998093E+01 0.  1.
       -5    1    3    3    0  502 -0.51754099395E+03 -0.72060018400E+02 -0.12232609195E+03  0.53668155311E+03  0.46999998093E+01 0. -1.
</event>
<event>
 5   0  0.1443750E-04  0.1458401E+04  0.7818609E-02  0.8912597E-01
        1   -1    0    0  501    0  0.00000000000E+00  0.00000000000E+00  0.40178491368E+03  0.40178491372E+03  0.50400001928E-02 0. -1.
       -1   -1    0    0    0  501  0.00000000000E+00  0.00000000000E+00 -0.13234275814E+04  0.13234275814E+04  0.50400001928E-02 0.  1.
    10030    2    1    2    0    0  0.00000000000E+00  0.00000000000E+00 -0.92164266769E+03  0.17252124951E+04  0.14584008181E+04 0.  0.
        2    1    3    3  502    0  0.20176733974E+03 -0.51542164899E+03 -0.10223962212E+04  0.11626106695E+04  0.25500000920E-02 0.  1.
       -2    1    3    3    0  502 -0.20176733974E+03  0.51542164899E+03  0.10075355353E+03  0.56260182562E+03  0.25500000920E-02 0. -1.
</event>
<event>
 5   0  0.1443750E-04  0.1491080E+04  0.7818609E-02  0.8890406E-01
       -1   -1    0    0    0  501  0.00000000000E+00  0.00000000000E+00  0.29530314991E+03  0.29530314995E+03  0.50400001928E-02 0.  1.
        1   -1    0    0  501    0  0.00000000000E+00  0.00000000000E+00 -0.18822346759E+04  0.18822346759E+04  0.50400001928E-02 0. -1.
    10030    2    1    2    0    0  0.00000000000E+00  0.00000000000E+00 -0.15869315260E+04  0.21775378258E+04  0.14910799156E+04 0.  0.
        2    1    3    3  502    0 -0.68202653472E+03  0.22153091321E+02 -0.35491770276E+03  0.76916677597E+03  0.25500000920E-02 0.  1.
       -2    1    3    3    0  502  0.68202653472E+03 -0.22153091321E+02 -0.12320138232E+04  0.14083710499E+04  0.25500000920E-02 0. -1.
</event>
<event>
 5   0  0.1484251E-04  0.1501318E+04  0.7818609E-02  0.8883577E-01
       -1   -1    0    0    0  501  0.00000000000E+00  0.00000000000E+00  0.10531781015E+04  0.10531781015E+04  0.50400001928E-02 0. -1.
        1   -1    0    0  501    0  0.00000000000E+00  0.00000000000E+00 -0.53503647075E+03  0.53503647077E+03  0.50400001928E-02 0.  1.
    10030    2    1    2    0    0  0.00000000000E+00  0.00000000000E+00  0.51814163074E+03  0.15882145723E+04  0.15013176806E+04 0.  0.
        5    1    3    3  502    0  0.19630299891E+03 -0.72389985635E+03  0.29082018623E+03  0.80446525104E+03  0.46999998093E+01 0. -1.
       -5    1    3    3    0  502 -0.19630299891E+03  0.72389985635E+03  0.22732144451E+03  0.78374932124E+03  0.46999998093E+01 0.  1.
</event>
<event>
 5   0  0.2696040E-04  0.1502378E+04  0.7818609E-02  0.8882873E-01
       -2   -1    0    0    0  501  0.00000000000E+00  0.00000000000E+00  0.52930681219E+03  0.52930681219E+03  0.25500000920E-02 0. -1.
        2   -1    0    0  501    0  0.00000000000E+00  0.00000000000E+00 -0.10660830434E+04  0.10660830434E+04  0.25500000920E-02 0.  1.
    10030    2    1    2    0    0  0.00000000000E+00  0.00000000000E+00 -0.53677623124E+03  0.15953898556E+04  0.15023781378E+04 0.  0.
        2    1    3    3  502    0 -0.36761891348E+03  0.56652257161E+03  0.80903540563E+02  0.68017414870E+03  0.25500000920E-02 0. -1.
       -2    1    3    3    0  502  0.36761891348E+03 -0.56652257161E+03 -0.61767977180E+03  0.91521570692E+03  0.25500000920E-02 0.  1.
</event>
<event>
 5   0  0.1427609E-04  0.1497890E+04  0.7818609E-02  0.8885857E-01
        1   -1    0    0  501    0  0.00000000000E+00  0.00000000000E+00  0.83539821761E+03  0.83539821762E+03  0.50400001928E-02 0. -1.
       -1   -1    0    0    0  501  0.00000000000E+00  0.00000000000E+00 -0.67143830212E+03  0.67143830213E+03  0.50400001928E-02 0.  1.
    10030    2    1    2    0    0  0.00000000000E+00  0.00000000000E+00  0.16395991549E+03  0.15068365198E+04  0.14978896633E+04 0.  0.
        4    1    3    3  502    0  0.22090043996E+03  0.25503258378E+03 -0.59065281520E+03  0.68022862639E+03  0.12699999809E+01 0.  1.
       -4    1    3    3    0  502 -0.22090043996E+03 -0.25503258378E+03  0.75461273069E+03  0.82660789337E+03  0.12699999809E+01 0. -1.
</event>
<event>
 5   0  0.1426929E-04  0.1502258E+04  0.7818609E-02  0.8882953E-01
       -1   -1    0    0    0  501  0.00000000000E+00  0.00000000000E+00  0.26970637674E+03  0.26970637678E+03  0.50400001928E-02 0. -1.
        1   -1    0    0  501    0  0.00000000000E+00  0.00000000000E+00 -0.20918845639E+04  0.20918845639E+04  0.50400001928E-02 0.  1.
    10030    2    1    2    0    0  0.00000000000E+00  0.00000000000E+00 -0.18221781872E+04  0.23615909407E+04  0.15022577760E+04 0.  0.
        1    1    3    3  502    0  0.51740109060E+03  0.13143701792E+03 -0.17417611635E+04  0.18217331113E+04  0.50400001928E-02 0.  1.
       -1    1    3    3    0  502 -0.51740109060E+03 -0.13143701792E+03 -0.80417023696E+02  0.53985782939E+03  0.50400001928E-02 0. -1.
</event>
<event>
 5   0  0.1426929E-04  0.1492919E+04  0.7818609E-02  0.8889175E-01
       -1   -1    0    0    0  501  0.00000000000E+00  0.00000000000E+00  0.47909795979E+03  0.47909795981E+03  0.50400001928E-02 0. -1.
        1   -1    0    0  501    0  0.00000000000E+00  0.00000000000E+00 -0.11630229690E+04  0.11630229690E+04  0.50400001928E-02 0.  1.
    10030    2    1    2    0    0  0.00000000000E+00  0.00000000000E+00 -0.68392500924E+03  0.16421209289E+04  0.14929191963E+04 0.  0.
        1    1    3    3  502    0  0.52477730715E+03  0.45041861763E+02 -0.92376914364E+03  0.10633764254E+04  0.50400001928E-02 0.  1.
       -1    1    3    3    0  502 -0.52477730715E+03 -0.45041861763E+02  0.23984413440E+03  0.57874450342E+03  0.50400001928E-02 0. -1.
</event>
<event>
 5   0  0.2641347E-04  0.1496875E+04  0.7818609E-02  0.8886534E-01
        2   -1    0    0  501    0  0.00000000000E+00  0.00000000000E+00  0.94147212096E+03  0.94147212097E+03  0.25500000920E-02 0.  1.
       -2   -1    0    0    0  501  0.00000000000E+00  0.00000000000E+00 -0.59498156072E+03  0.59498156073E+03  0.25500000920E-02 0. -1.
    10030    2    1    2    0    0  0.00000000000E+00  0.00000000000E+00  0.34649056024E+03  0.15364536817E+04  0.14968748136E+04 0.  0.
        4    1    3    3  502    0 -0.19911541361E+03 -0.18541695013E+03  0.88891138152E+03  0.92961898132E+03  0.12699999809E+01 0.  1.
       -4    1    3    3    0  502  0.19911541361E+03  0.18541695013E+03 -0.54242082127E+03  0.60683470038E+03  0.12699999809E+01 0. -1.
</event>
<event>
 5   0  0.1426929E-04  0.1493519E+04  0.7818609E-02  0.8888774E-01
        1   -1    0    0  501    0  0.00000000000E+00  0.00000000000E+00  0.52724154699E+03  0.52724154701E+03  0.50400001928E-02 0.  1.
       -1   -1    0    0    0  501  0.00000000000E+00  0.00000000000E+00 -0.10576744416E+04  0.10576744416E+04  0.50400001928E-02 0. -1.
    10030    2    1    2    0    0  0.00000000000E+00  0.00000000000E+00 -0.53043289460E+03  0.15849159886E+04  0.14935192116E+04 0.  0.
        1    1    3    3  502    0 -0.53621040393E+03  0.16122140315E+03 -0.78955443066E+03  0.96794118475E+03  0.50400001928E-02 0. -1.
       -1    1    3    3    0  502  0.53621040393E+03 -0.16122140315E+03  0.25912153607E+03  0.61697480386E+03  0.50400001928E-02 0.  1.
</event>
<event>
 5   0  0.2641347E-04  0.1518897E+04  0.7818609E-02  0.8871983E-01
        2   -1    0    0  501    0  0.00000000000E+00  0.00000000000E+00  0.12038446449E+04  0.12038446449E+04  0.25500000920E-02 0. -1.
       -2   -1    0    0    0  501  0.00000000000E+00  0.00000000000E+00 -0.47910022895E+03  0.47910022896E+03  0.25500000920E-02 0.  1.
    10030    2    1    2    0    0  0.00000000000E+00  0.00000000000E+00  0.72474441596E+03  0.16829448739E+04  0.15188972908E+04 0.  0.
        4    1    3    3  502    0  0.56177068554E+03  0.84396374219E+02  0.92084553274E+03  0.10819737331E+04  0.12699999809E+01 0. -1.
       -4    1    3    3    0  502 -0.56177068554E+03 -0.84396374219E+02 -0.19610111678E+03  0.60097114075E+03  0.12699999809E+01 0.  1.
</event>
<event>
 5   0  0.2646718E-04  0.1492987E+04  0.7818609E-02  0.8889130E-01
       -2   -1    0    0    0  501  0.00000000000E+00  0.00000000000E+00  0.24205224586E+03  0.24205224587E+03  0.25500000920E-02 0. -1.
        2   -1    0    0  501    0  0.00000000000E+00  0.00000000000E+00 -0.23022005330E+04  0.23022005330E+04  0.25500000920E-02 0.  1.
    10030    2    1    2    0    0  0.00000000000E+00  0.00000000000E+00 -0.20601482872E+04  0.25442527789E+04  0.14929873535E+04 0.  0.
        3    1    3    3  502    0 -0.21931909425E+03  0.42688538391E+03 -0.55700771123E+02  0.48315068272E+03  0.10100000352E+00 0. -1.
       -3    1    3    3    0  502  0.21931909425E+03 -0.42688538391E+03 -0.20044475161E+04  0.20611020962E+04  0.10100000352E+00 0.  1.
</event>
<event>
 5   0  0.2618901E-04  0.1504555E+04  0.7818609E-02  0.8881430E-01
        2   -1    0    0  501    0  0.00000000000E+00  0.00000000000E+00  0.12716161372E+04  0.12716161372E+04  0.25500000920E-02 0.  1.
       -2   -1    0    0    0  501  0.00000000000E+00  0.00000000000E+00 -0.44504082610E+03  0.44504082611E+03  0.25500000920E-02 0. -1.
    10030    2    1    2    0    0  0.00000000000E+00  0.00000000000E+00  0.82657531106E+03  0.17166569633E+04  0.15045545469E+04 0.  0.
        1    1    3    3  502    0  0.38928085960E+03  0.63725873078E+03  0.30944766118E+03  0.80832922292E+03  0.50400001928E-02 0.  1.
       -1    1    3    3    0  502 -0.38928085960E+03 -0.63725873078E+03  0.51712764988E+03  0.90832774035E+03  0.50400001928E-02 0. -1.
</event>
<event>
 5   0  0.2641347E-04  0.1499332E+04  0.7818609E-02  0.8884897E-01
        2   -1    0    0  501    0  0.00000000000E+00  0.00000000000E+00  0.17894088014E+04  0.17894088014E+04  0.25500000920E-02 0.  1.
       -2   -1    0    0    0  501  0.00000000000E+00  0.00000000000E+00 -0.31406976303E+03  0.31406976304E+03  0.25500000920E-02 0. -1.
    10030    2    1    2    0    0  0.00000000000E+00  0.00000000000E+00  0.14753390384E+04  0.21034785645E+04  0.14993321156E+04 0.  0.
        4    1    3    3  502    0 -0.57462780586E+03 -0.36315311086E+03  0.29419661916E+03  0.74069599758E+03  0.12699999809E+01 0. -1.
       -4    1    3    3    0  502  0.57462780586E+03  0.36315311086E+03  0.11811424192E+04  0.13627825669E+04  0.12699999809E+01 0.  1.
</event>
<event>
 5   0  0.1426929E-04  0.1495881E+04  0.7818609E-02  0.8887197E-01
        1   -1    0    0  501    0  0.00000000000E+00  0.00000000000E+00  0.86608442819E+03  0.86608442821E+03  0.50400001928E-02 0. -1.
       -1   -1    0    0    0  501  0.00000000000E+00  0.00000000000E+00 -0.64591274447E+03  0.64591274448E+03  0.50400001928E-02 0.  1.
    10030    2    1    2    0    0  0.00000000000E+00  0.00000000000E+00  0.22017168373E+03  0.15119971727E+04  0.14958809712E+04 0.  0.
        1    1    3    3  502    0 -0.25165576034E+03  0.54579146634E+03 -0.33990265279E+03  0.69047285236E+03  0.50400001928E-02 0.  1.
       -1    1    3    3    0  502  0.25165576034E+03 -0.54579146634E+03  0.56007433652E+03  0.82152432033E+03  0.50400001928E-02 0. -1.
</event>
<event>
 5   0  0.2646718E-04  0.1502912E+04  0.7818609E-02  0.8882519E-01
       -2   -1    0    0    0  501  0.00000000000E+00  0.00000000000E+00  0.54539123600E+03  0.54539123600E+03  0.25500000920E-02 0.  1.
        2   -1    0    0  501    0  0.00000000000E+00  0.00000000000E+00 -0.10353780711E+04  0.10353780711E+04  0.25500000920E-02 0. -1.
    10030    2    1    2    0    0  0.00000000000E+00  0.00000000000E+00 -0.48998683506E+03  0.15807693071E+04  0.15029120079E+04 0.  0.
        3    1    3    3  502    0  0.44832987850E+03  0.60157868298E+03 -0.28948764753E+03  0.80417641102E+03  0.10100000352E+00 0.  1.
       -3    1    3    3    0  502 -0.44832987850E+03 -0.60157868298E+03 -0.20049918753E+03  0.77659289604E+03  0.10100000352E+00 0. -1.
</event>
<event>
 5   0  0.1426929E-04  0.1494161E+04  0.7818609E-02  0.8888345E-01
       -1   -1    0    0    0  501  0.00000000000E+00  0.00000000000E+00  0.59472454803E+03  0.59472454805E+03  0.50400001928E-02 0.  1.
        1   -1    0    0  501    0  0.00000000000E+00  0.00000000000E+00 -0.93846680980E+03  0.93846680981E+03  0.50400001928E-02 0. -1.
    10030    2    1    2    0    0  0.00000000000E+00  0.00000000000E+00 -0.34374226177E+03  0.15331913579E+04  0.14941609677E+04 0.  0.
        1    1    3    3  502    0  0.51983527975E+03  0.24278318990E+03 -0.66286469559E+03  0.87667667931E+03  0.50400001928E-02 0. -1.
       -1    1    3    3    0  502 -0.51983527975E+03 -0.24278318990E+03  0.31912243382E+03  0.65651467856E+03  0.50400001928E-02 0.  1.
</event>
<event>
 5   0  0.2641347E-04  0.1495718E+04  0.7818609E-02  0.8887305E-01
        2   -1    0    0  501    0  0.00000000000E+00  0.00000000000E+00  0.15523242391E+04  0.15523242391E+04  0.25500000920E-02 0.  1.
       -2   -1    0    0    0  501  0.00000000000E+00  0.00000000000E+00 -0.36029408222E+03  0.36029408223E+03  0.25500000920E-02 0. -1.
    10030    2    1    2    0    0  0.00000000000E+00  0.00000000000E+00  0.11920301568E+04  0.19126183213E+04  0.14957182048E+04 0.  0.
        4    1    3    3  502    0 -0.38875966598E+03 -0.15933633282E+02 -0.22067510622E+03  0.44731093656E+03  0.12699999809E+01 0. -1.
       -4    1    3    3    0  502  0.38875966598E+03  0.15933633282E+02  0.14127052630E+04  0.14653073847E+04  0.12699999809E+01 0.  1.
</event>
<event>
 5   0  0.2696040E-04  0.1463565E+04  0.7818609E-02  0.8909050E-01
       -2   -1    0    0    0  501  0.00000000000E+00  0.00000000000E+00  0.10925392849E+04  0.10925392849E+04  0.25500000920E-02 0.  1.
        2   -1    0    0  501    0  0.00000000000E+00  0.00000000000E+00 -0.49014746756E+03  0.49014746756E+03  0.25500000920E-02 0. -1.
    10030    2    1    2    0    0  0.00000000000E+00  0.00000000000E+00  0.60239181734E+03  0.15826867525E+04  0.14635646398E+04 0.  0.
        2    1    3    3  502    0 -0.25636244687E+03  0.32451441761E+03  0.95405035559E+03  0.10398285399E+04  0.25500000920E-02 0.  1.
       -2    1    3    3    0  502  0.25636244687E+03 -0.32451441761E+03 -0.35165853825E+03  0.54285821255E+03  0.25500000920E-02 0. -1.
</event>
<event>
 5   0  0.2618901E-04  0.1501630E+04  0.7818609E-02  0.8883370E-01
        2   -1    0    0  501    0  0.00000000000E+00  0.00000000000E+00  0.11178510521E+04  0.11178510521E+04  0.25500000920E-02 0.  1.
       -2   -1    0    0    0  501  0.00000000000E+00  0.00000000000E+00 -0.50429156460E+03  0.50429156460E+03  0.25500000920E-02 0. -1.
    10030    2    1    2    0    0  0.00000000000E+00  0.00000000000E+00  0.61355948755E+03  0.16221426167E+04  0.15016295896E+04 0.  0.
        1    1    3    3  502    0 -0.11253245567E+03  0.65629214114E+03  0.68152063930E+03  0.95281336573E+03  0.50400001928E-02 0.  1.
       -1    1    3    3    0  502  0.11253245567E+03 -0.65629214114E+03 -0.67961151754E+02  0.66932925102E+03  0.50400001928E-02 0. -1.
</event>
<event>
 5   0  0.2646718E-04  0.1496834E+04  0.7818609E-02  0.8886561E-01
       -2   -1    0    0    0  501  0.00000000000E+00  0.00000000000E+00  0.53209623197E+03  0.53209623198E+03  0.25500000920E-02 0.  1.
        2   -1    0    0  501    0  0.00000000000E+00  0.00000000000E+00 -0.10526818549E+04  0.10526818549E+04  0.25500000920E-02 0. -1.
    10030    2    1    2    0    0  0.00000000000E+00  0.00000000000E+00 -0.52058562294E+03  0.15847780869E+04  0.14968340569E+04 0.  0.
        3    1    3    3  502    0 -0.41467838419E+03  0.40102435465E+03  0.24453311761E+03  0.62655817858E+03  0.10100000352E+00 0.  1.
       -3    1    3    3    0  502  0.41467838419E+03 -0.40102435465E+03 -0.76511874056E+03  0.95821990831E+03  0.10100000352E+00 0. -1.
</event>
<event>
 5   0  0.2696040E-04  0.1502204E+04  0.7818609E-02  0.8882989E-01
       -2   -1    0    0    0  501  0.00000000000E+00  0.00000000000E+00  0.34582084457E+03  0.34582084458E+03  0.25500000920E-02 0. -1.
        2   -1    0    0  501    0  0.00000000000E+00  0.00000000000E+00 -0.16313473238E+04  0.16313473238E+04  0.25500000920E-02 0.  1.
    10030    2    1    2    0    0  0.00000000000E+00  0.00000000000E+00 -0.12855264792E+04  0.19771681684E+04  0.15022035938E+04 0.  0.
        2    1    3    3  502    0 -0.30324756792E+03 -0.37164629108E+03 -0.14035028999E+04  0.14832061365E+04  0.25500000920E-02 0.  1.
       -2    1    3    3    0  502  0.30324756792E+03  0.37164629108E+03  0.11797642071E+03  0.49396203191E+03  0.25500000920E-02 0. -1.
</event>
<event>
 5   0  0.1443750E-04  0.1496161E+04  0.7818609E-02  0.8887010E-01
        1   -1    0    0  501    0  0.00000000000E+00  0.00000000000E+00  0.74342152412E+03  0.74342152413E+03  0.50400001928E-02 0. -1.
       -1   -1    0    0    0  501  0.00000000000E+00  0.00000000000E+00 -0.75276890448E+03  0.75276890449E+03  0.50400001928E-02 0.  1.
    10030    2    1    2    0    0  0.00000000000E+00  0.00000000000E+00 -0.93473803600E+01  0.14961904286E+04  0.14961612297E+04 0.  0.
        2    1    3    3  502    0 -0.14675626515E+03 -0.65287183368E+02 -0.73532109145E+03  0.75265990009E+03  0.25500000920E-02 0.  1.
       -2    1    3    3    0  502  0.14675626515E+03  0.65287183368E+02  0.72597371109E+03  0.74353052854E+03  0.25500000920E-02 0. -1.
</event>
<event>
 5   0  0.1443750E-04  0.1509271E+04  0.7818609E-02  0.8878311E-01
       -1   -1    0    0    0  501  0.00000000000E+00  0.00000000000E+00  0.49901614042E+03  0.49901614044E+03  0.50400001928E-02 0.  1.
        1   -1    0    0  501    0  0.00000000000E+00  0.00000000000E+00 -0.11411945309E+04  0.11411945310E+04  0.50400001928E-02 0. -1.
    10030    2    1    2    0    0  0.00000000000E+00  0.00000000000E+00 -0.64217839052E+03  0.16402106714E+04  0.15092706720E+04 0.  0.
        2    1    3    3  502    0  0.26655041798E+02  0.54596903649E+03 -0.88649730887E+03  0.10414749919E+04  0.25500000920E-02 0. -1.
       -2    1    3    3    0  502 -0.26655041798E+02 -0.54596903649E+03  0.24431891835E+03  0.59873567952E+03  0.25500000920E-02 0.  1.
</event>
<event>
 5   0  0.1427609E-04  0.1498250E+04  0.7818609E-02  0.8885617E-01
        1   -1    0    0  501    0  0.00000000000E+00  0.00000000000E+00  0.98466138976E+03  0.98466138978E+03  0.50400001928E-02 0. -1.
       -1   -1    0    0    0  501  0.00000000000E+00  0.00000000000E+00 -0.56993050690E+03  0.56993050692E+03  0.50400001928E-02 0.  1.
    10030    2    1    2    0    0  0.00000000000E+00  0.00000000000E+00  0.41473088287E+03  0.15545918967E+04  0.14982503997E+04 0.  0.
        4    1    3    3  502    0 -0.20518844753E+03 -0.41001633482E+03 -0.40734101373E+03  0.61330580315E+03  0.12699999809E+01 0.  1.
       -4    1    3    3    0  502  0.20518844753E+03  0.41001633482E+03  0.82207189660E+03  0.94128609354E+03  0.12699999809E+01 0. -1.
</event>
<event>
 5   0  0.1484251E-04  0.1427059E+04  0.7818609E-02  0.8934462E-01
       -1   -1    0    0    0  501  0.00000000000E+00  0.00000000000E+00  0.29750622879E+03  0.29750622884E+03  0.50400001928E-02 0. -1.
        1   -1    0    0  501    0  0.00000000000E+00  0.00000000000E+00 -0.17113055051E+04  0.17113055051E+04  0.50400001928E-02 0.  1.
    10030    2    1    2    0    0  0.00000000000E+00  0.00000000000E+00 -0.14137992763E+04  0.20088117339E+04  0.14270585793E+04 0.  0.
        5    1    3    3  502    0 -0.59014397332E+03 -0.34642039796E+02 -0.12693152685E+04  0.14002333095E+04  0.46999998093E+01 0.  1.
       -5    1    3    3    0  502  0.59014397332E+03  0.34642039796E+02 -0.14448400778E+03  0.60857842442E+03  0.46999998093E+01 0. -1.
</event>
<event>
 5   0  0.1484251E-04  0.1486179E+04  0.7818609E-02  0.8893696E-01
       -1   -1    0    0    0  501  0.00000000000E+00  0.00000000000E+00  0.67303862754E+03  0.67303862756E+03  0.50400001928E-02 0. -1.
        1   -1    0    0  501    0  0.00000000000E+00  0.00000000000E+00 -0.82043105558E+03  0.82043105559E+03  0.50400001928E-02 0.  1.
    10030    2    1    2    0    0  0.00000000000E+00  0.00000000000E+00 -0.14739242804E+03  0.14934696831E+04  0.14861787129E+04 0.  0.
        5    1    3    3  502    0 -0.35101394248E+03  0.42374068311E+03  0.42814610834E+03  0.69720738265E+03  0.46999998093E+01 0. -1.
       -5    1    3    3    0  502  0.35101394248E+03 -0.42374068311E+03 -0.57553853638E+03  0.79626230050E+03  0.46999998093E+01 0.  1.
</event>
<event>
 5   0  0.2646718E-04  0.1499435E+04  0.7818609E-02  0.8884829E-01
        2   -1    0    0  501    0  0.00000000000E+00  0.00000000000E+00  0.10296810533E+04  0.10296810533E+04  0.25500000920E-02 0. -1.
       -2   -1    0    0    0  501  0.00000000000E+00  0.00000000000E+00 -0.54587389783E+03  0.54587389783E+03  0.25500000920E-02 0.  1.
    10030    2    1    2    0    0  0.00000000000E+00  0.00000000000E+00  0.48380715547E+03  0.15755549511E+04  0.14994345736E+04 0.  0.
        3    1    3    3  502    0 -0.41287010614E+03  0.57788403916E+03 -0.10421022634E+02  0.71029592085E+03  0.10100000352E+00 0. -1.
       -3    1    3    3    0  502  0.41287010614E+03 -0.57788403916E+03  0.49422817810E+03  0.86525903029E+03  0.10100000352E+00 0.  1.
</event>
<event>
 5   0  0.2646718E-04  0.1497370E+04  0.7818609E-02  0.8886204E-01
       -2   -1    0    0    0  501  0.00000000000E+00  0.00000000000E+00  0.10943575543E+04  0.10943575543E+04  0.25500000920E-02 0. -1.
        2   -1    0    0  501    0  0.00000000000E+00  0.00000000000E+00 -0.51219934042E+03  0.51219934043E+03  0.25500000920E-02 0.  1.
    10030    2    1    2    0    0  0.00000000000E+00  0.00000000000E+00  0.58215821388E+03  0.16065568947E+04  0.14973699844E+04 0.  0.
        3    1    3    3  502    0  0.23804694341E+03 -0.55005400594E+03 -0.19030594101E+03  0.62884188641E+03  0.10100000352E+00 0.  1.
       -3    1    3    3    0  502 -0.23804694341E+03  0.55005400594E+03  0.77246415489E+03  0.97771500833E+03  0.10100000352E+00 0. -1.
</event>
<event>
 5   0  0.1484251E-04  0.1498987E+04  0.7818609E-02  0.8885127E-01
       -1   -1    0    0    0  501  0.00000000000E+00  0.00000000000E+00  0.11284777352E+04  0.11284777352E+04  0.50400001928E-02 0. -1.
        1   -1    0    0  501    0  0.00000000000E+00  0.00000000000E+00 -0.49778595420E+03  0.49778595422E+03  0.50400001928E-02 0.  1.
    10030    2    1    2    0    0  0.00000000000E+00  0.00000000000E+00  0.63069178096E+03  0.16262636894E+04  0.14989868128E+04 0.  0.
        5    1    3    3  502    0  0.69535188329E+03 -0.51846911229E+02  0.17211244671E+02  0.69751033020E+03  0.46999998093E+01 0. -1.
       -5    1    3    3    0  502 -0.69535188329E+03  0.51846911229E+02  0.61348053628E+03  0.92875335919E+03  0.46999998093E+01 0.  1.
</event>
<event>
 5   0  0.2618901E-04  0.1499541E+04  0.7818609E-02  0.8884758E-01
        2   -1    0    0  501    0  0.00000000000E+00  0.00000000000E+00  0.10722639744E+04  0.10722639744E+04  0.25500000920E-02 0.  1.
       -2   -1    0    0    0  501  0.00000000000E+00  0.00000000000E+00 -0.52427025981E+03  0.52427025982E+03  0.25500000920E-02 0. -1.
    10030    2    1    2    0    0  0.00000000000E+00  0.00000000000E+00  0.54799371459E+03  0.15965342342E+04  0.14995414132E+04 0.  0.
        1    1    3    3  502    0  0.19243411393E+03 -0.93067177939E+01  0.10454603722E+04  0.10630639177E+04  0.50400001928E-02 0.  1.
       -1    1    3    3    0  502 -0.19243411393E+03  0.93067177939E+01 -0.49746665760E+03  0.53347031656E+03  0.50400001928E-02 0. -1.
</event>
<event>
 5   0  0.1443750E-04  0.1502665E+04  0.7818609E-02  0.8882683E-01
        1   -1    0    0  501    0  0.00000000000E+00  0.00000000000E+00  0.14138445713E+04  0.14138445713E+04  0.50400001928E-02 0.  1.
       -1   -1    0    0    0  501  0.00000000000E+00  0.00000000000E+00 -0.39926619649E+03  0.39926619652E+03  0.50400001928E-02 0. -1.
    10030    2    1    2    0    0  0.00000000000E+00  0.00000000000E+00  0.10145783748E+04  0.18131107678E+04  0.15026647589E+04 0.  0.
        2    1    3    3  502    0 -0.18608574459E+03 -0.48613807093E+03 -0.14643946497E+03  0.54074267933E+03  0.25500000920E-02 0. -1.
       -2    1    3    3    0  502  0.18608574459E+03  0.48613807093E+03  0.11610178398E+04  0.12723680885E+04  0.25500000920E-02 0.  1.
</event>
<event>
 5   0  0.2646718E-04  0.1503619E+04  0.7818609E-02  0.8882050E-01
        2   -1    0    0  501    0  0.00000000000E+00  0.00000000000E+00  0.20771531980E+04  0.20771531980E+04  0.25500000920E-02 0. -1.
       -2   -1    0    0    0  501  0.00000000000E+00  0.00000000000E+00 -0.27211164997E+03  0.27211164998E+03  0.25500000920E-02 0.  1.
    10030    2    1    2    0    0  0.00000000000E+00  0.00000000000E+00  0.18050415481E+04  0.23492648480E+04  0.15036190794E+04 0.  0.
        3    1    3    3  502    0 -0.50320190534E+03  0.35773520922E+03  0.23226653333E+03  0.65964717096E+03  0.10100000352E+00 0.  1.
       -3    1    3    3    0  502  0.50320190534E+03 -0.35773520922E+03  0.15727750147E+04  0.16896176770E+04  0.10100000352E+00 0. -1.
</event>
<event>
 5   0  0.2641347E-04  0.1494733E+04  0.7818609E-02  0.8887963E-01
        2   -1    0    0  501    0  0.00000000000E+00  0.00000000000E+00  0.85003301393E+03  0.85003301393E+03  0.25500000920E-02 0. -1.
       -2   -1    0    0    0  501  0.00000000000E+00  0.00000000000E+00 -0.65709990287E+03  0.65709990288E+03  0.25500000920E-02 0.  1.
    10030    2    1    2    0    0  0.00000000000E+00  0.00000000000E+00  0.19293311106E+03  0.15071329168E+04  0.14947329004E+04 0.  0.
        4    1    3    3  502    0 -0.43950160790E+03 -0.38762545730E+03  0.56414610704E+03  0.81343567753E+03  0.12699999809E+01 0. -1.
       -4    1    3    3    0  502  0.43950160790E+03  0.38762545730E+03 -0.37121299598E+03  0.69369723928E+03  0.12699999809E+01 0.  1.
</event>
<event>
 5   0  0.2734072E-04  0.1505112E+04  0.7818609E-02  0.8881061E-01
       -2   -1    0    0    0  501  0.00000000000E+00  0.00000000000E+00  0.46406150267E+03  0.46406150268E+03  0.25500000920E-02 0. -1.
        2   -1    0    0  501    0  0.00000000000E+00  0.00000000000E+00 -0.12203991893E+04  0.12203991893E+04  0.25500000920E-02 0.  1.
    10030    2    1    2    0    0  0.00000000000E+00  0.00000000000E+00 -0.75633768661E+03  0.16844606920E+04  0.15051116658E+04 0.  0.
        5    1    3    3  502    0  0.14821389408E+03 -0.36333919194E+03 -0.10968189658E+04  0.11649105805E+04  0.46999998093E+01 0.  1.
       -5    1    3    3    0  502 -0.14821389408E+03  0.36333919194E+03  0.34048127922E+03  0.51955011144E+03  0.46999998093E+01 0. -1.
</event>
<event>
 5   0  0.1426929E-04  0.1498949E+04  0.7818609E-02  0.8885152E-01
        1   -1    0    0  501    0  0.00000000000E+00  0.00000000000E+00  0.11496584175E+04  0.11496584175E+04  0.50400001928E-02 0. -1.
       -1   -1    0    0    0  501  0.00000000000E+00  0.00000000000E+00 -0.48859059474E+03  0.48859059477E+03  0.50400001928E-02 0.  1.
    10030    2    1    2    0    0  0.00000000000E+00  0.00000000000E+00  0.66106782278E+03  0.16382490123E+04  0.14989493521E+04 0.  0.
        1    1    3    3  502    0 -0.61293313291E+02  0.44538403649E+03 -0.32485009800E+03  0.55466331807E+03  0.50400001928E-02 0.  1.
       -1    1    3    3    0  502  0.61293313291E+02 -0.44538403649E+03  0.98591792078E+03  0.10835856942E+04  0.50400001928E-02 0. -1.
</event>
<event>
 5   0  0.1474203E-04  0.1514977E+04  0.7818609E-02  0.8874554E-01
        1   -1    0    0  501    0  0.00000000000E+00  0.00000000000E+00  0.10951374904E+04  0.10951374904E+04  0.50400001928E-02 0.  1.
       -1   -1    0    0    0  501  0.00000000000E+00  0.00000000000E+00 -0.52394200650E+03  0.52394200652E+03  0.50400001928E-02 0. -1.
    10030    2    1    2    0    0  0.00000000000E+00  0.00000000000E+00  0.57119548392E+03  0.16190794969E+04  0.15149766126E+04 0.  0.
        3    1    3    3  502    0 -0.33483520943E+03 -0.43552128996E+03  0.84296672211E+03  0.10061740984E+04  0.10100000352E+00 0.  1.
       -3    1    3    3    0  502  0.33483520943E+03  0.43552128996E+03 -0.27177123819E+03  0.61290539856E+03  0.10100000352E+00 0. -1.
</event>
<event>
 5   0  0.1427609E-04  0.1496744E+04  0.7818609E-02  0.8886621E-01
        1   -1    0    0  501    0  0.00000000000E+00  0.00000000000E+00  0.82870000457E+03  0.82870000458E+03  0.50400001928E-02 0. -1.
       -1   -1    0    0    0  501  0.00000000000E+00  0.00000000000E+00 -0.67583039435E+03  0.67583039437E+03  0.50400001928E-02 0.  1.
    10030    2    1    2    0    0  0.00000000000E+00  0.00000000000E+00  0.15286961022E+03  0.15045303990E+04  0.14967440007E+04 0.  0.
        4    1    3    3  502    0  0.57854700985E+03  0.45757771048E+03 -0.50575327249E+02  0.73936018311E+03  0.12699999809E+01 0. -1.
       -4    1    3    3    0  502 -0.57854700985E+03 -0.45757771048E+03  0.20344493747E+03  0.76517021585E+03  0.12699999809E+01 0.  1.
</event>
<event>
 5   0  0.1484251E-04  0.1491016E+04  0.7818609E-02  0.8890449E-01
       -1   -1    0    0    0  501  0.00000000000E+00  0.00000000000E+00  0.92298051497E+03  0.92298051499E+03  0.50400001928E-02 0.  1.
        1   -1    0    0  501    0  0.00000000000E+00  0.00000000000E+00 -0.60216005038E+03  0.60216005040E+03  0.50400001928E-02 0. -1.
    10030    2    1    2    0    0  0.00000000000E+00  0.00000000000E+00  0.32082046460E+03  0.15251405654E+04  0.14910157523E+04 0.  0.
        5    1    3    3  502    0  0.30165963932E+02  0.42425237332E+03  0.78668094065E+03  0.89430926084E+03  0.46999998093E+01 0.  1.
       -5    1    3    3    0  502 -0.30165963932E+02 -0.42425237332E+03 -0.46586047606E+03  0.63083130455E+03  0.46999998093E+01 0. -1.
</event>
<event>
 5   0  0.2646718E-04  0.1496559E+04  0.7818609E-02  0.8886745E-01
       -2   -1    0    0    0  501  0.00000000000E+00  0.00000000000E+00  0.41810218617E+03  0.41810218617E+03  0.25500000920E-02 0. -1.
        2   -1    0    0  501    0  0.00000000000E+00  0.00000000000E+00 -0.13391986438E+04  0.13391986438E+04  0.25500000920E-02 0.  1.
    10030    2    1    2    0    0  0.00000000000E+00  0.00000000000E+00 -0.92109645763E+03  0.17573008300E+04  0.14965585598E+04 0.  0.
        3    1    3    3  502    0  0.39666032561E+02 -0.24655073820E+03  0.36772887536E+03  0.44450556421E+03  0.10100000352E+00 0. -1.
       -3    1    3    3    0  502 -0.39666032561E+02  0.24655073820E+03 -0.12888253330E+04  0.13127952658E+04  0.10100000352E+00 0.  1.
</event>
<event>
 5   0  0.1443750E-04  0.1499210E+04  0.7818609E-02  0.8884978E-01
       -1   -1    0    0    0  501  0.00000000000E+00  0.00000000000E+00  0.72758858759E+03  0.72758858761E+03  0.50400001928E-02 0. -1.
        1   -1    0    0  501    0  0.00000000000E+00  0.00000000000E+00 -0.77228758801E+03  0.77228758803E+03  0.50400001928E-02 0.  1.
    10030    2    1    2    0    0  0.00000000000E+00  0.00000000000E+00 -0.44699000424E+02  0.14998761756E+04  0.14992099725E+04 0.  0.
        2    1    3    3  502    0  0.45603348705E+03  0.57948862553E+03  0.11237298108E+03  0.74592311622E+03  0.25500000920E-02 0.  1.
       -2    1    3    3    0  502 -0.45603348705E+03 -0.57948862553E+03 -0.15707198151E+03  0.75395305942E+03  0.25500000920E-02 0. -1.
</event>
<event>
 5   0  0.1427609E-04  0.1496420E+04  0.7818609E-02  0.8886837E-01
       -1   -1    0    0    0  501  0.00000000000E+00  0.00000000000E+00  0.21500402863E+03  0.21500402869E+03  0.50400001928E-02 0. -1.
        1   -1    0    0  501    0  0.00000000000E+00  0.00000000000E+00 -0.26037568140E+04  0.26037568140E+04  0.50400001928E-02 0.  1.
    10030    2    1    2    0    0  0.00000000000E+00  0.00000000000E+00 -0.23887527853E+04  0.28187608427E+04  0.14964200008E+04 0.  0.
        4    1    3    3  502    0 -0.17959962683E+02  0.12384183607E+03  0.19515040874E+03  0.23182893597E+03  0.12699999809E+01 0. -1.
       -4    1    3    3    0  502  0.17959962683E+02 -0.12384183607E+03 -0.25839031941E+04  0.25869319067E+04  0.12699999809E+01 0.  1.
</event>
<event>
 5   0  0.1474203E-04  0.1492343E+04  0.7818609E-02  0.8889560E-01
       -1   -1    0    0    0  501  0.00000000000E+00  0.00000000000E+00  0.35952420568E+03  0.35952420571E+03  0.50400001928E-02 0.  1.
        1   -1    0    0  501    0  0.00000000000E+00  0.00000000000E+00 -0.15486363059E+04  0.15486363059E+04  0.50400001928E-02 0. -1.
    10030    2    1    2    0    0  0.00000000000E+00  0.00000000000E+00 -0.11891121002E+04  0.19081605116E+04  0.14923434428E+04 0.  0.
        3    1    3    3  502    0  0.49917082901E+03  0.33187554566E+03 -0.26377341229E+02  0.60000722385E+03  0.10100000352E+00 0.  1.
       -3    1    3    3    0  502 -0.49917082901E+03 -0.33187554566E+03 -0.11627347590E+04  0.13081532878E+04  0.10100000352E+00 0. -1.
</event>
<event>
 5   0  0.1427609E-04  0.1501914E+04  0.7818609E-02  0.8883181E-01
       -1   -1    0    0    0  501  0.00000000000E+00  0.00000000000E+00  0.22594634678E+03  0.22594634684E+03  0.50400001928E-02 0. -1.
        1   -1    0    0  501    0  0.00000000000E+00  0.00000000000E+00 -0.24958859665E+04  0.24958859665E+04  0.50400001928E-02 0.  1.
    10030    2    1    2    0    0  0.00000000000E+00  0.00000000000E+00 -0.22699396197E+04  0.27218323133E+04  0.15019138673E+04 0.  0.
        4    1    3    3  502    0 -0.44755502787E+03  0.55286423359E+03 -0.69863560376E+03  0.99702441469E+03  0.12699999809E+01 0. -1.
       -4    1    3    3    0  502  0.44755502787E+03 -0.55286423359E+03 -0.15713040160E+04  0.17248078986E+04  0.12699999809E+01 0.  1.
</event>
<event>
 5   0  0.2696040E-04  0.1498622E+04  0.7818609E-02  0.8885370E-01
        2   -1    0    0  501    0  0.00000000000E+00  0.00000000000E+00  0.89197694677E+03  0.89197694677E+03  0.25500000920E-02 0.  1.
       -2   -1    0    0    0  501  0.00000000000E+00  0.00000000000E+00 -0.62946382848E+03  0.62946382849E+03  0.25500000920E-02 0. -1.
    10030    2    1    2    0    0  0.00000000000E+00  0.00000000000E+00  0.26251311829E+03  0.15214407753E+04  0.14986223325E+04 0.  0.
        2    1    3    3  502    0  0.65002273494E+03  0.30984798771E+03  0.34161157267E+03  0.79701555695E+03  0.25500000920E-02 0. -1.
       -2    1    3    3    0  502 -0.65002273494E+03 -0.30984798771E+03 -0.79098454380E+02  0.72442521831E+03  0.25500000920E-02 0.  1.
</event>
<event>
 5   0  0.2734072E-04  0.1503194E+04  0.7818609E-02  0.8882332E-01
       -2   -1    0    0    0  501  0.00000000000E+00  0.00000000000E+00  0.27114365712E+03  0.27114365713E+03  0.25500000920E-02 0.  1.
        2   -1    0    0  501    0  0.00000000000E+00  0.00000000000E+00 -0.20833908533E+04  0.20833908533E+04  0.25500000920E-02 0. -1.
    10030    2    1    2    0    0  0.00000000000E+00  0.00000000000E+00 -0.18122471962E+04  0.23545345104E+04  0.15031942192E+04 0.  0.
        5    1    3    3  502    0 -0.73736649187E+03  0.14251907882E+03 -0.86032028386E+03  0.11420131838E+04  0.46999998093E+01 0. -1.
       -5    1    3    3    0  502  0.73736649187E+03 -0.14251907882E+03 -0.95192691233E+03  0.12125213266E+04  0.46999998093E+01 0.  1.
</event>
<event>
 5   0  0.2646718E-04  0.1507547E+04  0.7818609E-02  0.8879450E-01
       -2   -1    0    0    0  501  0.00000000000E+00  0.00000000000E+00  0.18125152632E+04  0.18125152632E+04  0.25500000920E-02 0.  1.
        2   -1    0    0  501    0  0.00000000000E+00  0.00000000000E+00 -0.31347287943E+03  0.31347287944E+03  0.25500000920E-02 0. -1.
    10030    2    1    2    0    0  0.00000000000E+00  0.00000000000E+00  0.14990423838E+04  0.21259881426E+04  0.15075468531E+04 0.  0.
        3    1    3    3  502    0  0.34714720326E+03 -0.14462259174E+03  0.16707669667E+04  0.17125679963E+04  0.10100000352E+00 0.  1.
       -3    1    3    3    0  502 -0.34714720326E+03  0.14462259174E+03 -0.17172458295E+03  0.41342014630E+03  0.10100000352E+00 0. -1.
</event>
<event>
 5   0  0.2734072E-04  0.1501563E+04  0.7818609E-02  0.8883414E-01
       -2   -1    0    0    0  501  0.00000000000E+00  0.00000000000E+00  0.49480393399E+03  0.49480393399E+03  0.25500000920E-02 0. -1.
        2   -1    0    0  501    0  0.00000000000E+00  0.00000000000E+00 -0.11391836570E+04  0.11391836571E+04  0.25500000920E-02 0.  1.
    10030    2    1    2    0    0  0.00000000000E+00  0.00000000000E+00 -0.64437972306E+03  0.16339875910E+04  0.15015625928E+04 0.  0.
        5    1    3    3  502    0  0.20076025622E+03 -0.22135374362E+03 -0.10716594067E+04  0.11125547781E+04  0.46999998093E+01 0.  1.
       -5    1    3    3    0  502 -0.20076025622E+03  0.22135374362E+03  0.42727968368E+03  0.52143281291E+03  0.46999998093E+01 0. -1.
</event>
<event>
 5   0  0.1427609E-04  0.1498776E+04  0.7818609E-02  0.8885267E-01
        1   -1    0    0  501    0  0.00000000000E+00  0.00000000000E+00  0.36299968040E+03  0.36299968044E+03  0.50400001928E-02 0. -1.
       -1   -1    0    0    0  501  0.00000000000E+00  0.00000000000E+00 -0.15470605425E+04  0.15470605425E+04  0.50400001928E-02 0.  1.
    10030    2    1    2    0    0  0.00000000000E+00  0.00000000000E+00 -0.11840608621E+04  0.19100602229E+04  0.14987761441E+04 0.  0.
        4    1    3    3  502    0 -0.47238763958E+03  0.12112079303E+03  0.13311021180E+03  0.50550991080E+03  0.12699999809E+01 0. -1.
       -4    1    3    3    0  502  0.47238763958E+03 -0.12112079303E+03 -0.13171710738E+04  0.14045503121E+04  0.12699999809E+01 0.  1.
</event>
<event>
 5   0  0.1474203E-04  0.1485210E+04  0.7818609E-02  0.8894348E-01
       -1   -1    0    0    0  501  0.00000000000E+00  0.00000000000E+00  0.41231932387E+03  0.41231932390E+03  0.50400001928E-02 0.  1.
        1   -1    0    0  501    0  0.00000000000E+00  0.00000000000E+00 -0.13374640786E+04  0.13374640786E+04  0.50400001928E-02 0. -1.
    10030    2    1    2    0    0  0.00000000000E+00  0.00000000000E+00 -0.92514475474E+03  0.17497834025E+04  0.14852101328E+04 0.  0.
        3    1    3    3  502    0  0.47881339046E+03  0.43818641835E+03 -0.88767096616E+03  0.10996496508E+04  0.10100000352E+00 0. -1.
       -3    1    3    3    0  502 -0.47881339046E+03 -0.43818641835E+03 -0.37473788580E+02  0.65013375173E+03  0.10100000352E+00 0.  1.
</event>
<event>
 5   0  0.1474203E-04  0.1495569E+04  0.7818609E-02  0.8887405E-01
       -1   -1    0    0    0  501  0.00000000000E+00  0.00000000000E+00  0.81657930999E+03  0.81657931000E+03  0.50400001928E-02 0. -1.
        1   -1    0    0  501    0  0.00000000000E+00  0.00000000000E+00 -0.68478573895E+03  0.68478573897E+03  0.50400001928E-02 0.  1.
    10030    2    1    2    0    0  0.00000000000E+00  0.00000000000E+00  0.13179357104E+03  0.15013650490E+04  0.14955692779E+04 0.  0.
        3    1    3    3  502    0 -0.52730170779E+03  0.47546135463E+03 -0.16968531697E+03  0.73000253957E+03  0.10100000352E+00 0. -1.
       -3    1    3    3    0  502  0.52730170779E+03 -0.47546135463E+03  0.30147888801E+03  0.77136250940E+03  0.10100000352E+00 0.  1.
</event>
<event>
 5   0  0.1484251E-04  0.1498112E+04  0.7818609E-02  0.8885709E-01
        1   -1    0    0  501    0  0.00000000000E+00  0.00000000000E+00  0.43450857962E+03  0.43450857965E+03  0.50400001928E-02 0.  1.
       -1   -1    0    0    0  501  0.00000000000E+00  0.00000000000E+00 -0.12913092598E+04  0.12913092598E+04  0.50400001928E-02 0. -1.
    10030    2    1    2    0    0  0.00000000000E+00  0.00000000000E+00 -0.85680068018E+03  0.17258178395E+04  0.14981120817E+04 0.  0.
        5    1    3    3  502    0  0.39510704471E+03  0.18601546095E+03 -0.11294644286E+04  0.12109596665E+04  0.46999998093E+01 0. -1.
       -5    1    3    3    0  502 -0.39510704471E+03 -0.18601546095E+03  0.27266374844E+03  0.51485817290E+03  0.46999998093E+01 0.  1.
</event>
<event>
 5   0  0.2696040E-04  0.1499720E+04  0.7818609E-02  0.8884639E-01
        2   -1    0    0  501    0  0.00000000000E+00  0.00000000000E+00  0.10160962352E+04  0.10160962352E+04  0.25500000920E-02 0.  1.
       -2   -1    0    0    0  501  0.00000000000E+00  0.00000000000E+00 -0.55338258238E+03  0.55338258239E+03  0.25500000920E-02 0. -1.
    10030    2    1    2    0    0  0.00000000000E+00  0.00000000000E+00  0.46271365280E+03  0.15694788176E+04  0.14997199186E+04 0.  0.
        2    1    3    3  502    0 -0.53995635264E+03 -0.40788943460E+03  0.56943661716E+03  0.88441207284E+03  0.25500000920E-02 0.  1.
       -2    1    3    3    0  502  0.53995635264E+03  0.40788943460E+03 -0.10672296436E+03  0.68506674474E+03  0.25500000920E-02 0. -1.
</event>
<event>
 5   0  0.2646718E-04  0.1507621E+04  0.7818609E-02  0.8879401E-01
       -2   -1    0    0    0  501  0.00000000000E+00  0.00000000000E+00  0.42138820346E+03  0.42138820347E+03  0.25500000920E-02 0.  1.
        2   -1    0    0  501    0  0.00000000000E+00  0.00000000000E+00 -0.13484717588E+04  0.13484717588E+04  0.25500000920E-02 0. -1.
    10030    2    1    2    0    0  0.00000000000E+00  0.00000000000E+00 -0.92708355532E+03  0.17698599623E+04  0.15076207638E+04 0.  0.
        3    1    3    3  502    0 -0.60285515966E+03 -0.24821006238E+03 -0.19320504481E+02  0.65223912079E+03  0.10100000352E+00 0.  1.
       -3    1    3    3    0  502  0.60285515966E+03  0.24821006238E+03 -0.90776305084E+03  0.11176208415E+04  0.10100000352E+00 0. -1.
</event>
<event>
 5   0  0.2646718E-04  0.1500522E+04  0.7818609E-02  0.8884106E-01
       -2   -1    0    0    0  501  0.00000000000E+00  0.00000000000E+00  0.78835966796E+03  0.78835966797E+03  0.25500000920E-02 0. -1.
        2   -1    0    0  501    0  0.00000000000E+00  0.00000000000E+00 -0.71400378529E+03  0.71400378529E+03  0.25500000920E-02 0.  1.
    10030    2    1    2    0    0  0.00000000000E+00  0.00000000000E+00  0.74355882674E+02  0.15023634533E+04  0.15005222919E+04 0.  0.
        3    1    3    3  502    0  0.51629606672E+03 -0.15099089063E+03  0.56082244472E+03  0.77709825779E+03  0.10100000352E+00 0. -1.
       -3    1    3    3    0  502 -0.51629606672E+03  0.15099089063E+03 -0.48646656204E+03  0.72526519547E+03  0.10100000352E+00 0.  1.
</event>
<event>
 5   0  0.1443750E-04  0.1427233E+04  0.7818609E-02  0.8934338E-01
        1   -1    0    0  501    0  0.00000000000E+00  0.00000000000E+00  0.42453704015E+03  0.42453704018E+03  0.50400001928E-02 0.  1.
       -1   -1    0    0    0  501  0.00000000000E+00  0.00000000000E+00 -0.11995384851E+04  0.11995384851E+04  0.50400001928E-02 0. -1.
    10030    2    1    2    0    0  0.00000000000E+00  0.00000000000E+00 -0.77500144495E+03  0.16240755253E+04  0.14272330126E+04 0.  0.
        2    1    3    3  502    0 -0.62537211874E+03  0.32735058287E+03 -0.26815571190E+03  0.75508686708E+03  0.25500000920E-02 0.  1.
       -2    1    3    3    0  502  0.62537211874E+03 -0.32735058287E+03 -0.50684573305E+03  0.86898865822E+03  0.25500000920E-02 0. -1.
</event>
<event>
 5   0  0.2641347E-04  0.1498330E+04  0.7818609E-02  0.8885564E-01
       -2   -1    0    0    0  501  0.00000000000E+00  0.00000000000E+00  0.29563092743E+03  0.29563092744E+03  0.25500000920E-02 0. -1.
        2   -1    0    0  501    0  0.00000000000E+00  0.00000000000E+00 -0.18984758014E+04  0.18984758014E+04  0.25500000920E-02 0.  1.
    10030    2    1    2    0    0  0.00000000000E+00  0.00000000000E+00 -0.16028448740E+04  0.21941067289E+04  0.14983299529E+04 0.  0.
        4    1    3    3  502    0  0.68780742352E+03  0.20311348910E+03 -0.11185939320E+04  0.13287543562E+04  0.12699999809E+01 0.  1.
       -4    1    3    3    0  502 -0.68780742352E+03 -0.20311348910E+03 -0.48425094197E+03  0.86535237274E+03  0.12699999809E+01 0. -1.
</event>
<event>
 5   0  0.2646718E-04  0.1500886E+04  0.7818609E-02  0.8883864E-01
       -2   -1    0    0    0  501  0.00000000000E+00  0.00000000000E+00  0.82224638092E+03  0.82224638093E+03  0.25500000920E-02 0.  1.
        2   -1    0    0  501    0  0.00000000000E+00  0.00000000000E+00 -0.68490954904E+03  0.68490954904E+03  0.25500000920E-02 0. -1.
    10030    2    1    2    0    0  0.00000000000E+00  0.00000000000E+00  0.13733683189E+03  0.15071559300E+04  0.15008856025E+04 0.  0.
        3    1    3    3  502    0 -0.40279177036E+02  0.35031520544E+03  0.73387174114E+03  0.81419340326E+03  0.10100000352E+00 0.  1.
       -3    1    3    3    0  502  0.40279177036E+02 -0.35031520544E+03 -0.59653490925E+03  0.69296252671E+03  0.10100000352E+00 0. -1.
</event>
<event>
 5   0  0.2646718E-04  0.1497379E+04  0.7818609E-02  0.8886198E-01
       -2   -1    0    0    0  501  0.00000000000E+00  0.00000000000E+00  0.35717231049E+03  0.35717231050E+03  0.25500000920E-02 0. -1.
        2   -1    0    0  501    0  0.00000000000E+00  0.00000000000E+00 -0.15693708771E+04  0.15693708771E+04  0.25500000920E-02 0.  1.
    10030    2    1    2    0    0  0.00000000000E+00  0.00000000000E+00 -0.12121985666E+04  0.19265431876E+04  0.14973788060E+04 0.  0.
        3    1    3    3  502    0 -0.31947251194E+03 -0.33632830180E+03 -0.13622020396E+04  0.14390183527E+04  0.10100000352E+00 0.  1.
       -3    1    3    3    0  502  0.31947251194E+03  0.33632830180E+03  0.15000347304E+03  0.48752483486E+03  0.10100000352E+00 0. -1.
</event>
<event>
 5   0  0.2646718E-04  0.1497923E+04  0.7818609E-02  0.8885835E-01
       -2   -1    0    0    0  501  0.00000000000E+00  0.00000000000E+00  0.65807446892E+03  0.65807446893E+03  0.25500000920E-02 0. -1.
        2   -1    0    0  501    0  0.00000000000E+00  0.00000000000E+00 -0.85240108085E+03  0.85240108086E+03  0.25500000920E-02 0.  1.
    10030    2    1    2    0    0  0.00000000000E+00  0.00000000000E+00 -0.19432661193E+03  0.15104755498E+04  0.14979230803E+04 0.  0.
        3    1    3    3  502    0 -0.30825765561E+03  0.66266071346E+03 -0.26224644746E+03  0.77647615083E+03  0.10100000352E+00 0.  1.
       -3    1    3    3    0  502  0.30825765561E+03 -0.66266071346E+03  0.67919835529E+02  0.73399939895E+03  0.10100000352E+00 0. -1.
</event>
<event>
 5   0  0.2734072E-04  0.1495238E+04  0.7818609E-02  0.8887626E-01
        2   -1    0    0  501    0  0.00000000000E+00  0.00000000000E+00  0.66407583842E+03  0.66407583842E+03  0.25500000920E-02 0. -1.
       -2   -1    0    0    0  501  0.00000000000E+00  0.00000000000E+00 -0.84167262831E+03  0.84167262831E+03  0.25500000920E-02 0.  1.
    10030    2    1    2    0    0  0.00000000000E+00  0.00000000000E+00 -0.17759678989E+03  0.15057484667E+04  0.14952383841E+04 0.  0.
        5    1    3    3  502    0  0.26843046447E+03  0.69498656526E+03 -0.26304748486E+02  0.74550336682E+03  0.46999998093E+01 0.  1.
       -5    1    3    3    0  502 -0.26843046447E+03 -0.69498656526E+03 -0.15129204141E+03  0.76024509991E+03  0.46999998093E+01 0. -1.
</event>
<event>
 5   0  0.1474203E-04  0.1496723E+04  0.7818609E-02  0.8886635E-01
        1   -1    0    0  501    0  0.00000000000E+00  0.00000000000E+00  0.62197620921E+03  0.62197620923E+03  0.50400001928E-02 0.  1.
       -1   -1    0    0    0  501  0.00000000000E+00  0.00000000000E+00 -0.90042835466E+03  0.90042835468E+03  0.50400001928E-02 0. -1.
    10030    2    1    2    0    0  0.00000000000E+00  0.00000000000E+00 -0.27845214545E+03  0.15224045639E+04  0.14967231070E+04 0.  0.
        3    1    3    3  502    0  0.23004900428E+03 -0.33003960390E+03  0.50262937967E+03  0.64380508543E+03  0.10100000352E+00 0.  1.
       -3    1    3    3    0  502 -0.23004900428E+03  0.33003960390E+03 -0.78108152512E+03  0.87859947849E+03  0.10100000352E+00 0. -1.
</event>
<event>
 5   0  0.1443750E-04  0.1501385E+04  0.7818609E-02  0.8883533E-01
       -1   -1    0    0    0  501  0.00000000000E+00  0.00000000000E+00  0.76836889249E+03  0.76836889251E+03  0.50400001928E-02 0.  1.
        1   -1    0    0  501    0  0.00000000000E+00  0.00000000000E+00 -0.73342249647E+03  0.73342249649E+03  0.50400001928E-02 0. -1.
    10030    2    1    2    0    0  0.00000000000E+00  0.00000000000E+00  0.34946396025E+02  0.15017913890E+04  0.15013847360E+04 0.  0.
        2    1    3    3  502    0 -0.41427611067E+03 -0.62277004839E+03  0.81301156848E+02  0.75238095879E+03  0.25500000920E-02 0. -1.
       -2    1    3    3    0  502  0.41427611067E+03  0.62277004839E+03 -0.46354760822E+02  0.74941043020E+03  0.25500000920E-02 0.  1.
</event>
<event>
 5   0  0.1427609E-04  0.1499577E+04  0.7818609E-02  0.8884734E-01
        1   -1    0    0  501    0  0.00000000000E+00  0.00000000000E+00  0.85901254640E+03  0.85901254642E+03  0.50400001928E-02 0. -1.
       -1   -1    0    0    0  501  0.00000000000E+00  0.00000000000E+00 -0.65445211016E+03  0.65445211018E+03  0.50400001928E-02 0.  1.
    10030    2    1    2    0    0  0.00000000000E+00  0.00000000000E+00  0.20456043624E+03  0.15134646566E+04  0.14995767052E+04 0.  0.
        4    1    3    3  502    0  0.98243017139E+02 -0.77171239432E+02 -0.64387302503E+03  0.65588198319E+03  0.12699999809E+01 0.  1.
       -4    1    3    3    0  502 -0.98243017139E+02  0.77171239432E+02  0.84843346127E+03  0.85758267340E+03  0.12699999809E+01 0. -1.
</event>
<event>
 5   0  0.2646718E-04  0.1507751E+04  0.7818609E-02  0.8879315E-01
        2   -1    0    0  501    0  0.00000000000E+00  0.00000000000E+00  0.20255839519E+04  0.20255839519E+04  0.25500000920E-02 0. -1.
       -2   -1    0    0    0  501  0.00000000000E+00  0.00000000000E+00 -0.28057519717E+03  0.28057519718E+03  0.25500000920E-02 0.  1.
    10030    2    1    2    0    0  0.00000000000E+00  0.00000000000E+00  0.17450087547E+04  0.23061591491E+04  0.15077514606E+04 0.  0.
        3    1    3    3  502    0  0.41355630139E+03  0.36652143942E+03  0.88161655709E+02  0.55958848068E+03  0.10100000352E+00 0.  1.
       -3    1    3    3    0  502 -0.41355630139E+03 -0.36652143942E+03  0.16568470990E+04  0.17465706684E+04  0.10100000352E+00 0. -1.
</event>
<event>
 5   0  0.2646718E-04  0.1500788E+04  0.7818609E-02  0.8883929E-01
       -2   -1    0    0    0  501  0.00000000000E+00  0.00000000000E+00  0.23217152050E+03  0.23217152052E+03  0.25500000920E-02 0.  1.
        2   -1    0    0  501    0  0.00000000000E+00  0.00000000000E+00 -0.24253230504E+04  0.24253230504E+04  0.25500000920E-02 0. -1.
    10030    2    1    2    0    0  0.00000000000E+00  0.00000000000E+00 -0.21931515299E+04  0.26574945709E+04  0.15007877136E+04 0.  0.
        3    1    3    3  502    0 -0.70730494572E+03  0.23985451245E+03 -0.96790233851E+03  0.12225569191E+04  0.10100000352E+00 0. -1.
       -3    1    3    3    0  502  0.70730494572E+03 -0.23985451245E+03 -0.12252491914E+04  0.14349376518E+04  0.10100000352E+00 0.  1.
</event>
<event>
 5   0  0.2618901E-04  0.1501299E+04  0.7818609E-02  0.8883590E-01
       -2   -1    0    0    0  501  0.00000000000E+00  0.00000000000E+00  0.14773982350E+04  0.14773982350E+04  0.25500000920E-02 0. -1.
        2   -1    0    0  501    0  0.00000000000E+00  0.00000000000E+00 -0.38139639984E+03  0.38139639985E+03  0.25500000920E-02 0.  1.
    10030    2    1    2    0    0  0.00000000000E+00  0.00000000000E+00  0.10960018352E+04  0.18587946349E+04  0.15012985952E+04 0.  0.
        1    1    3    3  502    0  0.30592180438E+03  0.68174269254E+03  0.45946749149E+03  0.87719531746E+03  0.50400001928E-02 0.  1.
       -1    1    3    3    0  502 -0.30592180438E+03 -0.68174269254E+03  0.63653434369E+03  0.98159931741E+03  0.50400001928E-02 0. -1.
</event>
<event>
 5   0  0.1426929E-04  0.1498677E+04  0.7818609E-02  0.8885333E-01
       -1   -1    0    0    0  501  0.00000000000E+00  0.00000000000E+00  0.69660627589E+03  0.69660627591E+03  0.50400001928E-02 0.  1.
        1   -1    0    0  501    0  0.00000000000E+00  0.00000000000E+00 -0.80606203897E+03  0.80606203899E+03  0.50400001928E-02 0. -1.
    10030    2    1    2    0    0  0.00000000000E+00  0.00000000000E+00 -0.10945576308E+03  0.15026683149E+04  0.14986765830E+04 0.  0.
        1    1    3    3  502    0 -0.67273090875E+03  0.72097851876E+02  0.26822145600E+03  0.72781022617E+03  0.50400001928E-02 0.  1.
       -1    1    3    3    0  502  0.67273090875E+03 -0.72097851876E+02 -0.37767721908E+03  0.77485808873E+03  0.50400001928E-02 0. -1.
</event>
<event>
 5   0  0.2696040E-04  0.1492403E+04  0.7818609E-02  0.8889521E-01
       -2   -1    0    0    0  501  0.00000000000E+00  0.00000000000E+00  0.38432160156E+03  0.38432160156E+03  0.25500000920E-02 0. -1.
        2   -1    0    0  501    0  0.00000000000E+00  0.00000000000E+00 -0.14488299358E+04  0.14488299358E+04  0.25500000920E-02 0.  1.
    10030    2    1    2    0    0  0.00000000000E+00  0.00000000000E+00 -0.10645083343E+04  0.18331515374E+04  0.14924029500E+04 0.  0.
        2    1    3    3  502    0  0.12698658661E+02  0.32177149303E+03 -0.13590878524E+04  0.13967168433E+04  0.25500000920E-02 0.  1.
       -2    1    3    3    0  502 -0.12698658661E+02 -0.32177149303E+03  0.29457951819E+03  0.43643469409E+03  0.25500000920E-02 0. -1.
</event>
<event>
 5   0  0.2646718E-04  0.1494034E+04  0.7818609E-02  0.8888430E-01
       -2   -1    0    0    0  501  0.00000000000E+00  0.00000000000E+00  0.54301401024E+03  0.54301401024E+03  0.25500000920E-02 0. -1.
        2   -1    0    0  501    0  0.00000000000E+00  0.00000000000E+00 -0.10276609242E+04  0.10276609242E+04  0.25500000920E-02 0.  1.
    10030    2    1    2    0    0  0.00000000000E+00  0.00000000000E+00 -0.48464691396E+03  0.15706749344E+04  0.14940338411E+04 0.  0.
        3    1    3    3  502    0 -0.45300728777E+03 -0.38638809127E+03 -0.71660096548E+03  0.93168037104E+03  0.10100000352E+00 0.  1.
       -3    1    3    3    0  502  0.45300728777E+03  0.38638809127E+03  0.23195405152E+03  0.63899456341E+03  0.10100000352E+00 0. -1.
</event>
<event>
 5   0  0.1426929E-04  0.1505980E+04  0.7818609E-02  0.8880486E-01
       -1   -1    0    0    0  501  0.00000000000E+00  0.00000000000E+00  0.52693774676E+03  0.52693774679E+03  0.50400001928E-02 0. -1.
        1   -1    0    0  501    0  0.00000000000E+00  0.00000000000E+00 -0.10760173263E+04  0.10760173263E+04  0.50400001928E-02 0.  1.
    10030    2    1    2    0    0  0.00000000000E+00  0.00000000000E+00 -0.54907957953E+03  0.16029550731E+04  0.15059802727E+04 0.  0.
        1    1    3    3  502    0 -0.46890161563E+02  0.22219890967E+03 -0.10386992743E+04  0.10632343228E+04  0.50400001928E-02 0.  1.
       -1    1    3    3    0  502  0.46890161563E+02 -0.22219890967E+03  0.48961969480E+03  0.53972075027E+03  0.50400001928E-02 0. -1.
</event>
<event>
 5   0  0.2641347E-04  0.1528605E+04  0.7818609E-02  0.8865651E-01
        2   -1    0    0  501    0  0.00000000000E+00  0.00000000000E+00  0.46364230054E+03  0.46364230055E+03  0.25500000920E-02 0. -1.
       -2   -1    0    0    0  501  0.00000000000E+00  0.00000000000E+00 -0.12599324109E+04  0.12599324109E+04  0.25500000920E-02 0.  1.
    10030    2    1    2    0    0  0.00000000000E+00  0.00000000000E+00 -0.79629011034E+03  0.17235747114E+04  0.15286045421E+04 0.  0.
        4    1    3    3  502    0 -0.42148833599E+03  0.30555361707E+02 -0.11162171343E+04  0.11935360703E+04  0.12699999809E+01 0.  1.
       -4    1    3    3    0  502  0.42148833599E+03 -0.30555361707E+02  0.31992702392E+03  0.53003864108E+03  0.12699999809E+01 0. -1.
</event>
<event>
 5   0  0.1484251E-04  0.1499510E+04  0.7818609E-02  0.8884779E-01
        1   -1    0    0  501    0  0.00000000000E+00  0.00000000000E+00  0.73833419966E+03  0.73833419968E+03  0.50400001928E-02 0.  1.
       -1   -1    0    0    0  501  0.00000000000E+00  0.00000000000E+00 -0.76135285114E+03  0.76135285115E+03  0.50400001928E-02 0. -1.
    10030    2    1    2    0    0  0.00000000000E+00  0.00000000000E+00 -0.23018651472E+02  0.14996870508E+04  0.14995103841E+04 0.  0.
        5    1    3    3  502    0 -0.67126524684E+02  0.36660741599E+03  0.63910847045E+03  0.73985721242E+03  0.46999998093E+01 0.  1.
       -5    1    3    3    0  502  0.67126524684E+02 -0.36660741599E+03 -0.66212712192E+03  0.75982983842E+03  0.46999998093E+01 0. -1.
</event>
<event>
 5   0  0.2734072E-04  0.1510258E+04  0.7818609E-02  0.8877660E-01
       -2   -1    0    0    0  501  0.00000000000E+00  0.00000000000E+00  0.33015182073E+03  0.33015182074E+03  0.25500000920E-02 0. -1.
        2   -1    0    0  501    0  0.00000000000E+00  0.00000000000E+00 -0.17271430856E+04  0.17271430856E+04  0.25500000920E-02 0.  1.
    10030    2    1    2    0    0  0.00000000000E+00  0.00000000000E+00 -0.13969912649E+04  0.20572949064E+04  0.15102575070E+04 0.  0.
        5    1    3    3  502    0 -0.73838075038E+03 -0.12142498263E+03 -0.56060084620E+03  0.93501099335E+03  0.46999998093E+01 0.  1.
       -5    1    3    3    0  502  0.73838075038E+03  0.12142498263E+03 -0.83639041871E+03  0.11222839130E+04  0.46999998093E+01 0. -1.
</event>
<event>
 5   0  0.2641347E-04  0.1499257E+04  0.7818609E-02  0.8884947E-01
        2   -1    0    0  501    0  0.00000000000E+00  0.00000000000E+00  0.15433769038E+04  0.15433769038E+04  0.25500000920E-02 0. -1.
       -2   -1    0    0    0  501  0.00000000000E+00  0.00000000000E+00 -0.36409978859E+03  0.36409978860E+03  0.25500000920E-02 0.  1.
    10030    2    1    2    0    0  0.00000000000E+00  0.00000000000E+00  0.11792771152E+04  0.19074766924E+04  0.14992574221E+04 0.  0.
        4    1    3    3  502    0  0.84594352908E+02  0.56800350475E+03  0.12026580771E+04  0.13327311241E+04  0.12699999809E+01 0. -1.
       -4    1    3    3    0  502 -0.84594352908E+02 -0.56800350475E+03 -0.23380961889E+02  0.57474556826E+03  0.12699999809E+01 0.  1.
</event>
<event>
 5   0  0.2646718E-04  0.1500336E+04  0.7818609E-02  0.8884230E-01
        2   -1    0    0  501    0  0.00000000000E+00  0.00000000000E+00  0.98536480205E+03  0.98536480205E+03  0.25500000920E-02 0. -1.
       -2   -1    0    0    0  501  0.00000000000E+00  0.00000000000E+00 -0.57111011572E+03  0.57111011573E+03  0.25500000920E-02 0.  1.
    10030    2    1    2    0    0  0.00000000000E+00  0.00000000000E+00  0.41425468633E+03  0.15564749178E+04  0.15003357040E+04 0.  0.
        3    1    3    3  502    0  0.11898491486E+02 -0.70091322988E+03 -0.69944523420E+02  0.70449497974E+03  0.10100000352E+00 0.  1.
       -3    1    3    3    0  502 -0.11898491486E+02  0.70091322988E+03  0.48419920975E+03  0.85197993805E+03  0.10100000352E+00 0. -1.
</event>
<event>
 5   0  0.2646718E-04  0.1512303E+04  0.7818609E-02  0.8876312E-01
       -2   -1    0    0    0  501  0.00000000000E+00  0.00000000000E+00  0.56171535677E+03  0.56171535677E+03  0.25500000920E-02 0.  1.
        2   -1    0    0  501    0  0.00000000000E+00  0.00000000000E+00 -0.10178915326E+04  0.10178915326E+04  0.25500000920E-02 0. -1.
    10030    2    1    2    0    0  0.00000000000E+00  0.00000000000E+00 -0.45617617583E+03  0.15796068894E+04  0.15123032836E+04 0.  0.
        3    1    3    3  502    0  0.72882285458E+03  0.20107470738E+03 -0.24094456539E+03  0.79351627904E+03  0.10100000352E+00 0.  1.
       -3    1    3    3    0  502 -0.72882285458E+03 -0.20107470738E+03 -0.21523161044E+03  0.78609061033E+03  0.10100000352E+00 0. -1.
</event>
<event>
 5   0  0.2641347E-04  0.1521103E+04  0.7818609E-02  0.8870539E-01
       -2   -1    0    0    0  501  0.00000000000E+00  0.00000000000E+00  0.99259432472E+03  0.99259432472E+03  0.25500000920E-02 0. -1.
        2   -1    0    0  501    0  0.00000000000E+00  0.00000000000E+00 -0.58275457664E+03  0.58275457664E+03  0.25500000920E-02 0.  1.
    10030    2    1    2    0    0  0.00000000000E+00  0.00000000000E+00  0.40983974808E+03  0.15753489014E+04  0.15211033962E+04 0.  0.
        4    1    3    3  502    0 -0.44708928014E+03 -0.24588192239E+03 -0.37918843904E+03  0.63571395248E+03  0.12699999809E+01 0.  1.
       -4    1    3    3    0  502  0.44708928014E+03  0.24588192239E+03  0.78902818713E+03  0.93963494888E+03  0.12699999809E+01 0. -1.
</event>
<event>
 5   0  0.2646718E-04  0.1511245E+04  0.7818609E-02  0.8877009E-01
       -2   -1    0    0    0  501  0.00000000000E+00  0.00000000000E+00  0.53683342841E+03  0.53683342842E+03  0.25500000920E-02 0.  1.
        2   -1    0    0  501    0  0.00000000000E+00  0.00000000000E+00 -0.10635806381E+04  0.10635806381E+04  0.25500000920E-02 0. -1.
    10030    2    1    2    0    0  0.00000000000E+00  0.00000000000E+00 -0.52674720967E+03  0.16004140665E+04  0.15112453677E+04 0.  0.
        3    1    3    3  502    0 -0.19565947253E+03  0.31289148017E+03 -0.96165925369E+03  0.10300350664E+04  0.10100000352E+00 0. -1.
       -3    1    3    3    0  502  0.19565947253E+03 -0.31289148017E+03  0.43491204402E+03  0.57037900013E+03  0.10100000352E+00 0.  1.
</event>
<event>
 5   0  0.1484251E-04  0.1502531E+04  0.7818609E-02  0.8882772E-01
        1   -1    0    0  501    0  0.00000000000E+00  0.00000000000E+00  0.20275821713E+04  0.20275821713E+04  0.50400001928E-02 0. -1.
       -1   -1    0    0    0  501  0.00000000000E+00  0.00000000000E+00 -0.27836084594E+03  0.27836084599E+03  0.50400001928E-02 0.  1.
    10030    2    1    2    0    0  0.00000000000E+00  0.00000000000E+00  0.17492213254E+04  0.23059430173E+04  0.15025305168E+04 0.  0.
        5    1    3    3  502    0  0.56698195862E+03  0.48083641801E+03  0.70856993863E+03  0.10270178432E+04  0.46999998093E+01 0.  1.
       -5    1    3    3    0  502 -0.56698195862E+03 -0.48083641801E+03  0.10406513867E+04  0.12789251741E+04  0.46999998093E+01 0. -1.
</event>
<event>
 5   0  0.2618901E-04  0.1487855E+04  0.7818609E-02  0.8892569E-01
        2   -1    0    0  501    0  0.00000000000E+00  0.00000000000E+00  0.71561990324E+03  0.71561990325E+03  0.25500000920E-02 0.  1.
       -2   -1    0    0    0  501  0.00000000000E+00  0.00000000000E+00 -0.77335517912E+03  0.77335517912E+03  0.25500000920E-02 0. -1.
    10030    2    1    2    0    0  0.00000000000E+00  0.00000000000E+00 -0.57735275876E+02  0.14889750824E+04  0.14878553135E+04 0.  0.
        1    1    3    3  502    0 -0.27982494722E+03  0.68725007747E+03  0.24216494856E+02  0.74242919441E+03  0.50400001928E-02 0. -1.
       -1    1    3    3    0  502  0.27982494722E+03 -0.68725007747E+03 -0.81951770732E+02  0.74654588795E+03  0.50400001928E-02 0.  1.
</event>
<event>
 5   0  0.1426929E-04  0.1488829E+04  0.7818609E-02  0.8891915E-01
       -1   -1    0    0    0  501  0.00000000000E+00  0.00000000000E+00  0.97646566465E+03  0.97646566466E+03  0.50400001928E-02 0.  1.
        1   -1    0    0  501    0  0.00000000000E+00  0.00000000000E+00 -0.56750915559E+03  0.56750915561E+03  0.50400001928E-02 0. -1.
    10030    2    1    2    0    0  0.00000000000E+00  0.00000000000E+00  0.40895650906E+03  0.15439748203E+04  0.14888293453E+04 0.  0.
        1    1    3    3  502    0 -0.12982547322E+03 -0.30706057641E+03 -0.48576665371E+03  0.58916049847E+03  0.50400001928E-02 0. -1.
       -1    1    3    3    0  502  0.12982547322E+03  0.30706057641E+03  0.89472316277E+03  0.95481432180E+03  0.50400001928E-02 0.  1.
</event>
<event>
 5   0  0.2641347E-04  0.1501027E+04  0.7818609E-02  0.8883770E-01
        2   -1    0    0  501    0  0.00000000000E+00  0.00000000000E+00  0.11138514365E+04  0.11138514365E+04  0.25500000920E-02 0.  1.
       -2   -1    0    0    0  501  0.00000000000E+00  0.00000000000E+00 -0.50569652358E+03  0.50569652358E+03  0.25500000920E-02 0. -1.
    10030    2    1    2    0    0  0.00000000000E+00  0.00000000000E+00  0.60815491288E+03  0.16195479600E+04  0.15010273804E+04 0.  0.
        4    1    3    3  502    0 -0.27286063526E+03 -0.65747188949E+03  0.56064982648E+03  0.90611922647E+03  0.12699999809E+01 0.  1.
       -4    1    3    3    0  502  0.27286063526E+03  0.65747188949E+03  0.47505086399E+02  0.71342873357E+03  0.12699999809E+01 0. -1.
</event>
<event>
 5   0  0.2641347E-04  0.1502483E+04  0.7818609E-02  0.8882803E-01
        2   -1    0    0  501    0  0.00000000000E+00  0.00000000000E+00  0.11951799680E+04  0.11951799680E+04  0.25500000920E-02 0. -1.
       -2   -1    0    0    0  501  0.00000000000E+00  0.00000000000E+00 -0.47220008736E+03  0.47220008737E+03  0.25500000920E-02 0.  1.
    10030    2    1    2    0    0  0.00000000000E+00  0.00000000000E+00  0.72297988062E+03  0.16673800553E+04  0.15024833913E+04 0.  0.
        4    1    3    3  502    0 -0.45553406855E+03  0.50704936347E+03  0.10991567163E+02  0.68171311565E+03  0.12699999809E+01 0.  1.
       -4    1    3    3    0  502  0.45553406855E+03 -0.50704936347E+03  0.71198831345E+03  0.98566693969E+03  0.12699999809E+01 0. -1.
</event>
<event>
 5   0  0.1004313E-04  0.1496080E+04  0.7818609E-02  0.8887064E-01
        3   -1    0    0  501    0  0.00000000000E+00  0.00000000000E+00  0.80898427847E+03  0.80898428477E+03  0.10100000352E+00 0. -1.
       -3   -1    0    0    0  501  0.00000000000E+00  0.00000000000E+00 -0.69168660340E+03  0.69168661077E+03  0.10100000352E+00 0.  1.
    10030    2    1    2    0    0  0.00000000000E+00  0.00000000000E+00  0.11729767507E+03  0.15006708955E+04  0.14960796744E+04 0.  0.
        4    1    3    3  502    0  0.23211528918E+03  0.52787487224E+03  0.53659045119E+03  0.78769303248E+03  0.12699999809E+01 0. -1.
       -4    1    3    3    0  502 -0.23211528918E+03 -0.52787487224E+03 -0.41929277612E+03  0.71297786307E+03  0.12699999809E+01 0.  1.
</event>
<event>
 5   0  0.2641347E-04  0.1501302E+04  0.7818609E-02  0.8883588E-01
       -2   -1    0    0    0  501  0.00000000000E+00  0.00000000000E+00  0.66535049634E+03  0.66535049634E+03  0.25500000920E-02 0.  1.
        2   -1    0    0  501    0  0.00000000000E+00  0.00000000000E+00 -0.84688696068E+03  0.84688696068E+03  0.25500000920E-02 0. -1.
    10030    2    1    2    0    0  0.00000000000E+00  0.00000000000E+00 -0.18153646434E+03  0.15122374570E+04  0.15013016481E+04 0.  0.
        4    1    3    3  502    0  0.32099783133E+01 -0.74805702139E+03 -0.28061771669E+02  0.74859113483E+03  0.12699999809E+01 0.  1.
       -4    1    3    3    0  502 -0.32099783133E+01  0.74805702139E+03 -0.15347469268E+03  0.76364632220E+03  0.12699999809E+01 0. -1.
</event>
<event>
 5   0  0.2618901E-04  0.1496467E+04  0.7818609E-02  0.8886806E-01
        2   -1    0    0  501    0  0.00000000000E+00  0.00000000000E+00  0.54862904238E+03  0.54862904239E+03  0.25500000920E-02 0. -1.
       -2   -1    0    0    0  501  0.00000000000E+00  0.00000000000E+00 -0.10204588802E+04  0.10204588802E+04  0.25500000920E-02 0.  1.
    10030    2    1    2    0    0  0.00000000000E+00  0.00000000000E+00 -0.47182983786E+03  0.15690879226E+04  0.14964670103E+04 0.  0.
        1    1    3    3  502    0  0.61281349383E+03  0.39794309454E+03 -0.66993493211E+02  0.73374873961E+03  0.50400001928E-02 0.  1.
       -1    1    3    3    0  502 -0.61281349383E+03 -0.39794309454E+03 -0.40483634465E+03  0.83533918302E+03  0.50400001928E-02 0. -1.
</event>
<event>
 5   0  0.1427609E-04  0.1450754E+04  0.7818609E-02  0.8917878E-01
       -1   -1    0    0    0  501  0.00000000000E+00  0.00000000000E+00  0.55744960908E+03  0.55744960910E+03  0.50400001928E-02 0. -1.
        1   -1    0    0  501    0  0.00000000000E+00  0.00000000000E+00 -0.94389107314E+03  0.94389107315E+03  0.50400001928E-02 0.  1.
    10030    2    1    2    0    0  0.00000000000E+00  0.00000000000E+00 -0.38644146406E+03  0.15013406823E+04  0.14507538864E+04 0.  0.
        4    1    3    3  502    0 -0.85507876199E+02 -0.71976919373E+03 -0.16411885754E+03  0.74317958895E+03  0.12699999809E+01 0. -1.
       -4    1    3    3    0  502  0.85507876199E+02  0.71976919373E+03 -0.22232260653E+03  0.75816109331E+03  0.12699999809E+01 0.  1.
</event>
<event>
 5   0  0.1004313E-04  0.1505017E+04  0.7818609E-02  0.8881124E-01
        3   -1    0    0  501    0  0.00000000000E+00  0.00000000000E+00  0.10647263801E+04  0.10647263849E+04  0.10100000352E+00 0. -1.
       -3   -1    0    0    0  501  0.00000000000E+00  0.00000000000E+00 -0.53184435204E+03  0.53184436163E+03  0.10100000352E+00 0.  1.
    10030    2    1    2    0    0  0.00000000000E+00  0.00000000000E+00  0.53288202805E+03  0.15965707465E+04  0.15050165756E+04 0.  0.
        1    1    3    3  502    0 -0.45664511729E+03 -0.58369046530E+03  0.12792453491E+03  0.75205319565E+03  0.50400001928E-02 0. -1.
       -1    1    3    3    0  502  0.45664511729E+03  0.58369046530E+03  0.40495749314E+03  0.84451755086E+03  0.50400001928E-02 0.  1.
</event>
<event>
 5   0  0.1484251E-04  0.1503239E+04  0.7818609E-02  0.8882302E-01
        1   -1    0    0  501    0  0.00000000000E+00  0.00000000000E+00  0.76204295034E+03  0.76204295036E+03  0.50400001928E-02 0.  1.
       -1   -1    0    0    0  501  0.00000000000E+00  0.00000000000E+00 -0.74133843495E+03  0.74133843497E+03  0.50400001928E-02 0. -1.
    10030    2    1    2    0    0  0.00000000000E+00  0.00000000000E+00  0.20704515389E+02  0.15033813853E+04  0.15032388076E+04 0.  0.
        5    1    3    3  502    0 -0.58949257233E+03  0.36038613590E+03  0.30623497621E+03  0.75576557902E+03  0.46999998093E+01 0. -1.
       -5    1    3    3    0  502  0.58949257233E+03 -0.36038613590E+03 -0.28553046082E+03  0.74761580630E+03  0.46999998093E+01 0.  1.
</event>
<event>
 5   0  0.2641347E-04  0.1495911E+04  0.7818609E-02  0.8887177E-01
       -2   -1    0    0    0  501  0.00000000000E+00  0.00000000000E+00  0.41356197826E+03  0.41356197827E+03  0.25500000920E-02 0.  1.
        2   -1    0    0  501    0  0.00000000000E+00  0.00000000000E+00 -0.13527288198E+04  0.13527288198E+04  0.25500000920E-02 0. -1.
    10030    2    1    2    0    0  0.00000000000E+00  0.00000000000E+00 -0.93916684158E+03  0.17662907981E+04  0.14959107016E+04 0.  0.
        4    1    3    3  502    0  0.30687147677E+03 -0.67094456839E+03 -0.61467054007E+03  0.96029068664E+03  0.12699999809E+01 0. -1.
       -4    1    3    3    0  502 -0.30687147677E+03  0.67094456839E+03 -0.32449630151E+03  0.80600011148E+03  0.12699999809E+01 0.  1.
</event>
<event>
 5   0  0.2618901E-04  0.1493058E+04  0.7818609E-02  0.8889083E-01
       -2   -1    0    0    0  501  0.00000000000E+00  0.00000000000E+00  0.34781908078E+03  0.34781908079E+03  0.25500000920E-02 0.  1.
        2   -1    0    0  501    0  0.00000000000E+00  0.00000000000E+00 -0.16022851626E+04  0.16022851626E+04  0.25500000920E-02 0. -1.
    10030    2    1    2    0    0  0.00000000000E+00  0.00000000000E+00 -0.12544660818E+04  0.19501042434E+04  0.14930577382E+04 0.  0.
        1    1    3    3  502    0 -0.42096005415E+03  0.87789226492E+02 -0.14242743568E+04  0.14877740954E+04  0.50400001928E-02 0. -1.
       -1    1    3    3    0  502  0.42096005415E+03 -0.87789226492E+02  0.16980827496E+03  0.46233014800E+03  0.50400001928E-02 0.  1.
</event>
<event>
 5   0  0.2696040E-04  0.1497363E+04  0.7818609E-02  0.8886208E-01
       -2   -1    0    0    0  501  0.00000000000E+00  0.00000000000E+00  0.12771062480E+04  0.12771062480E+04  0.25500000920E-02 0.  1.
        2   -1    0    0  501    0  0.00000000000E+00  0.00000000000E+00 -0.43890161153E+03  0.43890161154E+03  0.25500000920E-02 0. -1.
    10030    2    1    2    0    0  0.00000000000E+00  0.00000000000E+00  0.83820463650E+03  0.17160078596E+04  0.14973630026E+04 0.  0.
        2    1    3    3  502    0  0.41257591924E+03  0.54140377427E+02 -0.29417327570E+03  0.50959590437E+03  0.25500000920E-02 0. -1.
       -2    1    3    3    0  502 -0.41257591924E+03 -0.54140377427E+02  0.11323779122E+04  0.12064119552E+04  0.25500000920E-02 0.  1.
</event>
<event>
 5   0  0.2734072E-04  0.1499779E+04  0.7818609E-02  0.8884600E-01
        2   -1    0    0  501    0  0.00000000000E+00  0.00000000000E+00  0.10629780269E+04  0.10629780269E+04  0.25500000920E-02 0.  1.
       -2   -1    0    0    0  501  0.00000000000E+00  0.00000000000E+00 -0.52901773598E+03  0.52901773598E+03  0.25500000920E-02 0. -1.
    10030    2    1    2    0    0  0.00000000000E+00  0.00000000000E+00  0.53396029094E+03  0.15919957629E+04  0.14997789560E+04 0.  0.
        5    1    3    3  502    0  0.74692553048E+03 -0.72795010397E+01  0.19687859705E+03  0.77248560582E+03  0.46999998093E+01 0. -1.
       -5    1    3    3    0  502 -0.74692553048E+03  0.72795010397E+01  0.33708169389E+03  0.81951015709E+03  0.46999998093E+01 0.  1.
</event>
<event>
 5   0  0.2696040E-04  0.1498975E+04  0.7818609E-02  0.8885135E-01
        2   -1    0    0  501    0  0.00000000000E+00  0.00000000000E+00  0.12586780685E+04  0.12586780685E+04  0.25500000920E-02 0.  1.
       -2   -1    0    0    0  501  0.00000000000E+00  0.00000000000E+00 -0.44628695541E+03  0.44628695541E+03  0.25500000920E-02 0. -1.
    10030    2    1    2    0    0  0.00000000000E+00  0.00000000000E+00  0.81239111310E+03  0.17049650239E+04  0.14989751206E+04 0.  0.
        2    1    3    3  502    0 -0.17612195894E+03 -0.47809266954E+03 -0.21901341822E+03  0.55457950058E+03  0.25500000920E-02 0. -1.
       -2    1    3    3    0  502  0.17612195894E+03  0.47809266954E+03  0.10314045313E+04  0.11503855233E+04  0.25500000920E-02 0.  1.
</event>
<event>
 5   0  0.1474203E-04  0.1503290E+04  0.7818609E-02  0.8882268E-01
       -1   -1    0    0    0  501  0.00000000000E+00  0.00000000000E+00  0.72415390504E+03  0.72415390506E+03  0.50400001928E-02 0.  1.
        1   -1    0    0  501    0  0.00000000000E+00  0.00000000000E+00 -0.78017942272E+03  0.78017942274E+03  0.50400001928E-02 0. -1.
    10030    2    1    2    0    0  0.00000000000E+00  0.00000000000E+00 -0.56025517686E+02  0.15043333278E+04  0.15032896935E+04 0.  0.
        3    1    3    3  502    0 -0.52381604649E+03 -0.16257710203E+03  0.48630455490E+03  0.73301207015E+03  0.10100000352E+00 0.  1.
       -3    1    3    3    0  502  0.52381604649E+03  0.16257710203E+03 -0.54233007259E+03  0.77132125765E+03  0.10100000352E+00 0. -1.
</event>
<event>
 5   0  0.2618901E-04  0.1519795E+04  0.7818609E-02  0.8871395E-01
       -2   -1    0    0    0  501  0.00000000000E+00  0.00000000000E+00  0.59971390179E+03  0.59971390180E+03  0.25500000920E-02 0. -1.
        2   -1    0    0  501    0  0.00000000000E+00  0.00000000000E+00 -0.96286622799E+03  0.96286622800E+03  0.25500000920E-02 0.  1.
    10030    2    1    2    0    0  0.00000000000E+00  0.00000000000E+00 -0.36315232620E+03  0.15625801298E+04  0.15197950684E+04 0.  0.
        1    1    3    3  502    0  0.32962711083E+03  0.30494947029E+03 -0.81185593970E+03  0.92777059583E+03  0.50400001928E-02 0.  1.
       -1    1    3    3    0  502 -0.32962711083E+03 -0.30494947029E+03  0.44870361350E+03  0.63480953397E+03  0.50400001928E-02 0. -1.
</event>
<event>
 5   0  0.1443750E-04  0.1501024E+04  0.7818609E-02  0.8883772E-01
        1   -1    0    0  501    0  0.00000000000E+00  0.00000000000E+00  0.11041747560E+04  0.11041747560E+04  0.50400001928E-02 0.  1.
       -1   -1    0    0    0  501  0.00000000000E+00  0.00000000000E+00 -0.51012609755E+03  0.51012609758E+03  0.50400001928E-02 0. -1.
    10030    2    1    2    0    0  0.00000000000E+00  0.00000000000E+00  0.59404865843E+03  0.16143008536E+04  0.15010241295E+04 0.  0.
        2    1    3    3  502    0 -0.30544823822E+03 -0.31284251403E+02  0.10335350455E+04  0.10781799576E+04  0.25500000920E-02 0.  1.
       -2    1    3    3    0  502  0.30544823822E+03  0.31284251403E+02 -0.43948638712E+03  0.53612089596E+03  0.25500000920E-02 0. -1.
</event>
<event>
 5   0  0.1427609E-04  0.1501445E+04  0.7818609E-02  0.8883492E-01
       -1   -1    0    0    0  501  0.00000000000E+00  0.00000000000E+00  0.93330961263E+03  0.93330961264E+03  0.50400001928E-02 0.  1.
        1   -1    0    0  501    0  0.00000000000E+00  0.00000000000E+00 -0.60385600815E+03  0.60385600818E+03  0.50400001928E-02 0. -1.
    10030    2    1    2    0    0  0.00000000000E+00  0.00000000000E+00  0.32945360447E+03  0.15371656208E+04  0.15014454597E+04 0.  0.
        4    1    3    3  502    0  0.49905173414E+03 -0.42200242572E+03 -0.21344473422E+03  0.68753105248E+03  0.12699999809E+01 0. -1.
       -4    1    3    3    0  502 -0.49905173414E+03  0.42200242572E+03  0.54289833869E+03  0.84963456834E+03  0.12699999809E+01 0.  1.
</event>
<event>
 5   0  0.2646718E-04  0.1504922E+04  0.7818609E-02  0.8881187E-01
        2   -1    0    0  501    0  0.00000000000E+00  0.00000000000E+00  0.12197859788E+04  0.12197859788E+04  0.25500000920E-02 0. -1.
       -2   -1    0    0    0  501  0.00000000000E+00  0.00000000000E+00 -0.46417752208E+03  0.46417752209E+03  0.25500000920E-02 0.  1.
    10030    2    1    2    0    0  0.00000000000E+00  0.00000000000E+00  0.75560845668E+03  0.16839635009E+04  0.15049215702E+04 0.  0.
        3    1    3    3  502    0 -0.18372632368E+03  0.62554748690E+03  0.79817437545E+03  0.10306053387E+04  0.10100000352E+00 0. -1.
       -3    1    3    3    0  502  0.18372632368E+03 -0.62554748690E+03 -0.42565918769E+02  0.65335816213E+03  0.10100000352E+00 0.  1.
</event>
<event>
 5   0  0.2734072E-04  0.1508693E+04  0.7818609E-02  0.8878693E-01
        2   -1    0    0  501    0  0.00000000000E+00  0.00000000000E+00  0.70000456331E+03  0.70000456331E+03  0.25500000920E-02 0. -1.
       -2   -1    0    0    0  501  0.00000000000E+00  0.00000000000E+00 -0.81290728058E+03  0.81290728058E+03  0.25500000920E-02 0.  1.
    10030    2    1    2    0    0  0.00000000000E+00  0.00000000000E+00 -0.11290271728E+03  0.15129118439E+04  0.15086932173E+04 0.  0.
        5    1    3    3  502    0 -0.38580924787E+03  0.60633325017E+03  0.17337922932E+03  0.73930456049E+03  0.46999998093E+01 0. -1.
       -5    1    3    3    0  502  0.38580924787E+03 -0.60633325017E+03 -0.28628194659E+03  0.77360728341E+03  0.46999998093E+01 0.  1.
</event>
<event>
 5   0  0.1004313E-04  0.1504554E+04  0.7818609E-02  0.8881430E-01
       -3   -1    0    0    0  501  0.00000000000E+00  0.00000000000E+00  0.50749470104E+03  0.50749471109E+03  0.10100000352E+00 0. -1.
        3   -1    0    0  501    0  0.00000000000E+00  0.00000000000E+00 -0.11151268751E+04  0.11151268797E+04  0.10100000352E+00 0.  1.
    10030    2    1    2    0    0  0.00000000000E+00  0.00000000000E+00 -0.60763217405E+03  0.16226215908E+04  0.15045544084E+04 0.  0.
        1    1    3    3  502    0  0.14968395676E+03  0.61407479144E+03 -0.74378537490E+03  0.97606855309E+03  0.50400001928E-02 0.  1.
       -1    1    3    3    0  502 -0.14968395676E+03 -0.61407479144E+03  0.13615320085E+03  0.64655303767E+03  0.50400001928E-02 0. -1.
</event>
<event>
 5   0  0.2734072E-04  0.1503185E+04  0.7818609E-02  0.8882337E-01
       -2   -1    0    0    0  501  0.00000000000E+00  0.00000000000E+00  0.47624638160E+03  0.47624638161E+03  0.25500000920E-02 0.  1.
        2   -1    0    0  501    0  0.00000000000E+00  0.00000000000E+00 -0.11861331960E+04  0.11861331960E+04  0.25500000920E-02 0. -1.
    10030    2    1    2    0    0  0.00000000000E+00  0.00000000000E+00 -0.70988681435E+03  0.16623795776E+04  0.15031854745E+04 0.  0.
        5    1    3    3  502    0  0.25295436576E+03  0.69965168525E+03 -0.47287224696E+03  0.88154900248E+03  0.46999998093E+01 0. -1.
       -5    1    3    3    0  502 -0.25295436576E+03 -0.69965168525E+03 -0.23701456740E+03  0.78083057508E+03  0.46999998093E+01 0.  1.
</event>
<event>
 5   0  0.2618901E-04  0.1482607E+04  0.7818609E-02  0.8896102E-01
        2   -1    0    0  501    0  0.00000000000E+00  0.00000000000E+00  0.17232877337E+04  0.17232877337E+04  0.25500000920E-02 0.  1.
       -2   -1    0    0    0  501  0.00000000000E+00  0.00000000000E+00 -0.31888514298E+03  0.31888514299E+03  0.25500000920E-02 0. -1.
    10030    2    1    2    0    0  0.00000000000E+00  0.00000000000E+00  0.14044025907E+04  0.20421728767E+04  0.14826069680E+04 0.  0.
        1    1    3    3  502    0  0.86256313966E+02 -0.20102443572E+03 -0.27341671451E+03  0.35015378800E+03  0.50400001928E-02 0. -1.
       -1    1    3    3    0  502 -0.86256313966E+02  0.20102443572E+03  0.16778193052E+04  0.16920190887E+04  0.50400001928E-02 0.  1.
</event>
<event>
 5   0  0.1427609E-04  0.1509428E+04  0.7818609E-02  0.8878207E-01
        1   -1    0    0  501    0  0.00000000000E+00  0.00000000000E+00  0.92535650041E+03  0.92535650042E+03  0.50400001928E-02 0.  1.
       -1   -1    0    0    0  501  0.00000000000E+00  0.00000000000E+00 -0.61553954704E+03  0.61553954706E+03  0.50400001928E-02 0. -1.
    10030    2    1    2    0    0  0.00000000000E+00  0.00000000000E+00  0.30981695337E+03  0.15408960475E+04  0.15094283966E+04 0.  0.
        4    1    3    3  502    0 -0.23940506514E+03  0.70721431753E+03  0.26731778452E+03  0.79304935973E+03  0.12699999809E+01 0.  1.
       -4    1    3    3    0  502  0.23940506514E+03 -0.70721431753E+03  0.42499168843E+02  0.74784668776E+03  0.12699999809E+01 0. -1.
</event>
<event>
 5   0  0.1484251E-04  0.1501791E+04  0.7818609E-02  0.8883263E-01
       -1   -1    0    0    0  501  0.00000000000E+00  0.00000000000E+00  0.62299598939E+03  0.62299598941E+03  0.50400001928E-02 0.  1.
        1   -1    0    0  501    0  0.00000000000E+00  0.00000000000E+00 -0.90505208314E+03  0.90505208316E+03  0.50400001928E-02 0. -1.
    10030    2    1    2    0    0  0.00000000000E+00  0.00000000000E+00 -0.28205609375E+03  0.15280480726E+04  0.15017906885E+04 0.  0.
        5    1    3    3  502    0 -0.68693823453E+03 -0.36444607843E+02  0.16524881648E+03  0.70748965282E+03  0.46999998093E+01 0.  1.
       -5    1    3    3    0  502  0.68693823453E+03  0.36444607843E+02 -0.44730491023E+03  0.82055841975E+03  0.46999998093E+01 0. -1.
</event>
<event>
 5   0  0.2734072E-04  0.1502219E+04  0.7818609E-02  0.8882979E-01
       -2   -1    0    0    0  501  0.00000000000E+00  0.00000000000E+00  0.40302057676E+03  0.40302057677E+03  0.25500000920E-02 0.  1.
        2   -1    0    0  501    0  0.00000000000E+00  0.00000000000E+00 -0.13998432158E+04  0.13998432158E+04  0.25500000920E-02 0. -1.
    10030    2    1    2    0    0  0.00000000000E+00  0.00000000000E+00 -0.99682263899E+03  0.18028637925E+04  0.15022191853E+04 0.  0.
        5    1    3    3  502    0  0.23181457320E+03  0.27765702744E+02 -0.13551710885E+04  0.13751435196E+04  0.46999998093E+01 0. -1.
       -5    1    3    3    0  502 -0.23181457320E+03 -0.27765702744E+02  0.35834844947E+03  0.42772027288E+03  0.46999998093E+01 0.  1.
</event>
<event>
 5   0  0.2696040E-04  0.1499435E+04  0.7818609E-02  0.8884829E-01
        2   -1    0    0  501    0  0.00000000000E+00  0.00000000000E+00  0.19372095428E+04  0.19372095428E+04  0.25500000920E-02 0. -1.
       -2   -1    0    0    0  501  0.00000000000E+00  0.00000000000E+00 -0.29014740789E+03  0.29014740790E+03  0.25500000920E-02 0.  1.
    10030    2    1    2    0    0  0.00000000000E+00  0.00000000000E+00  0.16470621349E+04  0.22273569507E+04  0.14994349968E+04 0.  0.
        2    1    3    3  502    0  0.32982535083E+03 -0.31267681594E+03  0.17092524170E+04  0.17686422415E+04  0.25500000920E-02 0. -1.
       -2    1    3    3    0  502 -0.32982535083E+03  0.31267681594E+03 -0.62190282083E+02  0.45871470923E+03  0.25500000920E-02 0.  1.
</event>
<event>
 5   0  0.2646718E-04  0.1497982E+04  0.7818609E-02  0.8885796E-01
       -2   -1    0    0    0  501  0.00000000000E+00  0.00000000000E+00  0.28381632404E+03  0.28381632405E+03  0.25500000920E-02 0.  1.
        2   -1    0    0  501    0  0.00000000000E+00  0.00000000000E+00 -0.19765854051E+04  0.19765854051E+04  0.25500000920E-02 0. -1.
    10030    2    1    2    0    0  0.00000000000E+00  0.00000000000E+00 -0.16927690810E+04  0.22604017291E+04  0.14979815804E+04 0.  0.
        3    1    3    3  502    0 -0.20355377927E+03  0.67684024193E+03 -0.47235495073E+03  0.85009767899E+03  0.10100000352E+00 0. -1.
       -3    1    3    3    0  502  0.20355377927E+03 -0.67684024193E+03 -0.12204141303E+04  0.14103040501E+04  0.10100000352E+00 0.  1.
</event>
<event>
 5   0  0.1426929E-04  0.1493863E+04  0.7818609E-02  0.8888544E-01
       -1   -1    0    0    0  501  0.00000000000E+00  0.00000000000E+00  0.53535112779E+03  0.53535112781E+03  0.50400001928E-02 0.  1.
        1   -1    0    0  501    0  0.00000000000E+00  0.00000000000E+00 -0.10421328178E+04  0.10421328178E+04  0.50400001928E-02 0. -1.
    10030    2    1    2    0    0  0.00000000000E+00  0.00000000000E+00 -0.50678169001E+03  0.15774839456E+04  0.14938634199E+04 0.  0.
        1    1    3    3  502    0 -0.29119274617E+03 -0.99857192042E+02 -0.97203067110E+03  0.10196118378E+04  0.50400001928E-02 0. -1.
       -1    1    3    3    0  502  0.29119274617E+03  0.99857192042E+02  0.46524898109E+03  0.55787210780E+03  0.50400001928E-02 0.  1.
</event>
<event>
 5   0  0.2646718E-04  0.1498753E+04  0.7818609E-02  0.8885283E-01
        2   -1    0    0  501    0  0.00000000000E+00  0.00000000000E+00  0.89905625985E+03  0.89905625986E+03  0.25500000920E-02 0. -1.
       -2   -1    0    0    0  501  0.00000000000E+00  0.00000000000E+00 -0.62461587533E+03  0.62461587533E+03  0.25500000920E-02 0.  1.
    10030    2    1    2    0    0  0.00000000000E+00  0.00000000000E+00  0.27444038452E+03  0.15236721352E+04  0.14987525649E+04 0.  0.
        3    1    3    3  502    0  0.47403256087E+03 -0.34079631980E+02  0.72624691835E+03  0.86793023147E+03  0.10100000352E+00 0. -1.
       -3    1    3    3    0  502 -0.47403256087E+03  0.34079631980E+02 -0.45180653383E+03  0.65574190372E+03  0.10100000352E+00 0.  1.
</event>
<event>
 5   0  0.2734072E-04  0.1501663E+04  0.7818609E-02  0.8883348E-01
        2   -1    0    0  501    0  0.00000000000E+00  0.00000000000E+00  0.72334184152E+03  0.72334184153E+03  0.25500000920E-02 0. -1.
       -2   -1    0    0    0  501  0.00000000000E+00  0.00000000000E+00 -0.77936604973E+03  0.77936604973E+03  0.25500000920E-02 0.  1.
    10030    2    1    2    0    0  0.00000000000E+00  0.00000000000E+00 -0.56024208208E+02  0.15027078913E+04  0.15016631761E+04 0.  0.
        5    1    3    3  502    0 -0.38088825959E+02 -0.71343533456E+03 -0.25900867515E+03  0.75996599862E+03  0.46999998093E+01 0.  1.
       -5    1    3    3    0  502  0.38088825959E+02  0.71343533456E+03  0.20298446694E+03  0.74274189264E+03  0.46999998093E+01 0. -1.
</event>
<event>
 5   0  0.1426929E-04  0.1502831E+04  0.7818609E-02  0.8882572E-01
        1   -1    0    0  501    0  0.00000000000E+00  0.00000000000E+00  0.94439795872E+03  0.94439795873E+03  0.50400001928E-02 0.  1.
       -1   -1    0    0    0  501  0.00000000000E+00  0.00000000000E+00 -0.59786812818E+03  0.59786812820E+03  0.50400001928E-02 0. -1.
    10030    2    1    2    0    0  0.00000000000E+00  0.00000000000E+00  0.34652983054E+03  0.15422660869E+04  0.15028312478E+04 0.  0.
        1    1    3    3  502    0  0.28445017720E+03  0.34350156061E+03  0.79388178311E+03  0.91057866823E+03  0.50400001928E-02 0.  1.
       -1    1    3    3    0  502 -0.28445017720E+03 -0.34350156061E+03 -0.44735195257E+03  0.63168741870E+03  0.50400001928E-02 0. -1.
</event>
<event>
 5   0  0.1443750E-04  0.1462851E+04  0.7818609E-02  0.8909539E-01
        1   -1    0    0  501    0  0.00000000000E+00  0.00000000000E+00  0.13977731741E+04  0.13977731742E+04  0.50400001928E-02 0.  1.
       -1   -1    0    0    0  501  0.00000000000E+00  0.00000000000E+00 -0.38273983622E+03  0.38273983625E+03  0.50400001928E-02 0. -1.
    10030    2    1    2    0    0  0.00000000000E+00  0.00000000000E+00  0.10150333379E+04  0.17805130104E+04  0.14628512922E+04 0.  0.
        2    1    3    3  502    0  0.35718442414E+03  0.63422949867E+03  0.59491216288E+03  0.94007885381E+03  0.25500000920E-02 0.  1.
       -2    1    3    3    0  502 -0.35718442414E+03 -0.63422949867E+03  0.42012117505E+03  0.84043415659E+03  0.25500000920E-02 0. -1.
</event>
<event>
 5   0  0.2641347E-04  0.1499333E+04  0.7818609E-02  0.8884896E-01
        2   -1    0    0  501    0  0.00000000000E+00  0.00000000000E+00  0.17457774112E+04  0.17457774112E+04  0.25500000920E-02 0. -1.
       -2   -1    0    0    0  501  0.00000000000E+00  0.00000000000E+00 -0.32191959733E+03  0.32191959734E+03  0.25500000920E-02 0.  1.
    10030    2    1    2    0    0  0.00000000000E+00  0.00000000000E+00  0.14238578139E+04  0.20676970086E+04  0.14993331335E+04 0.  0.
        4    1    3    3  502    0  0.67547051738E+03 -0.31126213553E+03  0.58216500476E+03  0.94449046714E+03  0.12699999809E+01 0.  1.
       -4    1    3    3    0  502 -0.67547051738E+03  0.31126213553E+03  0.84169280912E+03  0.11232065414E+04  0.12699999809E+01 0. -1.
</event>
<event>
 5   0  0.2641347E-04  0.1497034E+04  0.7818609E-02  0.8886428E-01
       -2   -1    0    0    0  501  0.00000000000E+00  0.00000000000E+00  0.29293753781E+03  0.29293753782E+03  0.25500000920E-02 0. -1.
        2   -1    0    0  501    0  0.00000000000E+00  0.00000000000E+00 -0.19126171729E+04  0.19126171729E+04  0.25500000920E-02 0.  1.
    10030    2    1    2    0    0  0.00000000000E+00  0.00000000000E+00 -0.16196796351E+04  0.22055547107E+04  0.14970335540E+04 0.  0.
        4    1    3    3  502    0 -0.69005391290E+03 -0.19661948819E+03 -0.49577764928E+03  0.87214145428E+03  0.12699999809E+01 0. -1.
       -4    1    3    3    0  502  0.69005391290E+03  0.19661948819E+03 -0.11239019858E+04  0.13334132565E+04  0.12699999809E+01 0.  1.
</event>
<event>
 5   0  0.2696040E-04  0.1504681E+04  0.7818609E-02  0.8881346E-01
        2   -1    0    0  501    0  0.00000000000E+00  0.00000000000E+00  0.15768308031E+04  0.15768308031E+04  0.25500000920E-02 0. -1.
       -2   -1    0    0    0  501  0.00000000000E+00  0.00000000000E+00 -0.35895813835E+03  0.35895813836E+03  0.25500000920E-02 0.  1.
    10030    2    1    2    0    0  0.00000000000E+00  0.00000000000E+00  0.12178726647E+04  0.19357889414E+04  0.15046810288E+04 0.  0.
        2    1    3    3  502    0  0.53009736461E+03  0.30521504896E+03  0.45425633604E+02  0.61337014133E+03  0.25500000920E-02 0.  1.
       -2    1    3    3    0  502 -0.53009736461E+03 -0.30521504896E+03  0.11724470311E+04  0.13224188001E+04  0.25500000920E-02 0. -1.
</event>
<event>
 5   0  0.2618901E-04  0.1500089E+04  0.7818609E-02  0.8884394E-01
        2   -1    0    0  501    0  0.00000000000E+00  0.00000000000E+00  0.73905641900E+03  0.73905641900E+03  0.25500000920E-02 0.  1.
       -2   -1    0    0    0  501  0.00000000000E+00  0.00000000000E+00 -0.76119550886E+03  0.76119550886E+03  0.25500000920E-02 0. -1.
    10030    2    1    2    0    0  0.00000000000E+00  0.00000000000E+00 -0.22139089863E+02  0.15002519279E+04  0.15000885666E+04 0.  0.
        1    1    3    3  502    0 -0.72004262965E+03 -0.78653555438E+02 -0.20581788468E+03  0.75299984859E+03  0.50400001928E-02 0. -1.
       -1    1    3    3    0  502  0.72004262965E+03  0.78653555438E+02  0.18367879482E+03  0.74725207928E+03  0.50400001928E-02 0.  1.
</event>
<event>
 5   0  0.2641347E-04  0.1449326E+04  0.7818609E-02  0.8918868E-01
        2   -1    0    0  501    0  0.00000000000E+00  0.00000000000E+00  0.12590187972E+04  0.12590187972E+04  0.25500000920E-02 0. -1.
       -2   -1    0    0    0  501  0.00000000000E+00  0.00000000000E+00 -0.41709986247E+03  0.41709986248E+03  0.25500000920E-02 0.  1.
    10030    2    1    2    0    0  0.00000000000E+00  0.00000000000E+00  0.84191893475E+03  0.16761186597E+04  0.14493261430E+04 0.  0.
        4    1    3    3  502    0  0.19233691977E+03  0.68857410742E+03  0.28408775109E+03  0.76930829668E+03  0.12699999809E+01 0.  1.
       -4    1    3    3    0  502 -0.19233691977E+03 -0.68857410742E+03  0.55783118366E+03  0.90681036302E+03  0.12699999809E+01 0. -1.
</event>
<event>
 5   0  0.2646718E-04  0.1498938E+04  0.7818609E-02  0.8885160E-01
        2   -1    0    0  501    0  0.00000000000E+00  0.00000000000E+00  0.16329468341E+04  0.16329468341E+04  0.25500000920E-02 0.  1.
       -2   -1    0    0    0  501  0.00000000000E+00  0.00000000000E+00 -0.34398150376E+03  0.34398150377E+03  0.25500000920E-02 0. -1.
    10030    2    1    2    0    0  0.00000000000E+00  0.00000000000E+00  0.12889653303E+04  0.19769283379E+04  0.14989376339E+04 0.  0.
        3    1    3    3  502    0 -0.72007683054E+03 -0.85143705527E+02  0.39443835832E+03  0.82543426218E+03  0.10100000352E+00 0. -1.
       -3    1    3    3    0  502  0.72007683054E+03  0.85143705527E+02  0.89452697201E+03  0.11514940757E+04  0.10100000352E+00 0.  1.
</event>
<event>
 5   0  0.1426929E-04  0.1512522E+04  0.7818609E-02  0.8876168E-01
       -1   -1    0    0    0  501  0.00000000000E+00  0.00000000000E+00  0.70611825330E+03  0.70611825332E+03  0.50400001928E-02 0. -1.
        1   -1    0    0  501    0  0.00000000000E+00  0.00000000000E+00 -0.80996489789E+03  0.80996489790E+03  0.50400001928E-02 0.  1.
    10030    2    1    2    0    0  0.00000000000E+00  0.00000000000E+00 -0.10384664459E+03  0.15160831512E+04  0.15125223951E+04 0.  0.
        1    1    3    3  502    0 -0.79796607092E+02  0.28976142452E+03  0.64368579570E+03  0.71039466865E+03  0.50400001928E-02 0. -1.
       -1    1    3    3    0  502  0.79796607092E+02 -0.28976142452E+03 -0.74753244028E+03  0.80568848257E+03  0.50400001928E-02 0.  1.
</event>
<event>
 5   0  0.1474203E-04  0.1496485E+04  0.7818609E-02  0.8886794E-01
        1   -1    0    0  501    0  0.00000000000E+00  0.00000000000E+00  0.47970056389E+03  0.47970056392E+03  0.50400001928E-02 0.  1.
       -1   -1    0    0    0  501  0.00000000000E+00  0.00000000000E+00 -0.11671176217E+04  0.11671176217E+04  0.50400001928E-02 0. -1.
    10030    2    1    2    0    0  0.00000000000E+00  0.00000000000E+00 -0.68741705781E+03  0.16468181856E+04  0.14964851904E+04 0.  0.
        3    1    3    3  502    0  0.28274605983E+03 -0.24231805560E+03 -0.10579075760E+04  0.11215310178E+04  0.10100000352E+00 0. -1.
       -3    1    3    3    0  502 -0.28274605983E+03  0.24231805560E+03  0.37049051816E+03  0.52528716781E+03  0.10100000352E+00 0.  1.
</event>
<event>
 5   0  0.1427609E-04  0.1499826E+04  0.7818609E-02  0.8884568E-01
       -1   -1    0    0    0  501  0.00000000000E+00  0.00000000000E+00  0.43516082358E+03  0.43516082361E+03  0.50400001928E-02 0. -1.
        1   -1    0    0  501    0  0.00000000000E+00  0.00000000000E+00 -0.12923261084E+04  0.12923261085E+04  0.50400001928E-02 0.  1.
    10030    2    1    2    0    0  0.00000000000E+00  0.00000000000E+00 -0.85716528487E+03  0.17274869321E+04  0.14998262482E+04 0.  0.
        4    1    3    3  502    0  0.67466119175E+03  0.27968208595E+03 -0.23251307859E+03  0.76645530690E+03  0.12699999809E+01 0. -1.
       -4    1    3    3    0  502 -0.67466119175E+03 -0.27968208595E+03 -0.62465220628E+03  0.96103162516E+03  0.12699999809E+01 0.  1.
</event>
<event>
 5   0  0.1426929E-04  0.1501545E+04  0.7818609E-02  0.8883426E-01
       -1   -1    0    0    0  501  0.00000000000E+00  0.00000000000E+00  0.75190498993E+03  0.75190498994E+03  0.50400001928E-02 0. -1.
        1   -1    0    0  501    0  0.00000000000E+00  0.00000000000E+00 -0.74964183415E+03  0.74964183417E+03  0.50400001928E-02 0.  1.
    10030    2    1    2    0    0  0.00000000000E+00  0.00000000000E+00  0.22631557741E+01  0.15015468241E+04  0.15015451186E+04 0.  0.
        1    1    3    3  502    0  0.60258154315E+03  0.37064145743E+03  0.25248784532E+03  0.75115226031E+03  0.50400001928E-02 0. -1.
       -1    1    3    3    0  502 -0.60258154315E+03 -0.37064145743E+03 -0.25022468954E+03  0.75039456381E+03  0.50400001928E-02 0.  1.
</event>
<event>
 5   0  0.2618901E-04  0.1502045E+04  0.7818609E-02  0.8883094E-01
       -2   -1    0    0    0  501  0.00000000000E+00  0.00000000000E+00  0.57137422636E+03  0.57137422637E+03  0.25500000920E-02 0.  1.
        2   -1    0    0  501    0  0.00000000000E+00  0.00000000000E+00 -0.98715530495E+03  0.98715530496E+03  0.25500000920E-02 0. -1.
    10030    2    1    2    0    0  0.00000000000E+00  0.00000000000E+00 -0.41578107859E+03  0.15585295313E+04  0.15020454037E+04 0.  0.
        1    1    3    3  502    0 -0.86686850059E+02 -0.41855147583E+03 -0.84863578865E+03  0.95020137323E+03  0.50400001928E-02 0. -1.
       -1    1    3    3    0  502  0.86686850059E+02  0.41855147583E+03  0.43285471006E+03  0.60832815810E+03  0.50400001928E-02 0.  1.
</event>
<event>
 5   0  0.2641347E-04  0.1498488E+04  0.7818609E-02  0.8885459E-01
        2   -1    0    0  501    0  0.00000000000E+00  0.00000000000E+00  0.94974127292E+03  0.94974127292E+03  0.25500000920E-02 0.  1.
       -2   -1    0    0    0  501  0.00000000000E+00  0.00000000000E+00 -0.59107304801E+03  0.59107304801E+03  0.25500000920E-02 0. -1.
    10030    2    1    2    0    0  0.00000000000E+00  0.00000000000E+00  0.35866822492E+03  0.15408143209E+04  0.14984878632E+04 0.  0.
        4    1    3    3  502    0  0.35742967636E+03 -0.15992540941E+03 -0.47748319111E+03  0.61751430819E+03  0.12699999809E+01 0. -1.
       -4    1    3    3    0  502 -0.35742967636E+03  0.15992540941E+03  0.83615141603E+03  0.92330001275E+03  0.12699999809E+01 0.  1.
</event>
<event>
 5   0  0.2696040E-04  0.1488832E+04  0.7818609E-02  0.8891913E-01
       -2   -1    0    0    0  501  0.00000000000E+00  0.00000000000E+00  0.33430787118E+03  0.33430787119E+03  0.25500000920E-02 0.  1.
        2   -1    0    0  501    0  0.00000000000E+00  0.00000000000E+00 -0.16576202365E+04  0.16576202366E+04  0.25500000920E-02 0. -1.
    10030    2    1    2    0    0  0.00000000000E+00  0.00000000000E+00 -0.13233123654E+04  0.19919281077E+04  0.14888324184E+04 0.  0.
        2    1    3    3  502    0 -0.10850632433E+03 -0.49205831243E+03 -0.13947793363E+04  0.14830051930E+04  0.25500000920E-02 0. -1.
       -2    1    3    3    0  502  0.10850632433E+03  0.49205831243E+03  0.71466970974E+02  0.50892291479E+03  0.25500000920E-02 0.  1.
</event>
<event>
 5   0  0.1484251E-04  0.1502115E+04  0.7818609E-02  0.8883048E-01
        1   -1    0    0  501    0  0.00000000000E+00  0.00000000000E+00  0.12507248469E+04  0.12507248470E+04  0.50400001928E-02 0.  1.
       -1   -1    0    0    0  501  0.00000000000E+00  0.00000000000E+00 -0.45100807045E+03  0.45100807048E+03  0.50400001928E-02 0. -1.
    10030    2    1    2    0    0  0.00000000000E+00  0.00000000000E+00  0.79971677650E+03  0.17017329174E+04  0.15021145095E+04 0.  0.
        5    1    3    3  502    0  0.87047612937E+02 -0.32642205159E+03  0.11597713618E+04  0.12079819305E+04  0.46999998093E+01 0.  1.
       -5    1    3    3    0  502 -0.87047612937E+02  0.32642205159E+03 -0.36005458533E+03  0.49375098694E+03  0.46999998093E+01 0. -1.
</event>
<event>
 5   0  0.1474203E-04  0.1513987E+04  0.7818609E-02  0.8875205E-01
        1   -1    0    0  501    0  0.00000000000E+00  0.00000000000E+00  0.14038159186E+04  0.14038159186E+04  0.50400001928E-02 0.  1.
       -1   -1    0    0    0  501  0.00000000000E+00  0.00000000000E+00 -0.40820098419E+03  0.40820098422E+03  0.50400001928E-02 0. -1.
    10030    2    1    2    0    0  0.00000000000E+00  0.00000000000E+00  0.99561493440E+03  0.18120169028E+04  0.15139868423E+04 0.  0.
        3    1    3    3  502    0 -0.16748016491E+03 -0.59229633859E+03 -0.29587776912E+02  0.61623048049E+03  0.10100000352E+00 0. -1.
       -3    1    3    3    0  502  0.16748016491E+03  0.59229633859E+03  0.10252027113E+04  0.11957864223E+04  0.10100000352E+00 0.  1.
</event>
<event>
 5   0  0.2618901E-04  0.1400377E+04  0.7818609E-02  0.8953545E-01
        2   -1    0    0  501    0  0.00000000000E+00  0.00000000000E+00  0.21488811331E+04  0.21488811331E+04  0.25500000920E-02 0. -1.
       -2   -1    0    0    0  501  0.00000000000E+00  0.00000000000E+00 -0.22814860412E+03  0.22814860414E+03  0.25500000920E-02 0.  1.
    10030    2    1    2    0    0  0.00000000000E+00  0.00000000000E+00  0.19207325289E+04  0.23770297372E+04  0.14003774219E+04 0.  0.
        1    1    3    3  502    0 -0.41309925629E+03 -0.51268823638E+03  0.13647801324E+04  0.15152970115E+04  0.50400001928E-02 0. -1.
       -1    1    3    3    0  502  0.41309925629E+03  0.51268823638E+03  0.55595239650E+03  0.86173272565E+03  0.50400001928E-02 0.  1.
</event>
<event>
 5   0  0.1427609E-04  0.1511833E+04  0.7818609E-02  0.8876622E-01
        1   -1    0    0  501    0  0.00000000000E+00  0.00000000000E+00  0.10405396719E+04  0.10405396719E+04  0.50400001928E-02 0. -1.
       -1   -1    0    0    0  501  0.00000000000E+00  0.00000000000E+00 -0.54914746847E+03  0.54914746850E+03  0.50400001928E-02 0.  1.
    10030    2    1    2    0    0  0.00000000000E+00  0.00000000000E+00  0.49139220342E+03  0.15896871404E+04  0.15118329626E+04 0.  0.
        4    1    3    3  502    0  0.13360772220E+02 -0.72492697506E+03  0.47050617269E+03  0.86433517854E+03  0.12699999809E+01 0. -1.
       -4    1    3    3    0  502 -0.13360772220E+02  0.72492697506E+03  0.20886030730E+02  0.72535196187E+03  0.12699999809E+01 0.  1.
</event>
<event>
 5   0  0.1474203E-04  0.1499268E+04  0.7818609E-02  0.8884940E-01
       -1   -1    0    0    0  501  0.00000000000E+00  0.00000000000E+00  0.64258222734E+03  0.64258222736E+03  0.50400001928E-02 0.  1.
        1   -1    0    0  501    0  0.00000000000E+00  0.00000000000E+00 -0.87452058231E+03  0.87452058232E+03  0.50400001928E-02 0. -1.
    10030    2    1    2    0    0  0.00000000000E+00  0.00000000000E+00 -0.23193835497E+03  0.15171028097E+04  0.14992683331E+04 0.  0.
        3    1    3    3  502    0 -0.41031189890E+03 -0.29946624050E+03  0.44187391835E+03  0.67326700015E+03  0.10100000352E+00 0.  1.
       -3    1    3    3    0  502  0.41031189890E+03  0.29946624050E+03 -0.67381227331E+03  0.84383580953E+03  0.10100000352E+00 0. -1.
</event>
<event>
 5   0  0.1426929E-04  0.1499155E+04  0.7818609E-02  0.8885015E-01
        1   -1    0    0  501    0  0.00000000000E+00  0.00000000000E+00  0.37523219148E+03  0.37523219151E+03  0.50400001928E-02 0.  1.
       -1   -1    0    0    0  501  0.00000000000E+00  0.00000000000E+00 -0.14973835062E+04  0.14973835062E+04  0.50400001928E-02 0. -1.
    10030    2    1    2    0    0  0.00000000000E+00  0.00000000000E+00 -0.11221513147E+04  0.18726156977E+04  0.14991550881E+04 0.  0.
        1    1    3    3  502    0  0.41064621245E+03 -0.62665315967E+03 -0.59015615373E+03  0.95373412445E+03  0.50400001928E-02 0. -1.
       -1    1    3    3    0  502 -0.41064621245E+03  0.62665315967E+03 -0.53199516095E+03  0.91888157323E+03  0.50400001928E-02 0.  1.
</event>
<event>
 5   0  0.1484251E-04  0.1497971E+04  0.7818609E-02  0.8885804E-01
        1   -1    0    0  501    0  0.00000000000E+00  0.00000000000E+00  0.73085192695E+03  0.73085192697E+03  0.50400001928E-02 0.  1.
       -1   -1    0    0    0  501  0.00000000000E+00  0.00000000000E+00 -0.76756860820E+03  0.76756860822E+03  0.50400001928E-02 0. -1.
    10030    2    1    2    0    0  0.00000000000E+00  0.00000000000E+00 -0.36716681253E+02  0.14984205352E+04  0.14979706224E+04 0.  0.
        5    1    3    3  502    0 -0.43505522697E+03  0.38546564574E+03  0.45411824862E+03  0.73763289534E+03  0.46999998093E+01 0.  1.
       -5    1    3    3    0  502  0.43505522697E+03 -0.38546564574E+03 -0.49083492987E+03  0.76078763985E+03  0.46999998093E+01 0. -1.
</event>
<event>
 5   0  0.1474203E-04  0.1498519E+04  0.7818609E-02  0.8885438E-01
        1   -1    0    0  501    0  0.00000000000E+00  0.00000000000E+00  0.54922099852E+03  0.54922099854E+03  0.50400001928E-02 0.  1.
       -1   -1    0    0    0  501  0.00000000000E+00  0.00000000000E+00 -0.10221566054E+04  0.10221566054E+04  0.50400001928E-02 0. -1.
    10030    2    1    2    0    0  0.00000000000E+00  0.00000000000E+00 -0.47293560690E+03  0.15713776040E+04  0.14985190976E+04 0.  0.
        3    1    3    3  502    0 -0.54778301527E+03 -0.37246687072E+03  0.13068719735E+03  0.67518660781E+03  0.10100000352E+00 0.  1.
       -3    1    3    3    0  502  0.54778301527E+03  0.37246687072E+03 -0.60362280426E+03  0.89619099618E+03  0.10100000352E+00 0. -1.
</event>
<event>
 5   0  0.2641347E-04  0.1499821E+04  0.7818609E-02  0.8884572E-01
       -2   -1    0    0    0  501  0.00000000000E+00  0.00000000000E+00  0.65288446457E+03  0.65288446458E+03  0.25500000920E-02 0. -1.
        2   -1    0    0  501    0  0.00000000000E+00  0.00000000000E+00 -0.86135586388E+03  0.86135586389E+03  0.25500000920E-02 0.  1.
    10030    2    1    2    0    0  0.00000000000E+00  0.00000000000E+00 -0.20847139931E+03  0.15142403285E+04  0.14998211387E+04 0.  0.
        4    1    3    3  502    0 -0.75029067636E+02 -0.31480267061E+03 -0.78722603580E+03  0.85115011999E+03  0.12699999809E+01 0.  1.
       -4    1    3    3    0  502  0.75029067636E+02  0.31480267061E+03  0.57875463649E+03  0.66309020847E+03  0.12699999809E+01 0. -1.
</event>
<event>
 5   0  0.2618901E-04  0.1498489E+04  0.7818609E-02  0.8885458E-01
        2   -1    0    0  501    0  0.00000000000E+00  0.00000000000E+00  0.83895049732E+03  0.83895049733E+03  0.25500000920E-02 0. -1.
       -2   -1    0    0    0  501  0.00000000000E+00  0.00000000000E+00 -0.66913069934E+03  0.66913069935E+03  0.25500000920E-02 0.  1.
    10030    2    1    2    0    0  0.00000000000E+00  0.00000000000E+00  0.16981979798E+03  0.15080811967E+04  0.14984892832E+04 0.  0.
        1    1    3    3  502    0 -0.43877140437E+03  0.13721023057E+03 -0.51050246555E+03  0.68699327510E+03  0.50400001928E-02 0.  1.
       -1    1    3    3    0  502  0.43877140437E+03 -0.13721023057E+03  0.68032226354E+03  0.82108792158E+03  0.50400001928E-02 0. -1.
</event>
<event>
 5   0  0.1427609E-04  0.1499164E+04  0.7818609E-02  0.8885009E-01
        1   -1    0    0  501    0  0.00000000000E+00  0.00000000000E+00  0.91060901810E+03  0.91060901812E+03  0.50400001928E-02 0.  1.
       -1   -1    0    0    0  501  0.00000000000E+00  0.00000000000E+00 -0.61702976080E+03  0.61702976082E+03  0.50400001928E-02 0. -1.
    10030    2    1    2    0    0  0.00000000000E+00  0.00000000000E+00  0.29357925731E+03  0.15276387789E+04  0.14991635863E+04 0.  0.
        4    1    3    3  502    0 -0.45888912981E+03  0.97133896083E+02 -0.44900132339E+03  0.64932120598E+03  0.12699999809E+01 0. -1.
       -4    1    3    3    0  502  0.45888912981E+03 -0.97133896083E+02  0.74258058070E+03  0.87831757295E+03  0.12699999809E+01 0.  1.
</event>
<event>
 5   0  0.2734072E-04  0.1497215E+04  0.7818609E-02  0.8886307E-01
        2   -1    0    0  501    0  0.00000000000E+00  0.00000000000E+00  0.95799676496E+03  0.95799676496E+03  0.25500000920E-02 0. -1.
       -2   -1    0    0    0  501  0.00000000000E+00  0.00000000000E+00 -0.58498470067E+03  0.58498470068E+03  0.25500000920E-02 0.  1.
    10030    2    1    2    0    0  0.00000000000E+00  0.00000000000E+00  0.37301206428E+03  0.15429814656E+04  0.14972153496E+04 0.  0.
        5    1    3    3  502    0  0.14157814498E+03 -0.38526285559E+03 -0.45866504030E+03  0.61552217525E+03  0.46999998093E+01 0.  1.
       -5    1    3    3    0  502 -0.14157814498E+03  0.38526285559E+03  0.83167710459E+03  0.92745929039E+03  0.46999998093E+01 0. -1.
</event>
<event>
 5   0  0.1427609E-04  0.1518722E+04  0.7818609E-02  0.8872098E-01
       -1   -1    0    0    0  501  0.00000000000E+00  0.00000000000E+00  0.31553377861E+03  0.31553377865E+03  0.50400001928E-02 0.  1.
        1   -1    0    0  501    0  0.00000000000E+00  0.00000000000E+00 -0.18274712143E+04  0.18274712143E+04  0.50400001928E-02 0. -1.
    10030    2    1    2    0    0  0.00000000000E+00  0.00000000000E+00 -0.15119374357E+04  0.21430049929E+04  0.15187216962E+04 0.  0.
        4    1    3    3  502    0  0.58144565954E+03 -0.17310146363E+03 -0.14004133329E+04  0.15261724305E+04  0.12699999809E+01 0. -1.
       -4    1    3    3    0  502 -0.58144565954E+03  0.17310146363E+03 -0.11152410276E+03  0.61683256245E+03  0.12699999809E+01 0.  1.
</event>
<event>
 5   0  0.1426929E-04  0.1505811E+04  0.7818609E-02  0.8880598E-01
       -1   -1    0    0    0  501  0.00000000000E+00  0.00000000000E+00  0.38076998758E+03  0.38076998761E+03  0.50400001928E-02 0. -1.
        1   -1    0    0  501    0  0.00000000000E+00  0.00000000000E+00 -0.14887376515E+04  0.14887376515E+04  0.50400001928E-02 0.  1.
    10030    2    1    2    0    0  0.00000000000E+00  0.00000000000E+00 -0.11079676639E+04  0.18695076391E+04  0.15058109006E+04 0.  0.
        1    1    3    3  502    0  0.59685353321E+03  0.31495323293E+03 -0.13953454898E+03  0.68912957376E+03  0.50400001928E-02 0. -1.
       -1    1    3    3    0  502 -0.59685353321E+03 -0.31495323293E+03 -0.96843311494E+03  0.11803780654E+04  0.50400001928E-02 0.  1.
</event>
<event>
 5   0  0.1426929E-04  0.1495313E+04  0.7818609E-02  0.8887576E-01
        1   -1    0    0  501    0  0.00000000000E+00  0.00000000000E+00  0.30616042967E+04  0.30616042967E+04  0.50400001928E-02 0. -1.
       -1   -1    0    0    0  501  0.00000000000E+00  0.00000000000E+00 -0.18258077935E+03  0.18258077942E+03  0.50400001928E-02 0.  1.
    10030    2    1    2    0    0  0.00000000000E+00  0.00000000000E+00  0.28790235173E+04  0.32441850761E+04  0.14953128083E+04 0.  0.
        1    1    3    3  502    0 -0.55314633252E+03  0.33172222938E+03  0.22598833289E+04  0.23501240739E+04  0.50400001928E-02 0. -1.
       -1    1    3    3    0  502  0.55314633252E+03 -0.33172222938E+03  0.61914018844E+03  0.89406100218E+03  0.50400001928E-02 0.  1.
</event>
<event>
 5   0  0.1474203E-04  0.1498982E+04  0.7818609E-02  0.8885130E-01
        1   -1    0    0  501    0  0.00000000000E+00  0.00000000000E+00  0.15729592508E+04  0.15729592509E+04  0.50400001928E-02 0. -1.
       -1   -1    0    0    0  501  0.00000000000E+00  0.00000000000E+00 -0.35712121788E+03  0.35712121792E+03  0.50400001928E-02 0.  1.
    10030    2    1    2    0    0  0.00000000000E+00  0.00000000000E+00  0.12158380330E+04  0.19300804688E+04  0.14989824861E+04 0.  0.
        3    1    3    3  502    0  0.63911937922E+03  0.33268215834E+03  0.34220597995E+03  0.79765653153E+03  0.10100000352E+00 0. -1.
       -3    1    3    3    0  502 -0.63911937922E+03 -0.33268215834E+03  0.87363205301E+03  0.11324239372E+04  0.10100000352E+00 0.  1.
</event>
<event>
 5   0  0.2734072E-04  0.1497212E+04  0.7818609E-02  0.8886309E-01
       -2   -1    0    0    0  501  0.00000000000E+00  0.00000000000E+00  0.49759027551E+03  0.49759027552E+03  0.25500000920E-02 0. -1.
        2   -1    0    0  501    0  0.00000000000E+00  0.00000000000E+00 -0.11262494205E+04  0.11262494205E+04  0.25500000920E-02 0.  1.
    10030    2    1    2    0    0  0.00000000000E+00  0.00000000000E+00 -0.62865914496E+03  0.16238396960E+04  0.14972117545E+04 0.  0.
        5    1    3    3  502    0 -0.15866140082E+03  0.10540119884E+03 -0.10995099102E+04  0.11158973902E+04  0.46999998093E+01 0.  1.
       -5    1    3    3    0  502  0.15866140082E+03 -0.10540119884E+03  0.47085076527E+03  0.50794230576E+03  0.46999998093E+01 0. -1.
</event>
<event>
 5   0  0.2618901E-04  0.1499322E+04  0.7818609E-02  0.8884904E-01
       -2   -1    0    0    0  501  0.00000000000E+00  0.00000000000E+00  0.45039926602E+03  0.45039926602E+03  0.25500000920E-02 0. -1.
        2   -1    0    0  501    0  0.00000000000E+00  0.00000000000E+00 -0.12477627323E+04  0.12477627323E+04  0.25500000920E-02 0.  1.
    10030    2    1    2    0    0  0.00000000000E+00  0.00000000000E+00 -0.79736346631E+03  0.16981619984E+04  0.14993217384E+04 0.  0.
        1    1    3    3  502    0  0.59106455053E+03 -0.19162861172E+03 -0.87372453626E+03  0.10721349696E+04  0.50400001928E-02 0.  1.
       -1    1    3    3    0  502 -0.59106455053E+03  0.19162861172E+03  0.76361069948E+02  0.62602702877E+03  0.50400001928E-02 0. -1.
</event>
<event>
 5   0  0.1427609E-04  0.1502382E+04  0.7818609E-02  0.8882871E-01
        1   -1    0    0  501    0  0.00000000000E+00  0.00000000000E+00  0.18500263123E+04  0.18500263123E+04  0.50400001928E-02 0.  1.
       -1   -1    0    0    0  501  0.00000000000E+00  0.00000000000E+00 -0.30501597603E+03  0.30501597607E+03  0.50400001928E-02 0. -1.
    10030    2    1    2    0    0  0.00000000000E+00  0.00000000000E+00  0.15450103363E+04  0.21550422884E+04  0.15023815512E+04 0.  0.
        4    1    3    3  502    0  0.32669640726E+03 -0.19713585293E+03 -0.15565589025E+03  0.41209641602E+03  0.12699999809E+01 0. -1.
       -4    1    3    3    0  502 -0.32669640726E+03  0.19713585293E+03  0.17006662265E+04  0.17429458724E+04  0.12699999809E+01 0.  1.
</event>
<event>
 5   0  0.1474203E-04  0.1497878E+04  0.7818609E-02  0.8885865E-01
        1   -1    0    0  501    0  0.00000000000E+00  0.00000000000E+00  0.20949993818E+04  0.20949993818E+04  0.50400001928E-02 0. -1.
       -1   -1    0    0    0  501  0.00000000000E+00  0.00000000000E+00 -0.26773737398E+03  0.26773737403E+03  0.50400001928E-02 0.  1.
    10030    2    1    2    0    0  0.00000000000E+00  0.00000000000E+00  0.18272620078E+04  0.23627367558E+04  0.14978780098E+04 0.  0.
        3    1    3    3  502    0  0.39355347196E+03  0.24077998769E+03  0.18442242352E+04  0.19010582258E+04  0.10100000352E+00 0. -1.
       -3    1    3    3    0  502 -0.39355347196E+03 -0.24077998769E+03 -0.16962227400E+02  0.46167853007E+03  0.10100000352E+00 0.  1.
</event>
<event>
 5   0  0.2734072E-04  0.1494016E+04  0.7818609E-02  0.8888442E-01
       -2   -1    0    0    0  501  0.00000000000E+00  0.00000000000E+00  0.48517974073E+03  0.48517974074E+03  0.25500000920E-02 0.  1.
        2   -1    0    0  501    0  0.00000000000E+00  0.00000000000E+00 -0.11501321181E+04  0.11501321181E+04  0.25500000920E-02 0. -1.
    10030    2    1    2    0    0  0.00000000000E+00  0.00000000000E+00 -0.66495237741E+03  0.16353118589E+04  0.14940158003E+04 0.  0.
        5    1    3    3  502    0  0.60926923136E+03 -0.39717583345E+03 -0.51900749513E+03  0.89350350249E+03  0.46999998093E+01 0. -1.
       -5    1    3    3    0  502 -0.60926923136E+03  0.39717583345E+03 -0.14594488228E+03  0.74180835640E+03  0.46999998093E+01 0.  1.
</event>
<event>
 5   0  0.1474203E-04  0.1498333E+04  0.7818609E-02  0.8885562E-01
        1   -1    0    0  501    0  0.00000000000E+00  0.00000000000E+00  0.80100997261E+03  0.80100997263E+03  0.50400001928E-02 0.  1.
       -1   -1    0    0    0  501  0.00000000000E+00  0.00000000000E+00 -0.70067866070E+03  0.70067866072E+03  0.50400001928E-02 0. -1.
    10030    2    1    2    0    0  0.00000000000E+00  0.00000000000E+00  0.10033131191E+03  0.15016886333E+04  0.14983332004E+04 0.  0.
        3    1    3    3  502    0 -0.23938248967E+03 -0.54781234693E+03  0.50267231502E+03  0.78107733951E+03  0.10100000352E+00 0.  1.
       -3    1    3    3    0  502  0.23938248967E+03  0.54781234693E+03 -0.40234100312E+03  0.72061129383E+03  0.10100000352E+00 0. -1.
</event>
<event>
 5   0  0.1426929E-04  0.1501876E+04  0.7818609E-02  0.8883206E-01
        1   -1    0    0  501    0  0.00000000000E+00  0.00000000000E+00  0.53439143892E+03  0.53439143895E+03  0.50400001928E-02 0. -1.
       -1   -1    0    0    0  501  0.00000000000E+00  0.00000000000E+00 -0.10552336974E+04  0.10552336974E+04  0.50400001928E-02 0.  1.
    10030    2    1    2    0    0  0.00000000000E+00  0.00000000000E+00 -0.52084225849E+03  0.15896251364E+04  0.15018759656E+04 0.  0.
        1    1    3    3  502    0 -0.26405626595E+03  0.28181421357E+03  0.42122755521E+03  0.57146969810E+03  0.50400001928E-02 0. -1.
       -1    1    3    3    0  502  0.26405626595E+03 -0.28181421357E+03 -0.94206981371E+03  0.10181554383E+04  0.50400001928E-02 0.  1.
</event>
<event>
 5   0  0.2641347E-04  0.1494687E+04  0.7818609E-02  0.8887994E-01
        2   -1    0    0  501    0  0.00000000000E+00  0.00000000000E+00  0.12224897633E+04  0.12224897633E+04  0.25500000920E-02 0. -1.
       -2   -1    0    0    0  501  0.00000000000E+00  0.00000000000E+00 -0.45687263855E+03  0.45687263855E+03  0.25500000920E-02 0.  1.
    10030    2    1    2    0    0  0.00000000000E+00  0.00000000000E+00  0.76561712479E+03  0.16793624019E+04  0.14946867548E+04 0.  0.
        4    1    3    3  502    0 -0.25218925172E+03 -0.38368185826E+03 -0.27971664698E+03  0.53763761266E+03  0.12699999809E+01 0.  1.
       -4    1    3    3    0  502  0.25218925172E+03  0.38368185826E+03  0.10453337718E+04  0.11417247892E+04  0.12699999809E+01 0. -1.
</event>
<event>
 5   0  0.2696040E-04  0.1516403E+04  0.7818609E-02  0.8873618E-01
       -2   -1    0    0    0  501  0.00000000000E+00  0.00000000000E+00  0.66884208509E+03  0.66884208509E+03  0.25500000920E-02 0.  1.
        2   -1    0    0  501    0  0.00000000000E+00  0.00000000000E+00 -0.85949969609E+03  0.85949969609E+03  0.25500000920E-02 0. -1.
    10030    2    1    2    0    0  0.00000000000E+00  0.00000000000E+00 -0.19065761100E+03  0.15283417812E+04  0.15164030716E+04 0.  0.
        2    1    3    3  502    0 -0.49803440740E+03 -0.33730761516E+03  0.36988389639E+03  0.70613652718E+03  0.25500000920E-02 0.  1.
       -2    1    3    3    0  502  0.49803440740E+03  0.33730761516E+03 -0.56054150739E+03  0.82220525400E+03  0.25500000920E-02 0. -1.
</event>
<event>
 5   0  0.1443750E-04  0.1501977E+04  0.7818609E-02  0.8883139E-01
       -1   -1    0    0    0  501  0.00000000000E+00  0.00000000000E+00  0.81044756009E+03  0.81044756011E+03  0.50400001928E-02 0. -1.
        1   -1    0    0  501    0  0.00000000000E+00  0.00000000000E+00 -0.69589161930E+03  0.69589161932E+03  0.50400001928E-02 0.  1.
    10030    2    1    2    0    0  0.00000000000E+00  0.00000000000E+00  0.11455594079E+03  0.15063391794E+04  0.15019769172E+04 0.  0.
        2    1    3    3  502    0 -0.14651104439E+01 -0.35294698754E+03  0.72208324027E+03  0.80372752127E+03  0.25500000920E-02 0. -1.
       -2    1    3    3    0  502  0.14651104439E+01  0.35294698754E+03 -0.60752729948E+03  0.70261165816E+03  0.25500000920E-02 0.  1.
</event>
<event>
 5   0  0.2696040E-04  0.1499760E+04  0.7818609E-02  0.8884613E-01
       -2   -1    0    0    0  501  0.00000000000E+00  0.00000000000E+00  0.29405375367E+03  0.29405375368E+03  0.25500000920E-02 0. -1.
        2   -1    0    0  501    0  0.00000000000E+00  0.00000000000E+00 -0.19123028747E+04  0.19123028747E+04  0.25500000920E-02 0.  1.
    10030    2    1    2    0    0  0.00000000000E+00  0.00000000000E+00 -0.16182491210E+04  0.22063566284E+04  0.14997597654E+04 0.  0.
        2    1    3    3  502    0 -0.66996858423E+03 -0.19444134962E+03 -0.12137669579E+04  0.13999627032E+04  0.25500000920E-02 0. -1.
       -2    1    3    3    0  502  0.66996858423E+03  0.19444134962E+03 -0.40448216318E+03  0.80639392522E+03  0.25500000920E-02 0.  1.
</event>
<event>
 5   0  0.1443750E-04  0.1502797E+04  0.7818609E-02  0.8882595E-01
       -1   -1    0    0    0  501  0.00000000000E+00  0.00000000000E+00  0.15242886752E+04  0.15242886752E+04  0.50400001928E-02 0. -1.
        1   -1    0    0  501    0  0.00000000000E+00  0.00000000000E+00 -0.37040188273E+03  0.37040188277E+03  0.50400001928E-02 0.  1.
    10030    2    1    2    0    0  0.00000000000E+00  0.00000000000E+00  0.11538867925E+04  0.18946905580E+04  0.15027965866E+04 0.  0.
        2    1    3    3  502    0 -0.32040772568E+03  0.66992646448E+02  0.14296704367E+04  0.14666651571E+04  0.25500000920E-02 0. -1.
       -2    1    3    3    0  502  0.32040772568E+03 -0.66992646448E+02 -0.27578364426E+03  0.42802540088E+03  0.25500000920E-02 0.  1.
</event>
<event>
 5   0  0.1004313E-04  0.1499997E+04  0.7818609E-02  0.8884455E-01
       -3   -1    0    0    0  501  0.00000000000E+00  0.00000000000E+00  0.83200557249E+03  0.83200557862E+03  0.10100000352E+00 0. -1.
        3   -1    0    0  501    0  0.00000000000E+00  0.00000000000E+00 -0.67607428301E+03  0.67607429055E+03  0.10100000352E+00 0.  1.
    10030    2    1    2    0    0  0.00000000000E+00  0.00000000000E+00  0.15593128949E+03  0.15080798692E+04  0.14999967749E+04 0.  0.
        4    1    3    3  502    0 -0.26744515665E+03  0.62900157782E+03 -0.23244732976E+03  0.72194409114E+03  0.12699999809E+01 0.  1.
       -4    1    3    3    0  502  0.26744515665E+03 -0.62900157782E+03  0.38837861924E+03  0.78613577804E+03  0.12699999809E+01 0. -1.
</event>
<event>
 5   0  0.1426929E-04  0.1505690E+04  0.7818609E-02  0.8880678E-01
        1   -1    0    0  501    0  0.00000000000E+00  0.00000000000E+00  0.52164722671E+03  0.52164722673E+03  0.50400001928E-02 0. -1.
       -1   -1    0    0    0  501  0.00000000000E+00  0.00000000000E+00 -0.10865110842E+04  0.10865110842E+04  0.50400001928E-02 0.  1.
    10030    2    1    2    0    0  0.00000000000E+00  0.00000000000E+00 -0.56486385744E+03  0.16081583109E+04  0.15056898670E+04 0.  0.
        1    1    3    3  502    0 -0.98437892134E+02  0.13860958482E+03 -0.10657408750E+04  0.10792155708E+04  0.50400001928E-02 0.  1.
       -1    1    3    3    0  502  0.98437892134E+02 -0.13860958482E+03  0.50087701752E+03  0.52894274012E+03  0.50400001928E-02 0. -1.
</event>
<event>
 5   0  0.2696040E-04  0.1500076E+04  0.7818609E-02  0.8884402E-01
        2   -1    0    0  501    0  0.00000000000E+00  0.00000000000E+00  0.87682749738E+03  0.87682749739E+03  0.25500000920E-02 0. -1.
       -2   -1    0    0    0  501  0.00000000000E+00  0.00000000000E+00 -0.64158269423E+03  0.64158269423E+03  0.25500000920E-02 0.  1.
    10030    2    1    2    0    0  0.00000000000E+00  0.00000000000E+00  0.23524480316E+03  0.15184101916E+04  0.15000764623E+04 0.  0.
        2    1    3    3  502    0 -0.68772908369E+03 -0.23974418765E+03  0.29900165765E+03  0.78730588678E+03  0.25500000920E-02 0. -1.
       -2    1    3    3    0  502  0.68772908369E+03  0.23974418765E+03 -0.63756854497E+02  0.73110430485E+03  0.25500000920E-02 0.  1.
</event>
<event>
 5   0  0.2641347E-04  0.1500526E+04  0.7818609E-02  0.8884103E-01
        2   -1    0    0  501    0  0.00000000000E+00  0.00000000000E+00  0.97002953486E+03  0.97002953486E+03  0.25500000920E-02 0. -1.
       -2   -1    0    0    0  501  0.00000000000E+00  0.00000000000E+00 -0.58028632865E+03  0.58028632866E+03  0.25500000920E-02 0.  1.
    10030    2    1    2    0    0  0.00000000000E+00  0.00000000000E+00  0.38974320621E+03  0.15503158635E+04  0.15005264109E+04 0.  0.
        4    1    3    3  502    0 -0.42159412465E+02 -0.74409758621E+03  0.10578626187E+03  0.75276223335E+03  0.12699999809E+01 0. -1.
       -4    1    3    3    0  502  0.42159412465E+02  0.74409758621E+03  0.28395694434E+03  0.79755363017E+03  0.12699999809E+01 0.  1.
</event>
<event>
 5   0  0.2618901E-04  0.1512263E+04  0.7818609E-02  0.8876339E-01
        2   -1    0    0  501    0  0.00000000000E+00  0.00000000000E+00  0.10038155147E+04  0.10038155147E+04  0.25500000920E-02 0. -1.
       -2   -1    0    0    0  501  0.00000000000E+00  0.00000000000E+00 -0.56956201008E+03  0.56956201009E+03  0.25500000920E-02 0.  1.
    10030    2    1    2    0    0  0.00000000000E+00  0.00000000000E+00  0.43425350463E+03  0.15733775248E+04  0.15122634457E+04 0.  0.
        1    1    3    3  502    0 -0.62243177439E+03  0.35782294708E+02 -0.22798675648E+03  0.66383706400E+03  0.50400001928E-02 0.  1.
       -1    1    3    3    0  502  0.62243177439E+03 -0.35782294708E+02  0.66224026111E+03  0.90954046081E+03  0.50400001928E-02 0. -1.
</event>
<event>
 5   0  0.2618901E-04  0.1498140E+04  0.7818609E-02  0.8885691E-01
       -2   -1    0    0    0  501  0.00000000000E+00  0.00000000000E+00  0.12060381145E+04  0.12060381145E+04  0.25500000920E-02 0.  1.
        2   -1    0    0  501    0  0.00000000000E+00  0.00000000000E+00 -0.46524719165E+03  0.46524719166E+03  0.25500000920E-02 0. -1.
    10030    2    1    2    0    0  0.00000000000E+00  0.00000000000E+00  0.74079092283E+03  0.16712853061E+04  0.14981399745E+04 0.  0.
        1    1    3    3  502    0  0.63453425606E+03  0.20748915003E+02  0.81388555161E+03  0.10322179667E+04  0.50400001928E-02 0.  1.
       -1    1    3    3    0  502 -0.63453425606E+03 -0.20748915003E+02 -0.73094628780E+02  0.63906733947E+03  0.50400001928E-02 0. -1.
</event>
<event>
 5   0  0.1443750E-04  0.1502095E+04  0.7818609E-02  0.8883061E-01
        1   -1    0    0  501    0  0.00000000000E+00  0.00000000000E+00  0.22419680175E+04  0.22419680175E+04  0.50400001928E-02 0.  1.
       -1   -1    0    0    0  501  0.00000000000E+00  0.00000000000E+00 -0.25159701675E+03  0.25159701680E+03  0.50400001928E-02 0. -1.
    10030    2    1    2    0    0  0.00000000000E+00  0.00000000000E+00  0.19903710007E+04  0.24935650343E+04  0.15020951567E+04 0.  0.
        2    1    3    3  502    0  0.50479855709E+03 -0.78779996182E+02  0.81332116898E+02  0.51734203801E+03  0.25500000920E-02 0. -1.
       -2    1    3    3    0  502 -0.50479855709E+03  0.78779996182E+02  0.19090388838E+04  0.19762229963E+04  0.25500000920E-02 0.  1.
</event>
<event>
 5   0  0.1004313E-04  0.1496742E+04  0.7818609E-02  0.8886622E-01
       -4   -1    0    0    0  501  0.00000000000E+00  0.00000000000E+00  0.64951937075E+03  0.64952061236E+03  0.12699999809E+01 0.  1.
        4   -1    0    0  501    0  0.00000000000E+00  0.00000000000E+00 -0.86226452951E+03  0.86226546478E+03  0.12699999809E+01 0. -1.
    10030    2    1    2    0    0  0.00000000000E+00  0.00000000000E+00 -0.21274515876E+03  0.15117860771E+04  0.14967420087E+04 0.  0.
        4    1    3    3  502    0 -0.61468663556E+03 -0.22403267144E+03  0.26063512484E+03  0.70424610685E+03  0.12699999809E+01 0.  1.
       -4    1    3    3    0  502  0.61468663556E+03  0.22403267144E+03 -0.47338028360E+03  0.80753997029E+03  0.12699999809E+01 0. -1.
</event>
<event>
 5   0  0.2618901E-04  0.1495545E+04  0.7818609E-02  0.8887421E-01
       -2   -1    0    0    0  501  0.00000000000E+00  0.00000000000E+00  0.20241678704E+04  0.20241678704E+04  0.25500000920E-02 0.  1.
        2   -1    0    0  501    0  0.00000000000E+00  0.00000000000E+00 -0.27624390364E+03  0.27624390365E+03  0.25500000920E-02 0. -1.
    10030    2    1    2    0    0  0.00000000000E+00  0.00000000000E+00  0.17479239668E+04  0.23004117740E+04  0.14955454311E+04 0.  0.
        1    1    3    3  502    0  0.48337007931E+03 -0.56913004383E+03  0.93565019253E+03  0.11970784950E+04  0.50400001928E-02 0.  1.
       -1    1    3    3    0  502 -0.48337007931E+03  0.56913004383E+03  0.81227377423E+03  0.11033332791E+04  0.50400001928E-02 0. -1.
</event>
<event>
 5   0  0.2734072E-04  0.1506639E+04  0.7818609E-02  0.8880050E-01
        2   -1    0    0  501    0  0.00000000000E+00  0.00000000000E+00  0.74691616928E+03  0.74691616928E+03  0.25500000920E-02 0. -1.
       -2   -1    0    0    0  501  0.00000000000E+00  0.00000000000E+00 -0.75977745094E+03  0.75977745095E+03  0.25500000920E-02 0.  1.
    10030    2    1    2    0    0  0.00000000000E+00  0.00000000000E+00 -0.12861281664E+02  0.15066936202E+04  0.15066387267E+04 0.  0.
        5    1    3    3  502    0  0.51506619757E+03 -0.50948453984E+03 -0.21283653525E+03  0.75510871068E+03  0.46999998093E+01 0.  1.
       -5    1    3    3    0  502 -0.51506619757E+03  0.50948453984E+03  0.19997525359E+03  0.75158490955E+03  0.46999998093E+01 0. -1.
</event>
<event>
 5   0  0.2641347E-04  0.1502079E+04  0.7818609E-02  0.8883072E-01
        2   -1    0    0  501    0  0.00000000000E+00  0.00000000000E+00  0.85701269394E+03  0.85701269395E+03  0.25500000920E-02 0. -1.
       -2   -1    0    0    0  501  0.00000000000E+00  0.00000000000E+00 -0.65817002839E+03  0.65817002840E+03  0.25500000920E-02 0.  1.
    10030    2    1    2    0    0  0.00000000000E+00  0.00000000000E+00  0.19884266555E+03  0.15151827223E+04  0.15020786519E+04 0.  0.
        4    1    3    3  502    0 -0.62812571480E+03  0.33849904227E+03 -0.13700544689E+03  0.72656425772E+03  0.12699999809E+01 0. -1.
       -4    1    3    3    0  502  0.62812571480E+03 -0.33849904227E+03  0.33584811244E+03  0.78861846462E+03  0.12699999809E+01 0.  1.
</event>
<event>
 5   0  0.1426929E-04  0.1501808E+04  0.7818609E-02  0.8883251E-01
        1   -1    0    0  501    0  0.00000000000E+00  0.00000000000E+00  0.44439650840E+03  0.44439650843E+03  0.50400001928E-02 0.  1.
       -1   -1    0    0    0  501  0.00000000000E+00  0.00000000000E+00 -0.12688151141E+04  0.12688151141E+04  0.50400001928E-02 0. -1.
    10030    2    1    2    0    0  0.00000000000E+00  0.00000000000E+00 -0.82441860573E+03  0.17132116226E+04  0.15018082521E+04 0.  0.
        1    1    3    3  502    0  0.75039616678E+02 -0.20984038904E+03 -0.12302212314E+04  0.12502432608E+04  0.50400001928E-02 0. -1.
       -1    1    3    3    0  502 -0.75039616678E+02  0.20984038904E+03  0.40580262569E+03  0.46296836175E+03  0.50400001928E-02 0.  1.
</event>
<event>
 5   0  0.2646718E-04  0.1496547E+04  0.7818609E-02  0.8886752E-01
        2   -1    0    0  501    0  0.00000000000E+00  0.00000000000E+00  0.18900260230E+04  0.18900260230E+04  0.25500000920E-02 0.  1.
       -2   -1    0    0    0  501  0.00000000000E+00  0.00000000000E+00 -0.29624626772E+03  0.29624626773E+03  0.25500000920E-02 0. -1.
    10030    2    1    2    0    0  0.00000000000E+00  0.00000000000E+00  0.15937797552E+04  0.21862722907E+04  0.14965468990E+04 0.  0.
        3    1    3    3  502    0  0.13107283165E+03 -0.64855576771E+03  0.28640036910E+03  0.72099226948E+03  0.10100000352E+00 0. -1.
       -3    1    3    3    0  502 -0.13107283165E+03  0.64855576771E+03  0.13073793861E+04  0.14652800212E+04  0.10100000352E+00 0.  1.
</event>
<event>
 5   0  0.2618901E-04  0.1501589E+04  0.7818609E-02  0.8883397E-01
        2   -1    0    0  501    0  0.00000000000E+00  0.00000000000E+00  0.27570038932E+04  0.27570038932E+04  0.25500000920E-02 0. -1.
       -2   -1    0    0    0  501  0.00000000000E+00  0.00000000000E+00 -0.20445840910E+03  0.20445840911E+03  0.25500000920E-02 0.  1.
    10030    2    1    2    0    0  0.00000000000E+00  0.00000000000E+00  0.25525454841E+04  0.29614623023E+04  0.15015893312E+04 0.  0.
        1    1    3    3  502    0 -0.11018078429E+03 -0.29691487281E+03  0.26188225826E+04  0.26379025694E+04  0.50400001928E-02 0. -1.
       -1    1    3    3    0  502  0.11018078429E+03  0.29691487281E+03 -0.66277098474E+02  0.32355973286E+03  0.50400001928E-02 0.  1.
</event>
<event>
 5   0  0.1427609E-04  0.1449876E+04  0.7818609E-02  0.8918486E-01
       -1   -1    0    0    0  501  0.00000000000E+00  0.00000000000E+00  0.56750514664E+03  0.56750514666E+03  0.50400001928E-02 0.  1.
        1   -1    0    0  501    0  0.00000000000E+00  0.00000000000E+00 -0.92604508165E+03  0.92604508167E+03  0.50400001928E-02 0. -1.
    10030    2    1    2    0    0  0.00000000000E+00  0.00000000000E+00 -0.35853993501E+03  0.14935502283E+04  0.14498763394E+04 0.  0.
        4    1    3    3  502    0 -0.77596351454E+02  0.48420633014E+03 -0.72925966234E+03  0.87880500221E+03  0.12699999809E+01 0. -1.
       -4    1    3    3    0  502  0.77596351454E+02 -0.48420633014E+03  0.37071972732E+03  0.61474522611E+03  0.12699999809E+01 0.  1.
</event>
<event>
 5   0  0.2646718E-04  0.1500184E+04  0.7818609E-02  0.8884331E-01
       -2   -1    0    0    0  501  0.00000000000E+00  0.00000000000E+00  0.51997493731E+03  0.51997493731E+03  0.25500000920E-02 0.  1.
        2   -1    0    0  501    0  0.00000000000E+00  0.00000000000E+00 -0.10820481973E+04  0.10820481973E+04  0.25500000920E-02 0. -1.
    10030    2    1    2    0    0  0.00000000000E+00  0.00000000000E+00 -0.56207326000E+03  0.16020231346E+04  0.15001839135E+04 0.  0.
        3    1    3    3  502    0 -0.57762549493E+03  0.47541520878E+03 -0.33920546792E+03  0.82142022912E+03  0.10100000352E+00 0.  1.
       -3    1    3    3    0  502  0.57762549493E+03 -0.47541520878E+03 -0.22286779208E+03  0.78060290550E+03  0.10100000352E+00 0. -1.
</event>
<event>
 5   0  0.2618901E-04  0.1498043E+04  0.7818609E-02  0.8885755E-01
        2   -1    0    0  501    0  0.00000000000E+00  0.00000000000E+00  0.52455721655E+03  0.52455721655E+03  0.25500000920E-02 0.  1.
       -2   -1    0    0    0  501  0.00000000000E+00  0.00000000000E+00 -0.10695371527E+04  0.10695371527E+04  0.25500000920E-02 0. -1.
    10030    2    1    2    0    0  0.00000000000E+00  0.00000000000E+00 -0.54497993618E+03  0.15940943693E+04  0.14980432996E+04 0.  0.
        1    1    3    3  502    0  0.40283791257E+03  0.34261912654E+03  0.29196120755E+03  0.60407582008E+03  0.50400001928E-02 0.  1.
       -1    1    3    3    0  502 -0.40283791257E+03 -0.34261912654E+03 -0.83694114373E+03  0.99001854920E+03  0.50400001928E-02 0. -1.
</event>
<event>
 5   0  0.1443750E-04  0.1501240E+04  0.7818609E-02  0.8883629E-01
        1   -1    0    0  501    0  0.00000000000E+00  0.00000000000E+00  0.25611174698E+04  0.25611174698E+04  0.50400001928E-02 0. -1.
       -1   -1    0    0    0  501  0.00000000000E+00  0.00000000000E+00 -0.21999395069E+03  0.21999395074E+03  0.50400001928E-02 0.  1.
    10030    2    1    2    0    0  0.00000000000E+00  0.00000000000E+00  0.23411235191E+04  0.27811114206E+04  0.15012399548E+04 0.  0.
        2    1    3    3  502    0  0.41650865941E+03 -0.33584803588E+03  0.19527756226E+03  0.56956711009E+03  0.25500000920E-02 0.  1.
       -2    1    3    3    0  502 -0.41650865941E+03  0.33584803588E+03  0.21458459569E+04  0.22115443105E+04  0.25500000920E-02 0. -1.
</event>
<event>
 5   0  0.2734072E-04  0.1499973E+04  0.7818609E-02  0.8884471E-01
       -2   -1    0    0    0  501  0.00000000000E+00  0.00000000000E+00  0.42379745125E+03  0.42379745125E+03  0.25500000920E-02 0. -1.
        2   -1    0    0  501    0  0.00000000000E+00  0.00000000000E+00 -0.13272378237E+04  0.13272378237E+04  0.25500000920E-02 0.  1.
    10030    2    1    2    0    0  0.00000000000E+00  0.00000000000E+00 -0.90344037242E+03  0.17510352749E+04  0.14999733423E+04 0.  0.
        5    1    3    3  502    0 -0.16922172278E+03 -0.58071989544E+03 -0.96931272846E+03  0.11425676540E+04  0.46999998093E+01 0. -1.
       -5    1    3    3    0  502  0.16922172278E+03  0.58071989544E+03  0.65872356045E+02  0.60846762092E+03  0.46999998093E+01 0.  1.
</event>
<event>
 5   0  0.1426929E-04  0.1506827E+04  0.7818609E-02  0.8879926E-01
        1   -1    0    0  501    0  0.00000000000E+00  0.00000000000E+00  0.45292897383E+03  0.45292897385E+03  0.50400001928E-02 0. -1.
       -1   -1    0    0    0  501  0.00000000000E+00  0.00000000000E+00 -0.12532464725E+04  0.12532464725E+04  0.50400001928E-02 0.  1.
    10030    2    1    2    0    0  0.00000000000E+00  0.00000000000E+00 -0.80031749867E+03  0.17061754464E+04  0.15068266506E+04 0.  0.
        1    1    3    3  502    0  0.30673221740E+03  0.54598209534E+03  0.74124455656E+02  0.63061520484E+03  0.50400001928E-02 0. -1.
       -1    1    3    3    0  502 -0.30673221740E+03 -0.54598209534E+03 -0.87444195433E+03  0.10755602415E+04  0.50400001928E-02 0.  1.
</event>
<event>
 5   0  0.2618901E-04  0.1497545E+04  0.7818609E-02  0.8886087E-01
        2   -1    0    0  501    0  0.00000000000E+00  0.00000000000E+00  0.85943068006E+03  0.85943068007E+03  0.25500000920E-02 0.  1.
       -2   -1    0    0    0  501  0.00000000000E+00  0.00000000000E+00 -0.65236219401E+03  0.65236219402E+03  0.25500000920E-02 0. -1.
    10030    2    1    2    0    0  0.00000000000E+00  0.00000000000E+00  0.20706848605E+03  0.15117928741E+04  0.14975447694E+04 0.  0.
        1    1    3    3  502    0  0.46060514357E+03  0.45147625537E+03  0.48751104493E+03  0.80848928651E+03  0.50400001928E-02 0.  1.
       -1    1    3    3    0  502 -0.46060514357E+03 -0.45147625537E+03 -0.28044255888E+03  0.70330358758E+03  0.50400001928E-02 0. -1.
</event>
<event>
 5   0  0.2696040E-04  0.1498852E+04  0.7818609E-02  0.8885217E-01
        2   -1    0    0  501    0  0.00000000000E+00  0.00000000000E+00  0.89323939635E+03  0.89323939635E+03  0.25500000920E-02 0.  1.
       -2   -1    0    0    0  501  0.00000000000E+00  0.00000000000E+00 -0.62876676511E+03  0.62876676511E+03  0.25500000920E-02 0. -1.
    10030    2    1    2    0    0  0.00000000000E+00  0.00000000000E+00  0.26447263124E+03  0.15220061615E+04  0.14988518882E+04 0.  0.
        2    1    3    3  502    0  0.44271770438E+03 -0.16021961968E+03  0.72431299987E+03  0.86388576449E+03  0.25500000920E-02 0.  1.
       -2    1    3    3    0  502 -0.44271770438E+03  0.16021961968E+03 -0.45984036863E+03  0.65812039698E+03  0.25500000920E-02 0. -1.
</event>
<event>
 5   0  0.1484251E-04  0.1504555E+04  0.7818609E-02  0.8881430E-01
       -1   -1    0    0    0  501  0.00000000000E+00  0.00000000000E+00  0.81287600145E+03  0.81287600147E+03  0.50400001928E-02 0.  1.
        1   -1    0    0  501    0  0.00000000000E+00  0.00000000000E+00 -0.69619630797E+03  0.69619630799E+03  0.50400001928E-02 0. -1.
    10030    2    1    2    0    0  0.00000000000E+00  0.00000000000E+00  0.11667969348E+03  0.15090723095E+04  0.15045547794E+04 0.  0.
        5    1    3    3  502    0 -0.18336398736E+03 -0.68035136482E+03 -0.20588775398E+03  0.73410638786E+03  0.46999998093E+01 0.  1.
       -5    1    3    3    0  502  0.18336398736E+03  0.68035136482E+03  0.32256744746E+03  0.77496592159E+03  0.46999998093E+01 0. -1.
</event>
<event>
 5   0  0.1474203E-04  0.1437621E+04  0.7818609E-02  0.8927028E-01
        1   -1    0    0  501    0  0.00000000000E+00  0.00000000000E+00  0.45550408389E+03  0.45550408391E+03  0.50400001928E-02 0.  1.
       -1   -1    0    0    0  501  0.00000000000E+00  0.00000000000E+00 -0.11343226127E+04  0.11343226128E+04  0.50400001928E-02 0. -1.
    10030    2    1    2    0    0  0.00000000000E+00  0.00000000000E+00 -0.67881852886E+03  0.15898266967E+04  0.14376210663E+04 0.  0.
        3    1    3    3  502    0 -0.17991947229E+03 -0.55534986789E+03  0.12440415929E+03  0.59687594802E+03  0.10100000352E+00 0.  1.
       -3    1    3    3    0  502  0.17991947229E+03  0.55534986789E+03 -0.80322268815E+03  0.99295074865E+03  0.10100000352E+00 0. -1.
</event>
<event>
 5   0  0.2646718E-04  0.1497517E+04  0.7818609E-02  0.8886106E-01
        2   -1    0    0  501    0  0.00000000000E+00  0.00000000000E+00  0.95202965840E+03  0.95202965841E+03  0.25500000920E-02 0.  1.
       -2   -1    0    0    0  501  0.00000000000E+00  0.00000000000E+00 -0.58888813418E+03  0.58888813418E+03  0.25500000920E-02 0. -1.
    10030    2    1    2    0    0  0.00000000000E+00  0.00000000000E+00  0.36314152422E+03  0.15409177926E+04  0.14975165698E+04 0.  0.
        3    1    3    3  502    0  0.51652076045E+01 -0.50037162259E+03  0.75470597574E+03  0.90552722769E+03  0.10100000352E+00 0.  1.
       -3    1    3    3    0  502 -0.51652076045E+01  0.50037162259E+03 -0.39156445152E+03  0.63539056490E+03  0.10100000352E+00 0. -1.
</event>
<event>
 5   0  0.2734072E-04  0.1502419E+04  0.7818609E-02  0.8882846E-01
        2   -1    0    0  501    0  0.00000000000E+00  0.00000000000E+00  0.19109700869E+04  0.19109700869E+04  0.25500000920E-02 0.  1.
       -2   -1    0    0    0  501  0.00000000000E+00  0.00000000000E+00 -0.29530325026E+03  0.29530325028E+03  0.25500000920E-02 0. -1.
    10030    2    1    2    0    0  0.00000000000E+00  0.00000000000E+00  0.16156668367E+04  0.22062733372E+04  0.15024189533E+04 0.  0.
        5    1    3    3  502    0 -0.56894030966E+03 -0.27151707192E+03  0.14077199289E+04  0.15424370601E+04  0.46999998093E+01 0.  1.
       -5    1    3    3    0  502  0.56894030966E+03  0.27151707192E+03  0.20794690778E+03  0.66383627707E+03  0.46999998093E+01 0. -1.
</event>
<event>
 5   0  0.1484251E-04  0.1493988E+04  0.7818609E-02  0.8888461E-01
       -1   -1    0    0    0  501  0.00000000000E+00  0.00000000000E+00  0.47544343097E+03  0.47544343100E+03  0.50400001928E-02 0.  1.
        1   -1    0    0  501    0  0.00000000000E+00  0.00000000000E+00 -0.11736414577E+04  0.11736414577E+04  0.50400001928E-02 0. -1.
    10030    2    1    2    0    0  0.00000000000E+00  0.00000000000E+00 -0.69819802668E+03  0.16490848887E+04  0.14939881143E+04 0.  0.
        5    1    3    3  502    0  0.72369036696E+03  0.10128252256E+03 -0.17812491743E+03  0.75215455381E+03  0.46999998093E+01 0.  1.
       -5    1    3    3    0  502 -0.72369036696E+03 -0.10128252256E+03 -0.52007310925E+03  0.89693033485E+03  0.46999998093E+01 0. -1.
</event>
<event>
 5   0  0.2618901E-04  0.1498422E+04  0.7818609E-02  0.8885503E-01
        2   -1    0    0  501    0  0.00000000000E+00  0.00000000000E+00  0.61956940697E+03  0.61956940697E+03  0.25500000920E-02 0. -1.
       -2   -1    0    0    0  501  0.00000000000E+00  0.00000000000E+00 -0.90597884772E+03  0.90597884772E+03  0.25500000920E-02 0.  1.
    10030    2    1    2    0    0  0.00000000000E+00  0.00000000000E+00 -0.28640944075E+03  0.15255482547E+04  0.14984215394E+04 0.  0.
        1    1    3    3  502    0  0.59474961436E+03 -0.11635449835E+03 -0.59169209861E+03  0.84697403304E+03  0.50400001928E-02 0.  1.
       -1    1    3    3    0  502 -0.59474961436E+03  0.11635449835E+03  0.30528265787E+03  0.67857422165E+03  0.50400001928E-02 0. -1.
</event>
<event>
 5   0  0.1426929E-04  0.1495249E+04  0.7818609E-02  0.8887618E-01
        1   -1    0    0  501    0  0.00000000000E+00  0.00000000000E+00  0.81789585376E+03  0.81789585378E+03  0.50400001928E-02 0.  1.
       -1   -1    0    0    0  501  0.00000000000E+00  0.00000000000E+00 -0.68339102531E+03  0.68339102533E+03  0.50400001928E-02 0. -1.
    10030    2    1    2    0    0  0.00000000000E+00  0.00000000000E+00  0.13450482845E+03  0.15012868791E+04  0.14952493921E+04 0.  0.
        1    1    3    3  502    0 -0.59289914919E+03  0.29274405489E+03 -0.28303189584E+03  0.71926040964E+03  0.50400001928E-02 0. -1.
       -1    1    3    3    0  502  0.59289914919E+03 -0.29274405489E+03  0.41753672429E+03  0.78202646947E+03  0.50400001928E-02 0.  1.
</event>
<event>
 5   0  0.2646718E-04  0.1501605E+04  0.7818609E-02  0.8883387E-01
       -2   -1    0    0    0  501  0.00000000000E+00  0.00000000000E+00  0.46828113857E+03  0.46828113858E+03  0.25500000920E-02 0.  1.
        2   -1    0    0  501    0  0.00000000000E+00  0.00000000000E+00 -0.12037729293E+04  0.12037729293E+04  0.25500000920E-02 0. -1.
    10030    2    1    2    0    0  0.00000000000E+00  0.00000000000E+00 -0.73549179076E+03  0.16720540679E+04  0.15016046856E+04 0.  0.
        3    1    3    3  502    0 -0.14133050178E+03  0.15308553557E+03  0.43544612384E+03  0.48272438192E+03  0.10100000352E+00 0.  1.
       -3    1    3    3    0  502  0.14133050178E+03 -0.15308553557E+03 -0.11709379146E+04  0.11893296860E+04  0.10100000352E+00 0. -1.
</event>
<event>
 5   0  0.2641347E-04  0.1518635E+04  0.7818609E-02  0.8872155E-01
       -2   -1    0    0    0  501  0.00000000000E+00  0.00000000000E+00  0.13717948114E+04  0.13717948114E+04  0.25500000920E-02 0. -1.
        2   -1    0    0  501    0  0.00000000000E+00  0.00000000000E+00 -0.42029838705E+03  0.42029838705E+03  0.25500000920E-02 0.  1.
    10030    2    1    2    0    0  0.00000000000E+00  0.00000000000E+00  0.95149642438E+03  0.17920931985E+04  0.15186351064E+04 0.  0.
        4    1    3    3  502    0 -0.57747518464E+03 -0.83917980278E+02 -0.97577658436E+02  0.59164417398E+03  0.12699999809E+01 0.  1.
       -4    1    3    3    0  502  0.57747518464E+03  0.83917980278E+02  0.10490740828E+04  0.12004490245E+04  0.12699999809E+01 0. -1.
</event>
<event>
 5   0  0.2696040E-04  0.1499796E+04  0.7818609E-02  0.8884588E-01
       -2   -1    0    0    0  501  0.00000000000E+00  0.00000000000E+00  0.27323479004E+03  0.27323479005E+03  0.25500000920E-02 0.  1.
        2   -1    0    0  501    0  0.00000000000E+00  0.00000000000E+00 -0.20581095121E+04  0.20581095121E+04  0.25500000920E-02 0. -1.
    10030    2    1    2    0    0  0.00000000000E+00  0.00000000000E+00 -0.17848747221E+04  0.23313443022E+04  0.14997961467E+04 0.  0.
        2    1    3    3  502    0  0.59020437431E+03 -0.16946903205E+03 -0.15615445228E+04  0.16779398836E+04  0.25500000920E-02 0. -1.
       -2    1    3    3    0  502 -0.59020437431E+03  0.16946903205E+03 -0.22333019926E+03  0.65340441855E+03  0.25500000920E-02 0.  1.
</event>
<event>
 5   0  0.2696040E-04  0.1502965E+04  0.7818609E-02  0.8882484E-01
       -2   -1    0    0    0  501  0.00000000000E+00  0.00000000000E+00  0.14918578230E+04  0.14918578230E+04  0.25500000920E-02 0.  1.
        2   -1    0    0  501    0  0.00000000000E+00  0.00000000000E+00 -0.37853880246E+03  0.37853880247E+03  0.25500000920E-02 0. -1.
    10030    2    1    2    0    0  0.00000000000E+00  0.00000000000E+00  0.11133190205E+04  0.18703966254E+04  0.15029651676E+04 0.  0.
        2    1    3    3  502    0  0.34888367752E+03  0.25674398638E+03  0.13208587463E+04  0.13900737832E+04  0.25500000920E-02 0.  1.
       -2    1    3    3    0  502 -0.34888367752E+03 -0.25674398638E+03 -0.20753972582E+03  0.48032284224E+03  0.25500000920E-02 0. -1.
</event>
<event>
 5   0  0.2618901E-04  0.1501466E+04  0.7818609E-02  0.8883479E-01
        2   -1    0    0  501    0  0.00000000000E+00  0.00000000000E+00  0.13960767816E+04  0.13960767816E+04  0.25500000920E-02 0. -1.
       -2   -1    0    0    0  501  0.00000000000E+00  0.00000000000E+00 -0.40370279541E+03  0.40370279542E+03  0.25500000920E-02 0.  1.
    10030    2    1    2    0    0  0.00000000000E+00  0.00000000000E+00  0.99237398619E+03  0.17997795770E+04  0.15014660827E+04 0.  0.
        1    1    3    3  502    0  0.41863923146E+03 -0.50103918867E+03  0.52025727106E+02  0.65498530595E+03  0.50400001928E-02 0.  1.
       -1    1    3    3    0  502 -0.41863923146E+03  0.50103918867E+03  0.94034825908E+03  0.11447942711E+04  0.50400001928E-02 0. -1.
</event>
<event>
 5   0  0.1484251E-04  0.1501893E+04  0.7818609E-02  0.8883195E-01
       -1   -1    0    0    0  501  0.00000000000E+00  0.00000000000E+00  0.52687860199E+03  0.52687860201E+03  0.50400001928E-02 0.  1.
        1   -1    0    0  501    0  0.00000000000E+00  0.00000000000E+00 -0.10703047684E+04  0.10703047684E+04  0.50400001928E-02 0. -1.
    10030    2    1    2    0    0  0.00000000000E+00  0.00000000000E+00 -0.54342616639E+03  0.15971833704E+04  0.15018930456E+04 0.  0.
        5    1    3    3  502    0 -0.36852079059E+03 -0.13573068021E+03 -0.95237570145E+03  0.10301805460E+04  0.46999998093E+01 0. -1.
       -5    1    3    3    0  502  0.36852079059E+03  0.13573068021E+03  0.40894953506E+03  0.56700282440E+03  0.46999998093E+01 0.  1.
</event>
<event>
 5   0  0.1426929E-04  0.1507400E+04  0.7818609E-02  0.8879547E-01
       -1   -1    0    0    0  501  0.00000000000E+00  0.00000000000E+00  0.13526498673E+04  0.13526498674E+04  0.50400001928E-02 0.  1.
        1   -1    0    0  501    0  0.00000000000E+00  0.00000000000E+00 -0.41996341522E+03  0.41996341525E+03  0.50400001928E-02 0. -1.
    10030    2    1    2    0    0  0.00000000000E+00  0.00000000000E+00  0.93268645212E+03  0.17726132826E+04  0.15073996921E+04 0.  0.
        1    1    3    3  502    0  0.71646745275E+03  0.16304673662E+03  0.26903162882E+03  0.78248825327E+03  0.50400001928E-02 0. -1.
       -1    1    3    3    0  502 -0.71646745275E+03 -0.16304673662E+03  0.66365482330E+03  0.99012502932E+03  0.50400001928E-02 0.  1.
</event>
<event>
 5   0  0.2618901E-04  0.1505780E+04  0.7818609E-02  0.8880618E-01
       -2   -1    0    0    0  501  0.00000000000E+00  0.00000000000E+00  0.72040360575E+03  0.72040360575E+03  0.25500000920E-02 0.  1.
        2   -1    0    0  501    0  0.00000000000E+00  0.00000000000E+00 -0.78684155825E+03  0.78684155826E+03  0.25500000920E-02 0. -1.
    10030    2    1    2    0    0  0.00000000000E+00  0.00000000000E+00 -0.66437952506E+02  0.15072451640E+04  0.15057801908E+04 0.  0.
        1    1    3    3  502    0 -0.35327528141E+03  0.79102362545E+02  0.62756180898E+03  0.72449598503E+03  0.50400001928E-02 0.  1.
       -1    1    3    3    0  502  0.35327528141E+03 -0.79102362545E+02 -0.69399976148E+03  0.78274917897E+03  0.50400001928E-02 0. -1.
</event>
<event>
 5   0  0.1443750E-04  0.1502600E+04  0.7818609E-02  0.8882726E-01
        1   -1    0    0  501    0  0.00000000000E+00  0.00000000000E+00  0.14630544138E+04  0.14630544138E+04  0.50400001928E-02 0.  1.
       -1   -1    0    0    0  501  0.00000000000E+00  0.00000000000E+00 -0.38580350882E+03  0.38580350885E+03  0.50400001928E-02 0. -1.
    10030    2    1    2    0    0  0.00000000000E+00  0.00000000000E+00  0.10772509050E+04  0.18488579226E+04  0.15025997823E+04 0.  0.
        2    1    3    3  502    0  0.25415834058E+03  0.52539637546E+03 -0.43482541128E+02  0.58525938251E+03  0.25500000920E-02 0. -1.
       -2    1    3    3    0  502 -0.25415834058E+03 -0.52539637546E+03  0.11207334461E+04  0.12635985401E+04  0.25500000920E-02 0.  1.
</event>
<event>
 5   0  0.1474203E-04  0.1500745E+04  0.7818609E-02  0.8883958E-01
       -1   -1    0    0    0  501  0.00000000000E+00  0.00000000000E+00  0.56234602759E+03  0.56234602761E+03  0.50400001928E-02 0. -1.
        1   -1    0    0  501    0  0.00000000000E+00  0.00000000000E+00 -0.10012670919E+04  0.10012670919E+04  0.50400001928E-02 0.  1.
    10030    2    1    2    0    0  0.00000000000E+00  0.00000000000E+00 -0.43892106427E+03  0.15636131195E+04  0.15007445775E+04 0.  0.
        3    1    3    3  502    0 -0.73881068113E+03  0.76926710029E+01 -0.82984024105E+02  0.74349630678E+03  0.10100000352E+00 0. -1.
       -3    1    3    3    0  502  0.73881068113E+03 -0.76926710029E+01 -0.35593704017E+03  0.82011681271E+03  0.10100000352E+00 0.  1.
</event>
<event>
 5   0  0.1427609E-04  0.1507602E+04  0.7818609E-02  0.8879413E-01
        1   -1    0    0  501    0  0.00000000000E+00  0.00000000000E+00  0.89358081740E+03  0.89358081742E+03  0.50400001928E-02 0.  1.
       -1   -1    0    0    0  501  0.00000000000E+00  0.00000000000E+00 -0.63588650493E+03  0.63588650495E+03  0.50400001928E-02 0. -1.
    10030    2    1    2    0    0  0.00000000000E+00  0.00000000000E+00  0.25769431247E+03  0.15294673224E+04  0.15076020468E+04 0.  0.
        4    1    3    3  502    0  0.13165729938E+02 -0.45060853254E+03  0.74175579454E+03  0.86800037885E+03  0.12699999809E+01 0.  1.
       -4    1    3    3    0  502 -0.13165729938E+02  0.45060853254E+03 -0.48406148207E+03  0.66146694352E+03  0.12699999809E+01 0. -1.
</event>
<event>
 5   0  0.2618901E-04  0.1502722E+04  0.7818609E-02  0.8882645E-01
        2   -1    0    0  501    0  0.00000000000E+00  0.00000000000E+00  0.14932535827E+04  0.14932535827E+04  0.25500000920E-02 0. -1.
       -2   -1    0    0    0  501  0.00000000000E+00  0.00000000000E+00 -0.37806282038E+03  0.37806282039E+03  0.25500000920E-02 0.  1.
    10030    2    1    2    0    0  0.00000000000E+00  0.00000000000E+00  0.11151907623E+04  0.18713164031E+04  0.15027224109E+04 0.  0.
        1    1    3    3  502    0  0.21845235930E+03 -0.20916136872E+03  0.14141062653E+04  0.14460865953E+04  0.50400001928E-02 0. -1.
       -1    1    3    3    0  502 -0.21845235930E+03  0.20916136872E+03 -0.29891550303E+03  0.42522980778E+03  0.50400001928E-02 0.  1.
</event>
<event>
 5   0  0.1443750E-04  0.1497851E+04  0.7818609E-02  0.8885884E-01
       -1   -1    0    0    0  501  0.00000000000E+00  0.00000000000E+00  0.51711252243E+03  0.51711252246E+03  0.50400001928E-02 0. -1.
        1   -1    0    0  501    0  0.00000000000E+00  0.00000000000E+00 -0.10846557705E+04  0.10846557705E+04  0.50400001928E-02 0.  1.
    10030    2    1    2    0    0  0.00000000000E+00  0.00000000000E+00 -0.56754324804E+03  0.16017682929E+04  0.14978505686E+04 0.  0.
        2    1    3    3  502    0 -0.31049068609E+03  0.40783976395E+03  0.30014331749E+03  0.59398968867E+03  0.25500000920E-02 0. -1.
       -2    1    3    3    0  502  0.31049068609E+03 -0.40783976395E+03 -0.86768656553E+03  0.10077786043E+04  0.25500000920E-02 0.  1.
</event>
<event>
 5   0  0.1474203E-04  0.1508636E+04  0.7818609E-02  0.8878730E-01
       -1   -1    0    0    0  501  0.00000000000E+00  0.00000000000E+00  0.65668135241E+03  0.65668135243E+03  0.50400001928E-02 0. -1.
        1   -1    0    0  501    0  0.00000000000E+00  0.00000000000E+00 -0.86647177311E+03  0.86647177313E+03  0.50400001928E-02 0.  1.
    10030    2    1    2    0    0  0.00000000000E+00  0.00000000000E+00 -0.20979042070E+03  0.15231531256E+04  0.15086362793E+04 0.  0.
        3    1    3    3  502    0  0.15571509808E+03  0.72199594551E+03 -0.25957026148E+03  0.78288062177E+03  0.10100000352E+00 0. -1.
       -3    1    3    3    0  502 -0.15571509808E+03 -0.72199594551E+03  0.49779840778E+02  0.74027250378E+03  0.10100000352E+00 0.  1.
</event>
<event>
 5   0  0.1484251E-04  0.1498723E+04  0.7818609E-02  0.8885302E-01
       -1   -1    0    0    0  501  0.00000000000E+00  0.00000000000E+00  0.54688608693E+03  0.54688608696E+03  0.50400001928E-02 0. -1.
        1   -1    0    0  501    0  0.00000000000E+00  0.00000000000E+00 -0.10268006759E+04  0.10268006759E+04  0.50400001928E-02 0.  1.
    10030    2    1    2    0    0  0.00000000000E+00  0.00000000000E+00 -0.47991458899E+03  0.15736867629E+04  0.14987234618E+04 0.  0.
        5    1    3    3  502    0 -0.87915410641E+02  0.12401720785E+03 -0.10104241491E+04  0.10218064583E+04  0.46999998093E+01 0.  1.
       -5    1    3    3    0  502  0.87915410641E+02 -0.12401720785E+03  0.53050956006E+03  0.55188030458E+03  0.46999998093E+01 0. -1.
</event>
<event>
 5   0  0.2618901E-04  0.1497906E+04  0.7818609E-02  0.8885846E-01
       -2   -1    0    0    0  501  0.00000000000E+00  0.00000000000E+00  0.45709340102E+03  0.45709340102E+03  0.25500000920E-02 0.  1.
        2   -1    0    0  501    0  0.00000000000E+00  0.00000000000E+00 -0.12271690064E+04  0.12271690064E+04  0.25500000920E-02 0. -1.
    10030    2    1    2    0    0  0.00000000000E+00  0.00000000000E+00 -0.77007560541E+03  0.16842624075E+04  0.14979063452E+04 0.  0.
        1    1    3    3  502    0  0.41429063786E+02 -0.25322609267E+03  0.40612821541E+03  0.48039561687E+03  0.50400001928E-02 0.  1.
       -1    1    3    3    0  502 -0.41429063786E+02  0.25322609267E+03 -0.11762038208E+04  0.12038667906E+04  0.50400001928E-02 0. -1.
</event>
<event>
 5   0  0.1004313E-04  0.1489708E+04  0.7818609E-02  0.8891326E-01
       -3   -1    0    0    0  501  0.00000000000E+00  0.00000000000E+00  0.12900478940E+04  0.12900478980E+04  0.10100000352E+00 0. -1.
        3   -1    0    0  501    0  0.00000000000E+00  0.00000000000E+00 -0.43006725331E+03  0.43006726517E+03  0.10100000352E+00 0.  1.
    10030    2    1    2    0    0  0.00000000000E+00  0.00000000000E+00  0.85998064070E+03  0.17201151631E+04  0.14897078479E+04 0.  0.
        3    1    3    3  502    0  0.36618069973E+02  0.74231585993E+03  0.37302841803E+03  0.83157917832E+03  0.10100000352E+00 0. -1.
       -3    1    3    3    0  502 -0.36618069973E+02 -0.74231585993E+03  0.48695222267E+03  0.88853598482E+03  0.10100000352E+00 0.  1.
</event>
<event>
 5   0  0.1484251E-04  0.1494683E+04  0.7818609E-02  0.8887997E-01
        1   -1    0    0  501    0  0.00000000000E+00  0.00000000000E+00  0.60893285339E+03  0.60893285341E+03  0.50400001928E-02 0. -1.
       -1   -1    0    0    0  501  0.00000000000E+00  0.00000000000E+00 -0.91720961059E+03  0.91720961060E+03  0.50400001928E-02 0.  1.
    10030    2    1    2    0    0  0.00000000000E+00  0.00000000000E+00 -0.30827675720E+03  0.15261424640E+04  0.14946826625E+04 0.  0.
        5    1    3    3  502    0 -0.17518999525E+03  0.53535769119E+03 -0.65559405945E+03  0.86436395848E+03  0.46999998093E+01 0. -1.
       -5    1    3    3    0  502  0.17518999525E+03 -0.53535769119E+03  0.34731730225E+03  0.66177850553E+03  0.46999998093E+01 0.  1.
</event>
<event>
 5   0  0.2696040E-04  0.1499173E+04  0.7818609E-02  0.8885003E-01
       -2   -1    0    0    0  501  0.00000000000E+00  0.00000000000E+00  0.22728196806E+03  0.22728196808E+03  0.25500000920E-02 0.  1.
        2   -1    0    0  501    0  0.00000000000E+00  0.00000000000E+00 -0.24721718098E+04  0.24721718098E+04  0.25500000920E-02 0. -1.
    10030    2    1    2    0    0  0.00000000000E+00  0.00000000000E+00 -0.22448898418E+04  0.26994537779E+04  0.14991732046E+04 0.  0.
        2    1    3    3  502    0 -0.11751104601E+03 -0.67847024772E+03 -0.16558363609E+04  0.17932999685E+04  0.25500000920E-02 0. -1.
       -2    1    3    3    0  502  0.11751104601E+03  0.67847024772E+03 -0.58905348091E+03  0.90615380943E+03  0.25500000920E-02 0.  1.
</event>
<event>
 5   0  0.1443750E-04  0.1502267E+04  0.7818609E-02  0.8882947E-01
        1   -1    0    0  501    0  0.00000000000E+00  0.00000000000E+00  0.73745838255E+03  0.73745838257E+03  0.50400001928E-02 0. -1.
       -1   -1    0    0    0  501  0.00000000000E+00  0.00000000000E+00 -0.76506201448E+03  0.76506201450E+03  0.50400001928E-02 0.  1.
    10030    2    1    2    0    0  0.00000000000E+00  0.00000000000E+00 -0.27603631929E+02  0.15025203971E+04  0.15022668149E+04 0.  0.
        2    1    3    3  502    0  0.28740378044E+03 -0.69393867039E+03 -0.20844630264E+02  0.75138958596E+03  0.25500000920E-02 0.  1.
       -2    1    3    3    0  502 -0.28740378044E+03  0.69393867039E+03 -0.67590016651E+01  0.75113081110E+03  0.25500000920E-02 0. -1.
</event>
<event>
 5   0  0.2734072E-04  0.1498716E+04  0.7818609E-02  0.8885307E-01
        2   -1    0    0  501    0  0.00000000000E+00  0.00000000000E+00  0.23923386597E+04  0.23923386597E+04  0.25500000920E-02 0. -1.
       -2   -1    0    0    0  501  0.00000000000E+00  0.00000000000E+00 -0.23472315213E+03  0.23472315215E+03  0.25500000920E-02 0.  1.
    10030    2    1    2    0    0  0.00000000000E+00  0.00000000000E+00  0.21576155076E+04  0.26270618119E+04  0.14987158119E+04 0.  0.
        5    1    3    3  502    0 -0.59735708323E+03 -0.41461545494E+03  0.76147574773E+03  0.10529049647E+04  0.46999998093E+01 0. -1.
       -5    1    3    3    0  502  0.59735708323E+03  0.41461545494E+03  0.13961397598E+04  0.15741568471E+04  0.46999998093E+01 0.  1.
</event>
<event>
 5   0  0.2641347E-04  0.1505740E+04  0.7818609E-02  0.8880645E-01
       -2   -1    0    0    0  501  0.00000000000E+00  0.00000000000E+00  0.48421011245E+03  0.48421011245E+03  0.25500000920E-02 0.  1.
        2   -1    0    0  501    0  0.00000000000E+00  0.00000000000E+00 -0.11705937858E+04  0.11705937858E+04  0.25500000920E-02 0. -1.
    10030    2    1    2    0    0  0.00000000000E+00  0.00000000000E+00 -0.68638367337E+03  0.16548038983E+04  0.15057401484E+04 0.  0.
        4    1    3    3  502    0  0.45118327136E+03 -0.91747455272E+02 -0.99783603239E+03  0.10989368955E+04  0.12699999809E+01 0. -1.
       -4    1    3    3    0  502 -0.45118327136E+03  0.91747455272E+02  0.31145235902E+03  0.55586700275E+03  0.12699999809E+01 0.  1.
</event>
<event>
 5   0  0.2641347E-04  0.1499462E+04  0.7818609E-02  0.8884811E-01
       -2   -1    0    0    0  501  0.00000000000E+00  0.00000000000E+00  0.83369855246E+03  0.83369855247E+03  0.25500000920E-02 0. -1.
        2   -1    0    0  501    0  0.00000000000E+00  0.00000000000E+00 -0.67422039954E+03  0.67422039955E+03  0.25500000920E-02 0.  1.
    10030    2    1    2    0    0  0.00000000000E+00  0.00000000000E+00  0.15947815292E+03  0.15079189520E+04  0.14994619984E+04 0.  0.
        4    1    3    3  502    0  0.83255657328E+02 -0.66088774863E+03  0.42575937959E+03  0.79055473117E+03  0.12699999809E+01 0. -1.
       -4    1    3    3    0  502 -0.83255657328E+02  0.66088774863E+03 -0.26628122667E+03  0.71736422084E+03  0.12699999809E+01 0.  1.
</event>
<event>
 5   0  0.1484251E-04  0.1499020E+04  0.7818609E-02  0.8885105E-01
       -1   -1    0    0    0  501  0.00000000000E+00  0.00000000000E+00  0.43286449311E+03  0.43286449313E+03  0.50400001928E-02 0.  1.
        1   -1    0    0  501    0  0.00000000000E+00  0.00000000000E+00 -0.12977857678E+04  0.12977857678E+04  0.50400001928E-02 0. -1.
    10030    2    1    2    0    0  0.00000000000E+00  0.00000000000E+00 -0.86492127468E+03  0.17306502609E+04  0.14990201847E+04 0.  0.
        5    1    3    3  502    0 -0.13165204636E+03 -0.55447465074E+02  0.41698488072E+03  0.44080059374E+03  0.46999998093E+01 0.  1.
       -5    1    3    3    0  502  0.13165204636E+03  0.55447465074E+02 -0.12819061554E+04  0.12898496672E+04  0.46999998093E+01 0. -1.
</event>
<event>
 5   0  0.1484251E-04  0.1500599E+04  0.7818609E-02  0.8884055E-01
        1   -1    0    0  501    0  0.00000000000E+00  0.00000000000E+00  0.17168652758E+04  0.17168652758E+04  0.50400001928E-02 0.  1.
       -1   -1    0    0    0  501  0.00000000000E+00  0.00000000000E+00 -0.32789378834E+03  0.32789378838E+03  0.50400001928E-02 0. -1.
    10030    2    1    2    0    0  0.00000000000E+00  0.00000000000E+00  0.13889714875E+04  0.20447590642E+04  0.15005991595E+04 0.  0.
        5    1    3    3  502    0  0.97252146112E+01  0.56808098158E+03  0.26774474951E+02  0.56881415589E+03  0.46999998093E+01 0. -1.
       -5    1    3    3    0  502 -0.97252146112E+01 -0.56808098158E+03  0.13621970125E+04  0.14759449083E+04  0.46999998093E+01 0.  1.
</event>
<event>
 5   0  0.1484251E-04  0.1497667E+04  0.7818609E-02  0.8886006E-01
        1   -1    0    0  501    0  0.00000000000E+00  0.00000000000E+00  0.11687956022E+04  0.11687956022E+04  0.50400001928E-02 0.  1.
       -1   -1    0    0    0  501  0.00000000000E+00  0.00000000000E+00 -0.47976853959E+03  0.47976853962E+03  0.50400001928E-02 0. -1.
    10030    2    1    2    0    0  0.00000000000E+00  0.00000000000E+00  0.68902706260E+03  0.16485641418E+04  0.14976666641E+04 0.  0.
        5    1    3    3  502    0 -0.47994723845E+03  0.10894831405E+03 -0.27671636318E+03  0.56463538897E+03  0.46999998093E+01 0.  1.
       -5    1    3    3    0  502  0.47994723845E+03 -0.10894831405E+03  0.96574342578E+03  0.10839287529E+04  0.46999998093E+01 0. -1.
</event>
<event>
 5   0  0.2641347E-04  0.1480132E+04  0.7818609E-02  0.8897773E-01
        2   -1    0    0  501    0  0.00000000000E+00  0.00000000000E+00  0.37869259918E+03  0.37869259919E+03  0.25500000920E-02 0.  1.
       -2   -1    0    0    0  501  0.00000000000E+00  0.00000000000E+00 -0.14462855906E+04  0.14462855906E+04  0.25500000920E-02 0. -1.
    10030    2    1    2    0    0  0.00000000000E+00  0.00000000000E+00 -0.10675929914E+04  0.18249781898E+04  0.14801319529E+04 0.  0.
        4    1    3    3  502    0  0.62078294731E+03 -0.19394914444E+03 -0.98379957198E+02  0.65777501258E+03  0.12699999809E+01 0.  1.
       -4    1    3    3    0  502 -0.62078294731E+03  0.19394914444E+03 -0.96921303421E+03  0.11672031772E+04  0.12699999809E+01 0. -1.
</event>
<event>
 5   0  0.2734072E-04  0.1498293E+04  0.7818609E-02  0.8885589E-01
       -2   -1    0    0    0  501  0.00000000000E+00  0.00000000000E+00  0.42293061955E+03  0.42293061956E+03  0.25500000920E-02 0.  1.
        2   -1    0    0  501    0  0.00000000000E+00  0.00000000000E+00 -0.13269801134E+04  0.13269801134E+04  0.25500000920E-02 0. -1.
    10030    2    1    2    0    0  0.00000000000E+00  0.00000000000E+00 -0.90404949385E+03  0.17499107330E+04  0.14982930574E+04 0.  0.
        5    1    3    3  502    0 -0.47793924722E+03 -0.43766597317E+03 -0.89092797412E+03  0.11017042131E+04  0.46999998093E+01 0. -1.
       -5    1    3    3    0  502  0.47793924722E+03  0.43766597317E+03 -0.13121519735E+02  0.64820651986E+03  0.46999998093E+01 0.  1.
</event>
<event>
 5   0  0.1474203E-04  0.1503693E+04  0.7818609E-02  0.8882001E-01
       -1   -1    0    0    0  501  0.00000000000E+00  0.00000000000E+00  0.86439881717E+03  0.86439881719E+03  0.50400001928E-02 0.  1.
        1   -1    0    0  501    0  0.00000000000E+00  0.00000000000E+00 -0.65394916762E+03  0.65394916764E+03  0.50400001928E-02 0. -1.
    10030    2    1    2    0    0  0.00000000000E+00  0.00000000000E+00  0.21044964955E+03  0.15183479848E+04  0.15036926375E+04 0.  0.
        3    1    3    3  502    0 -0.28879179661E+02  0.23737506296E+02  0.86345980888E+03  0.86426866654E+03  0.10100000352E+00 0.  1.
       -3    1    3    3    0  502  0.28879179661E+02 -0.23737506296E+02 -0.65301015933E+03  0.65407931828E+03  0.10100000352E+00 0. -1.
</event>
<event>
 5   0  0.2641347E-04  0.1502656E+04  0.7818609E-02  0.8882689E-01
       -2   -1    0    0    0  501  0.00000000000E+00  0.00000000000E+00  0.42509484089E+03  0.42509484090E+03  0.25500000920E-02 0.  1.
        2   -1    0    0  501    0  0.00000000000E+00  0.00000000000E+00 -0.13279242940E+04  0.13279242940E+04  0.25500000920E-02 0. -1.
    10030    2    1    2    0    0  0.00000000000E+00  0.00000000000E+00 -0.90282945306E+03  0.17530191349E+04  0.15026560038E+04 0.  0.
        4    1    3    3  502    0  0.36979340226E+03  0.49994993458E+03 -0.94332617021E+03  0.11298508635E+04  0.12699999809E+01 0. -1.
       -4    1    3    3    0  502 -0.36979340226E+03 -0.49994993458E+03  0.40496717148E+02  0.62316827136E+03  0.12699999809E+01 0.  1.
</event>
<event>
 5   0  0.2618901E-04  0.1506655E+04  0.7818609E-02  0.8880040E-01
        2   -1    0    0  501    0  0.00000000000E+00  0.00000000000E+00  0.61193243930E+03  0.61193243930E+03  0.25500000920E-02 0. -1.
       -2   -1    0    0    0  501  0.00000000000E+00  0.00000000000E+00 -0.92739346234E+03  0.92739346235E+03  0.25500000920E-02 0.  1.
    10030    2    1    2    0    0  0.00000000000E+00  0.00000000000E+00 -0.31546102305E+03  0.15393259017E+04  0.15066547629E+04 0.  0.
        1    1    3    3  502    0  0.41802908134E+03  0.59419716734E+03  0.45796532503E+02  0.72795323266E+03  0.50400001928E-02 0. -1.
       -1    1    3    3    0  502 -0.41802908134E+03 -0.59419716734E+03 -0.36125755555E+03  0.81137266899E+03  0.50400001928E-02 0.  1.
</event>
<event>
 5   0  0.1426929E-04  0.1500853E+04  0.7818609E-02  0.8883886E-01
        1   -1    0    0  501    0  0.00000000000E+00  0.00000000000E+00  0.78023003664E+03  0.78023003665E+03  0.50400001928E-02 0. -1.
       -1   -1    0    0    0  501  0.00000000000E+00  0.00000000000E+00 -0.72176116225E+03  0.72176116227E+03  0.50400001928E-02 0.  1.
    10030    2    1    2    0    0  0.00000000000E+00  0.00000000000E+00  0.58468874387E+02  0.15019911989E+04  0.15008527417E+04 0.  0.
        1    1    3    3  502    0  0.23150656532E+03  0.30345743618E+03 -0.61736558626E+03  0.72582502883E+03  0.50400001928E-02 0.  1.
       -1    1    3    3    0  502 -0.23150656532E+03 -0.30345743618E+03  0.67583446065E+03  0.77616617008E+03  0.50400001928E-02 0. -1.
</event>
<event>
 5   0  0.2646718E-04  0.1502654E+04  0.7818609E-02  0.8882690E-01
       -2   -1    0    0    0  501  0.00000000000E+00  0.00000000000E+00  0.71149472369E+03  0.71149472369E+03  0.25500000920E-02 0. -1.
        2   -1    0    0  501    0  0.00000000000E+00  0.00000000000E+00 -0.79338955892E+03  0.79338955893E+03  0.25500000920E-02 0.  1.
    10030    2    1    2    0    0  0.00000000000E+00  0.00000000000E+00 -0.81894835233E+02  0.15048842826E+04  0.15026542982E+04 0.  0.
        3    1    3    3  502    0  0.46392847180E+02  0.45238166432E+03  0.55801288542E+03  0.71984710666E+03  0.10100000352E+00 0. -1.
       -3    1    3    3    0  502 -0.46392847180E+02 -0.45238166432E+03 -0.63990772065E+03  0.78503717595E+03  0.10100000352E+00 0.  1.
</event>
<event>
 5   0  0.1474203E-04  0.1499231E+04  0.7818609E-02  0.8884964E-01
        1   -1    0    0  501    0  0.00000000000E+00  0.00000000000E+00  0.10694346687E+04  0.10694346687E+04  0.50400001928E-02 0. -1.
       -1   -1    0    0    0  501  0.00000000000E+00  0.00000000000E+00 -0.52543994570E+03  0.52543994572E+03  0.50400001928E-02 0.  1.
    10030    2    1    2    0    0  0.00000000000E+00  0.00000000000E+00  0.54399472297E+03  0.15948746144E+04  0.14992313954E+04 0.  0.
        3    1    3    3  502    0  0.19717128190E+03  0.45842982091E+03  0.86704702167E+03  0.10004024006E+04  0.10100000352E+00 0. -1.
       -3    1    3    3    0  502 -0.19717128190E+03 -0.45842982091E+03 -0.32305229870E+03  0.59447221382E+03  0.10100000352E+00 0.  1.
</event>
<event>
 5   0  0.1484251E-04  0.1467589E+04  0.7818609E-02  0.8906297E-01
       -1   -1    0    0    0  501  0.00000000000E+00  0.00000000000E+00  0.35670874573E+03  0.35670874577E+03  0.50400001928E-02 0.  1.
        1   -1    0    0  501    0  0.00000000000E+00  0.00000000000E+00 -0.15095071357E+04  0.15095071358E+04  0.50400001928E-02 0. -1.
    10030    2    1    2    0    0  0.00000000000E+00  0.00000000000E+00 -0.11527983900E+04  0.18662158815E+04  0.14675890393E+04 0.  0.
        5    1    3    3  502    0  0.59979533853E+03  0.28411149017E+03 -0.97439503179E+03  0.11789578258E+04  0.46999998093E+01 0.  1.
       -5    1    3    3    0  502 -0.59979533853E+03 -0.28411149017E+03 -0.17840335822E+03  0.68725805575E+03  0.46999998093E+01 0. -1.
</event>
<event>
 5   0  0.1426929E-04  0.1512602E+04  0.7818609E-02  0.8876116E-01
       -1   -1    0    0    0  501  0.00000000000E+00  0.00000000000E+00  0.10824322034E+04  0.10824322035E+04  0.50400001928E-02 0. -1.
        1   -1    0    0  501    0  0.00000000000E+00  0.00000000000E+00 -0.52843158925E+03  0.52843158927E+03  0.50400001928E-02 0.  1.
    10030    2    1    2    0    0  0.00000000000E+00  0.00000000000E+00  0.55400061420E+03  0.16108637927E+04  0.15126022207E+04 0.  0.
        1    1    3    3  502    0  0.40305719012E+03  0.57525956037E+03 -0.21593274493E+02  0.70274101192E+03  0.50400001928E-02 0.  1.
       -1    1    3    3    0  502 -0.40305719012E+03 -0.57525956037E+03  0.57559388869E+03  0.90812278081E+03  0.50400001928E-02 0. -1.
</event>
<event>
 5   0  0.1426929E-04  0.1485292E+04  0.7818609E-02  0.8894293E-01
       -1   -1    0    0    0  501  0.00000000000E+00  0.00000000000E+00  0.35349783142E+03  0.35349783146E+03  0.50400001928E-02 0. -1.
        1   -1    0    0  501    0  0.00000000000E+00  0.00000000000E+00 -0.15601876080E+04  0.15601876081E+04  0.50400001928E-02 0.  1.
    10030    2    1    2    0    0  0.00000000000E+00  0.00000000000E+00 -0.12066897766E+04  0.19136854395E+04  0.14852918045E+04 0.  0.
        1    1    3    3  502    0 -0.61851703758E+03 -0.78345608954E+02 -0.11232388156E+04  0.12846660255E+04  0.50400001928E-02 0.  1.
       -1    1    3    3    0  502  0.61851703758E+03  0.78345608954E+02 -0.83450960992E+02  0.62901941396E+03  0.50400001928E-02 0. -1.
</event>
<event>
 5   0  0.2646718E-04  0.1499348E+04  0.7818609E-02  0.8884887E-01
        2   -1    0    0  501    0  0.00000000000E+00  0.00000000000E+00  0.10088488242E+04  0.10088488242E+04  0.25500000920E-02 0. -1.
       -2   -1    0    0    0  501  0.00000000000E+00  0.00000000000E+00 -0.55708122595E+03  0.55708122595E+03  0.25500000920E-02 0.  1.
    10030    2    1    2    0    0  0.00000000000E+00  0.00000000000E+00  0.45176759828E+03  0.15659300502E+04  0.14993475112E+04 0.  0.
        3    1    3    3  502    0 -0.63282509446E+03 -0.20106412089E+03 -0.13758860207E+03  0.67810398503E+03  0.10100000352E+00 0.  1.
       -3    1    3    3    0  502  0.63282509446E+03  0.20106412089E+03  0.58935620035E+03  0.88782606516E+03  0.10100000352E+00 0. -1.
</event>
<event>
 5   0  0.1426929E-04  0.1514199E+04  0.7818609E-02  0.8875065E-01
       -1   -1    0    0    0  501  0.00000000000E+00  0.00000000000E+00  0.39396592003E+03  0.39396592006E+03  0.50400001928E-02 0.  1.
        1   -1    0    0  501    0  0.00000000000E+00  0.00000000000E+00 -0.14549471874E+04  0.14549471874E+04  0.50400001928E-02 0. -1.
    10030    2    1    2    0    0  0.00000000000E+00  0.00000000000E+00 -0.10609812674E+04  0.18489131075E+04  0.15141989398E+04 0.  0.
        1    1    3    3  502    0 -0.68200693003E+03 -0.20668039472E+03 -0.21834715705E+03  0.74533597738E+03  0.50400001928E-02 0.  1.
       -1    1    3    3    0  502  0.68200693003E+03  0.20668039472E+03 -0.84263411032E+03  0.11035771301E+04  0.50400001928E-02 0. -1.
</event>
<event>
 5   0  0.1443750E-04  0.1438947E+04  0.7818609E-02  0.8926099E-01
       -1   -1    0    0    0  501  0.00000000000E+00  0.00000000000E+00  0.29875184143E+03  0.29875184147E+03  0.50400001928E-02 0. -1.
        1   -1    0    0  501    0  0.00000000000E+00  0.00000000000E+00 -0.17326836755E+04  0.17326836755E+04  0.50400001928E-02 0.  1.
    10030    2    1    2    0    0  0.00000000000E+00  0.00000000000E+00 -0.14339318341E+04  0.20314355170E+04  0.14389474469E+04 0.  0.
        2    1    3    3  502    0  0.26508912765E+03  0.54419147091E+03 -0.12659643508E+04  0.14032399439E+04  0.25500000920E-02 0.  1.
       -2    1    3    3    0  502 -0.26508912765E+03 -0.54419147091E+03 -0.16796748326E+03  0.62819557309E+03  0.25500000920E-02 0. -1.
</event>
<event>
 5   0  0.1484251E-04  0.1496022E+04  0.7818609E-02  0.8887103E-01
        1   -1    0    0  501    0  0.00000000000E+00  0.00000000000E+00  0.11949591344E+04  0.11949591344E+04  0.50400001928E-02 0.  1.
       -1   -1    0    0    0  501  0.00000000000E+00  0.00000000000E+00 -0.46823379568E+03  0.46823379570E+03  0.50400001928E-02 0. -1.
    10030    2    1    2    0    0  0.00000000000E+00  0.00000000000E+00  0.72672533871E+03  0.16631929301E+04  0.14960217261E+04 0.  0.
        5    1    3    3  502    0 -0.32665041657E+03  0.66728122536E+03  0.45985686500E+03  0.87375920861E+03  0.46999998093E+01 0. -1.
       -5    1    3    3    0  502  0.32665041657E+03 -0.66728122536E+03  0.26686847371E+03  0.78943372148E+03  0.46999998093E+01 0.  1.
</event>
<event>
 5   0  0.2641347E-04  0.1500175E+04  0.7818609E-02  0.8884337E-01
       -2   -1    0    0    0  501  0.00000000000E+00  0.00000000000E+00  0.77156217188E+03  0.77156217188E+03  0.25500000920E-02 0. -1.
        2   -1    0    0  501    0  0.00000000000E+00  0.00000000000E+00 -0.72921042254E+03  0.72921042255E+03  0.25500000920E-02 0.  1.
    10030    2    1    2    0    0  0.00000000000E+00  0.00000000000E+00  0.42351749339E+02  0.15007725944E+04  0.15001748930E+04 0.  0.
        4    1    3    3  502    0  0.68657957153E+03  0.43100595108E+02  0.32026053061E+03  0.75882645559E+03  0.12699999809E+01 0. -1.
       -4    1    3    3    0  502 -0.68657957153E+03 -0.43100595108E+02 -0.27790878127E+03  0.74194613884E+03  0.12699999809E+01 0.  1.
</event>
<event>
 5   0  0.2646718E-04  0.1486851E+04  0.7818609E-02  0.8893244E-01
       -2   -1    0    0    0  501  0.00000000000E+00  0.00000000000E+00  0.36669092833E+03  0.36669092834E+03  0.25500000920E-02 0.  1.
        2   -1    0    0  501    0  0.00000000000E+00  0.00000000000E+00 -0.15072127969E+04  0.15072127969E+04  0.25500000920E-02 0. -1.
    10030    2    1    2    0    0  0.00000000000E+00  0.00000000000E+00 -0.11405218686E+04  0.18739037253E+04  0.14868507117E+04 0.  0.
        3    1    3    3  502    0  0.15021310537E+03 -0.54849800965E+02 -0.14852797640E+04  0.14938636033E+04  0.10100000352E+00 0. -1.
       -3    1    3    3    0  502 -0.15021310537E+03  0.54849800965E+02  0.34475789538E+03  0.38004012199E+03  0.10100000352E+00 0.  1.
</event>
<event>
 5   0  0.1427609E-04  0.1550362E+04  0.7818609E-02  0.8851637E-01
       -1   -1    0    0    0  501  0.00000000000E+00  0.00000000000E+00  0.41660704418E+03  0.41660704421E+03  0.50400001928E-02 0.  1.
        1   -1    0    0  501    0  0.00000000000E+00  0.00000000000E+00 -0.14423789491E+04  0.14423789491E+04  0.50400001928E-02 0. -1.
    10030    2    1    2    0    0  0.00000000000E+00  0.00000000000E+00 -0.10257719049E+04  0.18589859933E+04  0.15503615457E+04 0.  0.
        4    1    3    3  502    0 -0.47206392001E+02 -0.77228259346E+03 -0.45594899411E+03  0.89807569043E+03  0.12699999809E+01 0. -1.
       -4    1    3    3    0  502  0.47206392001E+02  0.77228259346E+03 -0.56982291081E+03  0.96091030289E+03  0.12699999809E+01 0.  1.
</event>
<event>
 5   0  0.1443750E-04  0.1500054E+04  0.7818609E-02  0.8884417E-01
        1   -1    0    0  501    0  0.00000000000E+00  0.00000000000E+00  0.16150013592E+04  0.16150013592E+04  0.50400001928E-02 0.  1.
       -1   -1    0    0    0  501  0.00000000000E+00  0.00000000000E+00 -0.34832183280E+03  0.34832183284E+03  0.50400001928E-02 0. -1.
    10030    2    1    2    0    0  0.00000000000E+00  0.00000000000E+00  0.12666795264E+04  0.19633231920E+04  0.15000536436E+04 0.  0.
        2    1    3    3  502    0  0.41366015616E+03  0.29155697208E+03 -0.91168911145E+02  0.51422948489E+03  0.25500000920E-02 0. -1.
       -2    1    3    3    0  502 -0.41366015616E+03 -0.29155697208E+03  0.13578484375E+04  0.14490937071E+04  0.25500000920E-02 0.  1.
</event>
<event>
 5   0  0.1427609E-04  0.1498825E+04  0.7818609E-02  0.8885235E-01
        1   -1    0    0  501    0  0.00000000000E+00  0.00000000000E+00  0.69940076265E+03  0.69940076267E+03  0.50400001928E-02 0.  1.
       -1   -1    0    0    0  501  0.00000000000E+00  0.00000000000E+00 -0.80300062858E+03  0.80300062860E+03  0.50400001928E-02 0. -1.
    10030    2    1    2    0    0  0.00000000000E+00  0.00000000000E+00 -0.10359986593E+03  0.15024013913E+04  0.14988252094E+04 0.  0.
        4    1    3    3  502    0 -0.41668614142E+02 -0.55299733869E+03  0.45346158137E+03  0.71635978997E+03  0.12699999809E+01 0.  1.
       -4    1    3    3    0  502  0.41668614142E+02  0.55299733869E+03 -0.55706144730E+03  0.78604160130E+03  0.12699999809E+01 0. -1.
</event>
<event>
 5   0  0.1426929E-04  0.1506418E+04  0.7818609E-02  0.8880196E-01
        1   -1    0    0  501    0  0.00000000000E+00  0.00000000000E+00  0.10528523725E+04  0.10528523725E+04  0.50400001928E-02 0.  1.
       -1   -1    0    0    0  501  0.00000000000E+00  0.00000000000E+00 -0.53884455009E+03  0.53884455012E+03  0.50400001928E-02 0. -1.
    10030    2    1    2    0    0  0.00000000000E+00  0.00000000000E+00  0.51400782238E+03  0.15916969226E+04  0.15064179539E+04 0.  0.
        1    1    3    3  502    0  0.32594585138E+03  0.39993830188E+03  0.83682452372E+03  0.98309034522E+03  0.50400001928E-02 0.  1.
       -1    1    3    3    0  502 -0.32594585138E+03 -0.39993830188E+03 -0.32281670134E+03  0.60860657738E+03  0.50400001928E-02 0. -1.
</event>
<event>
 5   0  0.1004313E-04  0.1486577E+04  0.7818609E-02  0.8893429E-01
       -3   -1    0    0    0  501  0.00000000000E+00  0.00000000000E+00  0.11585263681E+04  0.11585263725E+04  0.10100000352E+00 0.  1.
        3   -1    0    0  501    0  0.00000000000E+00  0.00000000000E+00 -0.47687950080E+03  0.47687951150E+03  0.10100000352E+00 0. -1.
    10030    2    1    2    0    0  0.00000000000E+00  0.00000000000E+00  0.68164686733E+03  0.16354058840E+04  0.14865765886E+04 0.  0.
        4    1    3    3  502    0  0.21724372471E+03  0.46639135076E+03  0.93096144752E+03  0.10636759646E+04  0.12699999809E+01 0.  1.
       -4    1    3    3    0  502 -0.21724372471E+03 -0.46639135076E+03 -0.24931458019E+03  0.57172991944E+03  0.12699999809E+01 0. -1.
</event>
<event>
 5   0  0.1427609E-04  0.1505429E+04  0.7818609E-02  0.8880851E-01
       -1   -1    0    0    0  501  0.00000000000E+00  0.00000000000E+00  0.94740177546E+03  0.94740177547E+03  0.50400001928E-02 0. -1.
        1   -1    0    0  501    0  0.00000000000E+00  0.00000000000E+00 -0.59803451164E+03  0.59803451166E+03  0.50400001928E-02 0.  1.
    10030    2    1    2    0    0  0.00000000000E+00  0.00000000000E+00  0.34936726382E+03  0.15454362871E+04  0.15054287869E+04 0.  0.
        4    1    3    3  502    0  0.48068541237E+03 -0.92577353194E+02 -0.41230601245E+03  0.64002100965E+03  0.12699999809E+01 0. -1.
       -4    1    3    3    0  502 -0.48068541237E+03  0.92577353194E+02  0.76167327627E+03  0.90541527747E+03  0.12699999809E+01 0.  1.
</event>
<event>
 5   0  0.2641347E-04  0.1508104E+04  0.7818609E-02  0.8879082E-01
        2   -1    0    0  501    0  0.00000000000E+00  0.00000000000E+00  0.70907631777E+03  0.70907631778E+03  0.25500000920E-02 0.  1.
       -2   -1    0    0    0  501  0.00000000000E+00  0.00000000000E+00 -0.80188037897E+03  0.80188037898E+03  0.25500000920E-02 0. -1.
    10030    2    1    2    0    0  0.00000000000E+00  0.00000000000E+00 -0.92804061202E+02  0.15109566968E+04  0.15081039572E+04 0.  0.
        4    1    3    3  502    0 -0.40496440165E+03 -0.62978485460E+03 -0.13583253796E+03  0.76097123530E+03  0.12699999809E+01 0.  1.
       -4    1    3    3    0  502  0.40496440165E+03  0.62978485460E+03  0.43028476763E+02  0.74998546145E+03  0.12699999809E+01 0. -1.
</event>
<event>
 5   0  0.2641347E-04  0.1499746E+04  0.7818609E-02  0.8884622E-01
        2   -1    0    0  501    0  0.00000000000E+00  0.00000000000E+00  0.12092980776E+04  0.12092980776E+04  0.25500000920E-02 0. -1.
       -2   -1    0    0    0  501  0.00000000000E+00  0.00000000000E+00 -0.46498808172E+03  0.46498808172E+03  0.25500000920E-02 0.  1.
    10030    2    1    2    0    0  0.00000000000E+00  0.00000000000E+00  0.74430999585E+03  0.16742861593E+04  0.14997455695E+04 0.  0.
        4    1    3    3  502    0 -0.10401978900E+03 -0.69322819858E+03  0.66946052314E+03  0.96931133117E+03  0.12699999809E+01 0. -1.
       -4    1    3    3    0  502  0.10401978900E+03  0.69322819858E+03  0.74849472709E+02  0.70497482811E+03  0.12699999809E+01 0.  1.
</event>
<event>
 5   0  0.1426929E-04  0.1494813E+04  0.7818609E-02  0.8887909E-01
       -1   -1    0    0    0  501  0.00000000000E+00  0.00000000000E+00  0.43394509136E+03  0.43394509139E+03  0.50400001928E-02 0.  1.
        1   -1    0    0  501    0  0.00000000000E+00  0.00000000000E+00 -0.12872979561E+04  0.12872979561E+04  0.50400001928E-02 0. -1.
    10030    2    1    2    0    0  0.00000000000E+00  0.00000000000E+00 -0.85335286477E+03  0.17212430475E+04  0.14948132047E+04 0.  0.
        1    1    3    3  502    0  0.30769187539E+03  0.18707342588E+03  0.32747145708E+03  0.48673227967E+03  0.50400001928E-02 0.  1.
       -1    1    3    3    0  502 -0.30769187539E+03 -0.18707342588E+03 -0.11808243219E+04  0.12345107679E+04  0.50400001928E-02 0. -1.
</event>
<event>
 5   0  0.1427609E-04  0.1502056E+04  0.7818609E-02  0.8883087E-01
       -1   -1    0    0    0  501  0.00000000000E+00  0.00000000000E+00  0.73796305700E+03  0.73796305702E+03  0.50400001928E-02 0. -1.
        1   -1    0    0  501    0  0.00000000000E+00  0.00000000000E+00 -0.76432405695E+03  0.76432405696E+03  0.50400001928E-02 0.  1.
    10030    2    1    2    0    0  0.00000000000E+00  0.00000000000E+00 -0.26360999947E+02  0.15022871140E+04  0.15020558147E+04 0.  0.
        4    1    3    3  502    0  0.29792029471E+03 -0.67185730132E+03  0.14141551652E+03  0.74843082282E+03  0.12699999809E+01 0.  1.
       -4    1    3    3    0  502 -0.29792029471E+03  0.67185730132E+03 -0.16777651647E+03  0.75385629116E+03  0.12699999809E+01 0. -1.
</event>
<event>
 5   0  0.2641347E-04  0.1499430E+04  0.7818609E-02  0.8884832E-01
        2   -1    0    0  501    0  0.00000000000E+00  0.00000000000E+00  0.91968863385E+03  0.91968863385E+03  0.25500000920E-02 0.  1.
       -2   -1    0    0    0  501  0.00000000000E+00  0.00000000000E+00 -0.61115491243E+03  0.61115491243E+03  0.25500000920E-02 0. -1.
    10030    2    1    2    0    0  0.00000000000E+00  0.00000000000E+00  0.30853372142E+03  0.15308435463E+04  0.14994295268E+04 0.  0.
        4    1    3    3  502    0 -0.55541864792E+03  0.49769333426E+03  0.23256841199E+03  0.78120305208E+03  0.12699999809E+01 0.  1.
       -4    1    3    3    0  502  0.55541864792E+03 -0.49769333426E+03  0.75965309428E+02  0.74964049421E+03  0.12699999809E+01 0. -1.
</event>
<event>
 5   0  0.2641347E-04  0.1499907E+04  0.7818609E-02  0.8884515E-01
       -2   -1    0    0    0  501  0.00000000000E+00  0.00000000000E+00  0.22699761539E+03  0.22699761540E+03  0.25500000920E-02 0.  1.
        2   -1    0    0  501    0  0.00000000000E+00  0.00000000000E+00 -0.24776936503E+04  0.24776936503E+04  0.25500000920E-02 0. -1.
    10030    2    1    2    0    0  0.00000000000E+00  0.00000000000E+00 -0.22506960349E+04  0.27046912657E+04  0.14999073976E+04 0.  0.
        4    1    3    3  502    0 -0.74242708160E+03  0.10341513806E+03 -0.11671067284E+04  0.13870949465E+04  0.12699999809E+01 0.  1.
       -4    1    3    3    0  502  0.74242708160E+03 -0.10341513806E+03 -0.10835893065E+04  0.13175963192E+04  0.12699999809E+01 0. -1.
</event>
<event>
 5   0  0.2734072E-04  0.1500448E+04  0.7818609E-02  0.8884155E-01
        2   -1    0    0  501    0  0.00000000000E+00  0.00000000000E+00  0.21449111778E+04  0.21449111778E+04  0.25500000920E-02 0. -1.
       -2   -1    0    0    0  501  0.00000000000E+00  0.00000000000E+00 -0.26240531314E+03  0.26240531316E+03  0.25500000920E-02 0.  1.
    10030    2    1    2    0    0  0.00000000000E+00  0.00000000000E+00  0.18825058646E+04  0.24073164909E+04  0.15004480521E+04 0.  0.
        5    1    3    3  502    0  0.54420790874E+03  0.38582723925E+03  0.14918891397E+04  0.16342521842E+04  0.46999998093E+01 0. -1.
       -5    1    3    3    0  502 -0.54420790874E+03 -0.38582723925E+03  0.39061672490E+03  0.77306430667E+03  0.46999998093E+01 0.  1.
</event>
<event>
 5   0  0.2618901E-04  0.1500989E+04  0.7818609E-02  0.8883795E-01
        2   -1    0    0  501    0  0.00000000000E+00  0.00000000000E+00  0.12146673819E+04  0.12146673819E+04  0.25500000920E-02 0.  1.
       -2   -1    0    0    0  501  0.00000000000E+00  0.00000000000E+00 -0.46370080552E+03  0.46370080552E+03  0.25500000920E-02 0. -1.
    10030    2    1    2    0    0  0.00000000000E+00  0.00000000000E+00  0.75096657642E+03  0.16783681875E+04  0.15009893317E+04 0.  0.
        1    1    3    3  502    0 -0.71182750471E+03  0.82444887292E+01  0.64121361351E+03  0.95808207698E+03  0.50400001928E-02 0. -1.
       -1    1    3    3    0  502  0.71182750471E+03 -0.82444887292E+01  0.10975296291E+03  0.72028611048E+03  0.50400001928E-02 0.  1.
</event>
<event>
 5   0  0.1484251E-04  0.1501262E+04  0.7818609E-02  0.8883614E-01
        1   -1    0    0  501    0  0.00000000000E+00  0.00000000000E+00  0.83417620048E+03  0.83417620049E+03  0.50400001928E-02 0. -1.
       -1   -1    0    0    0  501  0.00000000000E+00  0.00000000000E+00 -0.67545329937E+03  0.67545329939E+03  0.50400001928E-02 0.  1.
    10030    2    1    2    0    0  0.00000000000E+00  0.00000000000E+00  0.15872290110E+03  0.15096294999E+04  0.15012622248E+04 0.  0.
        5    1    3    3  502    0 -0.69595565515E+03 -0.27021120341E+03  0.15761941879E+03  0.76304281634E+03  0.46999998093E+01 0.  1.
       -5    1    3    3    0  502  0.69595565515E+03  0.27021120341E+03  0.11034823128E+01  0.74658668355E+03  0.46999998093E+01 0. -1.
</event>
<event>
 5   0  0.2734072E-04  0.1506313E+04  0.7818609E-02  0.8880266E-01
        2   -1    0    0  501    0  0.00000000000E+00  0.00000000000E+00  0.68478231303E+03  0.68478231304E+03  0.25500000920E-02 0. -1.
       -2   -1    0    0    0  501  0.00000000000E+00  0.00000000000E+00 -0.82835750982E+03  0.82835750983E+03  0.25500000920E-02 0.  1.
    10030    2    1    2    0    0  0.00000000000E+00  0.00000000000E+00 -0.14357519679E+03  0.15131398229E+04  0.15063128116E+04 0.  0.
        5    1    3    3  502    0 -0.38233676192E+03 -0.50747908322E+02  0.57803354954E+03  0.69491123470E+03  0.46999998093E+01 0. -1.
       -5    1    3    3    0  502  0.38233676192E+03  0.50747908322E+02 -0.72160874633E+03  0.81822858817E+03  0.46999998093E+01 0.  1.
</event>
<event>
 5   0  0.1443750E-04  0.1499381E+04  0.7818609E-02  0.8884864E-01
        1   -1    0    0  501    0  0.00000000000E+00  0.00000000000E+00  0.73464773816E+03  0.73464773818E+03  0.50400001928E-02 0.  1.
       -1   -1    0    0    0  501  0.00000000000E+00  0.00000000000E+00 -0.76504165130E+03  0.76504165132E+03  0.50400001928E-02 0. -1.
    10030    2    1    2    0    0  0.00000000000E+00  0.00000000000E+00 -0.30393913142E+02  0.14996893895E+04  0.14993813641E+04 0.  0.
        2    1    3    3  502    0  0.67540246301E+03 -0.97328711014E+02  0.29534187110E+03  0.74355106473E+03  0.25500000920E-02 0.  1.
       -2    1    3    3    0  502 -0.67540246301E+03  0.97328711014E+02 -0.32573578424E+03  0.75613832476E+03  0.25500000920E-02 0. -1.
</event>
<event>
 5   0  0.2734072E-04  0.1501816E+04  0.7818609E-02  0.8883246E-01
        2   -1    0    0  501    0  0.00000000000E+00  0.00000000000E+00  0.76879852803E+03  0.76879852803E+03  0.25500000920E-02 0. -1.
       -2   -1    0    0    0  501  0.00000000000E+00  0.00000000000E+00 -0.73343362179E+03  0.73343362179E+03  0.25500000920E-02 0.  1.
    10030    2    1    2    0    0  0.00000000000E+00  0.00000000000E+00  0.35364906242E+02  0.15022321498E+04  0.15018158194E+04 0.  0.
        5    1    3    3  502    0 -0.63945426899E+02  0.63766081746E+03  0.40912233529E+03  0.76033118506E+03  0.46999998093E+01 0. -1.
       -5    1    3    3    0  502  0.63945426899E+02 -0.63766081746E+03 -0.37375742905E+03  0.74190096476E+03  0.46999998093E+01 0.  1.
</event>
<event>
 5   0  0.1474203E-04  0.1501170E+04  0.7818609E-02  0.8883675E-01
        1   -1    0    0  501    0  0.00000000000E+00  0.00000000000E+00  0.10842960946E+04  0.10842960946E+04  0.50400001928E-02 0.  1.
       -1   -1    0    0    0  501  0.00000000000E+00  0.00000000000E+00 -0.51957956219E+03  0.51957956222E+03  0.50400001928E-02 0. -1.
    10030    2    1    2    0    0  0.00000000000E+00  0.00000000000E+00  0.56471653237E+03  0.16038756568E+04  0.15011703303E+04 0.  0.
        3    1    3    3  502    0  0.25567092448E+03  0.51553937511E+03 -0.23251402601E+03  0.62065389019E+03  0.10100000352E+00 0. -1.
       -3    1    3    3    0  502 -0.25567092448E+03 -0.51553937511E+03  0.79723055838E+03  0.98322176660E+03  0.10100000352E+00 0.  1.
</event>
<event>
 5   0  0.1427609E-04  0.1496674E+04  0.7818609E-02  0.8886668E-01
       -1   -1    0    0    0  501  0.00000000000E+00  0.00000000000E+00  0.68072296164E+03  0.68072296166E+03  0.50400001928E-02 0.  1.
        1   -1    0    0  501    0  0.00000000000E+00  0.00000000000E+00 -0.82266653828E+03  0.82266653830E+03  0.50400001928E-02 0. -1.
    10030    2    1    2    0    0  0.00000000000E+00  0.00000000000E+00 -0.14194357665E+03  0.15033895000E+04  0.14966736483E+04 0.  0.
        4    1    3    3  502    0  0.42475263502E+03  0.12178828951E+03  0.53569123966E+03  0.69441623366E+03  0.12699999809E+01 0.  1.
       -4    1    3    3    0  502 -0.42475263502E+03 -0.12178828951E+03 -0.67763481631E+03  0.80897326630E+03  0.12699999809E+01 0. -1.
</event>
<event>
 5   0  0.1474203E-04  0.1496276E+04  0.7818609E-02  0.8886933E-01
        1   -1    0    0  501    0  0.00000000000E+00  0.00000000000E+00  0.95139942747E+03  0.95139942749E+03  0.50400001928E-02 0.  1.
       -1   -1    0    0    0  501  0.00000000000E+00  0.00000000000E+00 -0.58830220247E+03  0.58830220250E+03  0.50400001928E-02 0. -1.
    10030    2    1    2    0    0  0.00000000000E+00  0.00000000000E+00  0.36309722500E+03  0.15397016300E+04  0.14962758818E+04 0.  0.
        3    1    3    3  502    0  0.18229416900E+03  0.87948908826E+02 -0.55959354640E+03  0.59507236702E+03  0.10100000352E+00 0. -1.
       -3    1    3    3    0  502 -0.18229416900E+03 -0.87948908826E+02  0.92269077140E+03  0.94462926296E+03  0.10100000352E+00 0.  1.
</event>
<event>
 5   0  0.1474203E-04  0.1500454E+04  0.7818609E-02  0.8884151E-01
       -1   -1    0    0    0  501  0.00000000000E+00  0.00000000000E+00  0.31957020289E+03  0.31957020293E+03  0.50400001928E-02 0. -1.
        1   -1    0    0  501    0  0.00000000000E+00  0.00000000000E+00 -0.17612419994E+04  0.17612419994E+04  0.50400001928E-02 0.  1.
    10030    2    1    2    0    0  0.00000000000E+00  0.00000000000E+00 -0.14416717965E+04  0.20808122023E+04  0.15004538822E+04 0.  0.
        3    1    3    3  502    0  0.62480152457E+03  0.17232965740E+03 -0.12448254481E+04  0.14034474919E+04  0.10100000352E+00 0.  1.
       -3    1    3    3    0  502 -0.62480152457E+03 -0.17232965740E+03 -0.19684634839E+03  0.67736471048E+03  0.10100000352E+00 0. -1.
</event>
<event>
 5   0  0.2696040E-04  0.1484115E+04  0.7818609E-02  0.8895086E-01
        2   -1    0    0  501    0  0.00000000000E+00  0.00000000000E+00  0.88389658774E+03  0.88389658775E+03  0.25500000920E-02 0. -1.
       -2   -1    0    0    0  501  0.00000000000E+00  0.00000000000E+00 -0.62297925591E+03  0.62297925592E+03  0.25500000920E-02 0.  1.
    10030    2    1    2    0    0  0.00000000000E+00  0.00000000000E+00  0.26091733183E+03  0.15068758437E+04  0.14841148723E+04 0.  0.
        2    1    3    3  502    0 -0.30326002848E+03 -0.86906267872E+02  0.81242157873E+03  0.87152060553E+03  0.25500000920E-02 0. -1.
       -2    1    3    3    0  502  0.30326002848E+03  0.86906267872E+02 -0.55150424690E+03  0.63535523813E+03  0.25500000920E-02 0.  1.
</event>
<event>
 5   0  0.1484251E-04  0.1504658E+04  0.7818609E-02  0.8881361E-01
        1   -1    0    0  501    0  0.00000000000E+00  0.00000000000E+00  0.22619569895E+04  0.22619569895E+04  0.50400001928E-02 0. -1.
       -1   -1    0    0    0  501  0.00000000000E+00  0.00000000000E+00 -0.25022541814E+03  0.25022541819E+03  0.50400001928E-02 0.  1.
    10030    2    1    2    0    0  0.00000000000E+00  0.00000000000E+00  0.20117315713E+04  0.25121824077E+04  0.15046582782E+04 0.  0.
        5    1    3    3  502    0 -0.52927419526E+03 -0.71747179826E+02  0.18904376351E+04  0.19644478546E+04  0.46999998093E+01 0. -1.
       -5    1    3    3    0  502  0.52927419526E+03  0.71747179826E+02  0.12129393626E+03  0.54773455301E+03  0.46999998093E+01 0.  1.
</event>
<event>
 5   0  0.1443750E-04  0.1497599E+04  0.7818609E-02  0.8886051E-01
       -1   -1    0    0    0  501  0.00000000000E+00  0.00000000000E+00  0.58289342592E+03  0.58289342594E+03  0.50400001928E-02 0. -1.
        1   -1    0    0  501    0  0.00000000000E+00  0.00000000000E+00 -0.96192596813E+03  0.96192596814E+03  0.50400001928E-02 0.  1.
    10030    2    1    2    0    0  0.00000000000E+00  0.00000000000E+00 -0.37903254221E+03  0.15448193941E+04  0.14975985084E+04 0.  0.
        2    1    3    3  502    0 -0.29729907741E+03 -0.46544165915E+03  0.33207305066E+03  0.64443400786E+03  0.25500000920E-02 0. -1.
       -2    1    3    3    0  502  0.29729907741E+03  0.46544165915E+03 -0.71110559287E+03  0.90038538622E+03  0.25500000920E-02 0.  1.
</event>
<event>
 5   0  0.1474203E-04  0.1506716E+04  0.7818609E-02  0.8879999E-01
       -1   -1    0    0    0  501  0.00000000000E+00  0.00000000000E+00  0.14332837196E+04  0.14332837197E+04  0.50400001928E-02 0. -1.
        1   -1    0    0  501    0  0.00000000000E+00  0.00000000000E+00 -0.39597787851E+03  0.39597787854E+03  0.50400001928E-02 0.  1.
    10030    2    1    2    0    0  0.00000000000E+00  0.00000000000E+00  0.10373058411E+04  0.18292615982E+04  0.15067164918E+04 0.  0.
        3    1    3    3  502    0  0.50855596504E+03 -0.48184204891E+03  0.18231411372E+03  0.72390564022E+03  0.10100000352E+00 0.  1.
       -3    1    3    3    0  502 -0.50855596504E+03  0.48184204891E+03  0.85499172742E+03  0.11053559580E+04  0.10100000352E+00 0. -1.
</event>
<event>
 5   0  0.2618901E-04  0.1499038E+04  0.7818609E-02  0.8885093E-01
       -2   -1    0    0    0  501  0.00000000000E+00  0.00000000000E+00  0.47121395083E+03  0.47121395084E+03  0.25500000920E-02 0. -1.
        2   -1    0    0  501    0  0.00000000000E+00  0.00000000000E+00 -0.11921952777E+04  0.11921952777E+04  0.25500000920E-02 0.  1.
    10030    2    1    2    0    0  0.00000000000E+00  0.00000000000E+00 -0.72098132682E+03  0.16634092285E+04  0.14990384211E+04 0.  0.
        1    1    3    3  502    0  0.64140731109E+02 -0.17241016824E+03 -0.11667569910E+04  0.11811694102E+04  0.50400001928E-02 0.  1.
       -1    1    3    3    0  502 -0.64140731109E+02  0.17241016824E+03  0.44577566421E+03  0.48223981827E+03  0.50400001928E-02 0. -1.
</event>
<event>
 5   0  0.2696040E-04  0.1484158E+04  0.7818609E-02  0.8895057E-01
       -2   -1    0    0    0  501  0.00000000000E+00  0.00000000000E+00  0.31539722580E+03  0.31539722581E+03  0.25500000920E-02 0. -1.
        2   -1    0    0  501    0  0.00000000000E+00  0.00000000000E+00 -0.17459920593E+04  0.17459920593E+04  0.25500000920E-02 0.  1.
    10030    2    1    2    0    0  0.00000000000E+00  0.00000000000E+00 -0.14305948335E+04  0.20613892851E+04  0.14841577433E+04 0.  0.
        2    1    3    3  502    0 -0.71867745465E+03  0.17967511072E+03 -0.77584933262E+03  0.10727173981E+04  0.25500000920E-02 0. -1.
       -2    1    3    3    0  502  0.71867745465E+03 -0.17967511072E+03 -0.65474550083E+03  0.98867188698E+03  0.25500000920E-02 0.  1.
</event>
<event>
 5   0  0.1474203E-04  0.1498830E+04  0.7818609E-02  0.8885232E-01
        1   -1    0    0  501    0  0.00000000000E+00  0.00000000000E+00  0.58951814903E+03  0.58951814905E+03  0.50400001928E-02 0.  1.
       -1   -1    0    0    0  501  0.00000000000E+00  0.00000000000E+00 -0.95268080105E+03  0.95268080106E+03  0.50400001928E-02 0. -1.
    10030    2    1    2    0    0  0.00000000000E+00  0.00000000000E+00 -0.36316265202E+03  0.15421989501E+04  0.14988297068E+04 0.  0.
        3    1    3    3  502    0 -0.60639274187E+03  0.33259433427E+03 -0.47853476418E+03  0.84102715730E+03  0.10100000352E+00 0. -1.
       -3    1    3    3    0  502  0.60639274187E+03 -0.33259433427E+03  0.11537211217E+03  0.70117179282E+03  0.10100000352E+00 0.  1.
</event>
<event>
 5   0  0.2618901E-04  0.1497964E+04  0.7818609E-02  0.8885808E-01
        2   -1    0    0  501    0  0.00000000000E+00  0.00000000000E+00  0.12368441482E+04  0.12368441483E+04  0.25500000920E-02 0. -1.
       -2   -1    0    0    0  501  0.00000000000E+00  0.00000000000E+00 -0.45355270957E+03  0.45355270957E+03  0.25500000920E-02 0.  1.
    10030    2    1    2    0    0  0.00000000000E+00  0.00000000000E+00  0.78329143868E+03  0.16903968578E+04  0.14979639712E+04 0.  0.
        1    1    3    3  502    0  0.35243732453E+03  0.15762318948E+00 -0.35413249596E+03  0.49962177424E+03  0.50400001928E-02 0.  1.
       -1    1    3    3    0  502 -0.35243732453E+03 -0.15762318948E+00  0.11374239346E+04  0.11907750836E+04  0.50400001928E-02 0. -1.
</event>
<event>
 5   0  0.1426929E-04  0.1509903E+04  0.7818609E-02  0.8877894E-01
        1   -1    0    0  501    0  0.00000000000E+00  0.00000000000E+00  0.73121272370E+03  0.73121272372E+03  0.50400001928E-02 0. -1.
       -1   -1    0    0    0  501  0.00000000000E+00  0.00000000000E+00 -0.77946078417E+03  0.77946078419E+03  0.50400001928E-02 0.  1.
    10030    2    1    2    0    0  0.00000000000E+00  0.00000000000E+00 -0.48248060468E+02  0.15106735079E+04  0.15099028353E+04 0.  0.
        1    1    3    3  502    0 -0.10663093970E+03  0.58388317392E+03 -0.49090468125E+03  0.77024484691E+03  0.50400001928E-02 0.  1.
       -1    1    3    3    0  502  0.10663093970E+03 -0.58388317392E+03  0.44265662078E+03  0.74042866100E+03  0.50400001928E-02 0. -1.
</event>
<event>
 5   0  0.1474203E-04  0.1491034E+04  0.7818609E-02  0.8890437E-01
       -1   -1    0    0    0  501  0.00000000000E+00  0.00000000000E+00  0.56579008668E+03  0.56579008670E+03  0.50400001928E-02 0. -1.
        1   -1    0    0  501    0  0.00000000000E+00  0.00000000000E+00 -0.98233503827E+03  0.98233503828E+03  0.50400001928E-02 0.  1.
    10030    2    1    2    0    0  0.00000000000E+00  0.00000000000E+00 -0.41654495158E+03  0.15481251250E+04  0.14910337709E+04 0.  0.
        3    1    3    3  502    0  0.73318366068E+03 -0.12716516581E+03 -0.16107701873E+03  0.76136395754E+03  0.10100000352E+00 0.  1.
       -3    1    3    3    0  502 -0.73318366068E+03  0.12716516581E+03 -0.25546793286E+03  0.78676116744E+03  0.10100000352E+00 0. -1.
</event>
<event>
 5   0  0.2641347E-04  0.1500260E+04  0.7818609E-02  0.8884280E-01
        2   -1    0    0  501    0  0.00000000000E+00  0.00000000000E+00  0.12757925276E+04  0.12757925276E+04  0.25500000920E-02 0.  1.
       -2   -1    0    0    0  501  0.00000000000E+00  0.00000000000E+00 -0.44105547417E+03  0.44105547417E+03  0.25500000920E-02 0. -1.
    10030    2    1    2    0    0  0.00000000000E+00  0.00000000000E+00  0.83473705343E+03  0.17168480018E+04  0.15002603483E+04 0.  0.
        4    1    3    3  502    0 -0.29234603642E+03  0.65715243992E+03  0.17359388965E+03  0.73989998360E+03  0.12699999809E+01 0. -1.
       -4    1    3    3    0  502  0.29234603642E+03 -0.65715243992E+03  0.66114316378E+03  0.97694801818E+03  0.12699999809E+01 0.  1.
</event>
<event>
 5   0  0.2734072E-04  0.1501793E+04  0.7818609E-02  0.8883262E-01
        2   -1    0    0  501    0  0.00000000000E+00  0.00000000000E+00  0.10648958811E+04  0.10648958811E+04  0.25500000920E-02 0.  1.
       -2   -1    0    0    0  501  0.00000000000E+00  0.00000000000E+00 -0.52948387653E+03  0.52948387654E+03  0.25500000920E-02 0. -1.
    10030    2    1    2    0    0  0.00000000000E+00  0.00000000000E+00  0.53541200460E+03  0.15943797577E+04  0.15017925280E+04 0.  0.
        5    1    3    3  502    0 -0.59494971957E+03 -0.30121252656E+03 -0.98723554646E+02  0.67413840212E+03  0.46999998093E+01 0. -1.
       -5    1    3    3    0  502  0.59494971957E+03  0.30121252656E+03  0.63413555925E+03  0.92024135555E+03  0.46999998093E+01 0.  1.
</event>
<event>
 5   0  0.1004313E-04  0.1489072E+04  0.7818609E-02  0.8891753E-01
       -3   -1    0    0    0  501  0.00000000000E+00  0.00000000000E+00  0.56786361028E+03  0.56786361926E+03  0.10100000352E+00 0.  1.
        3   -1    0    0  501    0  0.00000000000E+00  0.00000000000E+00 -0.97617396916E+03  0.97617397438E+03  0.10100000352E+00 0. -1.
    10030    2    1    2    0    0  0.00000000000E+00  0.00000000000E+00 -0.40831035888E+03  0.15440375936E+04  0.14890717718E+04 0.  0.
        3    1    3    3  502    0  0.13289990074E+03  0.27853617971E+03  0.49841648459E+03  0.58622844466E+03  0.10100000352E+00 0.  1.
       -3    1    3    3    0  502 -0.13289990074E+03 -0.27853617971E+03 -0.90672684346E+03  0.95780914898E+03  0.10100000352E+00 0. -1.
</event>
<event>
 5   0  0.2618901E-04  0.1500413E+04  0.7818609E-02  0.8884178E-01
       -2   -1    0    0    0  501  0.00000000000E+00  0.00000000000E+00  0.30912252836E+03  0.30912252837E+03  0.25500000920E-02 0.  1.
        2   -1    0    0  501    0  0.00000000000E+00  0.00000000000E+00 -0.18206688311E+04  0.18206688311E+04  0.25500000920E-02 0. -1.
    10030    2    1    2    0    0  0.00000000000E+00  0.00000000000E+00 -0.15115463028E+04  0.21297913595E+04  0.15004129464E+04 0.  0.
        1    1    3    3  502    0 -0.15318018431E+03  0.73230602951E+03 -0.83446689905E+03  0.11207458656E+04  0.50400001928E-02 0.  1.
       -1    1    3    3    0  502  0.15318018431E+03 -0.73230602951E+03 -0.67707940370E+03  0.10090454938E+04  0.50400001928E-02 0. -1.
</event>
<event>
 5   0  0.2734072E-04  0.1480434E+04  0.7818609E-02  0.8897570E-01
       -2   -1    0    0    0  501  0.00000000000E+00  0.00000000000E+00  0.58769584881E+03  0.58769584882E+03  0.25500000920E-02 0.  1.
        2   -1    0    0  501    0  0.00000000000E+00  0.00000000000E+00 -0.93232055335E+03  0.93232055335E+03  0.25500000920E-02 0. -1.
    10030    2    1    2    0    0  0.00000000000E+00  0.00000000000E+00 -0.34462470454E+03  0.15200164022E+04  0.14804336108E+04 0.  0.
        5    1    3    3  502    0 -0.27452324617E+03 -0.55357479323E+01  0.53345671677E+03  0.59999317984E+03  0.46999998093E+01 0.  1.
       -5    1    3    3    0  502  0.27452324617E+03  0.55357479323E+01 -0.87808142130E+03  0.92002322233E+03  0.46999998093E+01 0. -1.
</event>
<event>
 5   0  0.2641347E-04  0.1496931E+04  0.7818609E-02  0.8886496E-01
        2   -1    0    0  501    0  0.00000000000E+00  0.00000000000E+00  0.15655436597E+04  0.15655436597E+04  0.25500000920E-02 0.  1.
       -2   -1    0    0    0  501  0.00000000000E+00  0.00000000000E+00 -0.35783151428E+03  0.35783151429E+03  0.25500000920E-02 0. -1.
    10030    2    1    2    0    0  0.00000000000E+00  0.00000000000E+00  0.12077121454E+04  0.19233751739E+04  0.14969313390E+04 0.  0.
        4    1    3    3  502    0 -0.21819016399E+03 -0.24150895958E+03  0.14698545096E+04  0.15054592048E+04  0.12699999809E+01 0.  1.
       -4    1    3    3    0  502  0.21819016399E+03  0.24150895958E+03 -0.26214236420E+03  0.41791596910E+03  0.12699999809E+01 0. -1.
</event>
<event>
 5   0  0.1474203E-04  0.1499031E+04  0.7818609E-02  0.8885098E-01
       -1   -1    0    0    0  501  0.00000000000E+00  0.00000000000E+00  0.43980621533E+03  0.43980621536E+03  0.50400001928E-02 0. -1.
        1   -1    0    0  501    0  0.00000000000E+00  0.00000000000E+00 -0.12773196250E+04  0.12773196251E+04  0.50400001928E-02 0.  1.
    10030    2    1    2    0    0  0.00000000000E+00  0.00000000000E+00 -0.83751340972E+03  0.17171258404E+04  0.14990305001E+04 0.  0.
        3    1    3    3  502    0 -0.20044045204E+03  0.35848536191E+03  0.29942588686E+03  0.50827551725E+03  0.10100000352E+00 0. -1.
       -3    1    3    3    0  502  0.20044045204E+03 -0.35848536191E+03 -0.11369392966E+04  0.12088503232E+04  0.10100000352E+00 0.  1.
</event>
<event>
 5   0  0.1474203E-04  0.1432215E+04  0.7818609E-02  0.8930824E-01
        1   -1    0    0  501    0  0.00000000000E+00  0.00000000000E+00  0.16516405793E+04  0.16516405793E+04  0.50400001928E-02 0. -1.
       -1   -1    0    0    0  501  0.00000000000E+00  0.00000000000E+00 -0.31048507608E+03  0.31048507612E+03  0.50400001928E-02 0.  1.
    10030    2    1    2    0    0  0.00000000000E+00  0.00000000000E+00  0.13411555032E+04  0.19621256554E+04  0.14322147199E+04 0.  0.
        3    1    3    3  502    0 -0.22320523411E+03  0.59743814926E+03  0.22442046718E+03  0.67610463318E+03  0.10100000352E+00 0.  1.
       -3    1    3    3    0  502  0.22320523411E+03 -0.59743814926E+03  0.11167350360E+04  0.12860210222E+04  0.10100000352E+00 0. -1.
</event>
<event>
 5   0  0.2646718E-04  0.1502467E+04  0.7818609E-02  0.8882814E-01
        2   -1    0    0  501    0  0.00000000000E+00  0.00000000000E+00  0.19864401222E+04  0.19864401222E+04  0.25500000920E-02 0. -1.
       -2   -1    0    0    0  501  0.00000000000E+00  0.00000000000E+00 -0.28410210977E+03  0.28410210978E+03  0.25500000920E-02 0.  1.
    10030    2    1    2    0    0  0.00000000000E+00  0.00000000000E+00  0.17023380124E+04  0.22705422320E+04  0.15024670774E+04 0.  0.
        3    1    3    3  502    0 -0.13343720244E+03 -0.64262520466E+03  0.14034931200E+04  0.15493758708E+04  0.10100000352E+00 0. -1.
       -3    1    3    3    0  502  0.13343720244E+03  0.64262520466E+03  0.29884489239E+03  0.72116636123E+03  0.10100000352E+00 0.  1.
</event>
<event>
 5   0  0.2641347E-04  0.1493450E+04  0.7818609E-02  0.8888820E-01
       -2   -1    0    0    0  501  0.00000000000E+00  0.00000000000E+00  0.11454643046E+04  0.11454643046E+04  0.25500000920E-02 0.  1.
        2   -1    0    0  501    0  0.00000000000E+00  0.00000000000E+00 -0.48678820977E+03  0.48678820978E+03  0.25500000920E-02 0. -1.
    10030    2    1    2    0    0  0.00000000000E+00  0.00000000000E+00  0.65867609484E+03  0.16322525144E+04  0.14934503918E+04 0.  0.
        4    1    3    3  502    0  0.48551648279E+03  0.51358475083E+03  0.65893222565E+02  0.70981623046E+03  0.12699999809E+01 0.  1.
       -4    1    3    3    0  502 -0.48551648279E+03 -0.51358475083E+03  0.59278287228E+03  0.92243628393E+03  0.12699999809E+01 0. -1.
</event>
<event>
 5   0  0.1443750E-04  0.1492796E+04  0.7818609E-02  0.8889258E-01
        1   -1    0    0  501    0  0.00000000000E+00  0.00000000000E+00  0.15916488468E+04  0.15916488468E+04  0.50400001928E-02 0. -1.
       -1   -1    0    0    0  501  0.00000000000E+00  0.00000000000E+00 -0.35002061259E+03  0.35002061263E+03  0.50400001928E-02 0.  1.
    10030    2    1    2    0    0  0.00000000000E+00  0.00000000000E+00  0.12416282342E+04  0.19416694594E+04  0.14927959062E+04 0.  0.
        2    1    3    3  502    0 -0.23487049381E+03  0.38003617492E+03 -0.15690715705E+03  0.47350976658E+03  0.25500000920E-02 0.  1.
       -2    1    3    3    0  502  0.23487049381E+03 -0.38003617492E+03  0.13985353912E+04  0.14681596928E+04  0.25500000920E-02 0. -1.
</event>
<event>
 5   0  0.1426929E-04  0.1497595E+04  0.7818609E-02  0.8886054E-01
        1   -1    0    0  501    0  0.00000000000E+00  0.00000000000E+00  0.68888824237E+03  0.68888824238E+03  0.50400001928E-02 0.  1.
       -1   -1    0    0    0  501  0.00000000000E+00  0.00000000000E+00 -0.81391722318E+03  0.81391722320E+03  0.50400001928E-02 0. -1.
    10030    2    1    2    0    0  0.00000000000E+00  0.00000000000E+00 -0.12502898081E+03  0.15028054656E+04  0.14975954131E+04 0.  0.
        1    1    3    3  502    0  0.53005348836E+03 -0.36016319028E+03  0.32616204085E+03  0.71906599215E+03  0.50400001928E-02 0.  1.
       -1    1    3    3    0  502 -0.53005348836E+03  0.36016319028E+03 -0.45119102166E+03  0.78373947343E+03  0.50400001928E-02 0. -1.
</event>
<event>
 5   0  0.1443750E-04  0.1481198E+04  0.7818609E-02  0.8897053E-01
       -1   -1    0    0    0  501  0.00000000000E+00  0.00000000000E+00  0.50607690019E+03  0.50607690021E+03  0.50400001928E-02 0.  1.
        1   -1    0    0  501    0  0.00000000000E+00  0.00000000000E+00 -0.10838017120E+04  0.10838017120E+04  0.50400001928E-02 0. -1.
    10030    2    1    2    0    0  0.00000000000E+00  0.00000000000E+00 -0.57772481179E+03  0.15898786122E+04  0.14811981783E+04 0.  0.
        2    1    3    3  502    0  0.37579616286E+03 -0.41177689914E+03  0.23445969891E+03  0.60477625706E+03  0.25500000920E-02 0.  1.
       -2    1    3    3    0  502 -0.37579616286E+03  0.41177689914E+03 -0.81218451069E+03  0.98510235514E+03  0.25500000920E-02 0. -1.
</event>
<event>
 5   0  0.1004313E-04  0.1502669E+04  0.7818609E-02  0.8882680E-01
       -3   -1    0    0    0  501  0.00000000000E+00  0.00000000000E+00  0.65528073950E+03  0.65528074728E+03  0.10100000352E+00 0. -1.
        3   -1    0    0  501    0  0.00000000000E+00  0.00000000000E+00 -0.86146841666E+03  0.86146842258E+03  0.10100000352E+00 0.  1.
    10030    2    1    2    0    0  0.00000000000E+00  0.00000000000E+00 -0.20618767716E+03  0.15167491699E+04  0.15026691872E+04 0.  0.
        5    1    3    3  502    0 -0.35546353638E+03 -0.64681750462E+03 -0.24496103739E+03  0.77766008630E+03  0.46999998093E+01 0.  1.
       -5    1    3    3    0  502  0.35546353638E+03  0.64681750462E+03  0.38773360228E+02  0.73908908356E+03  0.46999998093E+01 0. -1.
</event>
<event>
 5   0  0.2641347E-04  0.1501617E+04  0.7818609E-02  0.8883378E-01
        2   -1    0    0  501    0  0.00000000000E+00  0.00000000000E+00  0.13265436952E+04  0.13265436952E+04  0.25500000920E-02 0.  1.
       -2   -1    0    0    0  501  0.00000000000E+00  0.00000000000E+00 -0.42494901635E+03  0.42494901636E+03  0.25500000920E-02 0. -1.
    10030    2    1    2    0    0  0.00000000000E+00  0.00000000000E+00  0.90159467886E+03  0.17514927116E+04  0.15016170463E+04 0.  0.
        4    1    3    3  502    0  0.31445210852E+03 -0.39096758862E+03  0.11022903584E+04  0.12111075225E+04  0.12699999809E+01 0.  1.
       -4    1    3    3    0  502 -0.31445210852E+03  0.39096758862E+03 -0.20069567953E+03  0.54038518909E+03  0.12699999809E+01 0. -1.
</event>
<event>
 5   0  0.2641347E-04  0.1485346E+04  0.7818609E-02  0.8894257E-01
       -2   -1    0    0    0  501  0.00000000000E+00  0.00000000000E+00  0.43180578904E+03  0.43180578904E+03  0.25500000920E-02 0. -1.
        2   -1    0    0  501    0  0.00000000000E+00  0.00000000000E+00 -0.12773400281E+04  0.12773400281E+04  0.25500000920E-02 0.  1.
    10030    2    1    2    0    0  0.00000000000E+00  0.00000000000E+00 -0.84553423905E+03  0.17091458171E+04  0.14853455069E+04 0.  0.
        4    1    3    3  502    0  0.30189410249E+03 -0.28062627353E+03 -0.11336460971E+04  0.12062529755E+04  0.12699999809E+01 0.  1.
       -4    1    3    3    0  502 -0.30189410249E+03  0.28062627353E+03  0.28811185806E+03  0.50289284163E+03  0.12699999809E+01 0. -1.
</event>
<event>
 5   0  0.2734072E-04  0.1537664E+04  0.7818609E-02  0.8859786E-01
        2   -1    0    0  501    0  0.00000000000E+00  0.00000000000E+00  0.97107874283E+03  0.97107874283E+03  0.25500000920E-02 0. -1.
       -2   -1    0    0    0  501  0.00000000000E+00  0.00000000000E+00 -0.60870757378E+03  0.60870757379E+03  0.25500000920E-02 0.  1.
    10030    2    1    2    0    0  0.00000000000E+00  0.00000000000E+00  0.36237116904E+03  0.15797863166E+04  0.15376644439E+04 0.  0.
        5    1    3    3  502    0  0.45503887837E+03  0.38179459512E+03  0.68266871804E+03  0.90492329083E+03  0.46999998093E+01 0.  1.
       -5    1    3    3    0  502 -0.45503887837E+03 -0.38179459512E+03 -0.32029754900E+03  0.67486302579E+03  0.46999998093E+01 0. -1.
</event>
<event>
 5   0  0.1474203E-04  0.1494189E+04  0.7818609E-02  0.8888327E-01
       -1   -1    0    0    0  501  0.00000000000E+00  0.00000000000E+00  0.36052502065E+03  0.36052502068E+03  0.50400001928E-02 0. -1.
        1   -1    0    0  501    0  0.00000000000E+00  0.00000000000E+00 -0.15481585327E+04  0.15481585327E+04  0.50400001928E-02 0.  1.
    10030    2    1    2    0    0  0.00000000000E+00  0.00000000000E+00 -0.11876335121E+04  0.19086835534E+04  0.14941885919E+04 0.  0.
        3    1    3    3  502    0 -0.12711376300E+03 -0.71705335204E+03 -0.80690401482E+03  0.10869303187E+04  0.10100000352E+00 0.  1.
       -3    1    3    3    0  502  0.12711376300E+03  0.71705335204E+03 -0.38072949723E+03  0.82175323466E+03  0.10100000352E+00 0. -1.
</event>
<event>
 5   0  0.1443750E-04  0.1503891E+04  0.7818609E-02  0.8881870E-01
       -1   -1    0    0    0  501  0.00000000000E+00  0.00000000000E+00  0.47499676856E+03  0.47499676859E+03  0.50400001928E-02 0.  1.
        1   -1    0    0  501    0  0.00000000000E+00  0.00000000000E+00 -0.11903699483E+04  0.11903699483E+04  0.50400001928E-02 0. -1.
    10030    2    1    2    0    0  0.00000000000E+00  0.00000000000E+00 -0.71537317973E+03  0.16653667169E+04  0.15038907924E+04 0.  0.
        2    1    3    3  502    0 -0.44530277545E+03  0.36614783585E+02 -0.10274285682E+04  0.11203770200E+04  0.25500000920E-02 0. -1.
       -2    1    3    3    0  502  0.44530277545E+03 -0.36614783585E+02  0.31205538849E+03  0.54498969687E+03  0.25500000920E-02 0.  1.
</event>
<event>
 5   0  0.2618901E-04  0.1492745E+04  0.7818609E-02  0.8889292E-01
        2   -1    0    0  501    0  0.00000000000E+00  0.00000000000E+00  0.61170416119E+03  0.61170416119E+03  0.25500000920E-02 0. -1.
       -2   -1    0    0    0  501  0.00000000000E+00  0.00000000000E+00 -0.91068852493E+03  0.91068852493E+03  0.25500000920E-02 0.  1.
    10030    2    1    2    0    0  0.00000000000E+00  0.00000000000E+00 -0.29898436374E+03  0.15223926861E+04  0.14927450690E+04 0.  0.
        1    1    3    3  502    0 -0.51408848692E+02 -0.39163174408E+03 -0.79535798394E+03  0.88803863392E+03  0.50400001928E-02 0.  1.
       -1    1    3    3    0  502  0.51408848692E+02  0.39163174408E+03  0.49637362020E+03  0.63435405221E+03  0.50400001928E-02 0. -1.
</event>
<event>
 5   0  0.1427609E-04  0.1529405E+04  0.7818609E-02  0.8865131E-01
        1   -1    0    0  501    0  0.00000000000E+00  0.00000000000E+00  0.15171387894E+04  0.15171387894E+04  0.50400001928E-02 0. -1.
       -1   -1    0    0    0  501  0.00000000000E+00  0.00000000000E+00 -0.38544252440E+03  0.38544252443E+03  0.50400001928E-02 0.  1.
    10030    2    1    2    0    0  0.00000000000E+00  0.00000000000E+00  0.11316962650E+04  0.19025813138E+04  0.15294048579E+04 0.  0.
        4    1    3    3  502    0  0.31642773102E+03  0.69443645498E+03  0.62678759299E+03  0.98753875802E+03  0.12699999809E+01 0. -1.
       -4    1    3    3    0  502 -0.31642773102E+03 -0.69443645498E+03  0.50490867197E+03  0.91504255578E+03  0.12699999809E+01 0.  1.
</event>
<event>
 5   0  0.2641347E-04  0.1477692E+04  0.7818609E-02  0.8899425E-01
        2   -1    0    0  501    0  0.00000000000E+00  0.00000000000E+00  0.10816895881E+04  0.10816895881E+04  0.25500000920E-02 0.  1.
       -2   -1    0    0    0  501  0.00000000000E+00  0.00000000000E+00 -0.50466703527E+03  0.50466703528E+03  0.25500000920E-02 0. -1.
    10030    2    1    2    0    0  0.00000000000E+00  0.00000000000E+00  0.57702255279E+03  0.15863566233E+04  0.14776915477E+04 0.  0.
        4    1    3    3  502    0  0.68394006905E+03  0.23318689956E+03  0.45392419903E+03  0.85334573272E+03  0.12699999809E+01 0.  1.
       -4    1    3    3    0  502 -0.68394006905E+03 -0.23318689956E+03  0.12309835376E+03  0.73301089063E+03  0.12699999809E+01 0. -1.
</event>
<event>
 5   0  0.1004313E-04  0.1500060E+04  0.7818609E-02  0.8884413E-01
       -3   -1    0    0    0  501  0.00000000000E+00  0.00000000000E+00  0.66831803135E+03  0.66831803899E+03  0.10100000352E+00 0.  1.
        3   -1    0    0  501    0  0.00000000000E+00  0.00000000000E+00 -0.84173262938E+03  0.84173263544E+03  0.10100000352E+00 0. -1.
    10030    2    1    2    0    0  0.00000000000E+00  0.00000000000E+00 -0.17341459802E+03  0.15100506744E+04  0.15000601376E+04 0.  0.
        1    1    3    3  502    0  0.37086450349E+03  0.28544779243E+03  0.50330560263E+03  0.68726810767E+03  0.50400001928E-02 0.  1.
       -1    1    3    3    0  502 -0.37086450349E+03 -0.28544779243E+03 -0.67672020065E+03  0.82278256675E+03  0.50400001928E-02 0. -1.
</event>
<event>
 5   0  0.2696040E-04  0.1500746E+04  0.7818609E-02  0.8883957E-01
       -2   -1    0    0    0  501  0.00000000000E+00  0.00000000000E+00  0.49244791663E+03  0.49244791664E+03  0.25500000920E-02 0. -1.
        2   -1    0    0  501    0  0.00000000000E+00  0.00000000000E+00 -0.11433888798E+04  0.11433888798E+04  0.25500000920E-02 0.  1.
    10030    2    1    2    0    0  0.00000000000E+00  0.00000000000E+00 -0.65094096315E+03  0.16358367964E+04  0.15007457770E+04 0.  0.
        2    1    3    3  502    0 -0.62576798683E+02  0.71197738341E+03 -0.76355165903E+02  0.71878909395E+03  0.25500000920E-02 0. -1.
       -2    1    3    3    0  502  0.62576798683E+02 -0.71197738341E+03 -0.57458579725E+03  0.91704770248E+03  0.25500000920E-02 0.  1.
</event>
<event>
 5   0  0.1427609E-04  0.1472815E+04  0.7818609E-02  0.8902735E-01
        1   -1    0    0  501    0  0.00000000000E+00  0.00000000000E+00  0.63984601324E+03  0.63984601326E+03  0.50400001928E-02 0. -1.
       -1   -1    0    0    0  501  0.00000000000E+00  0.00000000000E+00 -0.84754143753E+03  0.84754143754E+03  0.50400001928E-02 0.  1.
    10030    2    1    2    0    0  0.00000000000E+00  0.00000000000E+00 -0.20769542429E+03  0.14873874508E+04  0.14728150052E+04 0.  0.
        4    1    3    3  502    0 -0.17928232320E+03 -0.43283288817E+03 -0.67763115845E+03  0.82381554992E+03  0.12699999809E+01 0.  1.
       -4    1    3    3    0  502  0.17928232320E+03  0.43283288817E+03  0.46993573417E+03  0.66357190088E+03  0.12699999809E+01 0. -1.
</event>
<event>
 5   0  0.2641347E-04  0.1497751E+04  0.7818609E-02  0.8885950E-01
        2   -1    0    0  501    0  0.00000000000E+00  0.00000000000E+00  0.60495619492E+03  0.60495619493E+03  0.25500000920E-02 0. -1.
       -2   -1    0    0    0  501  0.00000000000E+00  0.00000000000E+00 -0.92703344459E+03  0.92703344459E+03  0.25500000920E-02 0.  1.
    10030    2    1    2    0    0  0.00000000000E+00  0.00000000000E+00 -0.32207724967E+03  0.15319896395E+04  0.14977511478E+04 0.  0.
        4    1    3    3  502    0  0.65992229904E+03  0.78809442024E+02  0.19196609630E+03  0.69178100867E+03  0.12699999809E+01 0.  1.
       -4    1    3    3    0  502 -0.65992229904E+03 -0.78809442024E+02 -0.51404334597E+03  0.84020863085E+03  0.12699999809E+01 0. -1.
</event>
<event>
 5   0  0.1474203E-04  0.1497259E+04  0.7818609E-02  0.8886278E-01
       -1   -1    0    0    0  501  0.00000000000E+00  0.00000000000E+00  0.39004270984E+03  0.39004270987E+03  0.50400001928E-02 0.  1.
        1   -1    0    0  501    0  0.00000000000E+00  0.00000000000E+00 -0.14368841703E+04  0.14368841703E+04  0.50400001928E-02 0. -1.
    10030    2    1    2    0    0  0.00000000000E+00  0.00000000000E+00 -0.10468414605E+04  0.18269268802E+04  0.14972590899E+04 0.  0.
        3    1    3    3  502    0 -0.70321184773E+03 -0.21402898269E+03 -0.69654404400E+03  0.10126642700E+04  0.10100000352E+00 0. -1.
       -3    1    3    3    0  502  0.70321184773E+03  0.21402898269E+03 -0.35029741647E+03  0.81426261023E+03  0.10100000352E+00 0.  1.
</event>
<event>
 5   0  0.2734072E-04  0.1500893E+04  0.7818609E-02  0.8883859E-01
        2   -1    0    0  501    0  0.00000000000E+00  0.00000000000E+00  0.16034618956E+04  0.16034618956E+04  0.25500000920E-02 0.  1.
       -2   -1    0    0    0  501  0.00000000000E+00  0.00000000000E+00 -0.35122129153E+03  0.35122129154E+03  0.25500000920E-02 0. -1.
    10030    2    1    2    0    0  0.00000000000E+00  0.00000000000E+00  0.12522406041E+04  0.19546831871E+04  0.15008930114E+04 0.  0.
        5    1    3    3  502    0 -0.28247798390E+03  0.89925984496E+02  0.15239534655E+04  0.15525259254E+04  0.46999998093E+01 0.  1.
       -5    1    3    3    0  502  0.28247798390E+03 -0.89925984496E+02 -0.27171286144E+03  0.40215726171E+03  0.46999998093E+01 0. -1.
</event>
<event>
 5   0  0.2734072E-04  0.1504497E+04  0.7818609E-02  0.8881468E-01
        2   -1    0    0  501    0  0.00000000000E+00  0.00000000000E+00  0.50867527752E+03  0.50867527752E+03  0.25500000920E-02 0. -1.
       -2   -1    0    0    0  501  0.00000000000E+00  0.00000000000E+00 -0.11124542559E+04  0.11124542559E+04  0.25500000920E-02 0.  1.
    10030    2    1    2    0    0  0.00000000000E+00  0.00000000000E+00 -0.60377897840E+03  0.16211295334E+04  0.15044972281E+04 0.  0.
        5    1    3    3  502    0  0.12488440333E+03  0.72864272316E+03 -0.15204196704E+03  0.75475504765E+03  0.46999998093E+01 0.  1.
       -5    1    3    3    0  502 -0.12488440333E+03 -0.72864272316E+03 -0.45173701135E+03  0.86637448579E+03  0.46999998093E+01 0. -1.
</event>
<event>
 5   0  0.2618901E-04  0.1492754E+04  0.7818609E-02  0.8889286E-01
       -2   -1    0    0    0  501  0.00000000000E+00  0.00000000000E+00  0.69581666403E+03  0.69581666403E+03  0.25500000920E-02 0.  1.
        2   -1    0    0  501    0  0.00000000000E+00  0.00000000000E+00 -0.80061115166E+03  0.80061115166E+03  0.25500000920E-02 0. -1.
    10030    2    1    2    0    0  0.00000000000E+00  0.00000000000E+00 -0.10479448763E+03  0.14964278157E+04  0.14927539392E+04 0.  0.
        1    1    3    3  502    0 -0.60503023308E+03 -0.38814056717E+03  0.14900490312E+03  0.73410976291E+03  0.50400001928E-02 0.  1.
       -1    1    3    3    0  502  0.60503023308E+03  0.38814056717E+03 -0.25379939075E+03  0.76231805278E+03  0.50400001928E-02 0. -1.
</event>
<event>
 5   0  0.1443750E-04  0.1499416E+04  0.7818609E-02  0.8884842E-01
       -1   -1    0    0    0  501  0.00000000000E+00  0.00000000000E+00  0.74737752186E+03  0.74737752187E+03  0.50400001928E-02 0.  1.
        1   -1    0    0  501    0  0.00000000000E+00  0.00000000000E+00 -0.75204538461E+03  0.75204538462E+03  0.50400001928E-02 0. -1.
    10030    2    1    2    0    0  0.00000000000E+00  0.00000000000E+00 -0.46678627489E+01  0.14994229065E+04  0.14994156407E+04 0.  0.
        2    1    3    3  502    0  0.66954395540E+03  0.18497718463E+02 -0.33913007358E+03  0.75075993541E+03  0.25500000920E-02 0. -1.
       -2    1    3    3    0  502 -0.66954395540E+03 -0.18497718463E+02  0.33446221083E+03  0.74866297109E+03  0.25500000920E-02 0.  1.
</event>
<event>
 5   0  0.1474203E-04  0.1508491E+04  0.7818609E-02  0.8878826E-01
        1   -1    0    0  501    0  0.00000000000E+00  0.00000000000E+00  0.11560357304E+04  0.11560357304E+04  0.50400001928E-02 0.  1.
       -1   -1    0    0    0  501  0.00000000000E+00  0.00000000000E+00 -0.49210099101E+03  0.49210099104E+03  0.50400001928E-02 0. -1.
    10030    2    1    2    0    0  0.00000000000E+00  0.00000000000E+00  0.66393473935E+03  0.16481367214E+04  0.15084910720E+04 0.  0.
        3    1    3    3  502    0  0.69983021765E+01 -0.10729351915E+03  0.11476194094E+04  0.11526453030E+04  0.10100000352E+00 0.  1.
       -3    1    3    3    0  502 -0.69983021765E+01  0.10729351915E+03 -0.48368467005E+03  0.49549141842E+03  0.10100000352E+00 0. -1.
</event>
<event>
 5   0  0.1426929E-04  0.1492030E+04  0.7818609E-02  0.8889771E-01
       -1   -1    0    0    0  501  0.00000000000E+00  0.00000000000E+00  0.41706757851E+03  0.41706757854E+03  0.50400001928E-02 0.  1.
        1   -1    0    0  501    0  0.00000000000E+00  0.00000000000E+00 -0.13344072861E+04  0.13344072861E+04  0.50400001928E-02 0. -1.
    10030    2    1    2    0    0  0.00000000000E+00  0.00000000000E+00 -0.91733970756E+03  0.17514748646E+04  0.14920295112E+04 0.  0.
        1    1    3    3  502    0  0.70093514238E+03 -0.21881418755E+03 -0.61328600946E+03  0.95671806292E+03  0.50400001928E-02 0. -1.
       -1    1    3    3    0  502 -0.70093514238E+03  0.21881418755E+03 -0.30405369810E+03  0.79475680170E+03  0.50400001928E-02 0.  1.
</event>
<event>
 5   0  0.2641347E-04  0.1491473E+04  0.7818609E-02  0.8890143E-01
       -2   -1    0    0    0  501  0.00000000000E+00  0.00000000000E+00  0.39780784244E+03  0.39780784245E+03  0.25500000920E-02 0. -1.
        2   -1    0    0  501    0  0.00000000000E+00  0.00000000000E+00 -0.13979693320E+04  0.13979693320E+04  0.25500000920E-02 0.  1.
    10030    2    1    2    0    0  0.00000000000E+00  0.00000000000E+00 -0.10001614895E+04  0.17957771744E+04  0.14914733169E+04 0.  0.
        4    1    3    3  502    0  0.58333441687E+03 -0.81924523660E+02 -0.10506932148E+04  0.12045532425E+04  0.12699999809E+01 0.  1.
       -4    1    3    3    0  502 -0.58333441687E+03  0.81924523660E+02  0.50531725303E+02  0.59122393190E+03  0.12699999809E+01 0. -1.
</event>
<event>
 5   0  0.1484251E-04  0.1502672E+04  0.7818609E-02  0.8882678E-01
        1   -1    0    0  501    0  0.00000000000E+00  0.00000000000E+00  0.70112438518E+03  0.70112438520E+03  0.50400001928E-02 0.  1.
       -1   -1    0    0    0  501  0.00000000000E+00  0.00000000000E+00 -0.80514389505E+03  0.80514389507E+03  0.50400001928E-02 0. -1.
    10030    2    1    2    0    0  0.00000000000E+00  0.00000000000E+00 -0.10401950987E+03  0.15062682803E+04  0.15026723108E+04 0.  0.
        5    1    3    3  502    0 -0.33257237348E+03 -0.22691406599E+03 -0.68786959184E+03  0.79704519466E+03  0.46999998093E+01 0. -1.
       -5    1    3    3    0  502  0.33257237348E+03  0.22691406599E+03  0.58385008197E+03  0.70922308561E+03  0.46999998093E+01 0.  1.
</event>
<event>
 5   0  0.1427609E-04  0.1499553E+04  0.7818609E-02  0.8884751E-01
        1   -1    0    0  501    0  0.00000000000E+00  0.00000000000E+00  0.70236906630E+03  0.70236906632E+03  0.50400001928E-02 0.  1.
       -1   -1    0    0    0  501  0.00000000000E+00  0.00000000000E+00 -0.80038325536E+03  0.80038325537E+03  0.50400001928E-02 0. -1.
    10030    2    1    2    0    0  0.00000000000E+00  0.00000000000E+00 -0.98014189057E+02  0.15027523217E+04  0.14995525196E+04 0.  0.
        4    1    3    3  502    0 -0.54035324939E+03 -0.55716647501E+02 -0.56690463405E+03  0.78515505216E+03  0.12699999809E+01 0. -1.
       -4    1    3    3    0  502  0.54035324939E+03  0.55716647501E+02  0.46889044499E+03  0.71759726953E+03  0.12699999809E+01 0.  1.
</event>
<event>
 5   0  0.1443750E-04  0.1488903E+04  0.7818609E-02  0.8891866E-01
        1   -1    0    0  501    0  0.00000000000E+00  0.00000000000E+00  0.14520354215E+04  0.14520354215E+04  0.50400001928E-02 0. -1.
       -1   -1    0    0    0  501  0.00000000000E+00  0.00000000000E+00 -0.38167676418E+03  0.38167676421E+03  0.50400001928E-02 0.  1.
    10030    2    1    2    0    0  0.00000000000E+00  0.00000000000E+00  0.10703586574E+04  0.18337121858E+04  0.14889031952E+04 0.  0.
        2    1    3    3  502    0 -0.48210502098E+03 -0.31314040255E+03  0.11177155787E+04  0.12568891271E+04  0.25500000920E-02 0. -1.
       -2    1    3    3    0  502  0.48210502098E+03  0.31314040255E+03 -0.47356921364E+02  0.57682305863E+03  0.25500000920E-02 0.  1.
</event>
<event>
 5   0  0.2646718E-04  0.1500020E+04  0.7818609E-02  0.8884439E-01
        2   -1    0    0  501    0  0.00000000000E+00  0.00000000000E+00  0.23060065395E+04  0.23060065395E+04  0.25500000920E-02 0. -1.
       -2   -1    0    0    0  501  0.00000000000E+00  0.00000000000E+00 -0.24393485636E+03  0.24393485637E+03  0.25500000920E-02 0.  1.
    10030    2    1    2    0    0  0.00000000000E+00  0.00000000000E+00  0.20620716831E+04  0.25499413959E+04  0.15000204985E+04 0.  0.
        3    1    3    3  502    0 -0.14353514550E+03 -0.53819836084E+03  0.18848303766E+04  0.19654122652E+04  0.10100000352E+00 0. -1.
       -3    1    3    3    0  502  0.14353514550E+03  0.53819836084E+03  0.17724130654E+03  0.58452913062E+03  0.10100000352E+00 0.  1.
</event>
<event>
 5   0  0.2641347E-04  0.1471822E+04  0.7818609E-02  0.8903410E-01
        2   -1    0    0  501    0  0.00000000000E+00  0.00000000000E+00  0.13773768640E+04  0.13773768640E+04  0.25500000920E-02 0. -1.
       -2   -1    0    0    0  501  0.00000000000E+00  0.00000000000E+00 -0.39318587247E+03  0.39318587248E+03  0.25500000920E-02 0.  1.
    10030    2    1    2    0    0  0.00000000000E+00  0.00000000000E+00  0.98419099153E+03  0.17705627365E+04  0.14718221686E+04 0.  0.
        4    1    3    3  502    0 -0.51346908210E+03 -0.25945499017E+03  0.10441489905E+04  0.11921476911E+04  0.12699999809E+01 0. -1.
       -4    1    3    3    0  502  0.51346908210E+03  0.25945499017E+03 -0.59957998922E+02  0.57841504539E+03  0.12699999809E+01 0.  1.
</event>
<event>
 5   0  0.2618901E-04  0.1492170E+04  0.7818609E-02  0.8889677E-01
        2   -1    0    0  501    0  0.00000000000E+00  0.00000000000E+00  0.10030338946E+04  0.10030338946E+04  0.25500000920E-02 0.  1.
       -2   -1    0    0    0  501  0.00000000000E+00  0.00000000000E+00 -0.55495887382E+03  0.55495887382E+03  0.25500000920E-02 0. -1.
    10030    2    1    2    0    0  0.00000000000E+00  0.00000000000E+00  0.44807502077E+03  0.15579927684E+04  0.14921696426E+04 0.  0.
        1    1    3    3  502    0 -0.13189290456E+03 -0.47151932320E+03  0.81182394659E+03  0.94804236757E+03  0.50400001928E-02 0.  1.
       -1    1    3    3    0  502  0.13189290456E+03  0.47151932320E+03 -0.36374892582E+03  0.60995040084E+03  0.50400001928E-02 0. -1.
</event>
<event>
 5   0  0.2646718E-04  0.1496123E+04  0.7818609E-02  0.8887035E-01
       -2   -1    0    0    0  501  0.00000000000E+00  0.00000000000E+00  0.22175144233E+03  0.22175144234E+03  0.25500000920E-02 0.  1.
        2   -1    0    0  501    0  0.00000000000E+00  0.00000000000E+00 -0.25235284215E+04  0.25235284215E+04  0.25500000920E-02 0. -1.
    10030    2    1    2    0    0  0.00000000000E+00  0.00000000000E+00 -0.23017769792E+04  0.27452798638E+04  0.14961230795E+04 0.  0.
        3    1    3    3  502    0 -0.63634524624E+03  0.28039258360E+03 -0.16568792589E+04  0.17968873538E+04  0.10100000352E+00 0.  1.
       -3    1    3    3    0  502  0.63634524624E+03 -0.28039258360E+03 -0.64489772024E+03  0.94839251006E+03  0.10100000352E+00 0. -1.
</event>
<event>
 5   0  0.1484251E-04  0.1492418E+04  0.7818609E-02  0.8889511E-01
        1   -1    0    0  501    0  0.00000000000E+00  0.00000000000E+00  0.94453125680E+03  0.94453125682E+03  0.50400001928E-02 0. -1.
       -1   -1    0    0    0  501  0.00000000000E+00  0.00000000000E+00 -0.58952814422E+03  0.58952814424E+03  0.50400001928E-02 0.  1.
    10030    2    1    2    0    0  0.00000000000E+00  0.00000000000E+00  0.35500311259E+03  0.15340594011E+04  0.14924178490E+04 0.  0.
        5    1    3    3  502    0  0.71020025379E+03  0.20601610031E+03  0.74821213625E+02  0.74326801228E+03  0.46999998093E+01 0. -1.
       -5    1    3    3    0  502 -0.71020025379E+03 -0.20601610031E+03  0.28018189896E+03  0.79079138878E+03  0.46999998093E+01 0.  1.
</event>
<event>
 5   0  0.1427609E-04  0.1509107E+04  0.7818609E-02  0.8878419E-01
        1   -1    0    0  501    0  0.00000000000E+00  0.00000000000E+00  0.19437776040E+04  0.19437776040E+04  0.50400001928E-02 0. -1.
       -1   -1    0    0    0  501  0.00000000000E+00  0.00000000000E+00 -0.29290951408E+03  0.29290951412E+03  0.50400001928E-02 0.  1.
    10030    2    1    2    0    0  0.00000000000E+00  0.00000000000E+00  0.16508680899E+04  0.22366871181E+04  0.15091069591E+04 0.  0.
        4    1    3    3  502    0  0.66621423296E+02 -0.47735540606E+03 -0.35020048303E+02  0.48325419234E+03  0.12699999809E+01 0.  1.
       -4    1    3    3    0  502 -0.66621423296E+02  0.47735540606E+03  0.16858881382E+04  0.17534329258E+04  0.12699999809E+01 0. -1.
</event>
<event>
 5   0  0.1484251E-04  0.1499031E+04  0.7818609E-02  0.8885097E-01
        1   -1    0    0  501    0  0.00000000000E+00  0.00000000000E+00  0.14587268230E+04  0.14587268230E+04  0.50400001928E-02 0.  1.
       -1   -1    0    0    0  501  0.00000000000E+00  0.00000000000E+00 -0.38511238179E+03  0.38511238182E+03  0.50400001928E-02 0. -1.
    10030    2    1    2    0    0  0.00000000000E+00  0.00000000000E+00  0.10736144412E+04  0.18438392048E+04  0.14990313689E+04 0.  0.
        5    1    3    3  502    0 -0.85968320218E+01 -0.64957696016E+03  0.77023777496E+02  0.65420095153E+03  0.46999998093E+01 0. -1.
       -5    1    3    3    0  502  0.85968320218E+01  0.64957696016E+03  0.99659066372E+03  0.11896382533E+04  0.46999998093E+01 0.  1.
</event>
<event>
 5   0  0.1426929E-04  0.1529965E+04  0.7818609E-02  0.8864768E-01
        1   -1    0    0  501    0  0.00000000000E+00  0.00000000000E+00  0.16269445488E+04  0.16269445488E+04  0.50400001928E-02 0.  1.
       -1   -1    0    0    0  501  0.00000000000E+00  0.00000000000E+00 -0.35969138644E+03  0.35969138648E+03  0.50400001928E-02 0. -1.
    10030    2    1    2    0    0  0.00000000000E+00  0.00000000000E+00  0.12672531623E+04  0.19866359352E+04  0.15299646276E+04 0.  0.
        1    1    3    3  502    0  0.51552049159E+03 -0.47848520748E+02  0.13648789011E+04  0.14597757611E+04  0.50400001928E-02 0.  1.
       -1    1    3    3    0  502 -0.51552049159E+03  0.47848520748E+02 -0.97625738739E+02  0.52686017412E+03  0.50400001928E-02 0. -1.
</event>
<event>
 5   0  0.2641347E-04  0.1508756E+04  0.7818609E-02  0.8878651E-01
       -2   -1    0    0    0  501  0.00000000000E+00  0.00000000000E+00  0.70271560425E+03  0.70271560425E+03  0.25500000920E-02 0.  1.
        2   -1    0    0  501    0  0.00000000000E+00  0.00000000000E+00 -0.80983832718E+03  0.80983832719E+03  0.25500000920E-02 0. -1.
    10030    2    1    2    0    0  0.00000000000E+00  0.00000000000E+00 -0.10712272294E+03  0.15125539314E+04  0.15087558178E+04 0.  0.
        4    1    3    3  502    0  0.54429836354E+02  0.72872052848E+03 -0.24135136105E+03  0.76957670709E+03  0.12699999809E+01 0. -1.
       -4    1    3    3    0  502 -0.54429836354E+02 -0.72872052848E+03  0.13422863811E+03  0.74297722435E+03  0.12699999809E+01 0.  1.
</event>
<event>
 5   0  0.2618901E-04  0.1500815E+04  0.7818609E-02  0.8883911E-01
       -2   -1    0    0    0  501  0.00000000000E+00  0.00000000000E+00  0.17350806381E+03  0.17350806383E+03  0.25500000920E-02 0.  1.
        2   -1    0    0  501    0  0.00000000000E+00  0.00000000000E+00 -0.32454476966E+04  0.32454476966E+04  0.25500000920E-02 0. -1.
    10030    2    1    2    0    0  0.00000000000E+00  0.00000000000E+00 -0.30719396328E+04  0.34189557605E+04  0.15008149068E+04 0.  0.
        1    1    3    3  502    0 -0.17879469414E+02 -0.72068107106E+03 -0.10613306607E+04  0.12830135046E+04  0.50400001928E-02 0.  1.
       -1    1    3    3    0  502  0.17879469414E+02  0.72068107106E+03 -0.20106089721E+04  0.21359422559E+04  0.50400001928E-02 0. -1.
</event>
<event>
 5   0  0.2696040E-04  0.1500579E+04  0.7818609E-02  0.8884068E-01
        2   -1    0    0  501    0  0.00000000000E+00  0.00000000000E+00  0.45440292233E+03  0.45440292234E+03  0.25500000920E-02 0. -1.
       -2   -1    0    0    0  501  0.00000000000E+00  0.00000000000E+00 -0.12388433196E+04  0.12388433196E+04  0.25500000920E-02 0.  1.
    10030    2    1    2    0    0  0.00000000000E+00  0.00000000000E+00 -0.78444039726E+03  0.16932462419E+04  0.15005785881E+04 0.  0.
        2    1    3    3  502    0 -0.38747171176E+03  0.41568862934E+03  0.16058154406E+03  0.59052332408E+03  0.25500000920E-02 0. -1.
       -2    1    3    3    0  502  0.38747171176E+03 -0.41568862934E+03 -0.94502194132E+03  0.11027229179E+04  0.25500000920E-02 0.  1.
</event>
<event>
 5   0  0.1474203E-04  0.1499791E+04  0.7818609E-02  0.8884592E-01
       -1   -1    0    0    0  501  0.00000000000E+00  0.00000000000E+00  0.13876836501E+04  0.13876836502E+04  0.50400001928E-02 0. -1.
        1   -1    0    0  501    0  0.00000000000E+00  0.00000000000E+00 -0.40523904826E+03  0.40523904829E+03  0.50400001928E-02 0.  1.
    10030    2    1    2    0    0  0.00000000000E+00  0.00000000000E+00  0.98244460188E+03  0.17929226984E+04  0.14997914545E+04 0.  0.
        3    1    3    3  502    0  0.62876892050E+03  0.22223321709E+03  0.81259215298E+02  0.67181919326E+03  0.10100000352E+00 0.  1.
       -3    1    3    3    0  502 -0.62876892050E+03 -0.22223321709E+03  0.90118538658E+03  0.11211035052E+04  0.10100000352E+00 0. -1.
</event>
<event>
 5   0  0.2646718E-04  0.1502665E+04  0.7818609E-02  0.8882683E-01
       -2   -1    0    0    0  501  0.00000000000E+00  0.00000000000E+00  0.43338326101E+03  0.43338326101E+03  0.25500000920E-02 0.  1.
        2   -1    0    0  501    0  0.00000000000E+00  0.00000000000E+00 -0.13025426268E+04  0.13025426268E+04  0.25500000920E-02 0. -1.
    10030    2    1    2    0    0  0.00000000000E+00  0.00000000000E+00 -0.86915936580E+03  0.17359258878E+04  0.15026645284E+04 0.  0.
        3    1    3    3  502    0  0.51009118628E+03 -0.29048040890E+03  0.10718373814E+03  0.59670784325E+03  0.10100000352E+00 0.  1.
       -3    1    3    3    0  502 -0.51009118628E+03  0.29048040890E+03 -0.97634310394E+03  0.11392180446E+04  0.10100000352E+00 0. -1.
</event>
<event>
 5   0  0.2734072E-04  0.1500008E+04  0.7818609E-02  0.8884447E-01
        2   -1    0    0  501    0  0.00000000000E+00  0.00000000000E+00  0.17821768623E+04  0.17821768623E+04  0.25500000920E-02 0. -1.
       -2   -1    0    0    0  501  0.00000000000E+00  0.00000000000E+00 -0.31562871132E+03  0.31562871133E+03  0.25500000920E-02 0.  1.
    10030    2    1    2    0    0  0.00000000000E+00  0.00000000000E+00  0.14665481509E+04  0.20978055736E+04  0.15000082485E+04 0.  0.
        5    1    3    3  502    0  0.39528340542E+03  0.60065568523E+03  0.10314196531E+04  0.12573324197E+04  0.46999998093E+01 0. -1.
       -5    1    3    3    0  502 -0.39528340542E+03 -0.60065568523E+03  0.43512849786E+03  0.84047315392E+03  0.46999998093E+01 0.  1.
</event>
<event>
 5   0  0.2618901E-04  0.1495000E+04  0.7818609E-02  0.8887785E-01
       -2   -1    0    0    0  501  0.00000000000E+00  0.00000000000E+00  0.54897525654E+03  0.54897525654E+03  0.25500000920E-02 0.  1.
        2   -1    0    0  501    0  0.00000000000E+00  0.00000000000E+00 -0.10178166898E+04  0.10178166898E+04  0.25500000920E-02 0. -1.
    10030    2    1    2    0    0  0.00000000000E+00  0.00000000000E+00 -0.46884143327E+03  0.15667919464E+04  0.14949999042E+04 0.  0.
        1    1    3    3  502    0  0.74266153767E+03  0.79346939901E+02 -0.26610637505E+03  0.79287748062E+03  0.50400001928E-02 0.  1.
       -1    1    3    3    0  502 -0.74266153767E+03 -0.79346939901E+02 -0.20273505822E+03  0.77391446573E+03  0.50400001928E-02 0. -1.
</event>
<event>
 5   0  0.1474203E-04  0.1508026E+04  0.7818609E-02  0.8879133E-01
        1   -1    0    0  501    0  0.00000000000E+00  0.00000000000E+00  0.15292357232E+04  0.15292357232E+04  0.50400001928E-02 0. -1.
       -1   -1    0    0    0  501  0.00000000000E+00  0.00000000000E+00 -0.37177771487E+03  0.37177771491E+03  0.50400001928E-02 0.  1.
    10030    2    1    2    0    0  0.00000000000E+00  0.00000000000E+00  0.11574580083E+04  0.19010134381E+04  0.15080262103E+04 0.  0.
        3    1    3    3  502    0 -0.30592635857E+03  0.40179996383E+03 -0.12709460513E+03  0.52075636977E+03  0.10100000352E+00 0.  1.
       -3    1    3    3    0  502  0.30592635857E+03 -0.40179996383E+03  0.12845526135E+04  0.13802570684E+04  0.10100000352E+00 0. -1.
</event>
<event>
 5   0  0.1427609E-04  0.1500604E+04  0.7818609E-02  0.8884052E-01
        1   -1    0    0  501    0  0.00000000000E+00  0.00000000000E+00  0.12997859737E+04  0.12997859737E+04  0.50400001928E-02 0.  1.
       -1   -1    0    0    0  501  0.00000000000E+00  0.00000000000E+00 -0.43311188692E+03  0.43311188695E+03  0.50400001928E-02 0. -1.
    10030    2    1    2    0    0  0.00000000000E+00  0.00000000000E+00  0.86667408680E+03  0.17328978607E+04  0.15006035528E+04 0.  0.
        4    1    3    3  502    0  0.52492720032E+03  0.23434503245E+03  0.99014373760E+03  0.11449246237E+04  0.12699999809E+01 0. -1.
       -4    1    3    3    0  502 -0.52492720032E+03 -0.23434503245E+03 -0.12346965080E+03  0.58797323701E+03  0.12699999809E+01 0.  1.
</event>
<event>
 5   0  0.1474203E-04  0.1492085E+04  0.7818609E-02  0.8889733E-01
        1   -1    0    0  501    0  0.00000000000E+00  0.00000000000E+00  0.60705573690E+03  0.60705573692E+03  0.50400001928E-02 0.  1.
       -1   -1    0    0    0  501  0.00000000000E+00  0.00000000000E+00 -0.91685059932E+03  0.91685059934E+03  0.50400001928E-02 0. -1.
    10030    2    1    2    0    0  0.00000000000E+00  0.00000000000E+00 -0.30979486242E+03  0.15239063363E+04  0.14920850059E+04 0.  0.
        3    1    3    3  502    0 -0.29166038840E+03 -0.67886422226E+03 -0.49463106576E+02  0.74051942820E+03  0.10100000352E+00 0. -1.
       -3    1    3    3    0  502  0.29166038840E+03  0.67886422226E+03 -0.26033175584E+03  0.78338690806E+03  0.10100000352E+00 0.  1.
</event>
<event>
 5   0  0.2641347E-04  0.1497007E+04  0.7818609E-02  0.8886446E-01
        2   -1    0    0  501    0  0.00000000000E+00  0.00000000000E+00  0.64526704974E+03  0.64526704975E+03  0.25500000920E-02 0.  1.
       -2   -1    0    0    0  501  0.00000000000E+00  0.00000000000E+00 -0.86825662005E+03  0.86825662006E+03  0.25500000920E-02 0. -1.
    10030    2    1    2    0    0  0.00000000000E+00  0.00000000000E+00 -0.22298957031E+03  0.15135236698E+04  0.14970068639E+04 0.  0.
        4    1    3    3  502    0 -0.14598889427E+03  0.51694020459E+03  0.41552012938E+03  0.67911598655E+03  0.12699999809E+01 0.  1.
       -4    1    3    3    0  502  0.14598889427E+03 -0.51694020459E+03 -0.63850969969E+03  0.83440768325E+03  0.12699999809E+01 0. -1.
</event>
<event>
 5   0  0.2734072E-04  0.1467707E+04  0.7818609E-02  0.8906216E-01
        2   -1    0    0  501    0  0.00000000000E+00  0.00000000000E+00  0.15787681879E+04  0.15787681879E+04  0.25500000920E-02 0.  1.
       -2   -1    0    0    0  501  0.00000000000E+00  0.00000000000E+00 -0.34111472776E+03  0.34111472777E+03  0.25500000920E-02 0. -1.
    10030    2    1    2    0    0  0.00000000000E+00  0.00000000000E+00  0.12376534602E+04  0.19198829157E+04  0.14677071651E+04 0.  0.
        5    1    3    3  502    0 -0.80097399723E+02 -0.71150692711E+03  0.82918540218E+03  0.10955492787E+04  0.46999998093E+01 0. -1.
       -5    1    3    3    0  502  0.80097399723E+02  0.71150692711E+03  0.40846805798E+03  0.82433363704E+03  0.46999998093E+01 0.  1.
</event>
<event>
 5   0  0.2696040E-04  0.1501846E+04  0.7818609E-02  0.8883226E-01
       -2   -1    0    0    0  501  0.00000000000E+00  0.00000000000E+00  0.45806345926E+03  0.45806345927E+03  0.25500000920E-02 0.  1.
        2   -1    0    0  501    0  0.00000000000E+00  0.00000000000E+00 -0.12310206643E+04  0.12310206643E+04  0.25500000920E-02 0. -1.
    10030    2    1    2    0    0  0.00000000000E+00  0.00000000000E+00 -0.77295720499E+03  0.16890841235E+04  0.15018463089E+04 0.  0.
        2    1    3    3  502    0  0.35539891591E+03 -0.76018911653E+02  0.35255853405E+03  0.50634453122E+03  0.25500000920E-02 0.  1.
       -2    1    3    3    0  502 -0.35539891591E+03  0.76018911653E+02 -0.11255157390E+04  0.11827395923E+04  0.25500000920E-02 0. -1.
</event>
<event>
 5   0  0.2646718E-04  0.1507987E+04  0.7818609E-02  0.8879159E-01
        2   -1    0    0  501    0  0.00000000000E+00  0.00000000000E+00  0.12010227838E+04  0.12010227838E+04  0.25500000920E-02 0.  1.
       -2   -1    0    0    0  501  0.00000000000E+00  0.00000000000E+00 -0.47335160140E+03  0.47335160141E+03  0.25500000920E-02 0. -1.
    10030    2    1    2    0    0  0.00000000000E+00  0.00000000000E+00  0.72767118238E+03  0.16743743852E+04  0.15079868143E+04 0.  0.
        3    1    3    3  502    0 -0.29041316603E+02 -0.53303597416E+03 -0.22739731207E+03  0.58024158379E+03  0.10100000352E+00 0. -1.
       -3    1    3    3    0  502  0.29041316603E+02  0.53303597416E+03  0.95506849445E+03  0.10941328014E+04  0.10100000352E+00 0.  1.
</event>
<event>
 5   0  0.2696040E-04  0.1444945E+04  0.7818609E-02  0.8921912E-01
        2   -1    0    0  501    0  0.00000000000E+00  0.00000000000E+00  0.15525410237E+04  0.15525410237E+04  0.25500000920E-02 0.  1.
       -2   -1    0    0    0  501  0.00000000000E+00  0.00000000000E+00 -0.33620145241E+03  0.33620145242E+03  0.25500000920E-02 0. -1.
    10030    2    1    2    0    0  0.00000000000E+00  0.00000000000E+00  0.12163395713E+04  0.18887424762E+04  0.14449450469E+04 0.  0.
        2    1    3    3  502    0 -0.10453698857E+03  0.69551806538E+03  0.82411746090E+03  0.10834403309E+04  0.25500000920E-02 0.  1.
       -2    1    3    3    0  502  0.10453698857E+03 -0.69551806538E+03  0.39222211043E+03  0.80530214526E+03  0.25500000920E-02 0. -1.
</event>
<event>
 5   0  0.2646718E-04  0.1502053E+04  0.7818609E-02  0.8883089E-01
        2   -1    0    0  501    0  0.00000000000E+00  0.00000000000E+00  0.11010148239E+04  0.11010148239E+04  0.25500000920E-02 0. -1.
       -2   -1    0    0    0  501  0.00000000000E+00  0.00000000000E+00 -0.51229177762E+03  0.51229177762E+03  0.25500000920E-02 0.  1.
    10030    2    1    2    0    0  0.00000000000E+00  0.00000000000E+00  0.58872304630E+03  0.16133066015E+04  0.15020530501E+04 0.  0.
        3    1    3    3  502    0 -0.21268364050E+03 -0.53058420843E+03  0.81756246705E+03  0.99757823297E+03  0.10100000352E+00 0. -1.
       -3    1    3    3    0  502  0.21268364050E+03  0.53058420843E+03 -0.22883942075E+03  0.61572836857E+03  0.10100000352E+00 0.  1.
</event>
<event>
 5   0  0.2646718E-04  0.1509385E+04  0.7818609E-02  0.8878236E-01
        2   -1    0    0  501    0  0.00000000000E+00  0.00000000000E+00  0.12522183961E+04  0.12522183961E+04  0.25500000920E-02 0.  1.
       -2   -1    0    0    0  501  0.00000000000E+00  0.00000000000E+00 -0.45484142986E+03  0.45484142987E+03  0.25500000920E-02 0. -1.
    10030    2    1    2    0    0  0.00000000000E+00  0.00000000000E+00  0.79737696621E+03  0.17070598259E+04  0.15093850480E+04 0.  0.
        3    1    3    3  502    0  0.61299807188E+03 -0.29306747404E+03  0.77019866474E+03  0.10270643475E+04  0.10100000352E+00 0.  1.
       -3    1    3    3    0  502 -0.61299807188E+03  0.29306747404E+03  0.27178301472E+02  0.67999547847E+03  0.10100000352E+00 0. -1.
</event>
<event>
 5   0  0.2641347E-04  0.1504029E+04  0.7818609E-02  0.8881778E-01
        2   -1    0    0  501    0  0.00000000000E+00  0.00000000000E+00  0.22235407642E+04  0.22235407642E+04  0.25500000920E-02 0. -1.
       -2   -1    0    0    0  501  0.00000000000E+00  0.00000000000E+00 -0.25433576971E+03  0.25433576972E+03  0.25500000920E-02 0.  1.
    10030    2    1    2    0    0  0.00000000000E+00  0.00000000000E+00  0.19692049945E+04  0.24778765339E+04  0.15040291909E+04 0.  0.
        4    1    3    3  502    0 -0.67862535796E+03  0.54819583215E+02  0.45846975647E+03  0.82081282499E+03  0.12699999809E+01 0.  1.
       -4    1    3    3    0  502  0.67862535796E+03 -0.54819583215E+02  0.15107352380E+04  0.16570637089E+04  0.12699999809E+01 0. -1.
</event>
<event>
 5   0  0.1474203E-04  0.1536070E+04  0.7818609E-02  0.8860815E-01
       -1   -1    0    0    0  501  0.00000000000E+00  0.00000000000E+00  0.58119031885E+03  0.58119031887E+03  0.50400001928E-02 0. -1.
        1   -1    0    0  501    0  0.00000000000E+00  0.00000000000E+00 -0.10149481152E+04  0.10149481152E+04  0.50400001928E-02 0.  1.
    10030    2    1    2    0    0  0.00000000000E+00  0.00000000000E+00 -0.43375779633E+03  0.15961384341E+04  0.15360703352E+04 0.  0.
        3    1    3    3  502    0  0.59154580845E+03  0.80798234837E+02 -0.71891098093E+03  0.93449869286E+03  0.10100000352E+00 0.  1.
       -3    1    3    3    0  502 -0.59154580845E+03 -0.80798234837E+02  0.28515318461E+03  0.66163974120E+03  0.10100000352E+00 0. -1.
</event>
<event>
 5   0  0.1443750E-04  0.1503523E+04  0.7818609E-02  0.8882113E-01
        1   -1    0    0  501    0  0.00000000000E+00  0.00000000000E+00  0.21495244683E+04  0.21495244683E+04  0.50400001928E-02 0. -1.
       -1   -1    0    0    0  501  0.00000000000E+00  0.00000000000E+00 -0.26291652569E+03  0.26291652574E+03  0.50400001928E-02 0.  1.
    10030    2    1    2    0    0  0.00000000000E+00  0.00000000000E+00  0.18866079426E+04  0.24124409940E+04  0.15035232025E+04 0.  0.
        2    1    3    3  502    0 -0.65273827986E+03  0.35171324314E+03  0.74434259183E+03  0.10506261759E+04  0.25500000920E-02 0.  1.
       -2    1    3    3    0  502  0.65273827986E+03 -0.35171324314E+03  0.11422653508E+04  0.13618148182E+04  0.25500000920E-02 0. -1.
</event>
<event>
 5   0  0.1443750E-04  0.1496205E+04  0.7818609E-02  0.8886980E-01
       -1   -1    0    0    0  501  0.00000000000E+00  0.00000000000E+00  0.91907952778E+03  0.91907952779E+03  0.50400001928E-02 0.  1.
        1   -1    0    0  501    0  0.00000000000E+00  0.00000000000E+00 -0.60893270000E+03  0.60893270002E+03  0.50400001928E-02 0. -1.
    10030    2    1    2    0    0  0.00000000000E+00  0.00000000000E+00  0.31014682778E+03  0.15280122278E+04  0.14962053046E+04 0.  0.
        2    1    3    3  502    0 -0.11736292631E+03 -0.54351173136E+03  0.66619107005E+03  0.86774973375E+03  0.25500000920E-02 0. -1.
       -2    1    3    3    0  502  0.11736292631E+03  0.54351173136E+03 -0.35604424227E+03  0.66026249406E+03  0.25500000920E-02 0.  1.
</event>
<event>
 5   0  0.1474203E-04  0.1494674E+04  0.7818609E-02  0.8888002E-01
       -1   -1    0    0    0  501  0.00000000000E+00  0.00000000000E+00  0.32806002469E+03  0.32806002473E+03  0.50400001928E-02 0. -1.
        1   -1    0    0  501    0  0.00000000000E+00  0.00000000000E+00 -0.17024704273E+04  0.17024704273E+04  0.50400001928E-02 0.  1.
    10030    2    1    2    0    0  0.00000000000E+00  0.00000000000E+00 -0.13744104026E+04  0.20305304520E+04  0.14946738647E+04 0.  0.
        3    1    3    3  502    0  0.44908375016E+03  0.48485880370E+03 -0.21318772722E+03  0.69441579146E+03  0.10100000352E+00 0. -1.
       -3    1    3    3    0  502 -0.44908375016E+03 -0.48485880370E+03 -0.11612226754E+04  0.13361146606E+04  0.10100000352E+00 0.  1.
</event>
<event>
 5   0  0.2618901E-04  0.1498229E+04  0.7818609E-02  0.8885631E-01
       -2   -1    0    0    0  501  0.00000000000E+00  0.00000000000E+00  0.62009039137E+03  0.62009039137E+03  0.25500000920E-02 0. -1.
        2   -1    0    0  501    0  0.00000000000E+00  0.00000000000E+00 -0.90498524912E+03  0.90498524912E+03  0.25500000920E-02 0.  1.
    10030    2    1    2    0    0  0.00000000000E+00  0.00000000000E+00 -0.28489485775E+03  0.15250756405E+04  0.14982291645E+04 0.  0.
        1    1    3    3  502    0  0.43066058136E+03 -0.25627856762E+03  0.42432900914E+03  0.65665999465E+03  0.50400001928E-02 0. -1.
       -1    1    3    3    0  502 -0.43066058136E+03  0.25627856762E+03 -0.70922386689E+03  0.86841564584E+03  0.50400001928E-02 0.  1.
</event>
<event>
 5   0  0.1474203E-04  0.1495493E+04  0.7818609E-02  0.8887456E-01
        1   -1    0    0  501    0  0.00000000000E+00  0.00000000000E+00  0.20209646139E+04  0.20209646139E+04  0.50400001928E-02 0. -1.
       -1   -1    0    0    0  501  0.00000000000E+00  0.00000000000E+00 -0.27666225606E+03  0.27666225610E+03  0.50400001928E-02 0.  1.
    10030    2    1    2    0    0  0.00000000000E+00  0.00000000000E+00  0.17443023578E+04  0.22976268700E+04  0.14954927342E+04 0.  0.
        3    1    3    3  502    0 -0.27473380143E+03  0.27787839747E+03  0.18516137269E+04  0.18923975453E+04  0.10100000352E+00 0. -1.
       -3    1    3    3    0  502  0.27473380143E+03 -0.27787839747E+03 -0.10731136914E+03  0.40522932467E+03  0.10100000352E+00 0.  1.
</event>
<event>
 5   0  0.2646718E-04  0.1502379E+04  0.7818609E-02  0.8882872E-01
       -2   -1    0    0    0  501  0.00000000000E+00  0.00000000000E+00  0.45630092684E+03  0.45630092684E+03  0.25500000920E-02 0.  1.
        2   -1    0    0  501    0  0.00000000000E+00  0.00000000000E+00 -0.12366532842E+04  0.12366532842E+04  0.25500000920E-02 0. -1.
    10030    2    1    2    0    0  0.00000000000E+00  0.00000000000E+00 -0.78035235732E+03  0.16929542110E+04  0.15023794990E+04 0.  0.
        3    1    3    3  502    0  0.38434978757E+03  0.64197290528E+03 -0.31515768475E+03  0.81189799038E+03  0.10100000352E+00 0.  1.
       -3    1    3    3    0  502 -0.38434978757E+03 -0.64197290528E+03 -0.46519467257E+03  0.88105622063E+03  0.10100000352E+00 0. -1.
</event>
<event>
 5   0  0.1426929E-04  0.1499694E+04  0.7818609E-02  0.8884657E-01
        1   -1    0    0  501    0  0.00000000000E+00  0.00000000000E+00  0.11096049822E+04  0.11096049822E+04  0.50400001928E-02 0.  1.
       -1   -1    0    0    0  501  0.00000000000E+00  0.00000000000E+00 -0.50673018504E+03  0.50673018507E+03  0.50400001928E-02 0. -1.
    10030    2    1    2    0    0  0.00000000000E+00  0.00000000000E+00  0.60287479716E+03  0.16163351673E+04  0.14996937527E+04 0.  0.
        1    1    3    3  502    0 -0.24562342261E+03  0.31213884238E+03  0.98691431601E+03  0.10638427468E+04  0.50400001928E-02 0.  1.
       -1    1    3    3    0  502  0.24562342261E+03 -0.31213884238E+03 -0.38403951886E+03  0.55249242052E+03  0.50400001928E-02 0. -1.
</event>
<event>
 5   0  0.2641347E-04  0.1495073E+04  0.7818609E-02  0.8887736E-01
       -2   -1    0    0    0  501  0.00000000000E+00  0.00000000000E+00  0.34710637969E+03  0.34710637970E+03  0.25500000920E-02 0. -1.
        2   -1    0    0  501    0  0.00000000000E+00  0.00000000000E+00 -0.16099114475E+04  0.16099114475E+04  0.25500000920E-02 0.  1.
    10030    2    1    2    0    0  0.00000000000E+00  0.00000000000E+00 -0.12628050678E+04  0.19570178272E+04  0.14950726192E+04 0.  0.
        4    1    3    3  502    0 -0.54231575110E+02 -0.13282190660E+02 -0.16071767717E+04  0.16081468430E+04  0.12699999809E+01 0.  1.
       -4    1    3    3    0  502  0.54231575110E+02  0.13282190660E+02  0.34437170385E+03  0.34887098423E+03  0.12699999809E+01 0. -1.
</event>
<event>
 5   0  0.2641347E-04  0.1489203E+04  0.7818609E-02  0.8891665E-01
        2   -1    0    0  501    0  0.00000000000E+00  0.00000000000E+00  0.82508495002E+03  0.82508495002E+03  0.25500000920E-02 0. -1.
       -2   -1    0    0    0  501  0.00000000000E+00  0.00000000000E+00 -0.67196877737E+03  0.67196877738E+03  0.25500000920E-02 0.  1.
    10030    2    1    2    0    0  0.00000000000E+00  0.00000000000E+00  0.15311617264E+03  0.14970537274E+04  0.14892029077E+04 0.  0.
        4    1    3    3  502    0 -0.63389612187E+03  0.31390721355E+03 -0.15719232266E+03  0.72461925950E+03  0.12699999809E+01 0.  1.
       -4    1    3    3    0  502  0.63389612187E+03 -0.31390721355E+03  0.31030849530E+03  0.77243446790E+03  0.12699999809E+01 0. -1.
</event>
<event>
 5   0  0.1484251E-04  0.1532150E+04  0.7818609E-02  0.8863351E-01
       -1   -1    0    0    0  501  0.00000000000E+00  0.00000000000E+00  0.33769991248E+03  0.33769991252E+03  0.50400001928E-02 0. -1.
        1   -1    0    0  501    0  0.00000000000E+00  0.00000000000E+00 -0.17378463210E+04  0.17378463210E+04  0.50400001928E-02 0.  1.
    10030    2    1    2    0    0  0.00000000000E+00  0.00000000000E+00 -0.14001464085E+04  0.20755462335E+04  0.15321495365E+04 0.  0.
        5    1    3    3  502    0 -0.22766467127E+02  0.33167205827E+03  0.23486390098E+03  0.40707223959E+03  0.46999998093E+01 0. -1.
       -5    1    3    3    0  502  0.22766467127E+02 -0.33167205827E+03 -0.16350103095E+04  0.16684739940E+04  0.46999998093E+01 0.  1.
</event>
<event>
 5   0  0.1474203E-04  0.1501487E+04  0.7818609E-02  0.8883465E-01
        1   -1    0    0  501    0  0.00000000000E+00  0.00000000000E+00  0.72566902266E+03  0.72566902268E+03  0.50400001928E-02 0.  1.
       -1   -1    0    0    0  501  0.00000000000E+00  0.00000000000E+00 -0.77668389918E+03  0.77668389920E+03  0.50400001928E-02 0. -1.
    10030    2    1    2    0    0  0.00000000000E+00  0.00000000000E+00 -0.51014876516E+02  0.15023529219E+04  0.15014865248E+04 0.  0.
        3    1    3    3  502    0  0.39933837037E+03  0.11180948825E+03 -0.65168237149E+03  0.77243926572E+03  0.10100000352E+00 0. -1.
       -3    1    3    3    0  502 -0.39933837037E+03 -0.11180948825E+03  0.60066749498E+03  0.72991365615E+03  0.10100000352E+00 0.  1.
</event>
<event>
 5   0  0.1443750E-04  0.1460648E+04  0.7818609E-02  0.8911052E-01
       -1   -1    0    0    0  501  0.00000000000E+00  0.00000000000E+00  0.27592797530E+03  0.27592797535E+03  0.50400001928E-02 0.  1.
        1   -1    0    0  501    0  0.00000000000E+00  0.00000000000E+00 -0.19330153564E+04  0.19330153564E+04  0.50400001928E-02 0. -1.
    10030    2    1    2    0    0  0.00000000000E+00  0.00000000000E+00 -0.16570873811E+04  0.22089433318E+04  0.14606478201E+04 0.  0.
        2    1    3    3  502    0 -0.12773861943E+03  0.62859240053E+02 -0.19118268783E+04  0.19171203540E+04  0.25500000920E-02 0. -1.
       -2    1    3    3    0  502  0.12773861943E+03 -0.62859240053E+02  0.25473949718E+03  0.29182297782E+03  0.25500000920E-02 0.  1.
</event>
<event>
 5   0  0.2641347E-04  0.1499335E+04  0.7818609E-02  0.8884895E-01
        2   -1    0    0  501    0  0.00000000000E+00  0.00000000000E+00  0.41882778845E+03  0.41882778845E+03  0.25500000920E-02 0.  1.
       -2   -1    0    0    0  501  0.00000000000E+00  0.00000000000E+00 -0.13418441484E+04  0.13418441484E+04  0.25500000920E-02 0. -1.
    10030    2    1    2    0    0  0.00000000000E+00  0.00000000000E+00 -0.92301635998E+03  0.17606719369E+04  0.14993353423E+04 0.  0.
        4    1    3    3  502    0  0.69536056886E+03 -0.40185748493E+02 -0.78706472652E+03  0.10510060474E+04  0.12699999809E+01 0.  1.
       -4    1    3    3    0  502 -0.69536056886E+03  0.40185748493E+02 -0.13595163346E+03  0.70966588945E+03  0.12699999809E+01 0. -1.
</event>
<event>
 5   0  0.1474203E-04  0.1456022E+04  0.7818609E-02  0.8914236E-01
        1   -1    0    0  501    0  0.00000000000E+00  0.00000000000E+00  0.98161223762E+03  0.98161223763E+03  0.50400001928E-02 0. -1.
       -1   -1    0    0    0  501  0.00000000000E+00  0.00000000000E+00 -0.53992822025E+03  0.53992822027E+03  0.50400001928E-02 0.  1.
    10030    2    1    2    0    0  0.00000000000E+00  0.00000000000E+00  0.44168401737E+03  0.15215404579E+04  0.14560221818E+04 0.  0.
        3    1    3    3  502    0 -0.13510456395E+03 -0.30100618332E+03  0.89899843281E+03  0.95763049137E+03  0.10100000352E+00 0. -1.
       -3    1    3    3    0  502  0.13510456395E+03  0.30100618332E+03 -0.45731441544E+03  0.56390996654E+03  0.10100000352E+00 0.  1.
</event>
<event>
 5   0  0.2696040E-04  0.1501649E+04  0.7818609E-02  0.8883357E-01
       -2   -1    0    0    0  501  0.00000000000E+00  0.00000000000E+00  0.38341222665E+03  0.38341222666E+03  0.25500000920E-02 0.  1.
        2   -1    0    0  501    0  0.00000000000E+00  0.00000000000E+00 -0.14703170929E+04  0.14703170929E+04  0.25500000920E-02 0. -1.
    10030    2    1    2    0    0  0.00000000000E+00  0.00000000000E+00 -0.10869048663E+04  0.18537293196E+04  0.15016491607E+04 0.  0.
        2    1    3    3  502    0 -0.56749670549E+03  0.61554680633E+02 -0.11455563701E+04  0.12798987798E+04  0.25500000920E-02 0. -1.
       -2    1    3    3    0  502  0.56749670549E+03 -0.61554680633E+02  0.58651503856E+02  0.57383053976E+03  0.25500000920E-02 0.  1.
</event>
<event>
 5   0  0.2641347E-04  0.1584544E+04  0.7818609E-02  0.8830100E-01
        2   -1    0    0  501    0  0.00000000000E+00  0.00000000000E+00  0.11128739185E+04  0.11128739185E+04  0.25500000920E-02 0.  1.
       -2   -1    0    0    0  501  0.00000000000E+00  0.00000000000E+00 -0.56403029537E+03  0.56403029537E+03  0.25500000920E-02 0. -1.
    10030    2    1    2    0    0  0.00000000000E+00  0.00000000000E+00  0.54884362316E+03  0.16769042139E+04  0.15845435999E+04 0.  0.
        4    1    3    3  502    0  0.32501239112E+03  0.51112801327E+03 -0.26603947808E+03  0.66156142355E+03  0.12699999809E+01 0. -1.
       -4    1    3    3    0  502 -0.32501239112E+03 -0.51112801327E+03  0.81488310124E+03  0.10153427904E+04  0.12699999809E+01 0.  1.
</event>
<event>
 5   0  0.1484251E-04  0.1499638E+04  0.7818609E-02  0.8884694E-01
       -1   -1    0    0    0  501  0.00000000000E+00  0.00000000000E+00  0.69012490504E+03  0.69012490506E+03  0.50400001928E-02 0.  1.
        1   -1    0    0  501    0  0.00000000000E+00  0.00000000000E+00 -0.81467640381E+03  0.81467640382E+03  0.50400001928E-02 0. -1.
    10030    2    1    2    0    0  0.00000000000E+00  0.00000000000E+00 -0.12455149877E+03  0.15048013089E+04  0.14996379241E+04 0.  0.
        5    1    3    3  502    0  0.59603004984E+03  0.36844710585E+03 -0.33003019735E+03  0.77456252897E+03  0.46999998093E+01 0. -1.
       -5    1    3    3    0  502 -0.59603004984E+03 -0.36844710585E+03  0.20547869858E+03  0.73023877992E+03  0.46999998093E+01 0.  1.
</event>
<event>
 5   0  0.1004313E-04  0.1464457E+04  0.7818609E-02  0.8908439E-01
        4   -1    0    0  501    0  0.00000000000E+00  0.00000000000E+00  0.33066219682E+03  0.33066463570E+03  0.12699999809E+01 0.  1.
       -4   -1    0    0    0  501  0.00000000000E+00  0.00000000000E+00 -0.16214597620E+04  0.16214602593E+04  0.12699999809E+01 0. -1.
    10030    2    1    2    0    0  0.00000000000E+00  0.00000000000E+00 -0.12907975652E+04  0.19521248950E+04  0.14644566404E+04 0.  0.
        3    1    3    3  502    0 -0.47624862678E+03  0.28259273142E+03 -0.12839710131E+04  0.13983036076E+04  0.10100000352E+00 0. -1.
       -3    1    3    3    0  502  0.47624862678E+03 -0.28259273142E+03 -0.68265520218E+01  0.55382128740E+03  0.10100000352E+00 0.  1.
</event>
<event>
 5   0  0.2696040E-04  0.1481042E+04  0.7818609E-02  0.8897158E-01
       -2   -1    0    0    0  501  0.00000000000E+00  0.00000000000E+00  0.42581921811E+03  0.42581921812E+03  0.25500000920E-02 0.  1.
        2   -1    0    0  501    0  0.00000000000E+00  0.00000000000E+00 -0.12878038051E+04  0.12878038051E+04  0.25500000920E-02 0. -1.
    10030    2    1    2    0    0  0.00000000000E+00  0.00000000000E+00 -0.86198458701E+03  0.17136230232E+04  0.14810423483E+04 0.  0.
        2    1    3    3  502    0 -0.35966934839E+03  0.24104231861E+03 -0.11260905007E+04  0.12064589737E+04  0.25500000920E-02 0. -1.
       -2    1    3    3    0  502  0.35966934839E+03 -0.24104231861E+03  0.26410591365E+03  0.50716404955E+03  0.25500000920E-02 0.  1.
</event>
<event>
 5   0  0.2646718E-04  0.1502714E+04  0.7818609E-02  0.8882650E-01
        2   -1    0    0  501    0  0.00000000000E+00  0.00000000000E+00  0.10479464145E+04  0.10479464145E+04  0.25500000920E-02 0. -1.
       -2   -1    0    0    0  501  0.00000000000E+00  0.00000000000E+00 -0.53870854555E+03  0.53870854556E+03  0.25500000920E-02 0.  1.
    10030    2    1    2    0    0  0.00000000000E+00  0.00000000000E+00  0.50923786891E+03  0.15866549600E+04  0.15027144622E+04 0.  0.
        3    1    3    3  502    0 -0.33705044054E+03  0.55210886247E+02 -0.45200766789E+03  0.56653524468E+03  0.10100000352E+00 0.  1.
       -3    1    3    3    0  502  0.33705044054E+03 -0.55210886247E+02  0.96124553680E+03  0.10201197153E+04  0.10100000352E+00 0. -1.
</event>
<event>
 5   0  0.2734072E-04  0.1505291E+04  0.7818609E-02  0.8880942E-01
       -2   -1    0    0    0  501  0.00000000000E+00  0.00000000000E+00  0.53255201058E+03  0.53255201058E+03  0.25500000920E-02 0. -1.
        2   -1    0    0  501    0  0.00000000000E+00  0.00000000000E+00 -0.10636989164E+04  0.10636989164E+04  0.25500000920E-02 0.  1.
    10030    2    1    2    0    0  0.00000000000E+00  0.00000000000E+00 -0.53114690583E+03  0.15962509270E+04  0.15052906651E+04 0.  0.
        5    1    3    3  502    0  0.62552434983E+03  0.18856279174E+03  0.13065787184E+03  0.66628087780E+03  0.46999998093E+01 0. -1.
       -5    1    3    3    0  502 -0.62552434983E+03 -0.18856279174E+03 -0.66180477767E+03  0.92997004919E+03  0.46999998093E+01 0.  1.
</event>
<event>
 5   0  0.1443750E-04  0.1500666E+04  0.7818609E-02  0.8884010E-01
       -1   -1    0    0    0  501  0.00000000000E+00  0.00000000000E+00  0.71764009782E+03  0.71764009783E+03  0.50400001928E-02 0. -1.
        1   -1    0    0  501    0  0.00000000000E+00  0.00000000000E+00 -0.78451495397E+03  0.78451495398E+03  0.50400001928E-02 0.  1.
    10030    2    1    2    0    0  0.00000000000E+00  0.00000000000E+00 -0.66874856152E+02  0.15021550518E+04  0.15006657034E+04 0.  0.
        2    1    3    3  502    0 -0.50812750215E+03 -0.48993799650E+03 -0.28818280991E+03  0.76241860601E+03  0.25500000920E-02 0.  1.
       -2    1    3    3    0  502  0.50812750215E+03  0.48993799650E+03  0.22130795376E+03  0.73973644581E+03  0.25500000920E-02 0. -1.
</event>
<event>
 5   0  0.2696040E-04  0.1544040E+04  0.7818609E-02  0.8855684E-01
        2   -1    0    0  501    0  0.00000000000E+00  0.00000000000E+00  0.90333592086E+03  0.90333592086E+03  0.25500000920E-02 0. -1.
       -2   -1    0    0    0  501  0.00000000000E+00  0.00000000000E+00 -0.65979280417E+03  0.65979280417E+03  0.25500000920E-02 0.  1.
    10030    2    1    2    0    0  0.00000000000E+00  0.00000000000E+00  0.24354311669E+03  0.15631287250E+04  0.15440395595E+04 0.  0.
        2    1    3    3  502    0 -0.47324812267E+03 -0.19330064384E+03  0.70744407493E+03  0.87281501115E+03  0.25500000920E-02 0. -1.
       -2    1    3    3    0  502  0.47324812267E+03  0.19330064384E+03 -0.46390095824E+03  0.69031371389E+03  0.25500000920E-02 0.  1.
</event>
<event>
 5   0  0.1443750E-04  0.1514409E+04  0.7818609E-02  0.8874927E-01
       -1   -1    0    0    0  501  0.00000000000E+00  0.00000000000E+00  0.61566264820E+03  0.61566264822E+03  0.50400001928E-02 0. -1.
        1   -1    0    0  501    0  0.00000000000E+00  0.00000000000E+00 -0.93128722624E+03  0.93128722625E+03  0.50400001928E-02 0.  1.
    10030    2    1    2    0    0  0.00000000000E+00  0.00000000000E+00 -0.31562457803E+03  0.15469498745E+04  0.15144091389E+04 0.  0.
        2    1    3    3  502    0 -0.26633779129E+03 -0.58409575521E+03 -0.56800669680E+03  0.85716700703E+03  0.25500000920E-02 0.  1.
       -2    1    3    3    0  502  0.26633779129E+03  0.58409575521E+03  0.25238211877E+03  0.68978286744E+03  0.25500000920E-02 0. -1.
</event>
<event>
 5   0  0.2734072E-04  0.1499105E+04  0.7818609E-02  0.8885049E-01
        2   -1    0    0  501    0  0.00000000000E+00  0.00000000000E+00  0.10612890643E+04  0.10612890643E+04  0.25500000920E-02 0.  1.
       -2   -1    0    0    0  501  0.00000000000E+00  0.00000000000E+00 -0.52938318263E+03  0.52938318264E+03  0.25500000920E-02 0. -1.
    10030    2    1    2    0    0  0.00000000000E+00  0.00000000000E+00  0.53190588171E+03  0.15906722470E+04  0.14991045095E+04 0.  0.
        5    1    3    3  502    0 -0.31644375274E+03 -0.39000499002E+03 -0.32441856361E+03  0.59792142904E+03  0.46999998093E+01 0. -1.
       -5    1    3    3    0  502  0.31644375274E+03  0.39000499002E+03  0.85632444532E+03  0.99275081795E+03  0.46999998093E+01 0.  1.
</event>
<event>
 5   0  0.1427609E-04  0.1502446E+04  0.7818609E-02  0.8882828E-01
       -1   -1    0    0    0  501  0.00000000000E+00  0.00000000000E+00  0.36284668743E+03  0.36284668746E+03  0.50400001928E-02 0.  1.
        1   -1    0    0  501    0  0.00000000000E+00  0.00000000000E+00 -0.15553024878E+04  0.15553024878E+04  0.50400001928E-02 0. -1.
    10030    2    1    2    0    0  0.00000000000E+00  0.00000000000E+00 -0.11924558004E+04  0.19181491753E+04  0.15024464792E+04 0.  0.
        4    1    3    3  502    0  0.26888955098E+03  0.43104643935E+03  0.11026652466E+03  0.51986819759E+03  0.12699999809E+01 0.  1.
       -4    1    3    3    0  502 -0.26888955098E+03 -0.43104643935E+03 -0.13027223250E+04  0.13982809777E+04  0.12699999809E+01 0. -1.
</event>
<event>
 5   0  0.1443750E-04  0.1508654E+04  0.7818609E-02  0.8878718E-01
       -1   -1    0    0    0  501  0.00000000000E+00  0.00000000000E+00  0.30599949046E+03  0.30599949050E+03  0.50400001928E-02 0.  1.
        1   -1    0    0  501    0  0.00000000000E+00  0.00000000000E+00 -0.18595101764E+04  0.18595101764E+04  0.50400001928E-02 0. -1.
    10030    2    1    2    0    0  0.00000000000E+00  0.00000000000E+00 -0.15535106859E+04  0.21655096669E+04  0.15086539252E+04 0.  0.
        2    1    3    3  502    0 -0.67006424680E+03  0.50193117761E+02 -0.12687907009E+04  0.14357351032E+04  0.25500000920E-02 0. -1.
       -2    1    3    3    0  502  0.67006424680E+03 -0.50193117761E+02 -0.28471998502E+03  0.72977456367E+03  0.25500000920E-02 0.  1.
</event>
<event>
 5   0  0.1426929E-04  0.1497267E+04  0.7818609E-02  0.8886272E-01
       -1   -1    0    0    0  501  0.00000000000E+00  0.00000000000E+00  0.54994907842E+03  0.54994907845E+03  0.50400001928E-02 0.  1.
        1   -1    0    0  501    0  0.00000000000E+00  0.00000000000E+00 -0.10190980612E+04  0.10190980612E+04  0.50400001928E-02 0. -1.
    10030    2    1    2    0    0  0.00000000000E+00  0.00000000000E+00 -0.46914898275E+03  0.15690471396E+04  0.14972668962E+04 0.  0.
        1    1    3    3  502    0 -0.18703134074E+03  0.36696933958E+03 -0.88968825690E+03  0.98040420904E+03  0.50400001928E-02 0. -1.
       -1    1    3    3    0  502  0.18703134074E+03 -0.36696933958E+03  0.42053927415E+03  0.58864293059E+03  0.50400001928E-02 0.  1.
</event>
<event>
 5   0  0.2734072E-04  0.1496067E+04  0.7818609E-02  0.8887072E-01
       -2   -1    0    0    0  501  0.00000000000E+00  0.00000000000E+00  0.23142923490E+03  0.23142923492E+03  0.25500000920E-02 0. -1.
        2   -1    0    0  501    0  0.00000000000E+00  0.00000000000E+00 -0.24178199564E+04  0.24178199564E+04  0.25500000920E-02 0.  1.
    10030    2    1    2    0    0  0.00000000000E+00  0.00000000000E+00 -0.21863907215E+04  0.26492491914E+04  0.14960671411E+04 0.  0.
        5    1    3    3  502    0  0.43201992583E+03  0.21548544372E+03 -0.21049720720E+04  0.21596306876E+04  0.46999998093E+01 0.  1.
       -5    1    3    3    0  502 -0.43201992583E+03 -0.21548544372E+03 -0.81418649544E+02  0.48961850380E+03  0.46999998093E+01 0. -1.
</event>
<event>
 5   0  0.1484251E-04  0.1502054E+04  0.7818609E-02  0.8883088E-01
        1   -1    0    0  501    0  0.00000000000E+00  0.00000000000E+00  0.14617346620E+04  0.14617346620E+04  0.50400001928E-02 0.  1.
       -1   -1    0    0    0  501  0.00000000000E+00  0.00000000000E+00 -0.38587124697E+03  0.38587124701E+03  0.50400001928E-02 0. -1.
    10030    2    1    2    0    0  0.00000000000E+00  0.00000000000E+00  0.10758634150E+04  0.18476059090E+04  0.15020537631E+04 0.  0.
        5    1    3    3  502    0  0.32170380481E+03 -0.62481938718E+03  0.86366752148E+03  0.11134793587E+04  0.46999998093E+01 0.  1.
       -5    1    3    3    0  502 -0.32170380481E+03  0.62481938718E+03  0.21219589355E+03  0.73412655030E+03  0.46999998093E+01 0. -1.
</event>
<event>
 5   0  0.1474203E-04  0.1499383E+04  0.7818609E-02  0.8884864E-01
        1   -1    0    0  501    0  0.00000000000E+00  0.00000000000E+00  0.12453321228E+04  0.12453321228E+04  0.50400001928E-02 0.  1.
       -1   -1    0    0    0  501  0.00000000000E+00  0.00000000000E+00 -0.45131503986E+03  0.45131503989E+03  0.50400001928E-02 0. -1.
    10030    2    1    2    0    0  0.00000000000E+00  0.00000000000E+00  0.79401708292E+03  0.16966471627E+04  0.14993826952E+04 0.  0.
        3    1    3    3  502    0  0.38160227001E+03 -0.58594935228E+03  0.70290807664E+03  0.99148207766E+03  0.10100000352E+00 0. -1.
       -3    1    3    3    0  502 -0.38160227001E+03  0.58594935228E+03  0.91109006282E+02  0.70516508503E+03  0.10100000352E+00 0.  1.
</event>
<event>
 5   0  0.2618901E-04  0.1503908E+04  0.7818609E-02  0.8881859E-01
       -2   -1    0    0    0  501  0.00000000000E+00  0.00000000000E+00  0.38110717821E+03  0.38110717822E+03  0.25500000920E-02 0. -1.
        2   -1    0    0  501    0  0.00000000000E+00  0.00000000000E+00 -0.14836628362E+04  0.14836628362E+04  0.25500000920E-02 0.  1.
    10030    2    1    2    0    0  0.00000000000E+00  0.00000000000E+00 -0.11025556580E+04  0.18647700144E+04  0.15039076526E+04 0.  0.
        1    1    3    3  502    0 -0.11293848281E+03 -0.19909012662E+03  0.33686090719E+03  0.40726803242E+03  0.50400001928E-02 0. -1.
       -1    1    3    3    0  502  0.11293848281E+03  0.19909012662E+03 -0.14394165651E+04  0.14575019820E+04  0.50400001928E-02 0.  1.
</event>
<event>
 5   0  0.1426929E-04  0.1500097E+04  0.7818609E-02  0.8884388E-01
       -1   -1    0    0    0  501  0.00000000000E+00  0.00000000000E+00  0.58021460203E+03  0.58021460205E+03  0.50400001928E-02 0. -1.
        1   -1    0    0  501    0  0.00000000000E+00  0.00000000000E+00 -0.96959422040E+03  0.96959422041E+03  0.50400001928E-02 0.  1.
    10030    2    1    2    0    0  0.00000000000E+00  0.00000000000E+00 -0.38937961837E+03  0.15498088225E+04  0.15000969632E+04 0.  0.
        1    1    3    3  502    0 -0.35328517821E+03 -0.52673389269E+03  0.21897076892E+03  0.67097481959E+03  0.50400001928E-02 0. -1.
       -1    1    3    3    0  502  0.35328517821E+03  0.52673389269E+03 -0.60835038730E+03  0.87883400287E+03  0.50400001928E-02 0.  1.
</event>
<event>
 5   0  0.2646718E-04  0.1483493E+04  0.7818609E-02  0.8895505E-01
        2   -1    0    0  501    0  0.00000000000E+00  0.00000000000E+00  0.13055880177E+04  0.13055880177E+04  0.25500000920E-02 0.  1.
       -2   -1    0    0    0  501  0.00000000000E+00  0.00000000000E+00 -0.42141001894E+03  0.42141001894E+03  0.25500000920E-02 0. -1.
    10030    2    1    2    0    0  0.00000000000E+00  0.00000000000E+00  0.88417799875E+03  0.17269980366E+04  0.14834930014E+04 0.  0.
        3    1    3    3  502    0 -0.50679521454E+03 -0.36747961043E+03 -0.21095420610E+02  0.62636066331E+03  0.10100000352E+00 0. -1.
       -3    1    3    3    0  502  0.50679521454E+03  0.36747961043E+03  0.90527341936E+03  0.11006373733E+04  0.10100000352E+00 0.  1.
</event>
<event>
 5   0  0.1426929E-04  0.1499004E+04  0.7818609E-02  0.8885115E-01
       -1   -1    0    0    0  501  0.00000000000E+00  0.00000000000E+00  0.45643367958E+03  0.45643367960E+03  0.50400001928E-02 0.  1.
        1   -1    0    0  501    0  0.00000000000E+00  0.00000000000E+00 -0.12307447757E+04  0.12307447757E+04  0.50400001928E-02 0. -1.
    10030    2    1    2    0    0  0.00000000000E+00  0.00000000000E+00 -0.77431109616E+03  0.16871784554E+04  0.14990041583E+04 0.  0.
        1    1    3    3  502    0 -0.33228129263E+02  0.55167842892E+02 -0.12276247655E+04  0.12293128830E+04  0.50400001928E-02 0. -1.
       -1    1    3    3    0  502  0.33228129263E+02 -0.55167842892E+02  0.45331366935E+03  0.45786557232E+03  0.50400001928E-02 0.  1.
</event>
<event>
 5   0  0.1427609E-04  0.1500161E+04  0.7818609E-02  0.8884346E-01
       -1   -1    0    0    0  501  0.00000000000E+00  0.00000000000E+00  0.48100738942E+03  0.48100738945E+03  0.50400001928E-02 0.  1.
        1   -1    0    0  501    0  0.00000000000E+00  0.00000000000E+00 -0.11696712216E+04  0.11696712216E+04  0.50400001928E-02 0. -1.
    10030    2    1    2    0    0  0.00000000000E+00  0.00000000000E+00 -0.68866383218E+03  0.16506786111E+04  0.15001606592E+04 0.  0.
        4    1    3    3  502    0 -0.68576178904E+03  0.12341234483E+03 -0.64989830830E+03  0.95282173684E+03  0.12699999809E+01 0. -1.
       -4    1    3    3    0  502  0.68576178904E+03 -0.12341234483E+03 -0.38765523880E+02  0.69785687423E+03  0.12699999809E+01 0.  1.
</event>
<event>
 5   0  0.2618901E-04  0.1495731E+04  0.7818609E-02  0.8887297E-01
        2   -1    0    0  501    0  0.00000000000E+00  0.00000000000E+00  0.16589963516E+04  0.16589963516E+04  0.25500000920E-02 0. -1.
       -2   -1    0    0    0  501  0.00000000000E+00  0.00000000000E+00 -0.33713335402E+03  0.33713335403E+03  0.25500000920E-02 0.  1.
    10030    2    1    2    0    0  0.00000000000E+00  0.00000000000E+00  0.13218629976E+04  0.19961297057E+04  0.14957312651E+04 0.  0.
        1    1    3    3  502    0  0.16270294926E+03 -0.29479332584E+03 -0.23025251348E+03  0.40791123378E+03  0.50400001928E-02 0.  1.
       -1    1    3    3    0  502 -0.16270294926E+03  0.29479332584E+03  0.15521155111E+04  0.15882184719E+04  0.50400001928E-02 0. -1.
</event>
<event>
 5   0  0.1426929E-04  0.1510331E+04  0.7818609E-02  0.8877612E-01
       -1   -1    0    0    0  501  0.00000000000E+00  0.00000000000E+00  0.56178045730E+03  0.56178045732E+03  0.50400001928E-02 0.  1.
        1   -1    0    0  501    0  0.00000000000E+00  0.00000000000E+00 -0.10151206879E+04  0.10151206879E+04  0.50400001928E-02 0. -1.
    10030    2    1    2    0    0  0.00000000000E+00  0.00000000000E+00 -0.45334023061E+03  0.15769011452E+04  0.15103310422E+04 0.  0.
        1    1    3    3  502    0 -0.15192710940E+02  0.98616237943E+02  0.55486768492E+03  0.56376779675E+03  0.50400001928E-02 0.  1.
       -1    1    3    3    0  502  0.15192710940E+02 -0.98616237943E+02 -0.10082079155E+04  0.10131333485E+04  0.50400001928E-02 0. -1.
</event>
<event>
 5   0  0.1426929E-04  0.1497315E+04  0.7818609E-02  0.8886240E-01
       -1   -1    0    0    0  501  0.00000000000E+00  0.00000000000E+00  0.75521592719E+03  0.75521592721E+03  0.50400001928E-02 0. -1.
        1   -1    0    0  501    0  0.00000000000E+00  0.00000000000E+00 -0.74215588798E+03  0.74215588800E+03  0.50400001928E-02 0.  1.
    10030    2    1    2    0    0  0.00000000000E+00  0.00000000000E+00  0.13060039207E+02  0.14973718152E+04  0.14973148595E+04 0.  0.
        1    1    3    3  502    0  0.13295956167E+03 -0.71581930960E+03  0.18092821844E+03  0.75020700430E+03  0.50400001928E-02 0. -1.
       -1    1    3    3    0  502 -0.13295956167E+03  0.71581930960E+03 -0.16786817924E+03  0.74716481091E+03  0.50400001928E-02 0.  1.
</event>
<event>
 5   0  0.2646718E-04  0.1497471E+04  0.7818609E-02  0.8886137E-01
       -2   -1    0    0    0  501  0.00000000000E+00  0.00000000000E+00  0.84004763920E+03  0.84004763920E+03  0.25500000920E-02 0.  1.
        2   -1    0    0  501    0  0.00000000000E+00  0.00000000000E+00 -0.66734863805E+03  0.66734863806E+03  0.25500000920E-02 0. -1.
    10030    2    1    2    0    0  0.00000000000E+00  0.00000000000E+00  0.17269900115E+03  0.15073962773E+04  0.14974707315E+04 0.  0.
        3    1    3    3  502    0  0.34882754438E+03  0.63085121253E+03  0.29005366981E+03  0.77703606714E+03  0.10100000352E+00 0.  1.
       -3    1    3    3    0  502 -0.34882754438E+03 -0.63085121253E+03 -0.11735466866E+03  0.73036021012E+03  0.10100000352E+00 0. -1.
</event>
<event>
 5   0  0.2734072E-04  0.1501035E+04  0.7818609E-02  0.8883765E-01
        2   -1    0    0  501    0  0.00000000000E+00  0.00000000000E+00  0.65306261849E+03  0.65306261849E+03  0.25500000920E-02 0.  1.
       -2   -1    0    0    0  501  0.00000000000E+00  0.00000000000E+00 -0.86251534469E+03  0.86251534469E+03  0.25500000920E-02 0. -1.
    10030    2    1    2    0    0  0.00000000000E+00  0.00000000000E+00 -0.20945272620E+03  0.15155779632E+04  0.15010350156E+04 0.  0.
        5    1    3    3  502    0  0.15231947467E+03 -0.38460814881E+03  0.52754334643E+03  0.67040936961E+03  0.46999998093E+01 0.  1.
       -5    1    3    3    0  502 -0.15231947467E+03  0.38460814881E+03 -0.73699607263E+03  0.84516859358E+03  0.46999998093E+01 0. -1.
</event>
<event>
 5   0  0.2696040E-04  0.1502576E+04  0.7818609E-02  0.8882742E-01
       -2   -1    0    0    0  501  0.00000000000E+00  0.00000000000E+00  0.67746348557E+03  0.67746348557E+03  0.25500000920E-02 0.  1.
        2   -1    0    0  501    0  0.00000000000E+00  0.00000000000E+00 -0.83315725911E+03  0.83315725911E+03  0.25500000920E-02 0. -1.
    10030    2    1    2    0    0  0.00000000000E+00  0.00000000000E+00 -0.15569377354E+03  0.15106207447E+04  0.15025759492E+04 0.  0.
        2    1    3    3  502    0  0.21302194634E+03 -0.69880688263E+03 -0.25406858716E+03  0.77347285396E+03  0.25500000920E-02 0. -1.
       -2    1    3    3    0  502 -0.21302194634E+03  0.69880688263E+03  0.98374813624E+02  0.73714789072E+03  0.25500000920E-02 0.  1.
</event>
<event>
 5   0  0.2696040E-04  0.1498350E+04  0.7818609E-02  0.8885551E-01
        2   -1    0    0  501    0  0.00000000000E+00  0.00000000000E+00  0.92228559492E+03  0.92228559492E+03  0.25500000920E-02 0. -1.
       -2   -1    0    0    0  501  0.00000000000E+00  0.00000000000E+00 -0.60855666195E+03  0.60855666195E+03  0.25500000920E-02 0.  1.
    10030    2    1    2    0    0  0.00000000000E+00  0.00000000000E+00  0.31372893297E+03  0.15308422569E+04  0.14983498163E+04 0.  0.
        2    1    3    3  502    0 -0.32396592668E+02 -0.45002843511E+03  0.76790406302E+03  0.89064683328E+03  0.25500000920E-02 0. -1.
       -2    1    3    3    0  502  0.32396592668E+02  0.45002843511E+03 -0.45417513005E+03  0.64019542359E+03  0.25500000920E-02 0.  1.
</event>
<event>
 5   0  0.2646718E-04  0.1497957E+04  0.7818609E-02  0.8885813E-01
       -2   -1    0    0    0  501  0.00000000000E+00  0.00000000000E+00  0.89412774692E+03  0.89412774692E+03  0.25500000920E-02 0. -1.
        2   -1    0    0  501    0  0.00000000000E+00  0.00000000000E+00 -0.62739203058E+03  0.62739203058E+03  0.25500000920E-02 0.  1.
    10030    2    1    2    0    0  0.00000000000E+00  0.00000000000E+00  0.26673571635E+03  0.15215197775E+04  0.14979567721E+04 0.  0.
        3    1    3    3  502    0  0.31320531965E+03  0.67912260667E+03  0.91939946739E+02  0.75349721376E+03  0.10100000352E+00 0. -1.
       -3    1    3    3    0  502 -0.31320531965E+03 -0.67912260667E+03  0.17479576961E+03  0.76802256374E+03  0.10100000352E+00 0.  1.
</event>
<event>
 5   0  0.1443750E-04  0.1497121E+04  0.7818609E-02  0.8886370E-01
        1   -1    0    0  501    0  0.00000000000E+00  0.00000000000E+00  0.21414778189E+04  0.21414778189E+04  0.50400001928E-02 0.  1.
       -1   -1    0    0    0  501  0.00000000000E+00  0.00000000000E+00 -0.26166160240E+03  0.26166160245E+03  0.50400001928E-02 0. -1.
    10030    2    1    2    0    0  0.00000000000E+00  0.00000000000E+00  0.18798162165E+04  0.24031394213E+04  0.14971205932E+04 0.  0.
        2    1    3    3  502    0  0.20331747014E+03 -0.42121682192E+03  0.18780509754E+04  0.19354165110E+04  0.25500000920E-02 0.  1.
       -2    1    3    3    0  502 -0.20331747014E+03  0.42121682192E+03  0.17652410087E+01  0.46772291030E+03  0.25500000920E-02 0. -1.
</event>
<event>
 5   0  0.2618901E-04  0.1512668E+04  0.7818609E-02  0.8876073E-01
       -2   -1    0    0    0  501  0.00000000000E+00  0.00000000000E+00  0.23380820456E+03  0.23380820457E+03  0.25500000920E-02 0.  1.
        2   -1    0    0  501    0  0.00000000000E+00  0.00000000000E+00 -0.24466242966E+04  0.24466242966E+04  0.25500000920E-02 0. -1.
    10030    2    1    2    0    0  0.00000000000E+00  0.00000000000E+00 -0.22128160921E+04  0.26804325012E+04  0.15126676225E+04 0.  0.
        1    1    3    3  502    0  0.40189953667E+03 -0.52583463170E+03 -0.45771545346E+03  0.80469170111E+03  0.50400001928E-02 0.  1.
       -1    1    3    3    0  502 -0.40189953667E+03  0.52583463170E+03 -0.17551006386E+04  0.18757408001E+04  0.50400001928E-02 0. -1.
</event>
<event>
 5   0  0.1426929E-04  0.1487941E+04  0.7818609E-02  0.8892512E-01
        1   -1    0    0  501    0  0.00000000000E+00  0.00000000000E+00  0.57439431674E+03  0.57439431677E+03  0.50400001928E-02 0.  1.
       -1   -1    0    0    0  501  0.00000000000E+00  0.00000000000E+00 -0.96360973106E+03  0.96360973107E+03  0.50400001928E-02 0. -1.
    10030    2    1    2    0    0  0.00000000000E+00  0.00000000000E+00 -0.38921541431E+03  0.15380040478E+04  0.14879407960E+04 0.  0.
        1    1    3    3  502    0  0.38407044512E+03  0.32697000461E+03  0.37066763347E+03  0.62595046550E+03  0.50400001928E-02 0.  1.
       -1    1    3    3    0  502 -0.38407044512E+03 -0.32697000461E+03 -0.75988304778E+03  0.91205358234E+03  0.50400001928E-02 0. -1.
</event>
<event>
 5   0  0.1474203E-04  0.1499693E+04  0.7818609E-02  0.8884657E-01
        1   -1    0    0  501    0  0.00000000000E+00  0.00000000000E+00  0.32352721998E+03  0.32352722002E+03  0.50400001928E-02 0.  1.
       -1   -1    0    0    0  501  0.00000000000E+00  0.00000000000E+00 -0.17379367858E+04  0.17379367858E+04  0.50400001928E-02 0. -1.
    10030    2    1    2    0    0  0.00000000000E+00  0.00000000000E+00 -0.14144095658E+04  0.20614640058E+04  0.14996931111E+04 0.  0.
        3    1    3    3  502    0  0.12694937174E+03 -0.72262784850E+03 -0.91998987666E+03  0.11767278928E+04  0.10100000352E+00 0. -1.
       -3    1    3    3    0  502 -0.12694937174E+03  0.72262784850E+03 -0.49441968915E+03  0.88473611299E+03  0.10100000352E+00 0.  1.
</event>
<event>
 5   0  0.1427609E-04  0.1497638E+04  0.7818609E-02  0.8886025E-01
       -1   -1    0    0    0  501  0.00000000000E+00  0.00000000000E+00  0.55655865853E+03  0.55655865855E+03  0.50400001928E-02 0. -1.
        1   -1    0    0  501    0  0.00000000000E+00  0.00000000000E+00 -0.10074941402E+04  0.10074941402E+04  0.50400001928E-02 0.  1.
    10030    2    1    2    0    0  0.00000000000E+00  0.00000000000E+00 -0.45093548165E+03  0.15640527987E+04  0.14976375892E+04 0.  0.
        4    1    3    3  502    0  0.16467072390E+03  0.44406122677E+03  0.38027236046E+03  0.60738414653E+03  0.12699999809E+01 0. -1.
       -4    1    3    3    0  502 -0.16467072390E+03 -0.44406122677E+03 -0.83120784211E+03  0.95666865221E+03  0.12699999809E+01 0.  1.
</event>
<event>
 5   0  0.2641347E-04  0.1501718E+04  0.7818609E-02  0.8883311E-01
        2   -1    0    0  501    0  0.00000000000E+00  0.00000000000E+00  0.17375354502E+04  0.17375354502E+04  0.25500000920E-02 0. -1.
       -2   -1    0    0    0  501  0.00000000000E+00  0.00000000000E+00 -0.32447651607E+03  0.32447651608E+03  0.25500000920E-02 0.  1.
    10030    2    1    2    0    0  0.00000000000E+00  0.00000000000E+00  0.14130589342E+04  0.20620119663E+04  0.15017182818E+04 0.  0.
        4    1    3    3  502    0 -0.28732118627E+03 -0.31214157755E+03 -0.14413116551E+03  0.44806387300E+03  0.12699999809E+01 0.  1.
       -4    1    3    3    0  502  0.28732118627E+03  0.31214157755E+03  0.15571900997E+04  0.16139480933E+04  0.12699999809E+01 0. -1.
</event>
<event>
 5   0  0.1474203E-04  0.1518178E+04  0.7818609E-02  0.8872454E-01
       -1   -1    0    0    0  501  0.00000000000E+00  0.00000000000E+00  0.53473898006E+03  0.53473898008E+03  0.50400001928E-02 0. -1.
        1   -1    0    0  501    0  0.00000000000E+00  0.00000000000E+00 -0.10775645174E+04  0.10775645175E+04  0.50400001928E-02 0.  1.
    10030    2    1    2    0    0  0.00000000000E+00  0.00000000000E+00 -0.54282553739E+03  0.16123034975E+04  0.15181775272E+04 0.  0.
        3    1    3    3  502    0 -0.63705810449E+03  0.16644721601E+02  0.16658395415E+03  0.65868831721E+03  0.10100000352E+00 0. -1.
       -3    1    3    3    0  502  0.63705810449E+03 -0.16644721601E+02 -0.70940949155E+03  0.95361518033E+03  0.10100000352E+00 0.  1.
</event>
<event>
 5   0  0.2734072E-04  0.1498526E+04  0.7818609E-02  0.8885434E-01
        2   -1    0    0  501    0  0.00000000000E+00  0.00000000000E+00  0.15946880231E+04  0.15946880231E+04  0.25500000920E-02 0. -1.
       -2   -1    0    0    0  501  0.00000000000E+00  0.00000000000E+00 -0.35204065408E+03  0.35204065409E+03  0.25500000920E-02 0.  1.
    10030    2    1    2    0    0  0.00000000000E+00  0.00000000000E+00  0.12426473690E+04  0.19467286772E+04  0.14985259620E+04 0.  0.
        5    1    3    3  502    0  0.61653885739E+03  0.30169899803E+03  0.23109626616E+03  0.72427206374E+03  0.46999998093E+01 0.  1.
       -5    1    3    3    0  502 -0.61653885739E+03 -0.30169899803E+03  0.10115511029E+04  0.12224566135E+04  0.46999998093E+01 0. -1.
</event>
<event>
 5   0  0.1474203E-04  0.1497904E+04  0.7818609E-02  0.8885848E-01
        1   -1    0    0  501    0  0.00000000000E+00  0.00000000000E+00  0.15006740142E+04  0.15006740142E+04  0.50400001928E-02 0.  1.
       -1   -1    0    0    0  501  0.00000000000E+00  0.00000000000E+00 -0.37378473309E+03  0.37378473313E+03  0.50400001928E-02 0. -1.
    10030    2    1    2    0    0  0.00000000000E+00  0.00000000000E+00  0.11268892811E+04  0.18744587473E+04  0.14979039167E+04 0.  0.
        3    1    3    3  502    0  0.49436959363E+03 -0.22009281243E+03  0.12113770659E+04  0.13267541397E+04  0.10100000352E+00 0.  1.
       -3    1    3    3    0  502 -0.49436959363E+03  0.22009281243E+03 -0.84487784852E+02  0.54770460759E+03  0.10100000352E+00 0. -1.
</event>
<event>
 5   0  0.2618901E-04  0.1500035E+04  0.7818609E-02  0.8884429E-01
        2   -1    0    0  501    0  0.00000000000E+00  0.00000000000E+00  0.10890928951E+04  0.10890928951E+04  0.25500000920E-02 0. -1.
       -2   -1    0    0    0  501  0.00000000000E+00  0.00000000000E+00 -0.51650920049E+03  0.51650920050E+03  0.25500000920E-02 0.  1.
    10030    2    1    2    0    0  0.00000000000E+00  0.00000000000E+00  0.57258369457E+03  0.16056020956E+04  0.15000353336E+04 0.  0.
        1    1    3    3  502    0  0.31661733980E+03 -0.67145752012E+03  0.17188290609E+03  0.76200096760E+03  0.50400001928E-02 0. -1.
       -1    1    3    3    0  502 -0.31661733980E+03  0.67145752012E+03  0.40070078848E+03  0.84360112796E+03  0.50400001928E-02 0.  1.
</event>
<event>
 5   0  0.1474203E-04  0.1502398E+04  0.7818609E-02  0.8882860E-01
        1   -1    0    0  501    0  0.00000000000E+00  0.00000000000E+00  0.10517077055E+04  0.10517077055E+04  0.50400001928E-02 0.  1.
       -1   -1    0    0    0  501  0.00000000000E+00  0.00000000000E+00 -0.53655617079E+03  0.53655617082E+03  0.50400001928E-02 0. -1.
    10030    2    1    2    0    0  0.00000000000E+00  0.00000000000E+00  0.51515153470E+03  0.15882638763E+04  0.15023984282E+04 0.  0.
        3    1    3    3  502    0 -0.85526884885E+02  0.51941635036E+03  0.82410685890E+03  0.97788563653E+03  0.10100000352E+00 0.  1.
       -3    1    3    3    0  502  0.85526884885E+02 -0.51941635036E+03 -0.30895532420E+03  0.61037823979E+03  0.10100000352E+00 0. -1.
</event>
<event>
 5   0  0.2734072E-04  0.1457504E+04  0.7818609E-02  0.8913215E-01
       -2   -1    0    0    0  501  0.00000000000E+00  0.00000000000E+00  0.31707599848E+03  0.31707599849E+03  0.25500000920E-02 0. -1.
        2   -1    0    0  501    0  0.00000000000E+00  0.00000000000E+00 -0.16749276554E+04  0.16749276554E+04  0.25500000920E-02 0.  1.
    10030    2    1    2    0    0  0.00000000000E+00  0.00000000000E+00 -0.13578516569E+04  0.19920036539E+04  0.14575038370E+04 0.  0.
        5    1    3    3  502    0 -0.11599538800E+03  0.48873031834E+03  0.42653325738E+02  0.50413653934E+03  0.46999998093E+01 0. -1.
       -5    1    3    3    0  502  0.11599538800E+03 -0.48873031834E+03 -0.14005049827E+04  0.14878671145E+04  0.46999998093E+01 0.  1.
</event>
<event>
 5   0  0.2646718E-04  0.1504012E+04  0.7818609E-02  0.8881789E-01
        2   -1    0    0  501    0  0.00000000000E+00  0.00000000000E+00  0.11613948324E+04  0.11613948324E+04  0.25500000920E-02 0.  1.
       -2   -1    0    0    0  501  0.00000000000E+00  0.00000000000E+00 -0.48692564816E+03  0.48692564817E+03  0.25500000920E-02 0. -1.
    10030    2    1    2    0    0  0.00000000000E+00  0.00000000000E+00  0.67446918419E+03  0.16483204805E+04  0.15040118770E+04 0.  0.
        3    1    3    3  502    0  0.32658701879E+02 -0.56766450640E+03  0.87659672388E+03  0.10448595165E+04  0.10100000352E+00 0.  1.
       -3    1    3    3    0  502 -0.32658701879E+02  0.56766450640E+03 -0.20212753969E+03  0.60346096405E+03  0.10100000352E+00 0. -1.
</event>
<event>
 5   0  0.2646718E-04  0.1497938E+04  0.7818609E-02  0.8885825E-01
       -2   -1    0    0    0  501  0.00000000000E+00  0.00000000000E+00  0.52870453707E+03  0.52870453708E+03  0.25500000920E-02 0.  1.
        2   -1    0    0  501    0  0.00000000000E+00  0.00000000000E+00 -0.10609978764E+04  0.10609978764E+04  0.25500000920E-02 0. -1.
    10030    2    1    2    0    0  0.00000000000E+00  0.00000000000E+00 -0.53229333938E+03  0.15897024135E+04  0.14979377705E+04 0.  0.
        3    1    3    3  502    0  0.52867939758E+03  0.31004031402E+03 -0.72301596463E+03  0.94782856944E+03  0.10100000352E+00 0.  1.
       -3    1    3    3    0  502 -0.52867939758E+03 -0.31004031402E+03  0.19072262525E+03  0.64187384409E+03  0.10100000352E+00 0. -1.
</event>
<event>
 5   0  0.1426929E-04  0.1505209E+04  0.7818609E-02  0.8880996E-01
       -1   -1    0    0    0  501  0.00000000000E+00  0.00000000000E+00  0.42632936785E+03  0.42632936788E+03  0.50400001928E-02 0.  1.
        1   -1    0    0  501    0  0.00000000000E+00  0.00000000000E+00 -0.13285821368E+04  0.13285821368E+04  0.50400001928E-02 0. -1.
    10030    2    1    2    0    0  0.00000000000E+00  0.00000000000E+00 -0.90225276899E+03  0.17549115047E+04  0.15052090653E+04 0.  0.
        1    1    3    3  502    0  0.28666467024E+03 -0.38531470471E+03  0.22445711808E+03  0.53011796112E+03  0.50400001928E-02 0.  1.
       -1    1    3    3    0  502 -0.28666467024E+03  0.38531470471E+03 -0.11267098871E+04  0.12247935436E+04  0.50400001928E-02 0. -1.
</event>
<event>
 5   0  0.1427609E-04  0.1494534E+04  0.7818609E-02  0.8888096E-01
       -1   -1    0    0    0  501  0.00000000000E+00  0.00000000000E+00  0.52917400688E+03  0.52917400691E+03  0.50400001928E-02 0.  1.
        1   -1    0    0  501    0  0.00000000000E+00  0.00000000000E+00 -0.10552447064E+04  0.10552447064E+04  0.50400001928E-02 0. -1.
    10030    2    1    2    0    0  0.00000000000E+00  0.00000000000E+00 -0.52607069949E+03  0.15844187133E+04  0.14945341342E+04 0.  0.
        4    1    3    3  502    0  0.10126418884E+03 -0.67437807672E+03  0.60900517302E+02  0.68465371701E+03  0.12699999809E+01 0.  1.
       -4    1    3    3    0  502 -0.10126418884E+03  0.67437807672E+03 -0.58697121679E+03  0.89976499629E+03  0.12699999809E+01 0. -1.
</event>
<event>
 5   0  0.1426929E-04  0.1509353E+04  0.7818609E-02  0.8878257E-01
        1   -1    0    0  501    0  0.00000000000E+00  0.00000000000E+00  0.80768609378E+03  0.80768609380E+03  0.50400001928E-02 0. -1.
       -1   -1    0    0    0  501  0.00000000000E+00  0.00000000000E+00 -0.70514570083E+03  0.70514570085E+03  0.50400001928E-02 0.  1.
    10030    2    1    2    0    0  0.00000000000E+00  0.00000000000E+00  0.10254039295E+03  0.15128317946E+04  0.15093526780E+04 0.  0.
        1    1    3    3  502    0 -0.17264273968E+03 -0.24541306839E+03  0.74532810623E+03  0.80345944245E+03  0.50400001928E-02 0. -1.
       -1    1    3    3    0  502  0.17264273968E+03  0.24541306839E+03 -0.64278771328E+03  0.70937235220E+03  0.50400001928E-02 0.  1.
</event>
<event>
 5   0  0.1484251E-04  0.1498743E+04  0.7818609E-02  0.8885289E-01
       -1   -1    0    0    0  501  0.00000000000E+00  0.00000000000E+00  0.27613533893E+03  0.27613533897E+03  0.50400001928E-02 0.  1.
        1   -1    0    0  501    0  0.00000000000E+00  0.00000000000E+00 -0.20336311634E+04  0.20336311634E+04  0.50400001928E-02 0. -1.
    10030    2    1    2    0    0  0.00000000000E+00  0.00000000000E+00 -0.17574958245E+04  0.23097665024E+04  0.14987427139E+04 0.  0.
        5    1    3    3  502    0 -0.12910267064E+02 -0.73025811211E+03 -0.62044432807E+03  0.95834066987E+03  0.46999998093E+01 0.  1.
       -5    1    3    3    0  502  0.12910267064E+02  0.73025811211E+03 -0.11370514964E+04  0.13514258325E+04  0.46999998093E+01 0. -1.
</event>
<event>
 5   0  0.1474203E-04  0.1503482E+04  0.7818609E-02  0.8882140E-01
        1   -1    0    0  501    0  0.00000000000E+00  0.00000000000E+00  0.10303916579E+04  0.10303916579E+04  0.50400001928E-02 0.  1.
       -1   -1    0    0    0  501  0.00000000000E+00  0.00000000000E+00 -0.54844660845E+03  0.54844660848E+03  0.50400001928E-02 0. -1.
    10030    2    1    2    0    0  0.00000000000E+00  0.00000000000E+00  0.48194504948E+03  0.15788382664E+04  0.15034823713E+04 0.  0.
        3    1    3    3  502    0 -0.22389932641E+03  0.46268371086E+03 -0.33507184528E+03  0.61357988589E+03  0.10100000352E+00 0. -1.
       -3    1    3    3    0  502  0.22389932641E+03 -0.46268371086E+03  0.81701689476E+03  0.96525838053E+03  0.10100000352E+00 0.  1.
</event>
<event>
 5   0  0.1427609E-04  0.1520657E+04  0.7818609E-02  0.8870831E-01
        1   -1    0    0  501    0  0.00000000000E+00  0.00000000000E+00  0.12957353365E+04  0.12957353365E+04  0.50400001928E-02 0. -1.
       -1   -1    0    0    0  501  0.00000000000E+00  0.00000000000E+00 -0.44615537167E+03  0.44615537170E+03  0.50400001928E-02 0.  1.
    10030    2    1    2    0    0  0.00000000000E+00  0.00000000000E+00  0.84957996485E+03  0.17418907082E+04  0.15206568064E+04 0.  0.
        4    1    3    3  502    0 -0.73439979524E+03 -0.19602356406E+03  0.40400104499E+03  0.86080587485E+03  0.12699999809E+01 0.  1.
       -4    1    3    3    0  502  0.73439979524E+03  0.19602356406E+03  0.44557891986E+03  0.88108483340E+03  0.12699999809E+01 0. -1.
</event>
<event>
 5   0  0.1443750E-04  0.1508077E+04  0.7818609E-02  0.8879099E-01
       -1   -1    0    0    0  501  0.00000000000E+00  0.00000000000E+00  0.95197763408E+03  0.95197763409E+03  0.50400001928E-02 0. -1.
        1   -1    0    0  501    0  0.00000000000E+00  0.00000000000E+00 -0.59725596547E+03  0.59725596550E+03  0.50400001928E-02 0.  1.
    10030    2    1    2    0    0  0.00000000000E+00  0.00000000000E+00  0.35472166861E+03  0.15492335996E+04  0.15080773468E+04 0.  0.
        2    1    3    3  502    0  0.34579981161E+03 -0.66977523822E+03  0.19785371079E+03  0.77930896975E+03  0.25500000920E-02 0. -1.
       -2    1    3    3    0  502 -0.34579981161E+03  0.66977523822E+03  0.15686795781E+03  0.76992462984E+03  0.25500000920E-02 0.  1.
</event>
<event>
 5   0  0.2696040E-04  0.1501411E+04  0.7818609E-02  0.8883515E-01
       -2   -1    0    0    0  501  0.00000000000E+00  0.00000000000E+00  0.66963888598E+03  0.66963888599E+03  0.25500000920E-02 0. -1.
        2   -1    0    0  501    0  0.00000000000E+00  0.00000000000E+00 -0.84158623593E+03  0.84158623593E+03  0.25500000920E-02 0.  1.
    10030    2    1    2    0    0  0.00000000000E+00  0.00000000000E+00 -0.17194734994E+03  0.15112251219E+04  0.15014111622E+04 0.  0.
        2    1    3    3  502    0 -0.11435577328E+03 -0.49191929151E+03 -0.64502930178E+03  0.81922196773E+03  0.25500000920E-02 0.  1.
       -2    1    3    3    0  502  0.11435577328E+03  0.49191929151E+03  0.47308195184E+03  0.69200315419E+03  0.25500000920E-02 0. -1.
</event>
<event>
 5   0  0.1484251E-04  0.1498858E+04  0.7818609E-02  0.8885213E-01
        1   -1    0    0  501    0  0.00000000000E+00  0.00000000000E+00  0.14234216158E+04  0.14234216158E+04  0.50400001928E-02 0. -1.
       -1   -1    0    0    0  501  0.00000000000E+00  0.00000000000E+00 -0.39457317133E+03  0.39457317137E+03  0.50400001928E-02 0.  1.
    10030    2    1    2    0    0  0.00000000000E+00  0.00000000000E+00  0.10288484445E+04  0.18179947872E+04  0.14988582070E+04 0.  0.
        5    1    3    3  502    0  0.52634167884E+03  0.10380610353E+03 -0.12025930785E+03  0.54981420601E+03  0.46999998093E+01 0.  1.
       -5    1    3    3    0  502 -0.52634167884E+03 -0.10380610353E+03  0.11491077523E+04  0.12681805812E+04  0.46999998093E+01 0. -1.
</event>
<event>
 5   0  0.1474203E-04  0.1503999E+04  0.7818609E-02  0.8881798E-01
       -1   -1    0    0    0  501  0.00000000000E+00  0.00000000000E+00  0.53229882093E+03  0.53229882096E+03  0.50400001928E-02 0.  1.
        1   -1    0    0  501    0  0.00000000000E+00  0.00000000000E+00 -0.10623787758E+04  0.10623787759E+04  0.50400001928E-02 0. -1.
    10030    2    1    2    0    0  0.00000000000E+00  0.00000000000E+00 -0.53007995492E+03  0.15946775968E+04  0.15039986300E+04 0.  0.
        3    1    3    3  502    0  0.54713343556E+03  0.45074378611E+03 -0.53112467156E+03  0.88578687276E+03  0.10100000352E+00 0. -1.
       -3    1    3    3    0  502 -0.54713343556E+03 -0.45074378611E+03  0.10447166407E+01  0.70889072406E+03  0.10100000352E+00 0.  1.
</event>
<event>
 5   0  0.2696040E-04  0.1482380E+04  0.7818609E-02  0.8896255E-01
        2   -1    0    0  501    0  0.00000000000E+00  0.00000000000E+00  0.55622620697E+03  0.55622620698E+03  0.25500000920E-02 0. -1.
       -2   -1    0    0    0  501  0.00000000000E+00  0.00000000000E+00 -0.98766043171E+03  0.98766043171E+03  0.25500000920E-02 0.  1.
    10030    2    1    2    0    0  0.00000000000E+00  0.00000000000E+00 -0.43143422473E+03  0.15438866387E+04  0.14823799995E+04 0.  0.
        2    1    3    3  502    0  0.14306041931E+03  0.63383113994E+02 -0.97026259709E+03  0.98279866200E+03  0.25500000920E-02 0.  1.
       -2    1    3    3    0  502 -0.14306041931E+03 -0.63383113994E+02  0.53882837236E+03  0.56108797669E+03  0.25500000920E-02 0. -1.
</event>
<event>
 5   0  0.1443750E-04  0.1496226E+04  0.7818609E-02  0.8886966E-01
        1   -1    0    0  501    0  0.00000000000E+00  0.00000000000E+00  0.10197561273E+04  0.10197561273E+04  0.50400001928E-02 0. -1.
       -1   -1    0    0    0  501  0.00000000000E+00  0.00000000000E+00 -0.54883055509E+03  0.54883055511E+03  0.50400001928E-02 0.  1.
    10030    2    1    2    0    0  0.00000000000E+00  0.00000000000E+00  0.47092557222E+03  0.15685866824E+04  0.14962263484E+04 0.  0.
        2    1    3    3  502    0 -0.34427917900E+03  0.39224669517E+03 -0.32645106837E+03  0.61559395953E+03  0.25500000920E-02 0.  1.
       -2    1    3    3    0  502  0.34427917900E+03 -0.39224669517E+03  0.79737664058E+03  0.95299272291E+03  0.25500000920E-02 0. -1.
</event>
<event>
 5   0  0.1484251E-04  0.1504740E+04  0.7818609E-02  0.8881307E-01
       -1   -1    0    0    0  501  0.00000000000E+00  0.00000000000E+00  0.88130147516E+03  0.88130147517E+03  0.50400001928E-02 0. -1.
        1   -1    0    0  501    0  0.00000000000E+00  0.00000000000E+00 -0.64230115482E+03  0.64230115484E+03  0.50400001928E-02 0.  1.
    10030    2    1    2    0    0  0.00000000000E+00  0.00000000000E+00  0.23900032034E+03  0.15236026300E+04  0.15047404497E+04 0.  0.
        5    1    3    3  502    0 -0.63359880367E+03 -0.40367961163E+03  0.16043204202E+03  0.76822210523E+03  0.46999998093E+01 0.  1.
       -5    1    3    3    0  502  0.63359880367E+03  0.40367961163E+03  0.78568278323E+02  0.75538052478E+03  0.46999998093E+01 0. -1.
</event>
<event>
 5   0  0.2618901E-04  0.1502606E+04  0.7818609E-02  0.8882722E-01
        2   -1    0    0  501    0  0.00000000000E+00  0.00000000000E+00  0.13015708386E+04  0.13015708386E+04  0.25500000920E-02 0.  1.
       -2   -1    0    0    0  501  0.00000000000E+00  0.00000000000E+00 -0.43367314857E+03  0.43367314858E+03  0.25500000920E-02 0. -1.
    10030    2    1    2    0    0  0.00000000000E+00  0.00000000000E+00  0.86789769004E+03  0.17352439872E+04  0.15026061675E+04 0.  0.
        1    1    3    3  502    0  0.25893643927E+03  0.69189191465E+03  0.59184241291E+03  0.94659386375E+03  0.50400001928E-02 0. -1.
       -1    1    3    3    0  502 -0.25893643927E+03 -0.69189191465E+03  0.27605527712E+03  0.78865012344E+03  0.50400001928E-02 0.  1.
</event>
<event>
 5   0  0.2696040E-04  0.1496531E+04  0.7818609E-02  0.8886763E-01
        2   -1    0    0  501    0  0.00000000000E+00  0.00000000000E+00  0.14096488174E+04  0.14096488174E+04  0.25500000920E-02 0. -1.
       -2   -1    0    0    0  501  0.00000000000E+00  0.00000000000E+00 -0.39719186697E+03  0.39719186698E+03  0.25500000920E-02 0.  1.
    10030    2    1    2    0    0  0.00000000000E+00  0.00000000000E+00  0.10124569504E+04  0.18068406844E+04  0.14965307155E+04 0.  0.
        2    1    3    3  502    0 -0.45167133146E+03  0.41638637161E+03 -0.95761412213E+01  0.61439100304E+03  0.25500000920E-02 0. -1.
       -2    1    3    3    0  502  0.45167133146E+03 -0.41638637161E+03  0.10220330917E+04  0.11924496814E+04  0.25500000920E-02 0.  1.
</event>
<event>
 5   0  0.2641347E-04  0.1506750E+04  0.7818609E-02  0.8879977E-01
        2   -1    0    0  501    0  0.00000000000E+00  0.00000000000E+00  0.64816867364E+03  0.64816867364E+03  0.25500000920E-02 0.  1.
       -2   -1    0    0    0  501  0.00000000000E+00  0.00000000000E+00 -0.87565715497E+03  0.87565715497E+03  0.25500000920E-02 0. -1.
    10030    2    1    2    0    0  0.00000000000E+00  0.00000000000E+00 -0.22748848133E+03  0.15238258286E+04  0.15067495302E+04 0.  0.
        4    1    3    3  502    0 -0.21632949622E+03 -0.21194077223E+02 -0.84325434801E+03  0.87081981385E+03  0.12699999809E+01 0. -1.
       -4    1    3    3    0  502  0.21632949622E+03  0.21194077223E+02  0.61576586669E+03  0.65300601476E+03  0.12699999809E+01 0.  1.
</event>
<event>
 5   0  0.2734072E-04  0.1502863E+04  0.7818609E-02  0.8882551E-01
       -2   -1    0    0    0  501  0.00000000000E+00  0.00000000000E+00  0.36533369157E+03  0.36533369158E+03  0.25500000920E-02 0.  1.
        2   -1    0    0  501    0  0.00000000000E+00  0.00000000000E+00 -0.15455721021E+04  0.15455721021E+04  0.25500000920E-02 0. -1.
    10030    2    1    2    0    0  0.00000000000E+00  0.00000000000E+00 -0.11802384105E+04  0.19109057936E+04  0.15028633493E+04 0.  0.
        5    1    3    3  502    0  0.58489598027E+03  0.79472913731E+01  0.95983069814E+01  0.58504759180E+03  0.46999998093E+01 0.  1.
       -5    1    3    3    0  502 -0.58489598027E+03 -0.79472913731E+01 -0.11898367175E+04  0.13258582018E+04  0.46999998093E+01 0. -1.
</event>
<event>
 5   0  0.2641347E-04  0.1502120E+04  0.7818609E-02  0.8883044E-01
       -2   -1    0    0    0  501  0.00000000000E+00  0.00000000000E+00  0.47361331795E+03  0.47361331796E+03  0.25500000920E-02 0.  1.
        2   -1    0    0  501    0  0.00000000000E+00  0.00000000000E+00 -0.11910379322E+04  0.11910379322E+04  0.25500000920E-02 0. -1.
    10030    2    1    2    0    0  0.00000000000E+00  0.00000000000E+00 -0.71742461422E+03  0.16646512501E+04  0.15021204038E+04 0.  0.
        4    1    3    3  502    0 -0.27082072500E+03  0.25550907768E+03  0.36413809155E+03  0.52079450504E+03  0.12699999809E+01 0.  1.
       -4    1    3    3    0  502  0.27082072500E+03 -0.25550907768E+03 -0.10815627058E+04  0.11438567451E+04  0.12699999809E+01 0. -1.
</event>
<event>
 5   0  0.2618901E-04  0.1498285E+04  0.7818609E-02  0.8885594E-01
        2   -1    0    0  501    0  0.00000000000E+00  0.00000000000E+00  0.18872662645E+04  0.18872662645E+04  0.25500000920E-02 0. -1.
       -2   -1    0    0    0  501  0.00000000000E+00  0.00000000000E+00 -0.29736907640E+03  0.29736907641E+03  0.25500000920E-02 0.  1.
    10030    2    1    2    0    0  0.00000000000E+00  0.00000000000E+00  0.15898971881E+04  0.21846353409E+04  0.14982851878E+04 0.  0.
        1    1    3    3  502    0  0.17366543241E+02 -0.30940607994E+03  0.17894271192E+04  0.18160625359E+04  0.50400001928E-02 0. -1.
       -1    1    3    3    0  502 -0.17366543241E+02  0.30940607994E+03 -0.19952993116E+03  0.36857280500E+03  0.50400001928E-02 0.  1.
</event>
<event>
 5   0  0.1443750E-04  0.1542747E+04  0.7818609E-02  0.8856514E-01
        1   -1    0    0  501    0  0.00000000000E+00  0.00000000000E+00  0.15178448909E+04  0.15178448909E+04  0.50400001928E-02 0. -1.
       -1   -1    0    0    0  501  0.00000000000E+00  0.00000000000E+00 -0.39201433182E+03  0.39201433185E+03  0.50400001928E-02 0.  1.
    10030    2    1    2    0    0  0.00000000000E+00  0.00000000000E+00  0.11258305591E+04  0.19098592228E+04  0.15427468370E+04 0.  0.
        2    1    3    3  502    0  0.29331319934E+03  0.12318494925E+03  0.14328497459E+04  0.14677416527E+04  0.25500000920E-02 0. -1.
       -2    1    3    3    0  502 -0.29331319934E+03 -0.12318494925E+03 -0.30701918687E+03  0.44211757004E+03  0.25500000920E-02 0.  1.
</event>
<event>
 5   0  0.2696040E-04  0.1500289E+04  0.7818609E-02  0.8884261E-01
        2   -1    0    0  501    0  0.00000000000E+00  0.00000000000E+00  0.71990602757E+03  0.71990602758E+03  0.25500000920E-02 0. -1.
       -2   -1    0    0    0  501  0.00000000000E+00  0.00000000000E+00 -0.78165270208E+03  0.78165270208E+03  0.25500000920E-02 0.  1.
    10030    2    1    2    0    0  0.00000000000E+00  0.00000000000E+00 -0.61746674504E+02  0.15015587297E+04  0.15002886278E+04 0.  0.
        2    1    3    3  502    0 -0.19952907722E+03  0.69134468637E+03 -0.24306027812E+03  0.75950485636E+03  0.25500000920E-02 0. -1.
       -2    1    3    3    0  502  0.19952907722E+03 -0.69134468637E+03  0.18131360362E+03  0.74205387330E+03  0.25500000920E-02 0.  1.
</event>
<event>
 5   0  0.2646718E-04  0.1496631E+04  0.7818609E-02  0.8886696E-01
       -2   -1    0    0    0  501  0.00000000000E+00  0.00000000000E+00  0.22208374262E+04  0.22208374262E+04  0.25500000920E-02 0. -1.
        2   -1    0    0  501    0  0.00000000000E+00  0.00000000000E+00 -0.25214633961E+03  0.25214633962E+03  0.25500000920E-02 0.  1.
    10030    2    1    2    0    0  0.00000000000E+00  0.00000000000E+00  0.19686910865E+04  0.24729837658E+04  0.14966309203E+04 0.  0.
        3    1    3    3  502    0  0.26937422827E+03 -0.53784327887E+03  0.24883211849E+03  0.65096489988E+03  0.10100000352E+00 0. -1.
       -3    1    3    3    0  502 -0.26937422827E+03  0.53784327887E+03  0.17198589681E+04  0.18220188659E+04  0.10100000352E+00 0.  1.
</event>
<event>
 5   0  0.2734072E-04  0.1503802E+04  0.7818609E-02  0.8881929E-01
       -2   -1    0    0    0  501  0.00000000000E+00  0.00000000000E+00  0.50727120250E+03  0.50727120251E+03  0.25500000920E-02 0. -1.
        2   -1    0    0  501    0  0.00000000000E+00  0.00000000000E+00 -0.11145021055E+04  0.11145021055E+04  0.25500000920E-02 0.  1.
    10030    2    1    2    0    0  0.00000000000E+00  0.00000000000E+00 -0.60723090304E+03  0.16217733081E+04  0.15038016136E+04 0.  0.
        5    1    3    3  502    0  0.23702384342E+03  0.42781302000E+03  0.31226149169E+03  0.58028752495E+03  0.46999998093E+01 0. -1.
       -5    1    3    3    0  502 -0.23702384342E+03 -0.42781302000E+03 -0.91949239473E+03  0.10414857831E+04  0.46999998093E+01 0.  1.
</event>
<event>
 5   0  0.2618901E-04  0.1499429E+04  0.7818609E-02  0.8884833E-01
        2   -1    0    0  501    0  0.00000000000E+00  0.00000000000E+00  0.15918686028E+04  0.15918686028E+04  0.25500000920E-02 0.  1.
       -2   -1    0    0    0  501  0.00000000000E+00  0.00000000000E+00 -0.35308942692E+03  0.35308942693E+03  0.25500000920E-02 0. -1.
    10030    2    1    2    0    0  0.00000000000E+00  0.00000000000E+00  0.12387791759E+04  0.19449580297E+04  0.14994291883E+04 0.  0.
        1    1    3    3  502    0  0.18546377127E+03  0.15446966402E+03 -0.30131331415E+03  0.38606657570E+03  0.50400001928E-02 0. -1.
       -1    1    3    3    0  502 -0.18546377127E+03 -0.15446966402E+03  0.15400924900E+04  0.15588914540E+04  0.50400001928E-02 0.  1.
</event>
<event>
 5   0  0.1426929E-04  0.1483431E+04  0.7818609E-02  0.8895547E-01
       -1   -1    0    0    0  501  0.00000000000E+00  0.00000000000E+00  0.54714723686E+03  0.54714723688E+03  0.50400001928E-02 0. -1.
        1   -1    0    0  501    0  0.00000000000E+00  0.00000000000E+00 -0.10054726119E+04  0.10054726119E+04  0.50400001928E-02 0.  1.
    10030    2    1    2    0    0  0.00000000000E+00  0.00000000000E+00 -0.45832537502E+03  0.15526198488E+04  0.14834305664E+04 0.  0.
        1    1    3    3  502    0  0.49163125200E+03  0.47945053163E+03  0.64209723488E+02  0.68970790110E+03  0.50400001928E-02 0.  1.
       -1    1    3    3    0  502 -0.49163125200E+03 -0.47945053163E+03 -0.52253509850E+03  0.86291194767E+03  0.50400001928E-02 0. -1.
</event>
<event>
 5   0  0.2696040E-04  0.1510999E+04  0.7818609E-02  0.8877171E-01
        2   -1    0    0  501    0  0.00000000000E+00  0.00000000000E+00  0.19970389429E+04  0.19970389429E+04  0.25500000920E-02 0.  1.
       -2   -1    0    0    0  501  0.00000000000E+00  0.00000000000E+00 -0.28581299364E+03  0.28581299365E+03  0.25500000920E-02 0. -1.
    10030    2    1    2    0    0  0.00000000000E+00  0.00000000000E+00  0.17112259492E+04  0.22828519365E+04  0.15109992438E+04 0.  0.
        2    1    3    3  502    0 -0.68455608961E+03 -0.66826876072E+02  0.38338285502E+03  0.78744224214E+03  0.25500000920E-02 0. -1.
       -2    1    3    3    0  502  0.68455608961E+03  0.66826876072E+02  0.13278430942E+04  0.14954096944E+04  0.25500000920E-02 0.  1.
</event>
<event>
 5   0  0.1474203E-04  0.1488975E+04  0.7818609E-02  0.8891818E-01
        1   -1    0    0  501    0  0.00000000000E+00  0.00000000000E+00  0.45305224532E+03  0.45305224535E+03  0.50400001928E-02 0.  1.
       -1   -1    0    0    0  501  0.00000000000E+00  0.00000000000E+00 -0.12233948809E+04  0.12233948809E+04  0.50400001928E-02 0. -1.
    10030    2    1    2    0    0  0.00000000000E+00  0.00000000000E+00 -0.77034263554E+03  0.16764471262E+04  0.14889752150E+04 0.  0.
        3    1    3    3  502    0  0.26220946801E+03 -0.55754670169E+03  0.85357537277E+02  0.62201129335E+03  0.10100000352E+00 0. -1.
       -3    1    3    3    0  502 -0.26220946801E+03  0.55754670169E+03 -0.85570017282E+03  0.10544358329E+04  0.10100000352E+00 0.  1.
</event>
<event>
 5   0  0.2734072E-04  0.1498895E+04  0.7818609E-02  0.8885188E-01
       -2   -1    0    0    0  501  0.00000000000E+00  0.00000000000E+00  0.33583221511E+03  0.33583221512E+03  0.25500000920E-02 0.  1.
        2   -1    0    0  501    0  0.00000000000E+00  0.00000000000E+00 -0.16724774751E+04  0.16724774751E+04  0.25500000920E-02 0. -1.
    10030    2    1    2    0    0  0.00000000000E+00  0.00000000000E+00 -0.13366452600E+04  0.20083096902E+04  0.14988953469E+04 0.  0.
        5    1    3    3  502    0  0.64275381275E+03  0.27401364624E+03 -0.10314068074E+04  0.12458081853E+04  0.46999998093E+01 0. -1.
       -5    1    3    3    0  502 -0.64275381275E+03 -0.27401364624E+03 -0.30523845260E+03  0.76250150497E+03  0.46999998093E+01 0.  1.
</event>
<event>
 5   0  0.1443750E-04  0.1500677E+04  0.7818609E-02  0.8884003E-01
       -1   -1    0    0    0  501  0.00000000000E+00  0.00000000000E+00  0.55749846827E+03  0.55749846829E+03  0.50400001928E-02 0. -1.
        1   -1    0    0  501    0  0.00000000000E+00  0.00000000000E+00 -0.10098826407E+04  0.10098826407E+04  0.50400001928E-02 0.  1.
    10030    2    1    2    0    0  0.00000000000E+00  0.00000000000E+00 -0.45238417246E+03  0.15673811090E+04  0.15006772143E+04 0.  0.
        2    1    3    3  502    0 -0.20918218013E+03 -0.39974866778E+02 -0.97765339536E+03  0.10005804995E+04  0.25500000920E-02 0.  1.
       -2    1    3    3    0  502  0.20918218013E+03  0.39974866778E+02  0.52526922291E+03  0.56680060956E+03  0.25500000920E-02 0. -1.
</event>
<event>
 5   0  0.2641347E-04  0.1503234E+04  0.7818609E-02  0.8882305E-01
       -2   -1    0    0    0  501  0.00000000000E+00  0.00000000000E+00  0.73773621905E+03  0.73773621906E+03  0.25500000920E-02 0. -1.
        2   -1    0    0  501    0  0.00000000000E+00  0.00000000000E+00 -0.76575856517E+03  0.76575856518E+03  0.25500000920E-02 0.  1.
    10030    2    1    2    0    0  0.00000000000E+00  0.00000000000E+00 -0.28022346118E+02  0.15034947842E+04  0.15032336193E+04 0.  0.
        4    1    3    3  502    0  0.66271767000E+03 -0.30790325901E+03  0.16188037260E+03  0.74846910088E+03  0.12699999809E+01 0. -1.
       -4    1    3    3    0  502 -0.66271767000E+03  0.30790325901E+03 -0.18990271872E+03  0.75502568335E+03  0.12699999809E+01 0.  1.
</event>
<event>
 5   0  0.1426929E-04  0.1500746E+04  0.7818609E-02  0.8883957E-01
        1   -1    0    0  501    0  0.00000000000E+00  0.00000000000E+00  0.23055918805E+04  0.23055918805E+04  0.50400001928E-02 0.  1.
       -1   -1    0    0    0  501  0.00000000000E+00  0.00000000000E+00 -0.24421486746E+03  0.24421486751E+03  0.50400001928E-02 0. -1.
    10030    2    1    2    0    0  0.00000000000E+00  0.00000000000E+00  0.20613770130E+04  0.25498067480E+04  0.15007462352E+04 0.  0.
        1    1    3    3  502    0 -0.27783672957E+03 -0.20497363620E+03  0.21626177445E+04  0.21900052394E+04  0.50400001928E-02 0.  1.
       -1    1    3    3    0  502  0.27783672957E+03  0.20497363620E+03 -0.10124073149E+03  0.35980150857E+03  0.50400001928E-02 0. -1.
</event>
<event>
 5   0  0.2618901E-04  0.1501644E+04  0.7818609E-02  0.8883360E-01
       -2   -1    0    0    0  501  0.00000000000E+00  0.00000000000E+00  0.49803292297E+03  0.49803292297E+03  0.25500000920E-02 0. -1.
        2   -1    0    0  501    0  0.00000000000E+00  0.00000000000E+00 -0.11319203736E+04  0.11319203736E+04  0.25500000920E-02 0.  1.
    10030    2    1    2    0    0  0.00000000000E+00  0.00000000000E+00 -0.63388745063E+03  0.16299532966E+04  0.15016439155E+04 0.  0.
        1    1    3    3  502    0 -0.64436088469E+03 -0.20594850681E+03  0.36648308697E+02  0.67746500702E+03  0.50400001928E-02 0.  1.
       -1    1    3    3    0  502  0.64436088469E+03  0.20594850681E+03 -0.67053575932E+03  0.95248828955E+03  0.50400001928E-02 0. -1.
</event>
<event>
 5   0  0.1427609E-04  0.1514193E+04  0.7818609E-02  0.8875069E-01
        1   -1    0    0  501    0  0.00000000000E+00  0.00000000000E+00  0.14164125337E+04  0.14164125337E+04  0.50400001928E-02 0.  1.
       -1   -1    0    0    0  501  0.00000000000E+00  0.00000000000E+00 -0.40468070650E+03  0.40468070653E+03  0.50400001928E-02 0. -1.
    10030    2    1    2    0    0  0.00000000000E+00  0.00000000000E+00  0.10117318272E+04  0.18210932403E+04  0.15141926230E+04 0.  0.
        4    1    3    3  502    0 -0.15261260993E+03  0.31331449585E+03 -0.30247341651E+03  0.46146328414E+03  0.12699999809E+01 0. -1.
       -4    1    3    3    0  502  0.15261260993E+03 -0.31331449585E+03  0.13142052437E+04  0.13596299561E+04  0.12699999809E+01 0.  1.
</event>
<event>
 5   0  0.1004313E-04  0.1461399E+04  0.7818609E-02  0.8910536E-01
        3   -1    0    0  501    0  0.00000000000E+00  0.00000000000E+00  0.80298207369E+03  0.80298208005E+03  0.10100000352E+00 0. -1.
       -3   -1    0    0    0  501  0.00000000000E+00  0.00000000000E+00 -0.66492384545E+03  0.66492385312E+03  0.10100000352E+00 0.  1.
    10030    2    1    2    0    0  0.00000000000E+00  0.00000000000E+00  0.13805822824E+03  0.14679059332E+04  0.14613992453E+04 0.  0.
        3    1    3    3  502    0  0.52549746650E+03 -0.12516516312E+02  0.57884947700E+03  0.78190215354E+03  0.10100000352E+00 0. -1.
       -3    1    3    3    0  502 -0.52549746650E+03  0.12516516312E+02 -0.44079124876E+03  0.68600377963E+03  0.10100000352E+00 0.  1.
</event>
<event>
 5   0  0.2646718E-04  0.1532109E+04  0.7818609E-02  0.8863377E-01
       -2   -1    0    0    0  501  0.00000000000E+00  0.00000000000E+00  0.51064189813E+03  0.51064189813E+03  0.25500000920E-02 0. -1.
        2   -1    0    0  501    0  0.00000000000E+00  0.00000000000E+00 -0.11492190980E+04  0.11492190980E+04  0.25500000920E-02 0.  1.
    10030    2    1    2    0    0  0.00000000000E+00  0.00000000000E+00 -0.63857719984E+03  0.16598609961E+04  0.15321089016E+04 0.  0.
        3    1    3    3  502    0  0.23733924586E+03  0.22355942751E+03  0.43171607894E+03  0.54100602424E+03  0.10100000352E+00 0. -1.
       -3    1    3    3    0  502 -0.23733924586E+03 -0.22355942751E+03 -0.10702932788E+04  0.11188549719E+04  0.10100000352E+00 0.  1.
</event>
<event>
 5   0  0.1474203E-04  0.1517625E+04  0.7818609E-02  0.8872816E-01
        1   -1    0    0  501    0  0.00000000000E+00  0.00000000000E+00  0.67837011977E+03  0.67837011979E+03  0.50400001928E-02 0. -1.
       -1   -1    0    0    0  501  0.00000000000E+00  0.00000000000E+00 -0.84879383749E+03  0.84879383750E+03  0.50400001928E-02 0.  1.
    10030    2    1    2    0    0  0.00000000000E+00  0.00000000000E+00 -0.17042371771E+03  0.15271639573E+04  0.15176249566E+04 0.  0.
        3    1    3    3  502    0  0.19187023034E+03  0.28243824464E+03 -0.76712217725E+03  0.83967969628E+03  0.10100000352E+00 0.  1.
       -3    1    3    3    0  502 -0.19187023034E+03 -0.28243824464E+03  0.59669845954E+03  0.68748426101E+03  0.10100000352E+00 0. -1.
</event>
<event>
 5   0  0.2618901E-04  0.1497544E+04  0.7818609E-02  0.8886088E-01
        2   -1    0    0  501    0  0.00000000000E+00  0.00000000000E+00  0.20661763744E+04  0.20661763744E+04  0.25500000920E-02 0. -1.
       -2   -1    0    0    0  501  0.00000000000E+00  0.00000000000E+00 -0.27135120204E+03  0.27135120206E+03  0.25500000920E-02 0.  1.
    10030    2    1    2    0    0  0.00000000000E+00  0.00000000000E+00  0.17948251724E+04  0.23375275765E+04  0.14975439130E+04 0.  0.
        1    1    3    3  502    0 -0.13332054596E+03  0.70241838380E+03  0.12446697483E+04  0.14353984590E+04  0.50400001928E-02 0.  1.
       -1    1    3    3    0  502  0.13332054596E+03 -0.70241838380E+03  0.55015542414E+03  0.90212911748E+03  0.50400001928E-02 0. -1.
</event>
<event>
 5   0  0.1427609E-04  0.1503336E+04  0.7818609E-02  0.8882238E-01
        1   -1    0    0  501    0  0.00000000000E+00  0.00000000000E+00  0.12035535569E+04  0.12035535569E+04  0.50400001928E-02 0. -1.
       -1   -1    0    0    0  501  0.00000000000E+00  0.00000000000E+00 -0.46944699174E+03  0.46944699177E+03  0.50400001928E-02 0.  1.
    10030    2    1    2    0    0  0.00000000000E+00  0.00000000000E+00  0.73410656512E+03  0.16730005486E+04  0.15033357532E+04 0.  0.
        4    1    3    3  502    0 -0.13125299408E+02 -0.11810014994E+03 -0.45892724308E+03  0.47406301928E+03  0.12699999809E+01 0.  1.
       -4    1    3    3    0  502  0.13125299408E+02  0.11810014994E+03  0.11930338082E+04  0.11989375294E+04  0.12699999809E+01 0. -1.
</event>
<event>
 5   0  0.2646718E-04  0.1483408E+04  0.7818609E-02  0.8895562E-01
        2   -1    0    0  501    0  0.00000000000E+00  0.00000000000E+00  0.17889793582E+04  0.17889793582E+04  0.25500000920E-02 0. -1.
       -2   -1    0    0    0  501  0.00000000000E+00  0.00000000000E+00 -0.30750767427E+03  0.30750767428E+03  0.25500000920E-02 0.  1.
    10030    2    1    2    0    0  0.00000000000E+00  0.00000000000E+00  0.14814716840E+04  0.20964870325E+04  0.14834080784E+04 0.  0.
        3    1    3    3  502    0  0.24908504446E+03 -0.47734040496E+03  0.19780671832E+02  0.53878428593E+03  0.10100000352E+00 0.  1.
       -3    1    3    3    0  502 -0.24908504446E+03  0.47734040496E+03  0.14616910121E+04  0.15577027466E+04  0.10100000352E+00 0. -1.
</event>
<event>
 5   0  0.1427609E-04  0.1501924E+04  0.7818609E-02  0.8883174E-01
        1   -1    0    0  501    0  0.00000000000E+00  0.00000000000E+00  0.10961210822E+04  0.10961210822E+04  0.50400001928E-02 0. -1.
       -1   -1    0    0    0  501  0.00000000000E+00  0.00000000000E+00 -0.51449072168E+03  0.51449072171E+03  0.50400001928E-02 0.  1.
    10030    2    1    2    0    0  0.00000000000E+00  0.00000000000E+00  0.58163036051E+03  0.16106118039E+04  0.15019242679E+04 0.  0.
        4    1    3    3  502    0  0.52362275576E+03  0.53829514327E+03  0.29054786254E+03  0.80520936715E+03  0.12699999809E+01 0. -1.
       -4    1    3    3    0  502 -0.52362275576E+03 -0.53829514327E+03  0.29108249797E+03  0.80540243676E+03  0.12699999809E+01 0.  1.
</event>
<event>
 5   0  0.1484251E-04  0.1493099E+04  0.7818609E-02  0.8889055E-01
        1   -1    0    0  501    0  0.00000000000E+00  0.00000000000E+00  0.13201794818E+04  0.13201794818E+04  0.50400001928E-02 0.  1.
       -1   -1    0    0    0  501  0.00000000000E+00  0.00000000000E+00 -0.42216689083E+03  0.42216689086E+03  0.50400001928E-02 0. -1.
    10030    2    1    2    0    0  0.00000000000E+00  0.00000000000E+00  0.89801259097E+03  0.17423463727E+04  0.14930988811E+04 0.  0.
        5    1    3    3  502    0  0.46297048997E+03 -0.57243341687E+03  0.30470104617E+03  0.79679765867E+03  0.46999998093E+01 0. -1.
       -5    1    3    3    0  502 -0.46297048997E+03  0.57243341687E+03  0.59331154480E+03  0.94554871399E+03  0.46999998093E+01 0.  1.
</event>
<event>
 5   0  0.1427609E-04  0.1517702E+04  0.7818609E-02  0.8872766E-01
       -1   -1    0    0    0  501  0.00000000000E+00  0.00000000000E+00  0.51631537351E+03  0.51631537354E+03  0.50400001928E-02 0. -1.
        1   -1    0    0  501    0  0.00000000000E+00  0.00000000000E+00 -0.11153158015E+04  0.11153158015E+04  0.50400001928E-02 0.  1.
    10030    2    1    2    0    0  0.00000000000E+00  0.00000000000E+00 -0.59900042795E+03  0.16316311750E+04  0.15177018082E+04 0.  0.
        4    1    3    3  502    0  0.13397205761E+03 -0.65965931667E+03  0.77163378684E+02  0.67753577485E+03  0.12699999809E+01 0. -1.
       -4    1    3    3    0  502 -0.13397205761E+03  0.65965931667E+03 -0.67616380663E+03  0.95409540016E+03  0.12699999809E+01 0.  1.
</event>
<event>
 5   0  0.1474203E-04  0.1496635E+04  0.7818609E-02  0.8886694E-01
       -1   -1    0    0    0  501  0.00000000000E+00  0.00000000000E+00  0.51876733056E+03  0.51876733059E+03  0.50400001928E-02 0. -1.
        1   -1    0    0  501    0  0.00000000000E+00  0.00000000000E+00 -0.10794409704E+04  0.10794409705E+04  0.50400001928E-02 0.  1.
    10030    2    1    2    0    0  0.00000000000E+00  0.00000000000E+00 -0.56067363989E+03  0.15982083010E+04  0.14966345055E+04 0.  0.
        3    1    3    3  502    0 -0.84315709774E+02 -0.74320011753E+03 -0.25591210622E+03  0.79053562217E+03  0.10100000352E+00 0.  1.
       -3    1    3    3    0  502  0.84315709774E+02  0.74320011753E+03 -0.30476153367E+03  0.80767267888E+03  0.10100000352E+00 0. -1.
</event>
<event>
 5   0  0.2696040E-04  0.1503523E+04  0.7818609E-02  0.8882114E-01
       -2   -1    0    0    0  501  0.00000000000E+00  0.00000000000E+00  0.48757117600E+03  0.48757117600E+03  0.25500000920E-02 0.  1.
        2   -1    0    0  501    0  0.00000000000E+00  0.00000000000E+00 -0.11591026043E+04  0.11591026043E+04  0.25500000920E-02 0. -1.
    10030    2    1    2    0    0  0.00000000000E+00  0.00000000000E+00 -0.67153142829E+03  0.16466737803E+04  0.15035225570E+04 0.  0.
        2    1    3    3  502    0 -0.68221923643E+03  0.20994570748E+02 -0.68085465894E+03  0.96406790485E+03  0.25500000920E-02 0. -1.
       -2    1    3    3    0  502  0.68221923643E+03 -0.20994570748E+02  0.93232306517E+01  0.68260587544E+03  0.25500000920E-02 0.  1.
</event>
<event>
 5   0  0.2641347E-04  0.1496540E+04  0.7818609E-02  0.8886757E-01
       -2   -1    0    0    0  501  0.00000000000E+00  0.00000000000E+00  0.31645636124E+03  0.31645636125E+03  0.25500000920E-02 0.  1.
        2   -1    0    0  501    0  0.00000000000E+00  0.00000000000E+00 -0.17693067011E+04  0.17693067011E+04  0.25500000920E-02 0. -1.
    10030    2    1    2    0    0  0.00000000000E+00  0.00000000000E+00 -0.14528503398E+04  0.20857630623E+04  0.14965404913E+04 0.  0.
        4    1    3    3  502    0  0.38062397753E+03  0.36975257345E+03  0.88416014203E+01  0.53072720361E+03  0.12699999809E+01 0.  1.
       -4    1    3    3    0  502 -0.38062397753E+03 -0.36975257345E+03 -0.14616919412E+04  0.15550358587E+04  0.12699999809E+01 0. -1.
</event>
<event>
 5   0  0.2646718E-04  0.1500871E+04  0.7818609E-02  0.8883874E-01
       -2   -1    0    0    0  501  0.00000000000E+00  0.00000000000E+00  0.51082387398E+03  0.51082387398E+03  0.25500000920E-02 0.  1.
        2   -1    0    0  501    0  0.00000000000E+00  0.00000000000E+00 -0.11024411930E+04  0.11024411930E+04  0.25500000920E-02 0. -1.
    10030    2    1    2    0    0  0.00000000000E+00  0.00000000000E+00 -0.59161731905E+03  0.16132650670E+04  0.15008707887E+04 0.  0.
        3    1    3    3  502    0  0.72785292250E+03  0.13121030712E+03 -0.15913636253E+03  0.75651200490E+03  0.10100000352E+00 0. -1.
       -3    1    3    3    0  502 -0.72785292250E+03 -0.13121030712E+03 -0.43248095652E+03  0.85675306211E+03  0.10100000352E+00 0.  1.
</event>
<event>
 5   0  0.2734072E-04  0.1495876E+04  0.7818609E-02  0.8887200E-01
       -2   -1    0    0    0  501  0.00000000000E+00  0.00000000000E+00  0.77279081989E+03  0.77279081990E+03  0.25500000920E-02 0. -1.
        2   -1    0    0  501    0  0.00000000000E+00  0.00000000000E+00 -0.72388456374E+03  0.72388456375E+03  0.25500000920E-02 0.  1.
    10030    2    1    2    0    0  0.00000000000E+00  0.00000000000E+00  0.48906256151E+02  0.14966753836E+04  0.14958761253E+04 0.  0.
        5    1    3    3  502    0  0.43157370974E+03 -0.60710802081E+03 -0.43060623272E+02  0.74613157228E+03  0.46999998093E+01 0.  1.
       -5    1    3    3    0  502 -0.43157370974E+03  0.60710802081E+03  0.91966879423E+02  0.75054381137E+03  0.46999998093E+01 0. -1.
</event>
<event>
 5   0  0.1427609E-04  0.1502390E+04  0.7818609E-02  0.8882865E-01
       -1   -1    0    0    0  501  0.00000000000E+00  0.00000000000E+00  0.36978132983E+03  0.36978132986E+03  0.50400001928E-02 0. -1.
        1   -1    0    0  501    0  0.00000000000E+00  0.00000000000E+00 -0.15260198337E+04  0.15260198337E+04  0.50400001928E-02 0.  1.
    10030    2    1    2    0    0  0.00000000000E+00  0.00000000000E+00 -0.11562385039E+04  0.18958011636E+04  0.15023896212E+04 0.  0.
        4    1    3    3  502    0  0.54133216988E+03  0.33744164456E+03 -0.77518617590E+02  0.64258706072E+03  0.12699999809E+01 0. -1.
       -4    1    3    3    0  502 -0.54133216988E+03 -0.33744164456E+03 -0.10787198863E+04  0.12532141029E+04  0.12699999809E+01 0.  1.
</event>
<event>
 5   0  0.1426929E-04  0.1494551E+04  0.7818609E-02  0.8888084E-01
       -1   -1    0    0    0  501  0.00000000000E+00  0.00000000000E+00  0.86542283563E+03  0.86542283564E+03  0.50400001928E-02 0. -1.
        1   -1    0    0  501    0  0.00000000000E+00  0.00000000000E+00 -0.64525802333E+03  0.64525802335E+03  0.50400001928E-02 0.  1.
    10030    2    1    2    0    0  0.00000000000E+00  0.00000000000E+00  0.22016481230E+03  0.15106808590E+04  0.14945514756E+04 0.  0.
        1    1    3    3  502    0 -0.65261345841E+03 -0.15019338476E+03 -0.22509639801E+03  0.70649187352E+03  0.50400001928E-02 0. -1.
       -1    1    3    3    0  502  0.65261345841E+03  0.15019338476E+03  0.44526121031E+03  0.80418898547E+03  0.50400001928E-02 0.  1.
</event>
<event>
 5   0  0.2646718E-04  0.1495975E+04  0.7818609E-02  0.8887134E-01
       -2   -1    0    0    0  501  0.00000000000E+00  0.00000000000E+00  0.34003034085E+03  0.34003034085E+03  0.25500000920E-02 0.  1.
        2   -1    0    0  501    0  0.00000000000E+00  0.00000000000E+00 -0.16453986598E+04  0.16453986598E+04  0.25500000920E-02 0. -1.
    10030    2    1    2    0    0  0.00000000000E+00  0.00000000000E+00 -0.13053683189E+04  0.19854290006E+04  0.14959752232E+04 0.  0.
        3    1    3    3  502    0  0.18394485283E+03 -0.71974203235E+03 -0.53682233715E+03  0.91653834284E+03  0.10100000352E+00 0. -1.
       -3    1    3    3    0  502 -0.18394485283E+03  0.71974203235E+03 -0.76854598178E+03  0.10688906578E+04  0.10100000352E+00 0.  1.
</event>
<event>
 5   0  0.2618901E-04  0.1500855E+04  0.7818609E-02  0.8883884E-01
        2   -1    0    0  501    0  0.00000000000E+00  0.00000000000E+00  0.88918922140E+03  0.88918922141E+03  0.25500000920E-02 0. -1.
       -2   -1    0    0    0  501  0.00000000000E+00  0.00000000000E+00 -0.63332040134E+03  0.63332040135E+03  0.25500000920E-02 0.  1.
    10030    2    1    2    0    0  0.00000000000E+00  0.00000000000E+00  0.25586882006E+03  0.15225096228E+04  0.15008553222E+04 0.  0.
        1    1    3    3  502    0  0.39829657162E+03 -0.13215991738E+03 -0.50316313290E+03  0.65519427735E+03  0.50400001928E-02 0.  1.
       -1    1    3    3    0  502 -0.39829657162E+03  0.13215991738E+03  0.75903195296E+03  0.86731534540E+03  0.50400001928E-02 0. -1.
</event>
<event>
 5   0  0.1004313E-04  0.1501389E+04  0.7818609E-02  0.8883530E-01
        3   -1    0    0  501    0  0.00000000000E+00  0.00000000000E+00  0.55491428521E+03  0.55491429440E+03  0.10100000352E+00 0. -1.
       -3   -1    0    0    0  501  0.00000000000E+00  0.00000000000E+00 -0.10155487785E+04  0.10155487835E+04  0.10100000352E+00 0.  1.
    10030    2    1    2    0    0  0.00000000000E+00  0.00000000000E+00 -0.46063449328E+03  0.15704630779E+04  0.15013894041E+04 0.  0.
        3    1    3    3  502    0  0.23665416965E+03  0.42819563613E+03 -0.82588530254E+03  0.95991835172E+03  0.10100000352E+00 0.  1.
       -3    1    3    3    0  502 -0.23665416965E+03 -0.42819563613E+03  0.36525080926E+03  0.61054472620E+03  0.10100000352E+00 0. -1.
</event>
<event>
 5   0  0.2646718E-04  0.1497949E+04  0.7818609E-02  0.8885818E-01
        2   -1    0    0  501    0  0.00000000000E+00  0.00000000000E+00  0.75681507447E+03  0.75681507447E+03  0.25500000920E-02 0.  1.
       -2   -1    0    0    0  501  0.00000000000E+00  0.00000000000E+00 -0.74121562986E+03  0.74121562987E+03  0.25500000920E-02 0. -1.
    10030    2    1    2    0    0  0.00000000000E+00  0.00000000000E+00  0.15599444610E+02  0.14980307043E+04  0.14979494813E+04 0.  0.
        3    1    3    3  502    0  0.45790699639E+03  0.11319903346E+03  0.58961328353E+03  0.75507395190E+03  0.10100000352E+00 0.  1.
       -3    1    3    3    0  502 -0.45790699639E+03 -0.11319903346E+03 -0.57401383892E+03  0.74295675244E+03  0.10100000352E+00 0. -1.
</event>
<event>
 5   0  0.1474203E-04  0.1498667E+04  0.7818609E-02  0.8885340E-01
       -1   -1    0    0    0  501  0.00000000000E+00  0.00000000000E+00  0.81283898573E+03  0.81283898575E+03  0.50400001928E-02 0. -1.
        1   -1    0    0  501    0  0.00000000000E+00  0.00000000000E+00 -0.69078927071E+03  0.69078927073E+03  0.50400001928E-02 0.  1.
    10030    2    1    2    0    0  0.00000000000E+00  0.00000000000E+00  0.12204971502E+03  0.15036282565E+04  0.14986666743E+04 0.  0.
        3    1    3    3  502    0 -0.28986890650E+02 -0.69413310424E+03 -0.22068832936E+03  0.72894742962E+03  0.10100000352E+00 0.  1.
       -3    1    3    3    0  502  0.28986890650E+02  0.69413310424E+03  0.34273804438E+03  0.77468082686E+03  0.10100000352E+00 0. -1.
</event>
<event>
 5   0  0.1004313E-04  0.1500237E+04  0.7818609E-02  0.8884295E-01
        3   -1    0    0  501    0  0.00000000000E+00  0.00000000000E+00  0.56341827147E+03  0.56341828052E+03  0.10100000352E+00 0.  1.
       -3   -1    0    0    0  501  0.00000000000E+00  0.00000000000E+00 -0.99868619302E+03  0.99868619812E+03  0.10100000352E+00 0. -1.
    10030    2    1    2    0    0  0.00000000000E+00  0.00000000000E+00 -0.43526792155E+03  0.15621044786E+04  0.15002373941E+04 0.  0.
        5    1    3    3  502    0  0.57814028962E+03 -0.33562745709E+03  0.13663803660E+03  0.68233718020E+03  0.46999998093E+01 0.  1.
       -5    1    3    3    0  502 -0.57814028962E+03  0.33562745709E+03 -0.57190595816E+03  0.87976729844E+03  0.46999998093E+01 0. -1.
</event>
<event>
 5   0  0.2696040E-04  0.1499883E+04  0.7818609E-02  0.8884531E-01
       -2   -1    0    0    0  501  0.00000000000E+00  0.00000000000E+00  0.39679114817E+03  0.39679114818E+03  0.25500000920E-02 0. -1.
        2   -1    0    0  501    0  0.00000000000E+00  0.00000000000E+00 -0.14174011327E+04  0.14174011327E+04  0.25500000920E-02 0.  1.
    10030    2    1    2    0    0  0.00000000000E+00  0.00000000000E+00 -0.10206099845E+04  0.18141922809E+04  0.14998829593E+04 0.  0.
        2    1    3    3  502    0  0.47784589002E+03 -0.50288941444E+03 -0.85492817506E+03  0.11009707727E+04  0.25500000920E-02 0.  1.
       -2    1    3    3    0  502 -0.47784589002E+03  0.50288941444E+03 -0.16568180946E+03  0.71322150820E+03  0.25500000920E-02 0. -1.
</event>
<event>
 5   0  0.1426929E-04  0.1496898E+04  0.7818609E-02  0.8886518E-01
       -1   -1    0    0    0  501  0.00000000000E+00  0.00000000000E+00  0.64236888377E+03  0.64236888379E+03  0.50400001928E-02 0. -1.
        1   -1    0    0  501    0  0.00000000000E+00  0.00000000000E+00 -0.87204713218E+03  0.87204713219E+03  0.50400001928E-02 0.  1.
    10030    2    1    2    0    0  0.00000000000E+00  0.00000000000E+00 -0.22967824841E+03  0.15144160160E+04  0.14968980499E+04 0.  0.
        1    1    3    3  502    0  0.24677923332E+03 -0.71057844942E+02 -0.82607898607E+03  0.86507554501E+03  0.50400001928E-02 0.  1.
       -1    1    3    3    0  502 -0.24677923332E+03  0.71057844942E+02  0.59640073766E+03  0.64934047097E+03  0.50400001928E-02 0. -1.
</event>
<event>
 5   0  0.2646718E-04  0.1502541E+04  0.7818609E-02  0.8882765E-01
        2   -1    0    0  501    0  0.00000000000E+00  0.00000000000E+00  0.24011782695E+04  0.24011782695E+04  0.25500000920E-02 0. -1.
       -2   -1    0    0    0  501  0.00000000000E+00  0.00000000000E+00 -0.23505432313E+03  0.23505432314E+03  0.25500000920E-02 0.  1.
    10030    2    1    2    0    0  0.00000000000E+00  0.00000000000E+00  0.21661239464E+04  0.26362325927E+04  0.15025409583E+04 0.  0.
        3    1    3    3  502    0  0.68889613391E+03  0.11274091426E+03  0.15702963147E+04  0.17184641175E+04  0.10100000352E+00 0. -1.
       -3    1    3    3    0  502 -0.68889613391E+03 -0.11274091426E+03  0.59582763171E+03  0.91776847515E+03  0.10100000352E+00 0.  1.
</event>
<event>
 5   0  0.2696040E-04  0.1498602E+04  0.7818609E-02  0.8885383E-01
        2   -1    0    0  501    0  0.00000000000E+00  0.00000000000E+00  0.11004399563E+04  0.11004399563E+04  0.25500000920E-02 0.  1.
       -2   -1    0    0    0  501  0.00000000000E+00  0.00000000000E+00 -0.51020676495E+03  0.51020676496E+03  0.25500000920E-02 0. -1.
    10030    2    1    2    0    0  0.00000000000E+00  0.00000000000E+00  0.59023319137E+03  0.16106467213E+04  0.14986018953E+04 0.  0.
        2    1    3    3  502    0  0.44561725838E+03 -0.23468504819E+03  0.89139405423E+03  0.10238335669E+04  0.25500000920E-02 0.  1.
       -2    1    3    3    0  502 -0.44561725838E+03  0.23468504819E+03 -0.30116086287E+03  0.58681315437E+03  0.25500000920E-02 0. -1.
</event>
<event>
 5   0  0.1426929E-04  0.1498486E+04  0.7818609E-02  0.8885460E-01
       -1   -1    0    0    0  501  0.00000000000E+00  0.00000000000E+00  0.64889823579E+03  0.64889823581E+03  0.50400001928E-02 0. -1.
        1   -1    0    0  501    0  0.00000000000E+00  0.00000000000E+00 -0.86510526333E+03  0.86510526334E+03  0.50400001928E-02 0.  1.
    10030    2    1    2    0    0  0.00000000000E+00  0.00000000000E+00 -0.21620702754E+03  0.15140034992E+04  0.14984862751E+04 0.  0.
        1    1    3    3  502    0 -0.46212096921E+03  0.58874802173E+03 -0.14288756533E+03  0.76196908050E+03  0.50400001928E-02 0. -1.
       -1    1    3    3    0  502  0.46212096921E+03 -0.58874802173E+03 -0.73319462202E+02  0.75203441866E+03  0.50400001928E-02 0.  1.
</event>
<event>
 5   0  0.2734072E-04  0.1498326E+04  0.7818609E-02  0.8885567E-01
       -2   -1    0    0    0  501  0.00000000000E+00  0.00000000000E+00  0.78690544022E+03  0.78690544023E+03  0.25500000920E-02 0.  1.
        2   -1    0    0  501    0  0.00000000000E+00  0.00000000000E+00 -0.71323115160E+03  0.71323115161E+03  0.25500000920E-02 0. -1.
    10030    2    1    2    0    0  0.00000000000E+00  0.00000000000E+00  0.73674288622E+02  0.15001365918E+04  0.14983263641E+04 0.  0.
        5    1    3    3  502    0 -0.10417020340E+03  0.31744977568E+03  0.70816763353E+03  0.78303849109E+03  0.46999998093E+01 0.  1.
       -5    1    3    3    0  502  0.10417020340E+03 -0.31744977568E+03 -0.63449334491E+03  0.71709810074E+03  0.46999998093E+01 0. -1.
</event>
<event>
 5   0  0.2696040E-04  0.1503413E+04  0.7818609E-02  0.8882187E-01
       -2   -1    0    0    0  501  0.00000000000E+00  0.00000000000E+00  0.48124419813E+03  0.48124419814E+03  0.25500000920E-02 0. -1.
        2   -1    0    0  501    0  0.00000000000E+00  0.00000000000E+00 -0.11741701644E+04  0.11741701645E+04  0.25500000920E-02 0.  1.
    10030    2    1    2    0    0  0.00000000000E+00  0.00000000000E+00 -0.69292596632E+03  0.16554143626E+04  0.15034128898E+04 0.  0.
        2    1    3    3  502    0  0.44710438330E+03 -0.52552074219E+03 -0.17993778686E+02  0.69021602134E+03  0.25500000920E-02 0.  1.
       -2    1    3    3    0  502 -0.44710438330E+03  0.52552074219E+03 -0.67493218763E+03  0.96519834125E+03  0.25500000920E-02 0. -1.
</event>
<event>
 5   0  0.2734072E-04  0.1486378E+04  0.7818609E-02  0.8893562E-01
       -2   -1    0    0    0  501  0.00000000000E+00  0.00000000000E+00  0.49670757469E+03  0.49670757470E+03  0.25500000920E-02 0.  1.
        2   -1    0    0  501    0  0.00000000000E+00  0.00000000000E+00 -0.11119822654E+04  0.11119822654E+04  0.25500000920E-02 0. -1.
    10030    2    1    2    0    0  0.00000000000E+00  0.00000000000E+00 -0.61527469074E+03  0.16086898401E+04  0.14863781675E+04 0.  0.
        5    1    3    3  502    0  0.12210010593E+03 -0.72458208496E+03 -0.18721462923E+03  0.75828691213E+03  0.46999998093E+01 0.  1.
       -5    1    3    3    0  502 -0.12210010593E+03  0.72458208496E+03 -0.42806006151E+03  0.85040292801E+03  0.46999998093E+01 0. -1.
</event>
<event>
 5   0  0.1426929E-04  0.1500182E+04  0.7818609E-02  0.8884332E-01
       -1   -1    0    0    0  501  0.00000000000E+00  0.00000000000E+00  0.25069152334E+03  0.25069152339E+03  0.50400001928E-02 0. -1.
        1   -1    0    0  501    0  0.00000000000E+00  0.00000000000E+00 -0.22443373291E+04  0.22443373291E+04  0.50400001928E-02 0.  1.
    10030    2    1    2    0    0  0.00000000000E+00  0.00000000000E+00 -0.19936458058E+04  0.24950288525E+04  0.15001817810E+04 0.  0.
        1    1    3    3  502    0  0.68498745954E+03 -0.25556923374E+03 -0.71796404785E+03  0.10246930404E+04  0.50400001928E-02 0. -1.
       -1    1    3    3    0  502 -0.68498745954E+03  0.25556923374E+03 -0.12756817580E+04  0.14703358122E+04  0.50400001928E-02 0.  1.
</event>
<event>
 5   0  0.2641347E-04  0.1505690E+04  0.7818609E-02  0.8880678E-01
       -2   -1    0    0    0  501  0.00000000000E+00  0.00000000000E+00  0.68152951555E+03  0.68152951556E+03  0.25500000920E-02 0. -1.
        2   -1    0    0  501    0  0.00000000000E+00  0.00000000000E+00 -0.83162254719E+03  0.83162254719E+03  0.25500000920E-02 0.  1.
    10030    2    1    2    0    0  0.00000000000E+00  0.00000000000E+00 -0.15009303164E+03  0.15131520628E+04  0.15056896250E+04 0.  0.
        4    1    3    3  502    0  0.59962237919E+03  0.24892356153E+03 -0.45807031482E+03  0.79456904252E+03  0.12699999809E+01 0.  1.
       -4    1    3    3    0  502 -0.59962237919E+03 -0.24892356153E+03  0.30797728319E+03  0.71858302023E+03  0.12699999809E+01 0. -1.
</event>
<event>
 5   0  0.2646718E-04  0.1495012E+04  0.7818609E-02  0.8887777E-01
       -2   -1    0    0    0  501  0.00000000000E+00  0.00000000000E+00  0.48226990304E+03  0.48226990305E+03  0.25500000920E-02 0. -1.
        2   -1    0    0  501    0  0.00000000000E+00  0.00000000000E+00 -0.11586148482E+04  0.11586148482E+04  0.25500000920E-02 0.  1.
    10030    2    1    2    0    0  0.00000000000E+00  0.00000000000E+00 -0.67634494521E+03  0.16408847513E+04  0.14950118000E+04 0.  0.
        3    1    3    3  502    0  0.17017816761E+03 -0.61527204802E+03  0.88675895167E+02  0.64450269696E+03  0.10100000352E+00 0. -1.
       -3    1    3    3    0  502 -0.17017816761E+03  0.61527204802E+03 -0.76502084037E+03  0.99638205434E+03  0.10100000352E+00 0.  1.
</event>
<event>
 5   0  0.2734072E-04  0.1505824E+04  0.7818609E-02  0.8880589E-01
        2   -1    0    0  501    0  0.00000000000E+00  0.00000000000E+00  0.16254815036E+04  0.16254815036E+04  0.25500000920E-02 0.  1.
       -2   -1    0    0    0  501  0.00000000000E+00  0.00000000000E+00 -0.34874385362E+03  0.34874385363E+03  0.25500000920E-02 0. -1.
    10030    2    1    2    0    0  0.00000000000E+00  0.00000000000E+00  0.12767376500E+04  0.19742253572E+04  0.15058242707E+04 0.  0.
        5    1    3    3  502    0 -0.71255362810E+03 -0.21123849730E+03  0.79624249221E+03  0.10892100679E+04  0.46999998093E+01 0.  1.
       -5    1    3    3    0  502  0.71255362810E+03  0.21123849730E+03  0.48049515776E+03  0.88501528930E+03  0.46999998093E+01 0. -1.
</event>
<event>
 5   0  0.2646718E-04  0.1497154E+04  0.7818609E-02  0.8886347E-01
       -2   -1    0    0    0  501  0.00000000000E+00  0.00000000000E+00  0.30953292476E+03  0.30953292477E+03  0.25500000920E-02 0.  1.
        2   -1    0    0  501    0  0.00000000000E+00  0.00000000000E+00 -0.18103659942E+04  0.18103659942E+04  0.25500000920E-02 0. -1.
    10030    2    1    2    0    0  0.00000000000E+00  0.00000000000E+00 -0.15008330694E+04  0.21198989190E+04  0.14971544758E+04 0.  0.
        3    1    3    3  502    0 -0.11656198305E+03 -0.12220022637E+03 -0.17830410226E+04  0.17910206280E+04  0.10100000352E+00 0. -1.
       -3    1    3    3    0  502  0.11656198305E+03  0.12220022637E+03  0.28220795322E+03  0.32887829098E+03  0.10100000352E+00 0.  1.
</event>
<event>
 5   0  0.1474203E-04  0.1501213E+04  0.7818609E-02  0.8883647E-01
        1   -1    0    0  501    0  0.00000000000E+00  0.00000000000E+00  0.70704438021E+03  0.70704438022E+03  0.50400001928E-02 0. -1.
       -1   -1    0    0    0  501  0.00000000000E+00  0.00000000000E+00 -0.79685244486E+03  0.79685244487E+03  0.50400001928E-02 0.  1.
    10030    2    1    2    0    0  0.00000000000E+00  0.00000000000E+00 -0.89808064649E+02  0.15038968251E+04  0.15012129003E+04 0.  0.
        3    1    3    3  502    0  0.24669319782E+03  0.70886376846E+03 -0.52959349251E+02  0.75242945115E+03  0.10100000352E+00 0. -1.
       -3    1    3    3    0  502 -0.24669319782E+03 -0.70886376846E+03 -0.36848715398E+02  0.75146737395E+03  0.10100000352E+00 0.  1.
</event>
<event>
 5   0  0.1474203E-04  0.1461896E+04  0.7818609E-02  0.8910194E-01
       -1   -1    0    0    0  501  0.00000000000E+00  0.00000000000E+00  0.43925266667E+03  0.43925266670E+03  0.50400001928E-02 0. -1.
        1   -1    0    0  501    0  0.00000000000E+00  0.00000000000E+00 -0.12163502852E+04  0.12163502852E+04  0.50400001928E-02 0.  1.
    10030    2    1    2    0    0  0.00000000000E+00  0.00000000000E+00 -0.77709761851E+03  0.16556029519E+04  0.14618961747E+04 0.  0.
        3    1    3    3  502    0 -0.44142344789E+03  0.41377824315E+03  0.75940686130E+02  0.60978200438E+03  0.10100000352E+00 0. -1.
       -3    1    3    3    0  502  0.44142344789E+03 -0.41377824315E+03 -0.85303830464E+03  0.10458209475E+04  0.10100000352E+00 0.  1.
</event>
<event>
 5   0  0.2641347E-04  0.1489849E+04  0.7818609E-02  0.8891231E-01
        2   -1    0    0  501    0  0.00000000000E+00  0.00000000000E+00  0.14718079227E+04  0.14718079227E+04  0.25500000920E-02 0.  1.
       -2   -1    0    0    0  501  0.00000000000E+00  0.00000000000E+00 -0.37702775585E+03  0.37702775585E+03  0.25500000920E-02 0. -1.
    10030    2    1    2    0    0  0.00000000000E+00  0.00000000000E+00  0.10947801669E+04  0.18488356786E+04  0.14898489026E+04 0.  0.
        4    1    3    3  502    0  0.33749633578E+02 -0.71750967485E+03  0.79230714481E+03  0.10694444333E+04  0.12699999809E+01 0. -1.
       -4    1    3    3    0  502 -0.33749633578E+02  0.71750967485E+03  0.30247302209E+03  0.77939124531E+03  0.12699999809E+01 0.  1.
</event>
<event>
 5   0  0.1484251E-04  0.1531082E+04  0.7818609E-02  0.8864043E-01
       -1   -1    0    0    0  501  0.00000000000E+00  0.00000000000E+00  0.92925119162E+03  0.92925119163E+03  0.50400001928E-02 0.  1.
        1   -1    0    0  501    0  0.00000000000E+00  0.00000000000E+00 -0.63067260184E+03  0.63067260186E+03  0.50400001928E-02 0. -1.
    10030    2    1    2    0    0  0.00000000000E+00  0.00000000000E+00  0.29857858978E+03  0.15599237935E+04  0.15310823189E+04 0.  0.
        5    1    3    3  502    0 -0.23165821657E+03 -0.66848407479E+03 -0.14861338509E+03  0.72294157149E+03  0.46999998093E+01 0. -1.
       -5    1    3    3    0  502  0.23165821657E+03  0.66848407479E+03  0.44719197487E+03  0.83698222200E+03  0.46999998093E+01 0.  1.
</event>
<event>
 5   0  0.1004313E-04  0.1507367E+04  0.7818609E-02  0.8879569E-01
       -3   -1    0    0    0  501  0.00000000000E+00  0.00000000000E+00  0.53071842647E+03  0.53071843608E+03  0.10100000352E+00 0.  1.
        3   -1    0    0  501    0  0.00000000000E+00  0.00000000000E+00 -0.10703208895E+04  0.10703208943E+04  0.10100000352E+00 0. -1.
    10030    2    1    2    0    0  0.00000000000E+00  0.00000000000E+00 -0.53960246303E+03  0.16010393303E+04  0.15073672808E+04 0.  0.
        1    1    3    3  502    0  0.54486902463E+03  0.52072509588E+03 -0.26824371655E+03  0.79999473184E+03  0.50400001928E-02 0. -1.
       -1    1    3    3    0  502 -0.54486902463E+03 -0.52072509588E+03 -0.27135874648E+03  0.80104459850E+03  0.50400001928E-02 0.  1.
</event>
<event>
 5   0  0.1474203E-04  0.1500322E+04  0.7818609E-02  0.8884239E-01
       -1   -1    0    0    0  501  0.00000000000E+00  0.00000000000E+00  0.48242697802E+03  0.48242697804E+03  0.50400001928E-02 0. -1.
        1   -1    0    0  501    0  0.00000000000E+00  0.00000000000E+00 -0.11664799553E+04  0.11664799553E+04  0.50400001928E-02 0.  1.
    10030    2    1    2    0    0  0.00000000000E+00  0.00000000000E+00 -0.68405297728E+03  0.16489069333E+04  0.15003218318E+04 0.  0.
        3    1    3    3  502    0 -0.71440727854E+03 -0.11396800962E+03 -0.56010936798E+03  0.91492566974E+03  0.10100000352E+00 0.  1.
       -3    1    3    3    0  502  0.71440727854E+03  0.11396800962E+03 -0.12394360930E+03  0.73398126361E+03  0.10100000352E+00 0. -1.
</event>
<event>
 5   0  0.1004313E-04  0.1506865E+04  0.7818609E-02  0.8879901E-01
        3   -1    0    0  501    0  0.00000000000E+00  0.00000000000E+00  0.70456687793E+03  0.70456688517E+03  0.10100000352E+00 0. -1.
       -3   -1    0    0    0  501  0.00000000000E+00  0.00000000000E+00 -0.80568724450E+03  0.80568725083E+03  0.10100000352E+00 0.  1.
    10030    2    1    2    0    0  0.00000000000E+00  0.00000000000E+00 -0.10112036658E+03  0.15102541360E+04  0.15068650327E+04 0.  0.
        2    1    3    3  502    0 -0.52656940027E+02 -0.53919463407E+03  0.47421744041E+03  0.71999013017E+03  0.25500000920E-02 0. -1.
       -2    1    3    3    0  502  0.52656940027E+02  0.53919463407E+03 -0.57533780699E+03  0.79026400583E+03  0.25500000920E-02 0.  1.
</event>
<event>
 5   0  0.1474203E-04  0.1503877E+04  0.7818609E-02  0.8881879E-01
       -1   -1    0    0    0  501  0.00000000000E+00  0.00000000000E+00  0.46888662208E+03  0.46888662211E+03  0.50400001928E-02 0. -1.
        1   -1    0    0  501    0  0.00000000000E+00  0.00000000000E+00 -0.12058590613E+04  0.12058590613E+04  0.50400001928E-02 0.  1.
    10030    2    1    2    0    0  0.00000000000E+00  0.00000000000E+00 -0.73697243925E+03  0.16747456835E+04  0.15038765668E+04 0.  0.
        3    1    3    3  502    0  0.36471516282E+03  0.30500101616E+03  0.28025631991E+03  0.55189345430E+03  0.10100000352E+00 0. -1.
       -3    1    3    3    0  502 -0.36471516282E+03 -0.30500101616E+03 -0.10172287592E+04  0.11228522292E+04  0.10100000352E+00 0.  1.
</event>
<event>
 5   0  0.2618901E-04  0.1503621E+04  0.7818609E-02  0.8882048E-01
       -2   -1    0    0    0  501  0.00000000000E+00  0.00000000000E+00  0.61566597752E+03  0.61566597752E+03  0.25500000920E-02 0.  1.
        2   -1    0    0  501    0  0.00000000000E+00  0.00000000000E+00 -0.91806147537E+03  0.91806147538E+03  0.25500000920E-02 0. -1.
    10030    2    1    2    0    0  0.00000000000E+00  0.00000000000E+00 -0.30239549786E+03  0.15337274529E+04  0.15036212497E+04 0.  0.
        1    1    3    3  502    0  0.49516455603E+03 -0.56570728583E+03 -0.14858823473E+03  0.76634922477E+03  0.50400001928E-02 0. -1.
       -1    1    3    3    0  502 -0.49516455603E+03  0.56570728583E+03 -0.15380726313E+03  0.76737822813E+03  0.50400001928E-02 0.  1.
</event>
<event>
 5   0  0.1443750E-04  0.1498046E+04  0.7818609E-02  0.8885754E-01
        1   -1    0    0  501    0  0.00000000000E+00  0.00000000000E+00  0.21012562336E+04  0.21012562336E+04  0.50400001928E-02 0. -1.
       -1   -1    0    0    0  501  0.00000000000E+00  0.00000000000E+00 -0.26699992880E+03  0.26699992885E+03  0.50400001928E-02 0.  1.
    10030    2    1    2    0    0  0.00000000000E+00  0.00000000000E+00  0.18342563048E+04  0.23682561624E+04  0.14980457467E+04 0.  0.
        2    1    3    3  502    0  0.51267570347E+03 -0.41413412484E+03  0.14798294004E+04  0.16199501549E+04  0.25500000920E-02 0. -1.
       -2    1    3    3    0  502 -0.51267570347E+03  0.41413412484E+03  0.35442690443E+03  0.74830600751E+03  0.25500000920E-02 0.  1.
</event>
<event>
 5   0  0.1474203E-04  0.1497727E+04  0.7818609E-02  0.8885966E-01
        1   -1    0    0  501    0  0.00000000000E+00  0.00000000000E+00  0.42305231185E+03  0.42305231188E+03  0.50400001928E-02 0. -1.
       -1   -1    0    0    0  501  0.00000000000E+00  0.00000000000E+00 -0.13255958361E+04  0.13255958361E+04  0.50400001928E-02 0.  1.
    10030    2    1    2    0    0  0.00000000000E+00  0.00000000000E+00 -0.90254352421E+03  0.17486481480E+04  0.14977267883E+04 0.  0.
        3    1    3    3  502    0 -0.48170467878E+03 -0.55365454859E+03 -0.27722049152E+03  0.78448962253E+03  0.10100000352E+00 0.  1.
       -3    1    3    3    0  502  0.48170467878E+03  0.55365454859E+03 -0.62532303269E+03  0.96415852543E+03  0.10100000352E+00 0. -1.
</event>
<event>
 5   0  0.1443750E-04  0.1414702E+04  0.7818609E-02  0.8943245E-01
        1   -1    0    0  501    0  0.00000000000E+00  0.00000000000E+00  0.10852575324E+04  0.10852575324E+04  0.50400001928E-02 0.  1.
       -1   -1    0    0    0  501  0.00000000000E+00  0.00000000000E+00 -0.46103844637E+03  0.46103844640E+03  0.50400001928E-02 0. -1.
    10030    2    1    2    0    0  0.00000000000E+00  0.00000000000E+00  0.62421908605E+03  0.15462959788E+04  0.14147020134E+04 0.  0.
        2    1    3    3  502    0  0.50368658298E+03 -0.23822950808E+03  0.78840995791E+03  0.96542412137E+03  0.25500000920E-02 0.  1.
       -2    1    3    3    0  502 -0.50368658298E+03  0.23822950808E+03 -0.16419087185E+03  0.58087185747E+03  0.25500000920E-02 0. -1.
</event>
<event>
 5   0  0.1474203E-04  0.1492903E+04  0.7818609E-02  0.8889186E-01
        1   -1    0    0  501    0  0.00000000000E+00  0.00000000000E+00  0.17443075933E+04  0.17443075933E+04  0.50400001928E-02 0. -1.
       -1   -1    0    0    0  501  0.00000000000E+00  0.00000000000E+00 -0.31943344533E+03  0.31943344537E+03  0.50400001928E-02 0.  1.
    10030    2    1    2    0    0  0.00000000000E+00  0.00000000000E+00  0.14248741479E+04  0.20637410387E+04  0.14929034588E+04 0.  0.
        3    1    3    3  502    0 -0.20254487421E+03 -0.62383489104E+03  0.12050639657E+04  0.13719961986E+04  0.10100000352E+00 0. -1.
       -3    1    3    3    0  502  0.20254487421E+03  0.62383489104E+03  0.21981018227E+03  0.69174484008E+03  0.10100000352E+00 0.  1.
</event>
<event>
 5   0  0.2734072E-04  0.1495254E+04  0.7818609E-02  0.8887615E-01
       -2   -1    0    0    0  501  0.00000000000E+00  0.00000000000E+00  0.91923451362E+03  0.91923451362E+03  0.25500000920E-02 0.  1.
        2   -1    0    0  501    0  0.00000000000E+00  0.00000000000E+00 -0.60805596266E+03  0.60805596267E+03  0.25500000920E-02 0. -1.
    10030    2    1    2    0    0  0.00000000000E+00  0.00000000000E+00  0.31117855095E+03  0.15272904763E+04  0.14952538608E+04 0.  0.
        5    1    3    3  502    0 -0.64542884993E+03 -0.11292527725E+03 -0.21211458059E+03  0.68872723473E+03  0.46999998093E+01 0. -1.
       -5    1    3    3    0  502  0.64542884993E+03  0.11292527725E+03  0.52329313154E+03  0.83856324155E+03  0.46999998093E+01 0.  1.
</event>
<event>
 5   0  0.2618901E-04  0.1511388E+04  0.7818609E-02  0.8876915E-01
       -2   -1    0    0    0  501  0.00000000000E+00  0.00000000000E+00  0.29096485646E+03  0.29096485647E+03  0.25500000920E-02 0. -1.
        2   -1    0    0  501    0  0.00000000000E+00  0.00000000000E+00 -0.19626896763E+04  0.19626896763E+04  0.25500000920E-02 0.  1.
    10030    2    1    2    0    0  0.00000000000E+00  0.00000000000E+00 -0.16717248199E+04  0.22536545328E+04  0.15113883948E+04 0.  0.
        1    1    3    3  502    0  0.72602565714E+03  0.19850573523E+03 -0.73521556358E+03  0.10521690485E+04  0.50400001928E-02 0.  1.
       -1    1    3    3    0  502 -0.72602565714E+03 -0.19850573523E+03 -0.93650925628E+03  0.12014854843E+04  0.50400001928E-02 0. -1.
</event>
<event>
 5   0  0.1426929E-04  0.1498973E+04  0.7818609E-02  0.8885136E-01
        1   -1    0    0  501    0  0.00000000000E+00  0.00000000000E+00  0.11152312581E+04  0.11152312581E+04  0.50400001928E-02 0. -1.
       -1   -1    0    0    0  501  0.00000000000E+00  0.00000000000E+00 -0.50368934759E+03  0.50368934761E+03  0.50400001928E-02 0.  1.
    10030    2    1    2    0    0  0.00000000000E+00  0.00000000000E+00  0.61154191047E+03  0.16189206057E+04  0.14989731216E+04 0.  0.
        1    1    3    3  502    0 -0.49493527711E+03  0.48430528783E+03  0.61545156184E+03  0.92644112891E+03  0.50400001928E-02 0. -1.
       -1    1    3    3    0  502  0.49493527711E+03 -0.48430528783E+03 -0.39096513654E+01  0.69247947677E+03  0.50400001928E-02 0.  1.
</event>
<event>
 5   0  0.2696040E-04  0.1502027E+04  0.7818609E-02  0.8883106E-01
        2   -1    0    0  501    0  0.00000000000E+00  0.00000000000E+00  0.11260308723E+04  0.11260308723E+04  0.25500000920E-02 0.  1.
       -2   -1    0    0    0  501  0.00000000000E+00  0.00000000000E+00 -0.50089356479E+03  0.50089356479E+03  0.25500000920E-02 0. -1.
    10030    2    1    2    0    0  0.00000000000E+00  0.00000000000E+00  0.62513730753E+03  0.16269244371E+04  0.15020274534E+04 0.  0.
        2    1    3    3  502    0 -0.46637845157E+03  0.11606087973E+03  0.93765415483E+03  0.10536480921E+04  0.25500000920E-02 0.  1.
       -2    1    3    3    0  502  0.46637845157E+03 -0.11606087973E+03 -0.31251684731E+03  0.57327634501E+03  0.25500000920E-02 0. -1.
</event>
<event>
 5   0  0.2734072E-04  0.1500381E+04  0.7818609E-02  0.8884199E-01
        2   -1    0    0  501    0  0.00000000000E+00  0.00000000000E+00  0.14388730769E+04  0.14388730769E+04  0.25500000920E-02 0. -1.
       -2   -1    0    0    0  501  0.00000000000E+00  0.00000000000E+00 -0.39112972385E+03  0.39112972386E+03  0.25500000920E-02 0.  1.
    10030    2    1    2    0    0  0.00000000000E+00  0.00000000000E+00  0.10477433530E+04  0.18300028007E+04  0.15003813238E+04 0.  0.
        5    1    3    3  502    0 -0.96890706915E+01 -0.68954044215E+03  0.88405069227E+03  0.11212170245E+04  0.46999998093E+01 0. -1.
       -5    1    3    3    0  502  0.96890706915E+01  0.68954044215E+03  0.16369266074E+03  0.70878577626E+03  0.46999998093E+01 0.  1.
</event>
<event>
 5   0  0.1443750E-04  0.1486426E+04  0.7818609E-02  0.8893530E-01
        1   -1    0    0  501    0  0.00000000000E+00  0.00000000000E+00  0.95000855249E+03  0.95000855250E+03  0.50400001928E-02 0. -1.
       -1   -1    0    0    0  501  0.00000000000E+00  0.00000000000E+00 -0.58143224023E+03  0.58143224025E+03  0.50400001928E-02 0.  1.
    10030    2    1    2    0    0  0.00000000000E+00  0.00000000000E+00  0.36857631226E+03  0.15314407928E+04  0.14864260505E+04 0.  0.
        2    1    3    3  502    0 -0.56776510762E+03  0.31126645284E+03 -0.19161946703E+03  0.67524961477E+03  0.25500000920E-02 0.  1.
       -2    1    3    3    0  502  0.56776510762E+03 -0.31126645284E+03  0.56019577929E+03  0.85619117798E+03  0.25500000920E-02 0. -1.
</event>
<event>
 5   0  0.2696040E-04  0.1497393E+04  0.7818609E-02  0.8886189E-01
        2   -1    0    0  501    0  0.00000000000E+00  0.00000000000E+00  0.25348485325E+03  0.25348485327E+03  0.25500000920E-02 0. -1.
       -2   -1    0    0    0  501  0.00000000000E+00  0.00000000000E+00 -0.22113600217E+04  0.22113600217E+04  0.25500000920E-02 0.  1.
    10030    2    1    2    0    0  0.00000000000E+00  0.00000000000E+00 -0.19578751684E+04  0.24648448749E+04  0.14973927616E+04 0.  0.
        2    1    3    3  502    0  0.51527485789E+03  0.25922565572E+03 -0.17646597272E+04  0.18565371185E+04  0.25500000920E-02 0.  1.
       -2    1    3    3    0  502 -0.51527485789E+03 -0.25922565572E+03 -0.19321544123E+03  0.60830775640E+03  0.25500000920E-02 0. -1.
</event>
<event>
 5   0  0.2646718E-04  0.1493544E+04  0.7818609E-02  0.8888758E-01
       -2   -1    0    0    0  501  0.00000000000E+00  0.00000000000E+00  0.12845091400E+04  0.12845091400E+04  0.25500000920E-02 0. -1.
        2   -1    0    0  501    0  0.00000000000E+00  0.00000000000E+00 -0.43414884728E+03  0.43414884729E+03  0.25500000920E-02 0.  1.
    10030    2    1    2    0    0  0.00000000000E+00  0.00000000000E+00  0.85036029274E+03  0.17186579873E+04  0.14935436552E+04 0.  0.
        3    1    3    3  502    0 -0.38877413498E+03 -0.61688318632E+03  0.23970998478E+03  0.76756177641E+03  0.10100000352E+00 0.  1.
       -3    1    3    3    0  502  0.38877413498E+03  0.61688318632E+03  0.61065030796E+03  0.95109621091E+03  0.10100000352E+00 0. -1.
</event>
<event>
 5   0  0.1484251E-04  0.1507367E+04  0.7818609E-02  0.8879569E-01
        1   -1    0    0  501    0  0.00000000000E+00  0.00000000000E+00  0.11406004504E+04  0.11406004504E+04  0.50400001928E-02 0.  1.
       -1   -1    0    0    0  501  0.00000000000E+00  0.00000000000E+00 -0.49801711169E+03  0.49801711172E+03  0.50400001928E-02 0. -1.
    10030    2    1    2    0    0  0.00000000000E+00  0.00000000000E+00  0.64258333870E+03  0.16386175621E+04  0.15073666335E+04 0.  0.
        5    1    3    3  502    0  0.69234147434E+03  0.16765604139E+03  0.58883353328E+03  0.92422523511E+03  0.46999998093E+01 0.  1.
       -5    1    3    3    0  502 -0.69234147434E+03 -0.16765604139E+03  0.53749805424E+02  0.71439232701E+03  0.46999998093E+01 0. -1.
</event>
<event>
 5   0  0.1484251E-04  0.1503921E+04  0.7818609E-02  0.8881850E-01
       -1   -1    0    0    0  501  0.00000000000E+00  0.00000000000E+00  0.23429398868E+03  0.23429398873E+03  0.50400001928E-02 0.  1.
        1   -1    0    0  501    0  0.00000000000E+00  0.00000000000E+00 -0.24133972950E+04  0.24133972950E+04  0.50400001928E-02 0. -1.
    10030    2    1    2    0    0  0.00000000000E+00  0.00000000000E+00 -0.21791033063E+04  0.26476912838E+04  0.15039208471E+04 0.  0.
        5    1    3    3  502    0 -0.10642268079E+03  0.82717301412E+02 -0.23919295498E+04  0.23957289079E+04  0.46999998093E+01 0. -1.
       -5    1    3    3    0  502  0.10642268079E+03 -0.82717301412E+02  0.21282624347E+03  0.25196237585E+03  0.46999998093E+01 0.  1.
</event>
<event>
 5   0  0.2618901E-04  0.1500769E+04  0.7818609E-02  0.8883941E-01
       -2   -1    0    0    0  501  0.00000000000E+00  0.00000000000E+00  0.57654336666E+03  0.57654336667E+03  0.25500000920E-02 0. -1.
        2   -1    0    0  501    0  0.00000000000E+00  0.00000000000E+00 -0.97664319562E+03  0.97664319563E+03  0.25500000920E-02 0.  1.
    10030    2    1    2    0    0  0.00000000000E+00  0.00000000000E+00 -0.40009982896E+03  0.15531865623E+04  0.15007693441E+04 0.  0.
        1    1    3    3  502    0 -0.37697269852E+03  0.41223120296E+03  0.31848272651E+03  0.64301961652E+03  0.50400001928E-02 0. -1.
       -1    1    3    3    0  502  0.37697269852E+03 -0.41223120296E+03 -0.71858255547E+03  0.91016694577E+03  0.50400001928E-02 0.  1.
</event>
<event>
 5   0  0.1427609E-04  0.1502389E+04  0.7818609E-02  0.8882866E-01
       -1   -1    0    0    0  501  0.00000000000E+00  0.00000000000E+00  0.75900209880E+03  0.75900209882E+03  0.50400001928E-02 0. -1.
        1   -1    0    0  501    0  0.00000000000E+00  0.00000000000E+00 -0.74346729679E+03  0.74346729680E+03  0.50400001928E-02 0.  1.
    10030    2    1    2    0    0  0.00000000000E+00  0.00000000000E+00  0.15534802017E+02  0.15024693956E+04  0.15023890823E+04 0.  0.
        4    1    3    3  502    0  0.63069748760E+03  0.27872463731E+03  0.30581836704E+03  0.75431639968E+03  0.12699999809E+01 0. -1.
       -4    1    3    3    0  502 -0.63069748760E+03 -0.27872463731E+03 -0.29028356503E+03  0.74815299594E+03  0.12699999809E+01 0.  1.
</event>
<event>
 5   0  0.1443750E-04  0.1502235E+04  0.7818609E-02  0.8882968E-01
       -1   -1    0    0    0  501  0.00000000000E+00  0.00000000000E+00  0.59891002809E+03  0.59891002811E+03  0.50400001928E-02 0.  1.
        1   -1    0    0  501    0  0.00000000000E+00  0.00000000000E+00 -0.94200694562E+03  0.94200694564E+03  0.50400001928E-02 0. -1.
    10030    2    1    2    0    0  0.00000000000E+00  0.00000000000E+00 -0.34309691754E+03  0.15409169737E+04  0.15022348768E+04 0.  0.
        2    1    3    3  502    0 -0.48409210327E+03  0.17192352968E+03 -0.73363172347E+03  0.89561061304E+03  0.25500000920E-02 0. -1.
       -2    1    3    3    0  502  0.48409210327E+03 -0.17192352968E+03  0.39053480594E+03  0.64530636070E+03  0.25500000920E-02 0.  1.
</event>
<event>
 5   0  0.2641347E-04  0.1482089E+04  0.7818609E-02  0.8896452E-01
        2   -1    0    0  501    0  0.00000000000E+00  0.00000000000E+00  0.20075641906E+04  0.20075641906E+04  0.25500000920E-02 0.  1.
       -2   -1    0    0    0  501  0.00000000000E+00  0.00000000000E+00 -0.27353882122E+03  0.27353882123E+03  0.25500000920E-02 0. -1.
    10030    2    1    2    0    0  0.00000000000E+00  0.00000000000E+00  0.17340253694E+04  0.22811030118E+04  0.14820887183E+04 0.  0.
        4    1    3    3  502    0 -0.29273846166E+03 -0.65464297259E+03  0.11545094822E+04  0.13590978573E+04  0.12699999809E+01 0. -1.
       -4    1    3    3    0  502  0.29273846166E+03  0.65464297259E+03  0.57951588721E+03  0.92200515450E+03  0.12699999809E+01 0.  1.
</event>
<event>
 5   0  0.2696040E-04  0.1498336E+04  0.7818609E-02  0.8885560E-01
       -2   -1    0    0    0  501  0.00000000000E+00  0.00000000000E+00  0.39617290202E+03  0.39617290203E+03  0.25500000920E-02 0.  1.
        2   -1    0    0  501    0  0.00000000000E+00  0.00000000000E+00 -0.14166863031E+04  0.14166863031E+04  0.25500000920E-02 0. -1.
    10030    2    1    2    0    0  0.00000000000E+00  0.00000000000E+00 -0.10205134010E+04  0.18128592051E+04  0.14983360424E+04 0.  0.
        2    1    3    3  502    0 -0.12039443164E+03  0.73925784491E+03 -0.49090776091E+03  0.89553749791E+03  0.25500000920E-02 0.  1.
       -2    1    3    3    0  502  0.12039443164E+03 -0.73925784491E+03 -0.52960564013E+03  0.91732170719E+03  0.25500000920E-02 0. -1.
</event>
<event>
 5   0  0.2646718E-04  0.1485393E+04  0.7818609E-02  0.8894225E-01
       -2   -1    0    0    0  501  0.00000000000E+00  0.00000000000E+00  0.51288545578E+03  0.51288545579E+03  0.25500000920E-02 0. -1.
        2   -1    0    0  501    0  0.00000000000E+00  0.00000000000E+00 -0.10754804980E+04  0.10754804980E+04  0.25500000920E-02 0.  1.
    10030    2    1    2    0    0  0.00000000000E+00  0.00000000000E+00 -0.56259504222E+03  0.15883659538E+04  0.14853932885E+04 0.  0.
        3    1    3    3  502    0 -0.90451855399E+02  0.58420724430E+03 -0.76203979086E+03  0.96446062413E+03  0.10100000352E+00 0.  1.
       -3    1    3    3    0  502  0.90451855399E+02 -0.58420724430E+03  0.19944474864E+03  0.62390532967E+03  0.10100000352E+00 0. -1.
</event>
<event>
 5   0  0.1004313E-04  0.1497166E+04  0.7818609E-02  0.8886340E-01
       -4   -1    0    0    0  501  0.00000000000E+00  0.00000000000E+00  0.72140400385E+03  0.72140512173E+03  0.12699999809E+01 0. -1.
        4   -1    0    0  501    0  0.00000000000E+00  0.00000000000E+00 -0.77678393450E+03  0.77678497269E+03  0.12699999809E+01 0.  1.
    10030    2    1    2    0    0  0.00000000000E+00  0.00000000000E+00 -0.55379930655E+02  0.14981900944E+04  0.14971661973E+04 0.  0.
        4    1    3    3  502    0 -0.23335230158E+03 -0.34400053811E+03  0.59529935134E+03  0.72606652414E+03  0.12699999809E+01 0. -1.
       -4    1    3    3    0  502  0.23335230158E+03  0.34400053811E+03 -0.65067928200E+03  0.77212357028E+03  0.12699999809E+01 0.  1.
</event>
<event>
 5   0  0.2641347E-04  0.1492549E+04  0.7818609E-02  0.8889423E-01
       -2   -1    0    0    0  501  0.00000000000E+00  0.00000000000E+00  0.12783955619E+04  0.12783955619E+04  0.25500000920E-02 0. -1.
        2   -1    0    0  501    0  0.00000000000E+00  0.00000000000E+00 -0.43564414810E+03  0.43564414811E+03  0.25500000920E-02 0.  1.
    10030    2    1    2    0    0  0.00000000000E+00  0.00000000000E+00  0.84275141379E+03  0.17140397100E+04  0.14925488876E+04 0.  0.
        4    1    3    3  502    0  0.13673900788E+03  0.18252275372E+03 -0.39464294051E+03  0.45580343932E+03  0.12699999809E+01 0.  1.
       -4    1    3    3    0  502 -0.13673900788E+03 -0.18252275372E+03  0.12373943543E+04  0.12582362707E+04  0.12699999809E+01 0. -1.
</event>
<event>
 5   0  0.2646718E-04  0.1511519E+04  0.7818609E-02  0.8876829E-01
       -2   -1    0    0    0  501  0.00000000000E+00  0.00000000000E+00  0.89430214758E+03  0.89430214758E+03  0.25500000920E-02 0. -1.
        2   -1    0    0  501    0  0.00000000000E+00  0.00000000000E+00 -0.63867975856E+03  0.63867975856E+03  0.25500000920E-02 0.  1.
    10030    2    1    2    0    0  0.00000000000E+00  0.00000000000E+00  0.25562238902E+03  0.15329819061E+04  0.15115193412E+04 0.  0.
        3    1    3    3  502    0  0.43379989146E+02  0.22152712150E+03 -0.60369063253E+03  0.64451414183E+03  0.10100000352E+00 0.  1.
       -3    1    3    3    0  502 -0.43379989146E+02 -0.22152712150E+03  0.85931302155E+03  0.88846776431E+03  0.10100000352E+00 0. -1.
</event>
<event>
 5   0  0.1474203E-04  0.1509619E+04  0.7818609E-02  0.8878081E-01
        1   -1    0    0  501    0  0.00000000000E+00  0.00000000000E+00  0.79362058419E+03  0.79362058420E+03  0.50400001928E-02 0. -1.
       -1   -1    0    0    0  501  0.00000000000E+00  0.00000000000E+00 -0.71789684035E+03  0.71789684036E+03  0.50400001928E-02 0.  1.
    10030    2    1    2    0    0  0.00000000000E+00  0.00000000000E+00  0.75723743840E+02  0.15115174246E+04  0.15096194353E+04 0.  0.
        3    1    3    3  502    0 -0.27194525211E+03  0.59053686051E+03 -0.34609084487E+03  0.73652351413E+03  0.10100000352E+00 0.  1.
       -3    1    3    3    0  502  0.27194525211E+03 -0.59053686051E+03  0.42181458871E+03  0.77499391043E+03  0.10100000352E+00 0. -1.
</event>
<event>
 5   0  0.2618901E-04  0.1505845E+04  0.7818609E-02  0.8880575E-01
       -2   -1    0    0    0  501  0.00000000000E+00  0.00000000000E+00  0.44459242389E+03  0.44459242390E+03  0.25500000920E-02 0.  1.
        2   -1    0    0  501    0  0.00000000000E+00  0.00000000000E+00 -0.12750838653E+04  0.12750838653E+04  0.25500000920E-02 0. -1.
    10030    2    1    2    0    0  0.00000000000E+00  0.00000000000E+00 -0.83049144139E+03  0.17196762892E+04  0.15058454454E+04 0.  0.
        1    1    3    3  502    0  0.40840853819E+03 -0.42114937724E+03  0.12371113314E+03  0.59955715032E+03  0.50400001928E-02 0.  1.
       -1    1    3    3    0  502 -0.40840853819E+03  0.42114937724E+03 -0.95420257452E+03  0.11201191389E+04  0.50400001928E-02 0. -1.
</event>
<event>
 5   0  0.1443750E-04  0.1484823E+04  0.7818609E-02  0.8894608E-01
        1   -1    0    0  501    0  0.00000000000E+00  0.00000000000E+00  0.69356852270E+03  0.69356852272E+03  0.50400001928E-02 0. -1.
       -1   -1    0    0    0  501  0.00000000000E+00  0.00000000000E+00 -0.79469459788E+03  0.79469459790E+03  0.50400001928E-02 0.  1.
    10030    2    1    2    0    0  0.00000000000E+00  0.00000000000E+00 -0.10112607518E+03  0.14882631206E+04  0.14848234350E+04 0.  0.
        2    1    3    3  502    0 -0.53562522354E+03  0.46258478302E+03  0.17422440571E+03  0.72885746558E+03  0.25500000920E-02 0. -1.
       -2    1    3    3    0  502  0.53562522354E+03 -0.46258478302E+03 -0.27535048089E+03  0.75940565504E+03  0.25500000920E-02 0.  1.
</event>
<event>
 5   0  0.1426929E-04  0.1502946E+04  0.7818609E-02  0.8882496E-01
       -1   -1    0    0    0  501  0.00000000000E+00  0.00000000000E+00  0.63246136585E+03  0.63246136587E+03  0.50400001928E-02 0. -1.
        1   -1    0    0  501    0  0.00000000000E+00  0.00000000000E+00 -0.89287924612E+03  0.89287924613E+03  0.50400001928E-02 0.  1.
    10030    2    1    2    0    0  0.00000000000E+00  0.00000000000E+00 -0.26041788027E+03  0.15253406120E+04  0.15029459439E+04 0.  0.
        1    1    3    3  502    0 -0.42904331308E+03  0.33581107326E+03 -0.65547696052E+03  0.85234810214E+03  0.50400001928E-02 0.  1.
       -1    1    3    3    0  502  0.42904331308E+03 -0.33581107326E+03  0.39505908025E+03  0.67299250986E+03  0.50400001928E-02 0. -1.
</event>
<event>
 5   0  0.2641347E-04  0.1508103E+04  0.7818609E-02  0.8879083E-01
        2   -1    0    0  501    0  0.00000000000E+00  0.00000000000E+00  0.72019641830E+03  0.72019641830E+03  0.25500000920E-02 0. -1.
       -2   -1    0    0    0  501  0.00000000000E+00  0.00000000000E+00 -0.78949758789E+03  0.78949758789E+03  0.25500000920E-02 0.  1.
    10030    2    1    2    0    0  0.00000000000E+00  0.00000000000E+00 -0.69301169589E+02  0.15096940062E+04  0.15081025629E+04 0.  0.
        4    1    3    3  502    0  0.35812225042E+03  0.63721906355E+02 -0.69586232028E+03  0.78519934365E+03  0.12699999809E+01 0.  1.
       -4    1    3    3    0  502 -0.35812225042E+03 -0.63721906355E+02  0.62656115069E+03  0.72449466254E+03  0.12699999809E+01 0. -1.
</event>
<event>
 5   0  0.2641347E-04  0.1498290E+04  0.7818609E-02  0.8885591E-01
        2   -1    0    0  501    0  0.00000000000E+00  0.00000000000E+00  0.10517150079E+04  0.10517150079E+04  0.25500000920E-02 0. -1.
       -2   -1    0    0    0  501  0.00000000000E+00  0.00000000000E+00 -0.53362216161E+03  0.53362216162E+03  0.25500000920E-02 0.  1.
    10030    2    1    2    0    0  0.00000000000E+00  0.00000000000E+00  0.51809284630E+03  0.15853371695E+04  0.14982902735E+04 0.  0.
        4    1    3    3  502    0  0.69700978558E+03 -0.12842367736E+03  0.22499763836E+01  0.70874675124E+03  0.12699999809E+01 0.  1.
       -4    1    3    3    0  502 -0.69700978558E+03  0.12842367736E+03  0.51584286991E+03  0.87659041829E+03  0.12699999809E+01 0. -1.
</event>
<event>
 5   0  0.2641347E-04  0.1507350E+04  0.7818609E-02  0.8879580E-01
        2   -1    0    0  501    0  0.00000000000E+00  0.00000000000E+00  0.19645795791E+04  0.19645795791E+04  0.25500000920E-02 0.  1.
       -2   -1    0    0    0  501  0.00000000000E+00  0.00000000000E+00 -0.28913364422E+03  0.28913364423E+03  0.25500000920E-02 0. -1.
    10030    2    1    2    0    0  0.00000000000E+00  0.00000000000E+00  0.16754459349E+04  0.22537132234E+04  0.15073500630E+04 0.  0.
        4    1    3    3  502    0  0.59924924665E+03  0.35162735340E+03  0.40109080220E+03  0.80225737751E+03  0.12699999809E+01 0. -1.
       -4    1    3    3    0  502 -0.59924924665E+03 -0.35162735340E+03  0.12743551327E+04  0.14514558459E+04  0.12699999809E+01 0.  1.
</event>
<event>
 5   0  0.1004313E-04  0.1494222E+04  0.7818609E-02  0.8888305E-01
        3   -1    0    0  501    0  0.00000000000E+00  0.00000000000E+00  0.54931678194E+03  0.54931679123E+03  0.10100000352E+00 0. -1.
       -3   -1    0    0    0  501  0.00000000000E+00  0.00000000000E+00 -0.10161249631E+04  0.10161249681E+04  0.10100000352E+00 0.  1.
    10030    2    1    2    0    0  0.00000000000E+00  0.00000000000E+00 -0.46680818118E+03  0.15654417594E+04  0.14942215445E+04 0.  0.
        3    1    3    3  502    0  0.16258041574E+03 -0.36095235609E+03  0.43040107447E+03  0.58477695753E+03  0.10100000352E+00 0. -1.
       -3    1    3    3    0  502 -0.16258041574E+03  0.36095235609E+03 -0.89720925565E+03  0.98066480184E+03  0.10100000352E+00 0.  1.
</event>
<event>
 5   0  0.1426929E-04  0.1502074E+04  0.7818609E-02  0.8883075E-01
        1   -1    0    0  501    0  0.00000000000E+00  0.00000000000E+00  0.10535131258E+04  0.10535131258E+04  0.50400001928E-02 0.  1.
       -1   -1    0    0    0  501  0.00000000000E+00  0.00000000000E+00 -0.53540563015E+03  0.53540563018E+03  0.50400001928E-02 0. -1.
    10030    2    1    2    0    0  0.00000000000E+00  0.00000000000E+00  0.51810749564E+03  0.15889187560E+04  0.15020743777E+04 0.  0.
        1    1    3    3  502    0 -0.60963456068E+03 -0.68921065280E+02  0.71728781236E+03  0.94387828484E+03  0.50400001928E-02 0.  1.
       -1    1    3    3    0  502  0.60963456068E+03  0.68921065280E+02 -0.19918031672E+03  0.64504047114E+03  0.50400001928E-02 0. -1.
</event>
<event>
 5   0  0.1004313E-04  0.1499163E+04  0.7818609E-02  0.8885010E-01
        3   -1    0    0  501    0  0.00000000000E+00  0.00000000000E+00  0.10833518334E+04  0.10833518381E+04  0.10100000352E+00 0.  1.
       -3   -1    0    0    0  501  0.00000000000E+00  0.00000000000E+00 -0.51864280121E+03  0.51864281104E+03  0.10100000352E+00 0. -1.
    10030    2    1    2    0    0  0.00000000000E+00  0.00000000000E+00  0.56470903220E+03  0.16019946492E+04  0.14991632883E+04 0.  0.
        3    1    3    3  502    0  0.45623958946E+03 -0.59237522321E+03  0.33899660170E+03  0.82096386901E+03  0.10100000352E+00 0. -1.
       -3    1    3    3    0  502 -0.45623958946E+03  0.59237522321E+03  0.22571243050E+03  0.78103078015E+03  0.10100000352E+00 0.  1.
</event>
<event>
 5   0  0.2646718E-04  0.1505642E+04  0.7818609E-02  0.8880709E-01
       -2   -1    0    0    0  501  0.00000000000E+00  0.00000000000E+00  0.40637642867E+03  0.40637642868E+03  0.25500000920E-02 0.  1.
        2   -1    0    0  501    0  0.00000000000E+00  0.00000000000E+00 -0.13946178574E+04  0.13946178574E+04  0.25500000920E-02 0. -1.
    10030    2    1    2    0    0  0.00000000000E+00  0.00000000000E+00 -0.98824142870E+03  0.18009942860E+04  0.15056424864E+04 0.  0.
        3    1    3    3  502    0 -0.66301447268E+03  0.26628057883E+03 -0.21043506817E+03  0.74483317982E+03  0.10100000352E+00 0.  1.
       -3    1    3    3    0  502  0.66301447268E+03 -0.26628057883E+03 -0.77780636052E+03  0.10561611062E+04  0.10100000352E+00 0. -1.
</event>
<event>
 5   0  0.2618901E-04  0.1476058E+04  0.7818609E-02  0.8900532E-01
        2   -1    0    0  501    0  0.00000000000E+00  0.00000000000E+00  0.39873407195E+03  0.39873407196E+03  0.25500000920E-02 0. -1.
       -2   -1    0    0    0  501  0.00000000000E+00  0.00000000000E+00 -0.13660401982E+04  0.13660401982E+04  0.25500000920E-02 0.  1.
    10030    2    1    2    0    0  0.00000000000E+00  0.00000000000E+00 -0.96730612627E+03  0.17647742702E+04  0.14760579537E+04 0.  0.
        1    1    3    3  502    0 -0.70703916900E+03  0.20717056661E+03 -0.53525451645E+03  0.91067086676E+03  0.50400001928E-02 0. -1.
       -1    1    3    3    0  502  0.70703916900E+03 -0.20717056661E+03 -0.43205160982E+03  0.85410340342E+03  0.50400001928E-02 0.  1.
</event>
<event>
 5   0  0.1004313E-04  0.1504855E+04  0.7818609E-02  0.8881231E-01
       -4   -1    0    0    0  501  0.00000000000E+00  0.00000000000E+00  0.54394670664E+03  0.54394818923E+03  0.12699999809E+01 0. -1.
        4   -1    0    0  501    0  0.00000000000E+00  0.00000000000E+00 -0.10408100360E+04  0.10408108109E+04  0.12699999809E+01 0.  1.
    10030    2    1    2    0    0  0.00000000000E+00  0.00000000000E+00 -0.49686332939E+03  0.15847590001E+04  0.15048547838E+04 0.  0.
        1    1    3    3  502    0 -0.14875964889E+03  0.14127005471E+02 -0.10250281357E+04  0.10358627730E+04  0.50400001928E-02 0.  1.
       -1    1    3    3    0  502  0.14875964889E+03 -0.14127005471E+02  0.52816480634E+03  0.54889622708E+03  0.50400001928E-02 0. -1.
</event>
<event>
 5   0  0.1426929E-04  0.1497454E+04  0.7818609E-02  0.8886148E-01
        1   -1    0    0  501    0  0.00000000000E+00  0.00000000000E+00  0.90352223963E+03  0.90352223964E+03  0.50400001928E-02 0. -1.
       -1   -1    0    0    0  501  0.00000000000E+00  0.00000000000E+00 -0.62045168593E+03  0.62045168595E+03  0.50400001928E-02 0.  1.
    10030    2    1    2    0    0  0.00000000000E+00  0.00000000000E+00  0.28307055370E+03  0.15239739256E+04  0.14974537013E+04 0.  0.
        1    1    3    3  502    0  0.39136120818E+03  0.50958790029E+03  0.53272337604E+03  0.83464820062E+03  0.50400001928E-02 0. -1.
       -1    1    3    3    0  502 -0.39136120818E+03 -0.50958790029E+03 -0.24965282234E+03  0.68932572498E+03  0.50400001928E-02 0.  1.
</event>
<event>
 5   0  0.1443750E-04  0.1504184E+04  0.7818609E-02  0.8881675E-01
        1   -1    0    0  501    0  0.00000000000E+00  0.00000000000E+00  0.72632027744E+03  0.72632027746E+03  0.50400001928E-02 0. -1.
       -1   -1    0    0    0  501  0.00000000000E+00  0.00000000000E+00 -0.77877801835E+03  0.77877801837E+03  0.50400001928E-02 0.  1.
    10030    2    1    2    0    0  0.00000000000E+00  0.00000000000E+00 -0.52457740910E+02  0.15050982958E+04  0.15041838536E+04 0.  0.
        2    1    3    3  502    0  0.46926233472E+03  0.88734668353E+02 -0.60758232568E+03  0.77281127233E+03  0.25500000920E-02 0.  1.
       -2    1    3    3    0  502 -0.46926233472E+03 -0.88734668353E+02  0.55512458477E+03  0.73228702350E+03  0.25500000920E-02 0. -1.
</event>
<event>
 5   0  0.2646718E-04  0.1501188E+04  0.7818609E-02  0.8883663E-01
       -2   -1    0    0    0  501  0.00000000000E+00  0.00000000000E+00  0.58978895094E+03  0.58978895094E+03  0.25500000920E-02 0. -1.
        2   -1    0    0  501    0  0.00000000000E+00  0.00000000000E+00 -0.95524261239E+03  0.95524261239E+03  0.25500000920E-02 0.  1.
    10030    2    1    2    0    0  0.00000000000E+00  0.00000000000E+00 -0.36545366145E+03  0.15450315633E+04  0.15011882470E+04 0.  0.
        3    1    3    3  502    0  0.23527553355E+03 -0.57582351936E+03 -0.61507192759E+03  0.87478042299E+03  0.10100000352E+00 0.  1.
       -3    1    3    3    0  502 -0.23527553355E+03  0.57582351936E+03  0.24961826614E+03  0.67025114034E+03  0.10100000352E+00 0. -1.
</event>
<event>
 5   0  0.1443750E-04  0.1507654E+04  0.7818609E-02  0.8879379E-01
        1   -1    0    0  501    0  0.00000000000E+00  0.00000000000E+00  0.79905351850E+03  0.79905351851E+03  0.50400001928E-02 0. -1.
       -1   -1    0    0    0  501  0.00000000000E+00  0.00000000000E+00 -0.71116016748E+03  0.71116016750E+03  0.50400001928E-02 0.  1.
    10030    2    1    2    0    0  0.00000000000E+00  0.00000000000E+00  0.87893351018E+02  0.15102136860E+04  0.15076538516E+04 0.  0.
        2    1    3    3  502    0 -0.40297966949E+03 -0.17531163136E+03  0.65746373997E+03  0.79081309517E+03  0.25500000920E-02 0. -1.
       -2    1    3    3    0  502  0.40297966949E+03  0.17531163136E+03 -0.56957038896E+03  0.71940059084E+03  0.25500000920E-02 0.  1.
</event>
<event>
 5   0  0.2641347E-04  0.1498293E+04  0.7818609E-02  0.8885589E-01
       -2   -1    0    0    0  501  0.00000000000E+00  0.00000000000E+00  0.99510668494E+03  0.99510668494E+03  0.25500000920E-02 0.  1.
        2   -1    0    0  501    0  0.00000000000E+00  0.00000000000E+00 -0.56398020513E+03  0.56398020514E+03  0.25500000920E-02 0. -1.
    10030    2    1    2    0    0  0.00000000000E+00  0.00000000000E+00  0.43112647981E+03  0.15590868901E+04  0.14982929918E+04 0.  0.
        4    1    3    3  502    0 -0.46662618326E+03 -0.43668004764E+03 -0.19117985140E+03  0.66706881758E+03  0.12699999809E+01 0. -1.
       -4    1    3    3    0  502  0.46662618326E+03  0.43668004764E+03  0.62230633121E+03  0.89201807250E+03  0.12699999809E+01 0.  1.
</event>
<event>
 5   0  0.1474203E-04  0.1489467E+04  0.7818609E-02  0.8891487E-01
       -1   -1    0    0    0  501  0.00000000000E+00  0.00000000000E+00  0.11397765201E+04  0.11397765201E+04  0.50400001928E-02 0.  1.
        1   -1    0    0  501    0  0.00000000000E+00  0.00000000000E+00 -0.48661126406E+03  0.48661126408E+03  0.50400001928E-02 0. -1.
    10030    2    1    2    0    0  0.00000000000E+00  0.00000000000E+00  0.65316525608E+03  0.16263877842E+04  0.14894671440E+04 0.  0.
        3    1    3    3  502    0 -0.40002642588E+03 -0.96072858294E+00 -0.35933983956E+03  0.53772408808E+03  0.10100000352E+00 0. -1.
       -3    1    3    3    0  502  0.40002642588E+03  0.96072858294E+00  0.10125050956E+04  0.10886636961E+04  0.10100000352E+00 0.  1.
</event>
<event>
 5   0  0.1426929E-04  0.1501949E+04  0.7818609E-02  0.8883158E-01
       -1   -1    0    0    0  501  0.00000000000E+00  0.00000000000E+00  0.52608941404E+03  0.52608941407E+03  0.50400001928E-02 0. -1.
        1   -1    0    0  501    0  0.00000000000E+00  0.00000000000E+00 -0.10719907727E+04  0.10719907727E+04  0.50400001928E-02 0.  1.
    10030    2    1    2    0    0  0.00000000000E+00  0.00000000000E+00 -0.54590135866E+03  0.15980801868E+04  0.15019493966E+04 0.  0.
        1    1    3    3  502    0 -0.52248812909E+03 -0.38448856805E+03 -0.67550108969E+03  0.93655059991E+03  0.50400001928E-02 0.  1.
       -1    1    3    3    0  502  0.52248812909E+03  0.38448856805E+03  0.12959973103E+03  0.66152958687E+03  0.50400001928E-02 0. -1.
</event>
<event>
 5   0  0.2641347E-04  0.1497630E+04  0.7818609E-02  0.8886030E-01
        2   -1    0    0  501    0  0.00000000000E+00  0.00000000000E+00  0.74129633535E+03  0.74129633535E+03  0.25500000920E-02 0.  1.
       -2   -1    0    0    0  501  0.00000000000E+00  0.00000000000E+00 -0.75640993145E+03  0.75640993145E+03  0.25500000920E-02 0. -1.
    10030    2    1    2    0    0  0.00000000000E+00  0.00000000000E+00 -0.15113596098E+02  0.14977062668E+04  0.14976300080E+04 0.  0.
        4    1    3    3  502    0  0.14159121628E+03 -0.48672261949E+03  0.54362942595E+03  0.74329102410E+03  0.12699999809E+01 0.  1.
       -4    1    3    3    0  502 -0.14159121628E+03  0.48672261949E+03 -0.55874302204E+03  0.75441524271E+03  0.12699999809E+01 0. -1.
</event>
<event>
 5   0  0.2734072E-04  0.1499939E+04  0.7818609E-02  0.8884493E-01
        2   -1    0    0  501    0  0.00000000000E+00  0.00000000000E+00  0.23272151731E+04  0.23272151731E+04  0.25500000920E-02 0.  1.
       -2   -1    0    0    0  501  0.00000000000E+00  0.00000000000E+00 -0.24168558644E+03  0.24168558646E+03  0.25500000920E-02 0. -1.
    10030    2    1    2    0    0  0.00000000000E+00  0.00000000000E+00  0.20855295867E+04  0.25689007596E+04  0.14999391507E+04 0.  0.
        5    1    3    3  502    0 -0.57281435258E+03  0.31475829481E+03  0.41292308438E+03  0.77312135547E+03  0.46999998093E+01 0. -1.
       -5    1    3    3    0  502  0.57281435258E+03 -0.31475829481E+03  0.16726065023E+04  0.17957794041E+04  0.46999998093E+01 0.  1.
</event>
<event>
 5   0  0.1443750E-04  0.1489756E+04  0.7818609E-02  0.8891294E-01
       -1   -1    0    0    0  501  0.00000000000E+00  0.00000000000E+00  0.42590493570E+03  0.42590493573E+03  0.50400001928E-02 0.  1.
        1   -1    0    0  501    0  0.00000000000E+00  0.00000000000E+00 -0.13027395093E+04  0.13027395094E+04  0.50400001928E-02 0. -1.
    10030    2    1    2    0    0  0.00000000000E+00  0.00000000000E+00 -0.87683457365E+03  0.17286444451E+04  0.14897559357E+04 0.  0.
        2    1    3    3  502    0  0.72861715362E+03 -0.34570949986E+02 -0.61349269174E+03  0.95312716359E+03  0.25500000920E-02 0. -1.
       -2    1    3    3    0  502 -0.72861715362E+03  0.34570949986E+02 -0.26334188190E+03  0.77551728150E+03  0.25500000920E-02 0.  1.
</event>
<event>
 5   0  0.1443750E-04  0.1506802E+04  0.7818609E-02  0.8879942E-01
       -1   -1    0    0    0  501  0.00000000000E+00  0.00000000000E+00  0.58197866387E+03  0.58197866389E+03  0.50400001928E-02 0. -1.
        1   -1    0    0  501    0  0.00000000000E+00  0.00000000000E+00 -0.97531594238E+03  0.97531594240E+03  0.50400001928E-02 0.  1.
    10030    2    1    2    0    0  0.00000000000E+00  0.00000000000E+00 -0.39333727852E+03  0.15572946063E+04  0.15068020030E+04 0.  0.
        2    1    3    3  502    0 -0.32820619791E+03  0.18527056396E+03  0.47754784732E+03  0.60835551834E+03  0.25500000920E-02 0. -1.
       -2    1    3    3    0  502  0.32820619791E+03 -0.18527056396E+03 -0.87088512583E+03  0.94893908794E+03  0.25500000920E-02 0.  1.
</event>
<event>
 5   0  0.1426929E-04  0.1465983E+04  0.7818609E-02  0.8907394E-01
        1   -1    0    0  501    0  0.00000000000E+00  0.00000000000E+00  0.68547353698E+03  0.68547353700E+03  0.50400001928E-02 0.  1.
       -1   -1    0    0    0  501  0.00000000000E+00  0.00000000000E+00 -0.78380383492E+03  0.78380383494E+03  0.50400001928E-02 0. -1.
    10030    2    1    2    0    0  0.00000000000E+00  0.00000000000E+00 -0.98330297942E+02  0.14692773719E+04  0.14659833383E+04 0.  0.
        1    1    3    3  502    0 -0.39260999990E+03  0.26622762036E+03  0.51089009441E+03  0.69715740436E+03  0.50400001928E-02 0.  1.
       -1    1    3    3    0  502  0.39260999990E+03 -0.26622762036E+03 -0.60922039235E+03  0.77211996758E+03  0.50400001928E-02 0. -1.
</event>
<event>
 5   0  0.1484251E-04  0.1500007E+04  0.7818609E-02  0.8884448E-01
       -1   -1    0    0    0  501  0.00000000000E+00  0.00000000000E+00  0.63152198515E+03  0.63152198517E+03  0.50400001928E-02 0.  1.
        1   -1    0    0  501    0  0.00000000000E+00  0.00000000000E+00 -0.89071421531E+03  0.89071421533E+03  0.50400001928E-02 0. -1.
    10030    2    1    2    0    0  0.00000000000E+00  0.00000000000E+00 -0.25919223016E+03  0.15222362005E+04  0.15000074793E+04 0.  0.
        5    1    3    3  502    0  0.26091952033E+03  0.68585312764E+03  0.27651764587E+02  0.73434339301E+03  0.46999998093E+01 0.  1.
       -5    1    3    3    0  502 -0.26091952033E+03 -0.68585312764E+03 -0.28684399475E+03  0.78789280749E+03  0.46999998093E+01 0. -1.
</event>
<event>
 5   0  0.1474203E-04  0.1496525E+04  0.7818609E-02  0.8886767E-01
       -1   -1    0    0    0  501  0.00000000000E+00  0.00000000000E+00  0.27317766162E+03  0.27317766166E+03  0.50400001928E-02 0. -1.
        1   -1    0    0  501    0  0.00000000000E+00  0.00000000000E+00 -0.20495687833E+04  0.20495687833E+04  0.50400001928E-02 0.  1.
    10030    2    1    2    0    0  0.00000000000E+00  0.00000000000E+00 -0.17763911217E+04  0.23227464450E+04  0.14965245171E+04 0.  0.
        3    1    3    3  502    0 -0.59613962956E+03 -0.42202565436E+02 -0.15870392795E+04  0.16958352513E+04  0.10100000352E+00 0.  1.
       -3    1    3    3    0  502  0.59613962956E+03  0.42202565436E+02 -0.18935184215E+03  0.62691119370E+03  0.10100000352E+00 0. -1.
</event>
<event>
 5   0  0.2618901E-04  0.1510353E+04  0.7818609E-02  0.8877598E-01
        2   -1    0    0  501    0  0.00000000000E+00  0.00000000000E+00  0.79707281146E+03  0.79707281147E+03  0.25500000920E-02 0.  1.
       -2   -1    0    0    0  501  0.00000000000E+00  0.00000000000E+00 -0.71548194433E+03  0.71548194434E+03  0.25500000920E-02 0. -1.
    10030    2    1    2    0    0  0.00000000000E+00  0.00000000000E+00  0.81590867132E+02  0.15125547558E+04  0.15103525481E+04 0.  0.
        1    1    3    3  502    0 -0.48690134338E+02 -0.61749924447E+03  0.47341507415E+03  0.77961392918E+03  0.50400001928E-02 0.  1.
       -1    1    3    3    0  502  0.48690134338E+02  0.61749924447E+03 -0.39182420702E+03  0.73294082663E+03  0.50400001928E-02 0. -1.
</event>
<event>
 5   0  0.1484251E-04  0.1493129E+04  0.7818609E-02  0.8889035E-01
       -1   -1    0    0    0  501  0.00000000000E+00  0.00000000000E+00  0.47808167365E+03  0.47808167368E+03  0.50400001928E-02 0.  1.
        1   -1    0    0  501    0  0.00000000000E+00  0.00000000000E+00 -0.11658234693E+04  0.11658234693E+04  0.50400001928E-02 0. -1.
    10030    2    1    2    0    0  0.00000000000E+00  0.00000000000E+00 -0.68774179564E+03  0.16439051430E+04  0.14931293787E+04 0.  0.
        5    1    3    3  502    0  0.14259293082E+03 -0.25521496148E+03 -0.11001640818E+04  0.11383543022E+04  0.46999998093E+01 0. -1.
       -5    1    3    3    0  502 -0.14259293082E+03  0.25521496148E+03  0.41242228616E+03  0.50555084077E+03  0.46999998093E+01 0.  1.
</event>
<event>
 5   0  0.1426929E-04  0.1491489E+04  0.7818609E-02  0.8890132E-01
        1   -1    0    0  501    0  0.00000000000E+00  0.00000000000E+00  0.10686681283E+04  0.10686681283E+04  0.50400001928E-02 0. -1.
       -1   -1    0    0    0  501  0.00000000000E+00  0.00000000000E+00 -0.52039992197E+03  0.52039992199E+03  0.50400001928E-02 0.  1.
    10030    2    1    2    0    0  0.00000000000E+00  0.00000000000E+00  0.54826820632E+03  0.15890680503E+04  0.14914889347E+04 0.  0.
        1    1    3    3  502    0  0.53873477736E+03  0.50315542497E+03  0.15390504018E+03  0.75305199252E+03  0.50400001928E-02 0.  1.
       -1    1    3    3    0  502 -0.53873477736E+03 -0.50315542497E+03  0.39436316614E+03  0.83601605777E+03  0.50400001928E-02 0. -1.
</event>
<event>
 5   0  0.1426929E-04  0.1501906E+04  0.7818609E-02  0.8883186E-01
        1   -1    0    0  501    0  0.00000000000E+00  0.00000000000E+00  0.69776509446E+03  0.69776509448E+03  0.50400001928E-02 0.  1.
       -1   -1    0    0    0  501  0.00000000000E+00  0.00000000000E+00 -0.80819563957E+03  0.80819563958E+03  0.50400001928E-02 0. -1.
    10030    2    1    2    0    0  0.00000000000E+00  0.00000000000E+00 -0.11043054511E+03  0.15059607341E+04  0.15019063976E+04 0.  0.
        1    1    3    3  502    0 -0.29668769651E+03 -0.11959165541E+01 -0.74693669923E+03  0.80370358476E+03  0.50400001928E-02 0. -1.
       -1    1    3    3    0  502  0.29668769651E+03  0.11959165541E+01  0.63650615412E+03  0.70225714930E+03  0.50400001928E-02 0.  1.
</event>
<event>
 5   0  0.1443750E-04  0.1529973E+04  0.7818609E-02  0.8864763E-01
       -1   -1    0    0    0  501  0.00000000000E+00  0.00000000000E+00  0.18971050382E+04  0.18971050382E+04  0.50400001928E-02 0. -1.
        1   -1    0    0  501    0  0.00000000000E+00  0.00000000000E+00 -0.30847211807E+03  0.30847211812E+03  0.50400001928E-02 0.  1.
    10030    2    1    2    0    0  0.00000000000E+00  0.00000000000E+00  0.15886329201E+04  0.22055771563E+04  0.15299725611E+04 0.  0.
        2    1    3    3  502    0 -0.43695755781E+03 -0.91025553930E+01 -0.11077193955E+03  0.45087158531E+03  0.25500000920E-02 0.  1.
       -2    1    3    3    0  502  0.43695755781E+03  0.91025553930E+01  0.16994048597E+04  0.17547055710E+04  0.25500000920E-02 0. -1.
</event>
<event>
 5   0  0.1474203E-04  0.1517359E+04  0.7818609E-02  0.8872991E-01
       -1   -1    0    0    0  501  0.00000000000E+00  0.00000000000E+00  0.31260889520E+03  0.31260889524E+03  0.50400001928E-02 0. -1.
        1   -1    0    0  501    0  0.00000000000E+00  0.00000000000E+00 -0.18412618915E+04  0.18412618915E+04  0.50400001928E-02 0.  1.
    10030    2    1    2    0    0  0.00000000000E+00  0.00000000000E+00 -0.15286529963E+04  0.21538707867E+04  0.15173593453E+04 0.  0.
        3    1    3    3  502    0  0.54006767479E+03 -0.50168997132E+03 -0.50949445073E+03  0.89607506729E+03  0.10100000352E+00 0.  1.
       -3    1    3    3    0  502 -0.54006767479E+03  0.50168997132E+03 -0.10191585456E+04  0.12577957195E+04  0.10100000352E+00 0. -1.
</event>
<event>
 5   0  0.2618901E-04  0.1512095E+04  0.7818609E-02  0.8876449E-01
       -2   -1    0    0    0  501  0.00000000000E+00  0.00000000000E+00  0.53212088381E+03  0.53212088382E+03  0.25500000920E-02 0. -1.
        2   -1    0    0  501    0  0.00000000000E+00  0.00000000000E+00 -0.10742068540E+04  0.10742068540E+04  0.25500000920E-02 0.  1.
    10030    2    1    2    0    0  0.00000000000E+00  0.00000000000E+00 -0.54208597021E+03  0.16063277378E+04  0.15120951036E+04 0.  0.
        1    1    3    3  502    0  0.19128850387E+03  0.69934645767E+03 -0.49871448496E+03  0.87999596425E+03  0.50400001928E-02 0.  1.
       -1    1    3    3    0  502 -0.19128850387E+03 -0.69934645767E+03 -0.43371485250E+02  0.72633177359E+03  0.50400001928E-02 0. -1.
</event>
<event>
 5   0  0.2646718E-04  0.1489728E+04  0.7818609E-02  0.8891312E-01
        2   -1    0    0  501    0  0.00000000000E+00  0.00000000000E+00  0.14167723805E+04  0.14167723805E+04  0.25500000920E-02 0.  1.
       -2   -1    0    0    0  501  0.00000000000E+00  0.00000000000E+00 -0.39161027982E+03  0.39161027983E+03  0.25500000920E-02 0. -1.
    10030    2    1    2    0    0  0.00000000000E+00  0.00000000000E+00  0.10251621007E+04  0.18083826604E+04  0.14897283355E+04 0.  0.
        3    1    3    3  502    0  0.67610179619E+03 -0.30205748625E+03  0.61022468432E+03  0.95954496474E+03  0.10100000352E+00 0.  1.
       -3    1    3    3    0  502 -0.67610179619E+03  0.30205748625E+03  0.41493741640E+03  0.84883769564E+03  0.10100000352E+00 0. -1.
</event>
<event>
 5   0  0.1474203E-04  0.1500863E+04  0.7818609E-02  0.8883879E-01
        1   -1    0    0  501    0  0.00000000000E+00  0.00000000000E+00  0.14453062581E+04  0.14453062581E+04  0.50400001928E-02 0.  1.
       -1   -1    0    0    0  501  0.00000000000E+00  0.00000000000E+00 -0.38963875032E+03  0.38963875035E+03  0.50400001928E-02 0. -1.
    10030    2    1    2    0    0  0.00000000000E+00  0.00000000000E+00  0.10556675077E+04  0.18349450084E+04  0.15008628508E+04 0.  0.
        3    1    3    3  502    0  0.11001531618E+03 -0.56037428913E+02 -0.37713624518E+03  0.39683160265E+03  0.10100000352E+00 0. -1.
       -3    1    3    3    0  502 -0.11001531618E+03  0.56037428913E+02  0.14328037529E+04  0.14381134058E+04  0.10100000352E+00 0.  1.
</event>
<event>
 5   0  0.2734072E-04  0.1504340E+04  0.7818609E-02  0.8881572E-01
        2   -1    0    0  501    0  0.00000000000E+00  0.00000000000E+00  0.37660488296E+03  0.37660488297E+03  0.25500000920E-02 0. -1.
       -2   -1    0    0    0  501  0.00000000000E+00  0.00000000000E+00 -0.15022631603E+04  0.15022631603E+04  0.25500000920E-02 0.  1.
    10030    2    1    2    0    0  0.00000000000E+00  0.00000000000E+00 -0.11256582774E+04  0.18788680433E+04  0.15043399106E+04 0.  0.
        5    1    3    3  502    0 -0.35305103846E+03  0.38165584214E+03  0.11602829806E+03  0.53272025825E+03  0.46999998093E+01 0. -1.
       -5    1    3    3    0  502  0.35305103846E+03 -0.38165584214E+03 -0.12416865754E+04  0.13461477851E+04  0.46999998093E+01 0.  1.
</event>
<event>
 5   0  0.1427609E-04  0.1493333E+04  0.7818609E-02  0.8888899E-01
       -1   -1    0    0    0  501  0.00000000000E+00  0.00000000000E+00  0.97052439454E+03  0.97052439455E+03  0.50400001928E-02 0. -1.
        1   -1    0    0  501    0  0.00000000000E+00  0.00000000000E+00 -0.57444270614E+03  0.57444270617E+03  0.50400001928E-02 0.  1.
    10030    2    1    2    0    0  0.00000000000E+00  0.00000000000E+00  0.39608168840E+03  0.15449671007E+04  0.14933327286E+04 0.  0.
        4    1    3    3  502    0  0.49728267063E+03 -0.27567629767E+03  0.69873912160E+03  0.90084707279E+03  0.12699999809E+01 0. -1.
       -4    1    3    3    0  502 -0.49728267063E+03  0.27567629767E+03 -0.30265743321E+03  0.64412002793E+03  0.12699999809E+01 0.  1.
</event>
<event>
 5   0  0.1443750E-04  0.1507106E+04  0.7818609E-02  0.8879741E-01
       -1   -1    0    0    0  501  0.00000000000E+00  0.00000000000E+00  0.67150021364E+03  0.67150021366E+03  0.50400001928E-02 0. -1.
        1   -1    0    0  501    0  0.00000000000E+00  0.00000000000E+00 -0.84563214521E+03  0.84563214523E+03  0.50400001928E-02 0.  1.
    10030    2    1    2    0    0  0.00000000000E+00  0.00000000000E+00 -0.17413193157E+03  0.15171323589E+04  0.15071060563E+04 0.  0.
        2    1    3    3  502    0 -0.45893903972E+03  0.33909066018E+03 -0.58251363300E+03  0.81543218641E+03  0.25500000920E-02 0.  1.
       -2    1    3    3    0  502  0.45893903972E+03 -0.33909066018E+03  0.40838170143E+03  0.70170017248E+03  0.25500000920E-02 0. -1.
</event>
<event>
 5   0  0.1426929E-04  0.1488881E+04  0.7818609E-02  0.8891881E-01
        1   -1    0    0  501    0  0.00000000000E+00  0.00000000000E+00  0.12226519838E+04  0.12226519838E+04  0.50400001928E-02 0. -1.
       -1   -1    0    0    0  501  0.00000000000E+00  0.00000000000E+00 -0.45327004129E+03  0.45327004132E+03  0.50400001928E-02 0.  1.
    10030    2    1    2    0    0  0.00000000000E+00  0.00000000000E+00  0.76938194247E+03  0.16759220251E+04  0.14888808081E+04 0.  0.
        1    1    3    3  502    0 -0.30719764899E+02 -0.65332731434E+03 -0.15517896975E+02  0.65423320671E+03  0.50400001928E-02 0.  1.
       -1    1    3    3    0  502  0.30719764899E+02  0.65332731434E+03  0.78489983944E+03  0.10216888184E+04  0.50400001928E-02 0. -1.
</event>
<event>
 5   0  0.1484251E-04  0.1495741E+04  0.7818609E-02  0.8887290E-01
        1   -1    0    0  501    0  0.00000000000E+00  0.00000000000E+00  0.22948434604E+04  0.22948434604E+04  0.50400001928E-02 0.  1.
       -1   -1    0    0    0  501  0.00000000000E+00  0.00000000000E+00 -0.24372486587E+03  0.24372486592E+03  0.50400001928E-02 0. -1.
    10030    2    1    2    0    0  0.00000000000E+00  0.00000000000E+00  0.20511185945E+04  0.25385683263E+04  0.14957411737E+04 0.  0.
        5    1    3    3  502    0 -0.23687675127E+03  0.60195021378E+03  0.38863816881E+03  0.75466308471E+03  0.46999998093E+01 0. -1.
       -5    1    3    3    0  502  0.23687675127E+03 -0.60195021378E+03  0.16624804257E+04  0.17839052416E+04  0.46999998093E+01 0.  1.
</event>
<event>
 5   0  0.2734072E-04  0.1497307E+04  0.7818609E-02  0.8886246E-01
        2   -1    0    0  501    0  0.00000000000E+00  0.00000000000E+00  0.10896927912E+04  0.10896927912E+04  0.25500000920E-02 0. -1.
       -2   -1    0    0    0  501  0.00000000000E+00  0.00000000000E+00 -0.51434841846E+03  0.51434841847E+03  0.25500000920E-02 0.  1.
    10030    2    1    2    0    0  0.00000000000E+00  0.00000000000E+00  0.57534437277E+03  0.16040412097E+04  0.14973066002E+04 0.  0.
        5    1    3    3  502    0  0.48708776381E+03  0.17732139586E+03 -0.29098236657E+03  0.59446631085E+03  0.46999998093E+01 0.  1.
       -5    1    3    3    0  502 -0.48708776381E+03 -0.17732139586E+03  0.86632673934E+03  0.10095748988E+04  0.46999998093E+01 0. -1.
</event>
<event>
 5   0  0.2641347E-04  0.1512002E+04  0.7818609E-02  0.8876511E-01
        2   -1    0    0  501    0  0.00000000000E+00  0.00000000000E+00  0.18431997927E+04  0.18431997927E+04  0.25500000920E-02 0. -1.
       -2   -1    0    0    0  501  0.00000000000E+00  0.00000000000E+00 -0.31007899777E+03  0.31007899779E+03  0.25500000920E-02 0.  1.
    10030    2    1    2    0    0  0.00000000000E+00  0.00000000000E+00  0.15331207950E+04  0.21532787905E+04  0.15120020429E+04 0.  0.
        4    1    3    3  502    0  0.28352004106E+03 -0.57080336029E+03  0.18748996523E+03  0.66434493282E+03  0.12699999809E+01 0. -1.
       -4    1    3    3    0  502 -0.28352004106E+03  0.57080336029E+03  0.13456308297E+04  0.14889338577E+04  0.12699999809E+01 0.  1.
</event>
<event>
 5   0  0.1484251E-04  0.1499904E+04  0.7818609E-02  0.8884517E-01
        1   -1    0    0  501    0  0.00000000000E+00  0.00000000000E+00  0.60551637926E+03  0.60551637928E+03  0.50400001928E-02 0.  1.
       -1   -1    0    0    0  501  0.00000000000E+00  0.00000000000E+00 -0.92883998785E+03  0.92883998787E+03  0.50400001928E-02 0. -1.
    10030    2    1    2    0    0  0.00000000000E+00  0.00000000000E+00 -0.32332360859E+03  0.15343563672E+04  0.14999037654E+04 0.  0.
        5    1    3    3  502    0  0.37382315202E+03  0.22322662748E+03  0.46296318259E+03  0.63555556376E+03  0.46999998093E+01 0.  1.
       -5    1    3    3    0  502 -0.37382315202E+03 -0.22322662748E+03 -0.78628679117E+03  0.89880080339E+03  0.46999998093E+01 0. -1.
</event>
<event>
 5   0  0.1004313E-04  0.1500398E+04  0.7818609E-02  0.8884188E-01
        3   -1    0    0  501    0  0.00000000000E+00  0.00000000000E+00  0.88561803014E+03  0.88561803590E+03  0.10100000352E+00 0.  1.
       -3   -1    0    0    0  501  0.00000000000E+00  0.00000000000E+00 -0.63548700736E+03  0.63548701539E+03  0.10100000352E+00 0. -1.
    10030    2    1    2    0    0  0.00000000000E+00  0.00000000000E+00  0.25013102278E+03  0.15211050513E+04  0.15003982966E+04 0.  0.
        2    1    3    3  502    0  0.55486385824E+03 -0.37730612259E+03 -0.21507177221E+03  0.70462023710E+03  0.25500000920E-02 0. -1.
       -2    1    3    3    0  502 -0.55486385824E+03  0.37730612259E+03  0.46520279499E+03  0.81648481419E+03  0.25500000920E-02 0.  1.
</event>
<event>
 5   0  0.2618901E-04  0.1510106E+04  0.7818609E-02  0.8877760E-01
       -2   -1    0    0    0  501  0.00000000000E+00  0.00000000000E+00  0.24092783272E+03  0.24092783273E+03  0.25500000920E-02 0. -1.
        2   -1    0    0  501    0  0.00000000000E+00  0.00000000000E+00 -0.23662901015E+04  0.23662901015E+04  0.25500000920E-02 0.  1.
    10030    2    1    2    0    0  0.00000000000E+00  0.00000000000E+00 -0.21253622687E+04  0.26072179342E+04  0.15101061496E+04 0.  0.
        1    1    3    3  502    0  0.47483424363E+03  0.28787430479E+03 -0.17934407051E+03  0.58352675169E+03  0.50400001928E-02 0. -1.
       -1    1    3    3    0  502 -0.47483424363E+03 -0.28787430479E+03 -0.19460181982E+04  0.20236911825E+04  0.50400001928E-02 0.  1.
</event>
<event>
 5   0  0.2641347E-04  0.1501506E+04  0.7818609E-02  0.8883452E-01
        2   -1    0    0  501    0  0.00000000000E+00  0.00000000000E+00  0.13175452247E+04  0.13175452247E+04  0.25500000920E-02 0. -1.
       -2   -1    0    0    0  501  0.00000000000E+00  0.00000000000E+00 -0.42778823189E+03  0.42778823190E+03  0.25500000920E-02 0.  1.
    10030    2    1    2    0    0  0.00000000000E+00  0.00000000000E+00  0.88975699282E+03  0.17453334566E+04  0.15015063664E+04 0.  0.
        4    1    3    3  502    0 -0.21036691309E+02  0.12979046471E+03 -0.41429917575E+03  0.43466484449E+03  0.12699999809E+01 0.  1.
       -4    1    3    3    0  502  0.21036691309E+02 -0.12979046471E+03  0.13040561686E+04  0.13106686121E+04  0.12699999809E+01 0. -1.
</event>
<event>
 5   0  0.2641347E-04  0.1576897E+04  0.7818609E-02  0.8834868E-01
       -2   -1    0    0    0  501  0.00000000000E+00  0.00000000000E+00  0.38638111726E+03  0.38638111727E+03  0.25500000920E-02 0. -1.
        2   -1    0    0  501    0  0.00000000000E+00  0.00000000000E+00 -0.16089061481E+04  0.16089061481E+04  0.25500000920E-02 0.  1.
    10030    2    1    2    0    0  0.00000000000E+00  0.00000000000E+00 -0.12225250309E+04  0.19952872654E+04  0.15768968959E+04 0.  0.
        4    1    3    3  502    0  0.44414420075E+03 -0.24172463559E+03  0.15418542986E+03  0.52864887231E+03  0.12699999809E+01 0. -1.
       -4    1    3    3    0  502 -0.44414420075E+03  0.24172463559E+03 -0.13767104607E+04  0.14666383931E+04  0.12699999809E+01 0.  1.
</event>
<event>
 5   0  0.1427609E-04  0.1496557E+04  0.7818609E-02  0.8886745E-01
       -1   -1    0    0    0  501  0.00000000000E+00  0.00000000000E+00  0.84140470101E+03  0.84140470103E+03  0.50400001928E-02 0. -1.
        1   -1    0    0  501    0  0.00000000000E+00  0.00000000000E+00 -0.66545982055E+03  0.66545982057E+03  0.50400001928E-02 0.  1.
    10030    2    1    2    0    0  0.00000000000E+00  0.00000000000E+00  0.17594488047E+03  0.15068645216E+04  0.14965574114E+04 0.  0.
        4    1    3    3  502    0 -0.40917212994E+03 -0.51025342027E+03 -0.27804044315E+03  0.71069577580E+03  0.12699999809E+01 0.  1.
       -4    1    3    3    0  502  0.40917212994E+03  0.51025342027E+03  0.45398532362E+03  0.79616874579E+03  0.12699999809E+01 0. -1.
</event>
<event>
 5   0  0.1474203E-04  0.1499250E+04  0.7818609E-02  0.8884952E-01
       -1   -1    0    0    0  501  0.00000000000E+00  0.00000000000E+00  0.11956592252E+04  0.11956592252E+04  0.50400001928E-02 0.  1.
        1   -1    0    0  501    0  0.00000000000E+00  0.00000000000E+00 -0.46998138665E+03  0.46998138667E+03  0.50400001928E-02 0. -1.
    10030    2    1    2    0    0  0.00000000000E+00  0.00000000000E+00  0.72567783858E+03  0.16656406119E+04  0.14992499200E+04 0.  0.
        3    1    3    3  502    0  0.38628955251E+03 -0.36485320382E+03 -0.22461786247E+03  0.57688012018E+03  0.10100000352E+00 0. -1.
       -3    1    3    3    0  502 -0.38628955251E+03  0.36485320382E+03  0.95029570105E+03  0.10887604917E+04  0.10100000352E+00 0.  1.
</event>
<event>
 5   0  0.1474203E-04  0.1492045E+04  0.7818609E-02  0.8889760E-01
        1   -1    0    0  501    0  0.00000000000E+00  0.00000000000E+00  0.16396790449E+04  0.16396790450E+04  0.50400001928E-02 0. -1.
       -1   -1    0    0    0  501  0.00000000000E+00  0.00000000000E+00 -0.33942590544E+03  0.33942590548E+03  0.50400001928E-02 0.  1.
    10030    2    1    2    0    0  0.00000000000E+00  0.00000000000E+00  0.13002531395E+04  0.19791049504E+04  0.14920449651E+04 0.  0.
        3    1    3    3  502    0 -0.32679395673E+03  0.55635505448E+02 -0.23636663853E+03  0.40713486418E+03  0.10100000352E+00 0.  1.
       -3    1    3    3    0  502  0.32679395673E+03 -0.55635505448E+02  0.15366197780E+04  0.15719700863E+04  0.10100000352E+00 0. -1.
</event>
<event>
 5   0  0.2641347E-04  0.1499030E+04  0.7818609E-02  0.8885098E-01
       -2   -1    0    0    0  501  0.00000000000E+00  0.00000000000E+00  0.52198180179E+03  0.52198180179E+03  0.25500000920E-02 0.  1.
        2   -1    0    0  501    0  0.00000000000E+00  0.00000000000E+00 -0.10762303271E+04  0.10762303271E+04  0.25500000920E-02 0. -1.
    10030    2    1    2    0    0  0.00000000000E+00  0.00000000000E+00 -0.55424852528E+03  0.15982121289E+04  0.14990298800E+04 0.  0.
        4    1    3    3  502    0 -0.16475261027E+02  0.61986772410E+03  0.17175952313E+03  0.64343638092E+03  0.12699999809E+01 0.  1.
       -4    1    3    3    0  502  0.16475261027E+02 -0.61986772410E+03 -0.72600804840E+03  0.95477574794E+03  0.12699999809E+01 0. -1.
</event>
<event>
 5   0  0.1427609E-04  0.1499352E+04  0.7818609E-02  0.8884884E-01
        1   -1    0    0  501    0  0.00000000000E+00  0.00000000000E+00  0.11333502697E+04  0.11333502697E+04  0.50400001928E-02 0.  1.
       -1   -1    0    0    0  501  0.00000000000E+00  0.00000000000E+00 -0.49588766616E+03  0.49588766618E+03  0.50400001928E-02 0. -1.
    10030    2    1    2    0    0  0.00000000000E+00  0.00000000000E+00  0.63746260351E+03  0.16292379359E+04  0.14993524205E+04 0.  0.
        4    1    3    3  502    0 -0.40644971015E+03  0.38406202962E+03 -0.22382988203E+03  0.60233415847E+03  0.12699999809E+01 0. -1.
       -4    1    3    3    0  502  0.40644971015E+03 -0.38406202962E+03  0.86129248554E+03  0.10269037774E+04  0.12699999809E+01 0.  1.
</event>
<event>
 5   0  0.2618901E-04  0.1487482E+04  0.7818609E-02  0.8892820E-01
       -2   -1    0    0    0  501  0.00000000000E+00  0.00000000000E+00  0.26330052954E+03  0.26330052955E+03  0.25500000920E-02 0. -1.
        2   -1    0    0  501    0  0.00000000000E+00  0.00000000000E+00 -0.21008349620E+04  0.21008349620E+04  0.25500000920E-02 0.  1.
    10030    2    1    2    0    0  0.00000000000E+00  0.00000000000E+00 -0.18375344325E+04  0.23641354916E+04  0.14874823804E+04 0.  0.
        1    1    3    3  502    0  0.64407751305E+03 -0.39182828167E+02 -0.15065698782E+04  0.16389398814E+04  0.50400001928E-02 0. -1.
       -1    1    3    3    0  502 -0.64407751305E+03  0.39182828167E+02 -0.33096455428E+03  0.72519561020E+03  0.50400001928E-02 0.  1.
</event>
<event>
 5   0  0.1484251E-04  0.1495670E+04  0.7818609E-02  0.8887337E-01
        1   -1    0    0  501    0  0.00000000000E+00  0.00000000000E+00  0.18433369451E+04  0.18433369451E+04  0.50400001928E-02 0.  1.
       -1   -1    0    0    0  501  0.00000000000E+00  0.00000000000E+00 -0.30339386217E+03  0.30339386221E+03  0.50400001928E-02 0. -1.
    10030    2    1    2    0    0  0.00000000000E+00  0.00000000000E+00  0.15399430829E+04  0.21467308073E+04  0.14956699036E+04 0.  0.
        5    1    3    3  502    0 -0.49400653113E+03  0.55635011589E+03  0.66192196440E+03  0.99585675737E+03  0.46999998093E+01 0.  1.
       -5    1    3    3    0  502  0.49400653113E+03 -0.55635011589E+03  0.87802111850E+03  0.11508740499E+04  0.46999998093E+01 0. -1.
</event>
<event>
 5   0  0.2646718E-04  0.1499586E+04  0.7818609E-02  0.8884728E-01
        2   -1    0    0  501    0  0.00000000000E+00  0.00000000000E+00  0.84374153092E+03  0.84374153092E+03  0.25500000920E-02 0. -1.
       -2   -1    0    0    0  501  0.00000000000E+00  0.00000000000E+00 -0.66630524053E+03  0.66630524053E+03  0.25500000920E-02 0.  1.
    10030    2    1    2    0    0  0.00000000000E+00  0.00000000000E+00  0.17743629039E+03  0.15100467715E+04  0.14995858144E+04 0.  0.
        3    1    3    3  502    0 -0.41292365115E+03 -0.51419289611E+03 -0.27054669221E+03  0.71280838867E+03  0.10100000352E+00 0.  1.
       -3    1    3    3    0  502  0.41292365115E+03  0.51419289611E+03  0.44798298260E+03  0.79723838279E+03  0.10100000352E+00 0. -1.
</event>
<event>
 5   0  0.2618901E-04  0.1475417E+04  0.7818609E-02  0.8900967E-01
        2   -1    0    0  501    0  0.00000000000E+00  0.00000000000E+00  0.47024218160E+03  0.47024218161E+03  0.25500000920E-02 0.  1.
       -2   -1    0    0    0  501  0.00000000000E+00  0.00000000000E+00 -0.11573054447E+04  0.11573054447E+04  0.25500000920E-02 0. -1.
    10030    2    1    2    0    0  0.00000000000E+00  0.00000000000E+00 -0.68706326306E+03  0.16275476263E+04  0.14754170083E+04 0.  0.
        1    1    3    3  502    0  0.54082210131E+03 -0.34984593365E+03 -0.74024221653E+03  0.98124373206E+03  0.50400001928E-02 0.  1.
       -1    1    3    3    0  502 -0.54082210131E+03  0.34984593365E+03  0.53178953471E+02  0.64630389421E+03  0.50400001928E-02 0. -1.
</event>
<event>
 5   0  0.1484251E-04  0.1558784E+04  0.7818609E-02  0.8846277E-01
        1   -1    0    0  501    0  0.00000000000E+00  0.00000000000E+00  0.19019493442E+04  0.19019493442E+04  0.50400001928E-02 0.  1.
       -1   -1    0    0    0  501  0.00000000000E+00  0.00000000000E+00 -0.31938366072E+03  0.31938366076E+03  0.50400001928E-02 0. -1.
    10030    2    1    2    0    0  0.00000000000E+00  0.00000000000E+00  0.15825656835E+04  0.22213330050E+04  0.15587835566E+04 0.  0.
        5    1    3    3  502    0 -0.59670415664E+03  0.20480178553E+03  0.13913340123E+03  0.64604939071E+03  0.46999998093E+01 0. -1.
       -5    1    3    3    0  502  0.59670415664E+03 -0.20480178553E+03  0.14434322823E+04  0.15752836143E+04  0.46999998093E+01 0.  1.
</event>
<event>
 5   0  0.1443750E-04  0.1503364E+04  0.7818609E-02  0.8882219E-01
       -1   -1    0    0    0  501  0.00000000000E+00  0.00000000000E+00  0.95303440585E+03  0.95303440586E+03  0.50400001928E-02 0. -1.
        1   -1    0    0  501    0  0.00000000000E+00  0.00000000000E+00 -0.59287028219E+03  0.59287028221E+03  0.50400001928E-02 0.  1.
    10030    2    1    2    0    0  0.00000000000E+00  0.00000000000E+00  0.36016412366E+03  0.15459046881E+04  0.15033639309E+04 0.  0.
        2    1    3    3  502    0 -0.57552917237E+03 -0.63970457582E+02  0.67291398303E+03  0.88777208576E+03  0.25500000920E-02 0. -1.
       -2    1    3    3    0  502  0.57552917237E+03  0.63970457582E+02 -0.31274985936E+03  0.65813260231E+03  0.25500000920E-02 0.  1.
</event>
<event>
 5   0  0.2696040E-04  0.1489072E+04  0.7818609E-02  0.8891753E-01
       -2   -1    0    0    0  501  0.00000000000E+00  0.00000000000E+00  0.69609026305E+03  0.69609026305E+03  0.25500000920E-02 0.  1.
        2   -1    0    0  501    0  0.00000000000E+00  0.00000000000E+00 -0.79635345879E+03  0.79635345880E+03  0.25500000920E-02 0. -1.
    10030    2    1    2    0    0  0.00000000000E+00  0.00000000000E+00 -0.10026319574E+03  0.14924437219E+04  0.14890720448E+04 0.  0.
        2    1    3    3  502    0  0.72919925353E+03  0.17449427010E+02 -0.19979437309E+03  0.75627628905E+03  0.25500000920E-02 0. -1.
       -2    1    3    3    0  502 -0.72919925353E+03 -0.17449427010E+02  0.99531177344E+02  0.73616743280E+03  0.25500000920E-02 0.  1.
</event>
<event>
 5   0  0.2696040E-04  0.1499130E+04  0.7818609E-02  0.8885032E-01
       -2   -1    0    0    0  501  0.00000000000E+00  0.00000000000E+00  0.39339570493E+03  0.39339570494E+03  0.25500000920E-02 0.  1.
        2   -1    0    0  501    0  0.00000000000E+00  0.00000000000E+00 -0.14282002856E+04  0.14282002856E+04  0.25500000920E-02 0. -1.
    10030    2    1    2    0    0  0.00000000000E+00  0.00000000000E+00 -0.10348045807E+04  0.18215959906E+04  0.14991302254E+04 0.  0.
        2    1    3    3  502    0  0.55051305055E+02 -0.34340670902E+03  0.28941900910E+03  0.45246234852E+03  0.25500000920E-02 0.  1.
       -2    1    3    3    0  502 -0.55051305055E+02  0.34340670902E+03 -0.13242235898E+04  0.13691336421E+04  0.25500000920E-02 0. -1.
</event>
<event>
 5   0  0.1474203E-04  0.1517642E+04  0.7818609E-02  0.8872805E-01
       -1   -1    0    0    0  501  0.00000000000E+00  0.00000000000E+00  0.75806002553E+03  0.75806002555E+03  0.50400001928E-02 0. -1.
        1   -1    0    0  501    0  0.00000000000E+00  0.00000000000E+00 -0.75958303014E+03  0.75958303015E+03  0.50400001928E-02 0.  1.
    10030    2    1    2    0    0  0.00000000000E+00  0.00000000000E+00 -0.15230046049E+01  0.15176430557E+04  0.15176422915E+04 0.  0.
        3    1    3    3  502    0 -0.29560182603E+03  0.23584372750E+03 -0.65864238328E+03  0.75948173290E+03  0.10100000352E+00 0.  1.
       -3    1    3    3    0  502  0.29560182603E+03 -0.23584372750E+03  0.65711937868E+03  0.75816132280E+03  0.10100000352E+00 0. -1.
</event>
<event>
 5   0  0.1443750E-04  0.1498883E+04  0.7818609E-02  0.8885196E-01
        1   -1    0    0  501    0  0.00000000000E+00  0.00000000000E+00  0.71537673855E+03  0.71537673856E+03  0.50400001928E-02 0. -1.
       -1   -1    0    0    0  501  0.00000000000E+00  0.00000000000E+00 -0.78512868025E+03  0.78512868027E+03  0.50400001928E-02 0.  1.
    10030    2    1    2    0    0  0.00000000000E+00  0.00000000000E+00 -0.69751941706E+02  0.15005054188E+04  0.14988833105E+04 0.  0.
        2    1    3    3  502    0  0.19808332485E+03  0.72160067745E+03  0.66207083963E+01  0.74832371008E+03  0.25500000920E-02 0. -1.
       -2    1    3    3    0  502 -0.19808332485E+03 -0.72160067745E+03 -0.76372650103E+02  0.75218170875E+03  0.25500000920E-02 0.  1.
</event>
<event>
 5   0  0.2618901E-04  0.1495344E+04  0.7818609E-02  0.8887555E-01
       -2   -1    0    0    0  501  0.00000000000E+00  0.00000000000E+00  0.81588080838E+03  0.81588080838E+03  0.25500000920E-02 0.  1.
        2   -1    0    0  501    0  0.00000000000E+00  0.00000000000E+00 -0.68516595562E+03  0.68516595562E+03  0.25500000920E-02 0. -1.
    10030    2    1    2    0    0  0.00000000000E+00  0.00000000000E+00  0.13071485276E+03  0.15010467640E+04  0.14953444469E+04 0.  0.
        1    1    3    3  502    0 -0.73989390927E+03 -0.10153250860E+03  0.10101621289E+03  0.75362863704E+03  0.50400001928E-02 0.  1.
       -1    1    3    3    0  502  0.73989390927E+03  0.10153250860E+03  0.29698639863E+02  0.74741812696E+03  0.50400001928E-02 0. -1.
</event>
<event>
 5   0  0.1427609E-04  0.1496483E+04  0.7818609E-02  0.8886795E-01
       -1   -1    0    0    0  501  0.00000000000E+00  0.00000000000E+00  0.82669231966E+03  0.82669231968E+03  0.50400001928E-02 0. -1.
        1   -1    0    0  501    0  0.00000000000E+00  0.00000000000E+00 -0.67723509431E+03  0.67723509433E+03  0.50400001928E-02 0.  1.
    10030    2    1    2    0    0  0.00000000000E+00  0.00000000000E+00  0.14945722535E+03  0.15039274140E+04  0.14964826108E+04 0.  0.
        4    1    3    3  502    0  0.46816480266E+02  0.10231780988E+03  0.81814019887E+03  0.82584242743E+03  0.12699999809E+01 0. -1.
       -4    1    3    3    0  502 -0.46816480266E+02 -0.10231780988E+03 -0.66868297352E+03  0.67808498658E+03  0.12699999809E+01 0.  1.
</event>
<event>
 5   0  0.2618901E-04  0.1497357E+04  0.7818609E-02  0.8886212E-01
        2   -1    0    0  501    0  0.00000000000E+00  0.00000000000E+00  0.26272406969E+04  0.26272406969E+04  0.25500000920E-02 0. -1.
       -2   -1    0    0    0  501  0.00000000000E+00  0.00000000000E+00 -0.21334924742E+03  0.21334924743E+03  0.25500000920E-02 0.  1.
    10030    2    1    2    0    0  0.00000000000E+00  0.00000000000E+00  0.24138914495E+04  0.28405899444E+04  0.14973574396E+04 0.  0.
        1    1    3    3  502    0 -0.19397365409E+03 -0.53835180983E+03  0.29108901706E+03  0.64201344652E+03  0.50400001928E-02 0.  1.
       -1    1    3    3    0  502  0.19397365409E+03  0.53835180983E+03  0.21228024324E+04  0.21985764978E+04  0.50400001928E-02 0. -1.
</event>
<event>
 5   0  0.1426929E-04  0.1492753E+04  0.7818609E-02  0.8889286E-01
        1   -1    0    0  501    0  0.00000000000E+00  0.00000000000E+00  0.64364012144E+03  0.64364012146E+03  0.50400001928E-02 0.  1.
       -1   -1    0    0    0  501  0.00000000000E+00  0.00000000000E+00 -0.86551188161E+03  0.86551188162E+03  0.50400001928E-02 0. -1.
    10030    2    1    2    0    0  0.00000000000E+00  0.00000000000E+00 -0.22187176017E+03  0.15091520031E+04  0.14927533924E+04 0.  0.
        1    1    3    3  502    0  0.60934239768E+02  0.21355077014E+03 -0.83133753032E+03  0.86048765381E+03  0.50400001928E-02 0. -1.
       -1    1    3    3    0  502 -0.60934239768E+02 -0.21355077014E+03  0.60946577016E+03  0.64866434927E+03  0.50400001928E-02 0.  1.
</event>
<event>
 5   0  0.2641347E-04  0.1415076E+04  0.7818609E-02  0.8942977E-01
       -2   -1    0    0    0  501  0.00000000000E+00  0.00000000000E+00  0.82825224484E+03  0.82825224484E+03  0.25500000920E-02 0. -1.
        2   -1    0    0  501    0  0.00000000000E+00  0.00000000000E+00 -0.60441775297E+03  0.60441775297E+03  0.25500000920E-02 0.  1.
    10030    2    1    2    0    0  0.00000000000E+00  0.00000000000E+00  0.22383449187E+03  0.14326699978E+04  0.14150764795E+04 0.  0.
        4    1    3    3  502    0  0.63830623367E+03 -0.15494925093E+03  0.37817868888E+03  0.75793459608E+03  0.12699999809E+01 0. -1.
       -4    1    3    3    0  502 -0.63830623367E+03  0.15494925093E+03 -0.15434419701E+03  0.67473540174E+03  0.12699999809E+01 0.  1.
</event>
<event>
 5   0  0.1004313E-04  0.1501890E+04  0.7818609E-02  0.8883197E-01
       -3   -1    0    0    0  501  0.00000000000E+00  0.00000000000E+00  0.31277162671E+03  0.31277164302E+03  0.10100000352E+00 0. -1.
        3   -1    0    0  501    0  0.00000000000E+00  0.00000000000E+00 -0.18029719853E+04  0.18029719881E+04  0.10100000352E+00 0.  1.
    10030    2    1    2    0    0  0.00000000000E+00  0.00000000000E+00 -0.14902003586E+04  0.21157436312E+04  0.15018901438E+04 0.  0.
        2    1    3    3  502    0  0.53298078377E+03  0.20429839431E+03 -0.14325098764E+04  0.15420411459E+04  0.25500000920E-02 0.  1.
       -2    1    3    3    0  502 -0.53298078377E+03 -0.20429839431E+03 -0.57690482188E+02  0.57370248520E+03  0.25500000920E-02 0. -1.
</event>
<event>
 5   0  0.2646718E-04  0.1502382E+04  0.7818609E-02  0.8882870E-01
        2   -1    0    0  501    0  0.00000000000E+00  0.00000000000E+00  0.11257551849E+04  0.11257551849E+04  0.25500000920E-02 0. -1.
       -2   -1    0    0    0  501  0.00000000000E+00  0.00000000000E+00 -0.50125306529E+03  0.50125306530E+03  0.25500000920E-02 0.  1.
    10030    2    1    2    0    0  0.00000000000E+00  0.00000000000E+00  0.62450211960E+03  0.16270082502E+04  0.15023824243E+04 0.  0.
        3    1    3    3  502    0 -0.15289319122E+03  0.14281000720E+03  0.10935672139E+04  0.11134003268E+04  0.10100000352E+00 0. -1.
       -3    1    3    3    0  502  0.15289319122E+03 -0.14281000720E+03 -0.46906509433E+03  0.51360792342E+03  0.10100000352E+00 0.  1.
</event>
<event>
 5   0  0.2696040E-04  0.1483433E+04  0.7818609E-02  0.8895545E-01
       -2   -1    0    0    0  501  0.00000000000E+00  0.00000000000E+00  0.59947773224E+03  0.59947773225E+03  0.25500000920E-02 0. -1.
        2   -1    0    0  501    0  0.00000000000E+00  0.00000000000E+00 -0.91770474350E+03  0.91770474350E+03  0.25500000920E-02 0.  1.
    10030    2    1    2    0    0  0.00000000000E+00  0.00000000000E+00 -0.31822701126E+03  0.15171824758E+04  0.14834332590E+04 0.  0.
        2    1    3    3  502    0  0.28930057254E+03 -0.94684760022E+02 -0.85087684001E+03  0.90368767942E+03  0.25500000920E-02 0.  1.
       -2    1    3    3    0  502 -0.28930057254E+03  0.94684760022E+02  0.53264982875E+03  0.61349479634E+03  0.25500000920E-02 0. -1.
</event>
<event>
 5   0  0.2618901E-04  0.1508263E+04  0.7818609E-02  0.8878977E-01
        2   -1    0    0  501    0  0.00000000000E+00  0.00000000000E+00  0.19567330804E+04  0.19567330805E+04  0.25500000920E-02 0.  1.
       -2   -1    0    0    0  501  0.00000000000E+00  0.00000000000E+00 -0.29064470238E+03  0.29064470239E+03  0.25500000920E-02 0. -1.
    10030    2    1    2    0    0  0.00000000000E+00  0.00000000000E+00  0.16660883781E+04  0.22473777828E+04  0.15082627143E+04 0.  0.
        1    1    3    3  502    0 -0.49828388680E+03  0.56572414336E+03  0.80386573469E+03  0.11020575110E+04  0.50400001928E-02 0. -1.
       -1    1    3    3    0  502  0.49828388680E+03 -0.56572414336E+03  0.86222264337E+03  0.11453202718E+04  0.50400001928E-02 0.  1.
</event>
<event>
 5   0  0.1443750E-04  0.1499508E+04  0.7818609E-02  0.8884780E-01
       -1   -1    0    0    0  501  0.00000000000E+00  0.00000000000E+00  0.42720509061E+03  0.42720509064E+03  0.50400001928E-02 0. -1.
        1   -1    0    0  501    0  0.00000000000E+00  0.00000000000E+00 -0.13158339781E+04  0.13158339781E+04  0.50400001928E-02 0.  1.
    10030    2    1    2    0    0  0.00000000000E+00  0.00000000000E+00 -0.88862888749E+03  0.17430390688E+04  0.14995078844E+04 0.  0.
        2    1    3    3  502    0 -0.71922597999E+03 -0.19708715706E+03 -0.35426262797E+03  0.82560969431E+03  0.25500000920E-02 0.  1.
       -2    1    3    3    0  502  0.71922597999E+03  0.19708715706E+03 -0.53436625952E+03  0.91742937444E+03  0.25500000920E-02 0. -1.
</event>
<event>
 5   0  0.2696040E-04  0.1499883E+04  0.7818609E-02  0.8884530E-01
        2   -1    0    0  501    0  0.00000000000E+00  0.00000000000E+00  0.79868553395E+03  0.79868553395E+03  0.25500000920E-02 0.  1.
       -2   -1    0    0    0  501  0.00000000000E+00  0.00000000000E+00 -0.70417276039E+03  0.70417276039E+03  0.25500000920E-02 0. -1.
    10030    2    1    2    0    0  0.00000000000E+00  0.00000000000E+00  0.94512773561E+02  0.15028582943E+04  0.14998834583E+04 0.  0.
        2    1    3    3  502    0  0.16811267997E+02 -0.70789351897E+03 -0.20024921470E+03  0.73586384673E+03  0.25500000920E-02 0. -1.
       -2    1    3    3    0  502 -0.16811267997E+02  0.70789351897E+03  0.29476198826E+03  0.76699444761E+03  0.25500000920E-02 0.  1.
</event>
<event>
 5   0  0.1474203E-04  0.1498018E+04  0.7818609E-02  0.8885772E-01
        1   -1    0    0  501    0  0.00000000000E+00  0.00000000000E+00  0.12573728382E+04  0.12573728382E+04  0.50400001928E-02 0. -1.
       -1   -1    0    0    0  501  0.00000000000E+00  0.00000000000E+00 -0.44618006712E+03  0.44618006715E+03  0.50400001928E-02 0.  1.
    10030    2    1    2    0    0  0.00000000000E+00  0.00000000000E+00  0.81119277110E+03  0.17035529054E+04  0.14980182875E+04 0.  0.
        3    1    3    3  502    0  0.15379893311E+03  0.66780797953E+03  0.74938790703E+03  0.10154820800E+04  0.10100000352E+00 0. -1.
       -3    1    3    3    0  502 -0.15379893311E+03 -0.66780797953E+03  0.61804864074E+02  0.68807082541E+03  0.10100000352E+00 0.  1.
</event>
<event>
 5   0  0.1427609E-04  0.1497431E+04  0.7818609E-02  0.8886163E-01
        1   -1    0    0  501    0  0.00000000000E+00  0.00000000000E+00  0.80663480877E+03  0.80663480878E+03  0.50400001928E-02 0. -1.
       -1   -1    0    0    0  501  0.00000000000E+00  0.00000000000E+00 -0.69495460810E+03  0.69495460812E+03  0.50400001928E-02 0.  1.
    10030    2    1    2    0    0  0.00000000000E+00  0.00000000000E+00  0.11168020066E+03  0.15015894169E+04  0.14974305693E+04 0.  0.
        4    1    3    3  502    0 -0.26986651929E+03 -0.16902769831E+03 -0.62366615985E+03  0.70025666214E+03  0.12699999809E+01 0.  1.
       -4    1    3    3    0  502  0.26986651929E+03  0.16902769831E+03  0.73534636051E+03  0.80133275476E+03  0.12699999809E+01 0. -1.
</event>
<event>
 5   0  0.1443750E-04  0.1499264E+04  0.7818609E-02  0.8884942E-01
        1   -1    0    0  501    0  0.00000000000E+00  0.00000000000E+00  0.12454370301E+04  0.12454370302E+04  0.50400001928E-02 0.  1.
       -1   -1    0    0    0  501  0.00000000000E+00  0.00000000000E+00 -0.45120563958E+03  0.45120563961E+03  0.50400001928E-02 0. -1.
    10030    2    1    2    0    0  0.00000000000E+00  0.00000000000E+00  0.79423139056E+03  0.16966426698E+04  0.14992641019E+04 0.  0.
        2    1    3    3  502    0  0.57483757762E+03  0.67215148475E+01 -0.14733018137E+03  0.59345564430E+03  0.25500000920E-02 0. -1.
       -2    1    3    3    0  502 -0.57483757762E+03 -0.67215148475E+01  0.94156157193E+03  0.11031870255E+04  0.25500000920E-02 0.  1.
</event>
<event>
 5   0  0.1484251E-04  0.1497289E+04  0.7818609E-02  0.8886258E-01
       -1   -1    0    0    0  501  0.00000000000E+00  0.00000000000E+00  0.77167681083E+03  0.77167681085E+03  0.50400001928E-02 0. -1.
        1   -1    0    0  501    0  0.00000000000E+00  0.00000000000E+00 -0.72629933578E+03  0.72629933580E+03  0.50400001928E-02 0.  1.
    10030    2    1    2    0    0  0.00000000000E+00  0.00000000000E+00  0.45377475044E+02  0.14979761466E+04  0.14972886898E+04 0.  0.
        5    1    3    3  502    0  0.19652356823E+03  0.39724464685E+03 -0.58093017302E+03  0.73070293433E+03  0.46999998093E+01 0.  1.
       -5    1    3    3    0  502 -0.19652356823E+03 -0.39724464685E+03  0.62630764806E+03  0.76727321232E+03  0.46999998093E+01 0. -1.
</event>
<event>
 5   0  0.2618901E-04  0.1514223E+04  0.7818609E-02  0.8875050E-01
       -2   -1    0    0    0  501  0.00000000000E+00  0.00000000000E+00  0.46897151616E+03  0.46897151617E+03  0.25500000920E-02 0.  1.
        2   -1    0    0  501    0  0.00000000000E+00  0.00000000000E+00 -0.12222869783E+04  0.12222869783E+04  0.25500000920E-02 0. -1.
    10030    2    1    2    0    0  0.00000000000E+00  0.00000000000E+00 -0.75331546214E+03  0.16912584945E+04  0.15142229392E+04 0.  0.
        1    1    3    3  502    0 -0.17996631119E+03  0.25187162309E+03  0.39505754429E+03  0.50189406353E+03  0.50400001928E-02 0.  1.
       -1    1    3    3    0  502  0.17996631119E+03 -0.25187162309E+03 -0.11483730064E+04  0.11893644309E+04  0.50400001928E-02 0. -1.
</event>
<event>
 5   0  0.2641347E-04  0.1496941E+04  0.7818609E-02  0.8886490E-01
       -2   -1    0    0    0  501  0.00000000000E+00  0.00000000000E+00  0.68624476123E+03  0.68624476123E+03  0.25500000920E-02 0.  1.
        2   -1    0    0  501    0  0.00000000000E+00  0.00000000000E+00 -0.81633826781E+03  0.81633826781E+03  0.25500000920E-02 0. -1.
    10030    2    1    2    0    0  0.00000000000E+00  0.00000000000E+00 -0.13009350658E+03  0.15025830290E+04  0.14969406931E+04 0.  0.
        4    1    3    3  502    0 -0.55009366853E+03  0.26787022013E+03 -0.49777346500E+03  0.78875695518E+03  0.12699999809E+01 0. -1.
       -4    1    3    3    0  502  0.55009366853E+03 -0.26787022013E+03  0.36767995842E+03  0.71382607386E+03  0.12699999809E+01 0.  1.
</event>
<event>
 5   0  0.2646718E-04  0.1502609E+04  0.7818609E-02  0.8882720E-01
        2   -1    0    0  501    0  0.00000000000E+00  0.00000000000E+00  0.92808422143E+03  0.92808422143E+03  0.25500000920E-02 0.  1.
       -2   -1    0    0    0  501  0.00000000000E+00  0.00000000000E+00 -0.60819741652E+03  0.60819741652E+03  0.25500000920E-02 0. -1.
    10030    2    1    2    0    0  0.00000000000E+00  0.00000000000E+00  0.31988680491E+03  0.15362816380E+04  0.15026089655E+04 0.  0.
        3    1    3    3  502    0 -0.71149203726E+03 -0.23778423220E+03  0.11783607412E+03  0.75937316962E+03  0.10100000352E+00 0.  1.
       -3    1    3    3    0  502  0.71149203726E+03  0.23778423220E+03  0.20205073078E+03  0.77690846834E+03  0.10100000352E+00 0. -1.
</event>
<event>
 5   0  0.1443750E-04  0.1495713E+04  0.7818609E-02  0.8887309E-01
       -1   -1    0    0    0  501  0.00000000000E+00  0.00000000000E+00  0.18557890525E+04  0.18557890525E+04  0.50400001928E-02 0.  1.
        1   -1    0    0  501    0  0.00000000000E+00  0.00000000000E+00 -0.30137529882E+03  0.30137529886E+03  0.50400001928E-02 0. -1.
    10030    2    1    2    0    0  0.00000000000E+00  0.00000000000E+00  0.15544137537E+04  0.21571643514E+04  0.14957125129E+04 0.  0.
        2    1    3    3  502    0 -0.32980794638E+03  0.47916066394E+03  0.14550877326E+04  0.15670509031E+04  0.25500000920E-02 0.  1.
       -2    1    3    3    0  502  0.32980794638E+03 -0.47916066394E+03  0.99326021092E+02  0.59011344827E+03  0.25500000920E-02 0. -1.
</event>
<event>
 5   0  0.1004313E-04  0.1512496E+04  0.7818609E-02  0.8876186E-01
       -4   -1    0    0    0  501  0.00000000000E+00  0.00000000000E+00  0.68705266194E+03  0.68705383572E+03  0.12699999809E+01 0. -1.
        4   -1    0    0  501    0  0.00000000000E+00  0.00000000000E+00 -0.83240961364E+03  0.83241058245E+03  0.12699999809E+01 0.  1.
    10030    2    1    2    0    0  0.00000000000E+00  0.00000000000E+00 -0.14535695170E+03  0.15194644182E+04  0.15124957768E+04 0.  0.
        1    1    3    3  502    0 -0.96002532977E+02  0.38325423853E+03 -0.72048322392E+03  0.82170333677E+03  0.50400001928E-02 0.  1.
       -1    1    3    3    0  502  0.96002532977E+02 -0.38325423853E+03  0.57512627223E+03  0.69776108140E+03  0.50400001928E-02 0. -1.
</event>
<event>
 5   0  0.1004313E-04  0.1503307E+04  0.7818609E-02  0.8882257E-01
       -3   -1    0    0    0  501  0.00000000000E+00  0.00000000000E+00  0.84390740469E+03  0.84390741074E+03  0.10100000352E+00 0. -1.
        3   -1    0    0  501    0  0.00000000000E+00  0.00000000000E+00 -0.66948464383E+03  0.66948465145E+03  0.10100000352E+00 0.  1.
    10030    2    1    2    0    0  0.00000000000E+00  0.00000000000E+00  0.17442276086E+03  0.15133920622E+04  0.15033070992E+04 0.  0.
        4    1    3    3  502    0  0.13194328710E+03  0.61380387231E+03 -0.32886165328E+03  0.70874242471E+03  0.12699999809E+01 0.  1.
       -4    1    3    3    0  502 -0.13194328710E+03 -0.61380387231E+03  0.50328441415E+03  0.80464963748E+03  0.12699999809E+01 0. -1.
</event>
<event>
 5   0  0.1004313E-04  0.1504190E+04  0.7818609E-02  0.8881672E-01
        3   -1    0    0  501    0  0.00000000000E+00  0.00000000000E+00  0.13845212864E+04  0.13845212901E+04  0.10100000352E+00 0.  1.
       -3   -1    0    0    0  501  0.00000000000E+00  0.00000000000E+00 -0.40855036271E+03  0.40855037519E+03  0.10100000352E+00 0. -1.
    10030    2    1    2    0    0  0.00000000000E+00  0.00000000000E+00  0.97597092366E+03  0.17930716652E+04  0.15041897330E+04 0.  0.
        2    1    3    3  502    0 -0.12785878157E+03  0.26161492745E+03  0.13145994507E+04  0.13464627563E+04  0.25500000920E-02 0.  1.
       -2    1    3    3    0  502  0.12785878157E+03 -0.26161492745E+03 -0.33862852700E+03  0.44660890899E+03  0.25500000920E-02 0. -1.
</event>
<event>
 5   0  0.1427609E-04  0.1496402E+04  0.7818609E-02  0.8886849E-01
       -1   -1    0    0    0  501  0.00000000000E+00  0.00000000000E+00  0.63357607006E+03  0.63357607008E+03  0.50400001928E-02 0.  1.
        1   -1    0    0  501    0  0.00000000000E+00  0.00000000000E+00 -0.88356308155E+03  0.88356308156E+03  0.50400001928E-02 0. -1.
    10030    2    1    2    0    0  0.00000000000E+00  0.00000000000E+00 -0.24998701149E+03  0.15171391516E+04  0.14964015836E+04 0.  0.
        4    1    3    3  502    0 -0.52518890845E+03 -0.14157201084E+03  0.39587394691E+03  0.67274350131E+03  0.12699999809E+01 0.  1.
       -4    1    3    3    0  502  0.52518890845E+03  0.14157201084E+03 -0.64586095840E+03  0.84439565033E+03  0.12699999809E+01 0. -1.
</event>
<event>
 5   0  0.1426929E-04  0.1500613E+04  0.7818609E-02  0.8884046E-01
        1   -1    0    0  501    0  0.00000000000E+00  0.00000000000E+00  0.11158341060E+04  0.11158341060E+04  0.50400001928E-02 0.  1.
       -1   -1    0    0    0  501  0.00000000000E+00  0.00000000000E+00 -0.50451906838E+03  0.50451906840E+03  0.50400001928E-02 0. -1.
    10030    2    1    2    0    0  0.00000000000E+00  0.00000000000E+00  0.61131503765E+03  0.16203531744E+04  0.15006126531E+04 0.  0.
        1    1    3    3  502    0 -0.38546228471E+03  0.11609025951E+03  0.98934857780E+03  0.10681145677E+04  0.50400001928E-02 0.  1.
       -1    1    3    3    0  502  0.38546228471E+03 -0.11609025951E+03 -0.37803354015E+03  0.55223860675E+03  0.50400001928E-02 0. -1.
</event>
<event>
 5   0  0.2641347E-04  0.1501745E+04  0.7818609E-02  0.8883293E-01
       -2   -1    0    0    0  501  0.00000000000E+00  0.00000000000E+00  0.58251908643E+03  0.58251908643E+03  0.25500000920E-02 0. -1.
        2   -1    0    0  501    0  0.00000000000E+00  0.00000000000E+00 -0.96788187102E+03  0.96788187103E+03  0.25500000920E-02 0.  1.
    10030    2    1    2    0    0  0.00000000000E+00  0.00000000000E+00 -0.38536278460E+03  0.15504009575E+04  0.15017452025E+04 0.  0.
        4    1    3    3  502    0  0.32031362507E+02  0.26651793604E+03  0.53128775959E+03  0.59525298386E+03  0.12699999809E+01 0. -1.
       -4    1    3    3    0  502 -0.32031362507E+02 -0.26651793604E+03 -0.91665054418E+03  0.95514797360E+03  0.12699999809E+01 0.  1.
</event>
<event>
 5   0  0.2734072E-04  0.1541644E+04  0.7818609E-02  0.8857223E-01
        2   -1    0    0  501    0  0.00000000000E+00  0.00000000000E+00  0.63264953963E+03  0.63264953964E+03  0.25500000920E-02 0. -1.
       -2   -1    0    0    0  501  0.00000000000E+00  0.00000000000E+00 -0.93917131020E+03  0.93917131020E+03  0.25500000920E-02 0.  1.
    10030    2    1    2    0    0  0.00000000000E+00  0.00000000000E+00 -0.30652177056E+03  0.15718208498E+04  0.15416436645E+04 0.  0.
        5    1    3    3  502    0 -0.32393321402E+03 -0.46615253799E+03  0.37839945034E+03  0.68223100914E+03  0.46999998093E+01 0. -1.
       -5    1    3    3    0  502  0.32393321402E+03  0.46615253799E+03 -0.68492122090E+03  0.88958984069E+03  0.46999998093E+01 0.  1.
</event>
<event>
 5   0  0.1484251E-04  0.1407904E+04  0.7818609E-02  0.8948117E-01
        1   -1    0    0  501    0  0.00000000000E+00  0.00000000000E+00  0.13061046684E+04  0.13061046684E+04  0.50400001928E-02 0.  1.
       -1   -1    0    0    0  501  0.00000000000E+00  0.00000000000E+00 -0.37940956419E+03  0.37940956422E+03  0.50400001928E-02 0. -1.
    10030    2    1    2    0    0  0.00000000000E+00  0.00000000000E+00  0.92669510424E+03  0.16855142327E+04  0.14079042625E+04 0.  0.
        5    1    3    3  502    0  0.81940375131E+02 -0.47486623498E+03 -0.15097514545E+03  0.50500272350E+03  0.46999998093E+01 0. -1.
       -5    1    3    3    0  502 -0.81940375131E+02  0.47486623498E+03  0.10776702497E+04  0.11805115092E+04  0.46999998093E+01 0.  1.
</event>
<event>
 5   0  0.2618901E-04  0.1475655E+04  0.7818609E-02  0.8900805E-01
        2   -1    0    0  501    0  0.00000000000E+00  0.00000000000E+00  0.12339563329E+04  0.12339563329E+04  0.25500000920E-02 0.  1.
       -2   -1    0    0    0  501  0.00000000000E+00  0.00000000000E+00 -0.44117389190E+03  0.44117389190E+03  0.25500000920E-02 0. -1.
    10030    2    1    2    0    0  0.00000000000E+00  0.00000000000E+00  0.79278244097E+03  0.16751302248E+04  0.14756548618E+04 0.  0.
        1    1    3    3  502    0  0.41889456379E+03  0.35677142038E+03  0.95439859926E+03  0.11016511191E+04  0.50400001928E-02 0.  1.
       -1    1    3    3    0  502 -0.41889456379E+03 -0.35677142038E+03 -0.16161615829E+03  0.57347910565E+03  0.50400001928E-02 0. -1.
</event>
<event>
 5   0  0.2696040E-04  0.1499374E+04  0.7818609E-02  0.8884869E-01
        2   -1    0    0  501    0  0.00000000000E+00  0.00000000000E+00  0.17468775955E+04  0.17468775955E+04  0.25500000920E-02 0. -1.
       -2   -1    0    0    0  501  0.00000000000E+00  0.00000000000E+00 -0.32173430580E+03  0.32173430581E+03  0.25500000920E-02 0.  1.
    10030    2    1    2    0    0  0.00000000000E+00  0.00000000000E+00  0.14251432897E+04  0.20686119013E+04  0.14993738033E+04 0.  0.
        2    1    3    3  502    0 -0.40053351967E+03 -0.72245920201E+02  0.15811861770E+04  0.16327266458E+04  0.25500000920E-02 0. -1.
       -2    1    3    3    0  502  0.40053351967E+03  0.72245920201E+02 -0.15604288728E+03  0.43588525559E+03  0.25500000920E-02 0.  1.
</event>
<event>
 5   0  0.2696040E-04  0.1502155E+04  0.7818609E-02  0.8883021E-01
       -2   -1    0    0    0  501  0.00000000000E+00  0.00000000000E+00  0.68021094248E+03  0.68021094249E+03  0.25500000920E-02 0.  1.
        2   -1    0    0  501    0  0.00000000000E+00  0.00000000000E+00 -0.82932709449E+03  0.82932709449E+03  0.25500000920E-02 0. -1.
    10030    2    1    2    0    0  0.00000000000E+00  0.00000000000E+00 -0.14911615200E+03  0.15095380370E+04  0.15021549382E+04 0.  0.
        2    1    3    3  502    0 -0.18147408552E+03 -0.34023124056E+02  0.65704968907E+03  0.68249887224E+03  0.25500000920E-02 0.  1.
       -2    1    3    3    0  502  0.18147408552E+03  0.34023124056E+02 -0.80616584108E+03  0.82703916474E+03  0.25500000920E-02 0. -1.
</event>
<event>
 5   0  0.1427609E-04  0.1496492E+04  0.7818609E-02  0.8886789E-01
        1   -1    0    0  501    0  0.00000000000E+00  0.00000000000E+00  0.23176980817E+04  0.23176980817E+04  0.50400001928E-02 0.  1.
       -1   -1    0    0    0  501  0.00000000000E+00  0.00000000000E+00 -0.24156399744E+03  0.24156399749E+03  0.50400001928E-02 0. -1.
    10030    2    1    2    0    0  0.00000000000E+00  0.00000000000E+00  0.20761340842E+04  0.25592620792E+04  0.14964924504E+04 0.  0.
        4    1    3    3  502    0  0.17098396356E+03  0.44899789617E+02  0.22814695431E+04  0.22883086321E+04  0.12699999809E+01 0.  1.
       -4    1    3    3    0  502 -0.17098396356E+03 -0.44899789617E+02 -0.20533545886E+03  0.27095344705E+03  0.12699999809E+01 0. -1.
</event>
<event>
 5   0  0.1426929E-04  0.1495823E+04  0.7818609E-02  0.8887235E-01
        1   -1    0    0  501    0  0.00000000000E+00  0.00000000000E+00  0.84419636185E+03  0.84419636186E+03  0.50400001928E-02 0. -1.
       -1   -1    0    0    0  501  0.00000000000E+00  0.00000000000E+00 -0.66260883263E+03  0.66260883265E+03  0.50400001928E-02 0.  1.
    10030    2    1    2    0    0  0.00000000000E+00  0.00000000000E+00  0.18158752922E+03  0.15068051945E+04  0.14958234734E+04 0.  0.
        1    1    3    3  502    0 -0.67038839331E+03  0.64328632505E+02  0.41847130761E+03  0.79289154754E+03  0.50400001928E-02 0.  1.
       -1    1    3    3    0  502  0.67038839331E+03 -0.64328632505E+02 -0.23688377839E+03  0.71391364697E+03  0.50400001928E-02 0. -1.
</event>
<event>
 5   0  0.2734072E-04  0.1503015E+04  0.7818609E-02  0.8882451E-01
       -2   -1    0    0    0  501  0.00000000000E+00  0.00000000000E+00  0.53868421415E+03  0.53868421416E+03  0.25500000920E-02 0.  1.
        2   -1    0    0  501    0  0.00000000000E+00  0.00000000000E+00 -0.10484128484E+04  0.10484128484E+04  0.25500000920E-02 0. -1.
    10030    2    1    2    0    0  0.00000000000E+00  0.00000000000E+00 -0.50972863421E+03  0.15870970625E+04  0.15030149052E+04 0.  0.
        5    1    3    3  502    0 -0.99176366529E+01  0.32305385290E+03 -0.97125656858E+03  0.10236325334E+04  0.46999998093E+01 0. -1.
       -5    1    3    3    0  502  0.99176366529E+01 -0.32305385290E+03  0.46152793437E+03  0.56346452913E+03  0.46999998093E+01 0.  1.
</event>
<event>
 5   0  0.1484251E-04  0.1461153E+04  0.7818609E-02  0.8910705E-01
        1   -1    0    0  501    0  0.00000000000E+00  0.00000000000E+00  0.49455541184E+03  0.49455541186E+03  0.50400001928E-02 0. -1.
       -1   -1    0    0    0  501  0.00000000000E+00  0.00000000000E+00 -0.10792360844E+04  0.10792360844E+04  0.50400001928E-02 0.  1.
    10030    2    1    2    0    0  0.00000000000E+00  0.00000000000E+00 -0.58468067258E+03  0.15737914963E+04  0.14611530327E+04 0.  0.
        5    1    3    3  502    0 -0.17395773597E+03 -0.24141246432E+03  0.42631171807E+03  0.51990868697E+03  0.46999998093E+01 0. -1.
       -5    1    3    3    0  502  0.17395773597E+03  0.24141246432E+03 -0.10109923906E+04  0.10538828093E+04  0.46999998093E+01 0.  1.
</event>
<event>
 5   0  0.2696040E-04  0.1500520E+04  0.7818609E-02  0.8884107E-01
       -2   -1    0    0    0  501  0.00000000000E+00  0.00000000000E+00  0.82127091844E+03  0.82127091844E+03  0.25500000920E-02 0. -1.
        2   -1    0    0  501    0  0.00000000000E+00  0.00000000000E+00 -0.68538945832E+03  0.68538945832E+03  0.25500000920E-02 0.  1.
    10030    2    1    2    0    0  0.00000000000E+00  0.00000000000E+00  0.13588146012E+03  0.15066603768E+04  0.15005204829E+04 0.  0.
        2    1    3    3  502    0  0.45566867929E+03 -0.53656441750E+03 -0.19264985167E+03  0.72982825703E+03  0.25500000920E-02 0. -1.
       -2    1    3    3    0  502 -0.45566867929E+03  0.53656441750E+03  0.32853131179E+03  0.77683211973E+03  0.25500000920E-02 0.  1.
</event>
<event>
 5   0  0.2641347E-04  0.1500688E+04  0.7818609E-02  0.8883995E-01
        2   -1    0    0  501    0  0.00000000000E+00  0.00000000000E+00  0.81969316783E+03  0.81969316783E+03  0.25500000920E-02 0. -1.
       -2   -1    0    0    0  501  0.00000000000E+00  0.00000000000E+00 -0.68686223581E+03  0.68686223581E+03  0.25500000920E-02 0.  1.
    10030    2    1    2    0    0  0.00000000000E+00  0.00000000000E+00  0.13283093202E+03  0.15065554036E+04  0.15006882180E+04 0.  0.
        4    1    3    3  502    0  0.20948101317E+01 -0.33318615282E+03 -0.60852045066E+03  0.69376952400E+03  0.12699999809E+01 0.  1.
       -4    1    3    3    0  502 -0.20948101317E+01  0.33318615282E+03  0.74135138267E+03  0.81278587965E+03  0.12699999809E+01 0. -1.
</event>
<event>
 5   0  0.1427609E-04  0.1455076E+04  0.7818609E-02  0.8914889E-01
       -1   -1    0    0    0  501  0.00000000000E+00  0.00000000000E+00  0.65292370604E+03  0.65292370606E+03  0.50400001928E-02 0. -1.
        1   -1    0    0  501    0  0.00000000000E+00  0.00000000000E+00 -0.81067907581E+03  0.81067907582E+03  0.50400001928E-02 0.  1.
    10030    2    1    2    0    0  0.00000000000E+00  0.00000000000E+00 -0.15775536977E+03  0.14636027819E+04  0.14550760621E+04 0.  0.
        4    1    3    3  502    0 -0.63266956538E+02 -0.50023601499E+03 -0.60642338491E+03  0.78866324445E+03  0.12699999809E+01 0.  1.
       -4    1    3    3    0  502  0.63266956538E+02  0.50023601499E+03  0.44866801513E+03  0.67493953743E+03  0.12699999809E+01 0. -1.
</event>
<event>
 5   0  0.2734072E-04  0.1502227E+04  0.7818609E-02  0.8882974E-01
        2   -1    0    0  501    0  0.00000000000E+00  0.00000000000E+00  0.15538826102E+04  0.15538826102E+04  0.25500000920E-02 0. -1.
       -2   -1    0    0    0  501  0.00000000000E+00  0.00000000000E+00 -0.36307197478E+03  0.36307197479E+03  0.25500000920E-02 0.  1.
    10030    2    1    2    0    0  0.00000000000E+00  0.00000000000E+00  0.11908106355E+04  0.19169545850E+04  0.15022266512E+04 0.  0.
        5    1    3    3  502    0 -0.21346298842E+02  0.74732595594E+03  0.68740132376E+03  0.10156251369E+04  0.46999998093E+01 0.  1.
       -5    1    3    3    0  502  0.21346298842E+02 -0.74732595594E+03  0.50340931171E+03  0.90132944810E+03  0.46999998093E+01 0. -1.
</event>
<event>
 5   0  0.2646718E-04  0.1499230E+04  0.7818609E-02  0.8884965E-01
       -2   -1    0    0    0  501  0.00000000000E+00  0.00000000000E+00  0.71287798980E+03  0.71287798980E+03  0.25500000920E-02 0. -1.
        2   -1    0    0  501    0  0.00000000000E+00  0.00000000000E+00 -0.78824490049E+03  0.78824490050E+03  0.25500000920E-02 0.  1.
    10030    2    1    2    0    0  0.00000000000E+00  0.00000000000E+00 -0.75366910697E+02  0.15011228903E+04  0.14992297224E+04 0.  0.
        3    1    3    3  502    0  0.39107776634E+03 -0.54362780558E+03  0.29956440510E+03  0.73362923424E+03  0.10100000352E+00 0. -1.
       -3    1    3    3    0  502 -0.39107776634E+03  0.54362780558E+03 -0.37493131580E+03  0.76749365606E+03  0.10100000352E+00 0.  1.
</event>
<event>
 5   0  0.2641347E-04  0.1498204E+04  0.7818609E-02  0.8885648E-01
       -2   -1    0    0    0  501  0.00000000000E+00  0.00000000000E+00  0.30004894883E+03  0.30004894884E+03  0.25500000920E-02 0.  1.
        2   -1    0    0  501    0  0.00000000000E+00  0.00000000000E+00 -0.18702073351E+04  0.18702073351E+04  0.25500000920E-02 0. -1.
    10030    2    1    2    0    0  0.00000000000E+00  0.00000000000E+00 -0.15701583863E+04  0.21702562839E+04  0.14982039180E+04 0.  0.
        4    1    3    3  502    0  0.58093002890E+03  0.62414729441E+02 -0.10598338219E+03  0.59380921778E+03  0.12699999809E+01 0.  1.
       -4    1    3    3    0  502 -0.58093002890E+03 -0.62414729441E+02 -0.14641750041E+04  0.15764470662E+04  0.12699999809E+01 0. -1.
</event>
<event>
 5   0  0.1443750E-04  0.1484961E+04  0.7818609E-02  0.8894516E-01
       -1   -1    0    0    0  501  0.00000000000E+00  0.00000000000E+00  0.88531095061E+03  0.88531095062E+03  0.50400001928E-02 0. -1.
        1   -1    0    0  501    0  0.00000000000E+00  0.00000000000E+00 -0.62269364676E+03  0.62269364678E+03  0.50400001928E-02 0.  1.
    10030    2    1    2    0    0  0.00000000000E+00  0.00000000000E+00  0.26261730385E+03  0.15080045974E+04  0.14849612849E+04 0.  0.
        2    1    3    3  502    0  0.71208930397E+03  0.19600859568E+03  0.54056124190E+02  0.74054885792E+03  0.25500000920E-02 0.  1.
       -2    1    3    3    0  502 -0.71208930397E+03 -0.19600859568E+03  0.20856117966E+03  0.76745573948E+03  0.25500000920E-02 0. -1.
</event>
<event>
 5   0  0.2646718E-04  0.1496422E+04  0.7818609E-02  0.8886836E-01
       -2   -1    0    0    0  501  0.00000000000E+00  0.00000000000E+00  0.42422289057E+03  0.42422289058E+03  0.25500000920E-02 0.  1.
        2   -1    0    0  501    0  0.00000000000E+00  0.00000000000E+00 -0.13196355397E+04  0.13196355397E+04  0.25500000920E-02 0. -1.
    10030    2    1    2    0    0  0.00000000000E+00  0.00000000000E+00 -0.89541264917E+03  0.17438584303E+04  0.14964218699E+04 0.  0.
        3    1    3    3  502    0 -0.27691778290E+03  0.68974802081E+02 -0.12537211969E+04  0.12857907417E+04  0.10100000352E+00 0. -1.
       -3    1    3    3    0  502  0.27691778290E+03 -0.68974802081E+02  0.35830854769E+03  0.45806768862E+03  0.10100000352E+00 0.  1.
</event>
<event>
 5   0  0.1474203E-04  0.1498120E+04  0.7818609E-02  0.8885704E-01
        1   -1    0    0  501    0  0.00000000000E+00  0.00000000000E+00  0.60891748022E+03  0.60891748024E+03  0.50400001928E-02 0.  1.
       -1   -1    0    0    0  501  0.00000000000E+00  0.00000000000E+00 -0.92145650503E+03  0.92145650505E+03  0.50400001928E-02 0. -1.
    10030    2    1    2    0    0  0.00000000000E+00  0.00000000000E+00 -0.31253902481E+03  0.15303739853E+04  0.14981201196E+04 0.  0.
        3    1    3    3  502    0 -0.34779016139E+03 -0.37002091831E+03  0.40623765396E+03  0.65030955555E+03  0.10100000352E+00 0.  1.
       -3    1    3    3    0  502  0.34779016139E+03  0.37002091831E+03 -0.71877667877E+03  0.88006442974E+03  0.10100000352E+00 0. -1.
</event>
<event>
 5   0  0.2641347E-04  0.1497846E+04  0.7818609E-02  0.8885886E-01
       -2   -1    0    0    0  501  0.00000000000E+00  0.00000000000E+00  0.36395773677E+03  0.36395773678E+03  0.25500000920E-02 0.  1.
        2   -1    0    0  501    0  0.00000000000E+00  0.00000000000E+00 -0.15410741500E+04  0.15410741500E+04  0.25500000920E-02 0. -1.
    10030    2    1    2    0    0  0.00000000000E+00  0.00000000000E+00 -0.11771164132E+04  0.19050318867E+04  0.14978462669E+04 0.  0.
        4    1    3    3  502    0 -0.66684310831E+02 -0.43378049823E+03  0.18326763707E+03  0.47560588480E+03  0.12699999809E+01 0.  1.
       -4    1    3    3    0  502  0.66684310831E+02  0.43378049823E+03 -0.13603840503E+04  0.14294260019E+04  0.12699999809E+01 0. -1.
</event>
<event>
 5   0  0.1426929E-04  0.1494059E+04  0.7818609E-02  0.8888413E-01
       -1   -1    0    0    0  501  0.00000000000E+00  0.00000000000E+00  0.48225649025E+03  0.48225649028E+03  0.50400001928E-02 0. -1.
        1   -1    0    0  501    0  0.00000000000E+00  0.00000000000E+00 -0.11571709037E+04  0.11571709037E+04  0.50400001928E-02 0.  1.
    10030    2    1    2    0    0  0.00000000000E+00  0.00000000000E+00 -0.67491441348E+03  0.16394273940E+04  0.14940591403E+04 0.  0.
        1    1    3    3  502    0 -0.43292347794E+03  0.71095914298E+02 -0.10009147336E+04  0.10928438455E+04  0.50400001928E-02 0.  1.
       -1    1    3    3    0  502  0.43292347794E+03 -0.71095914298E+02  0.32600032009E+03  0.54658354851E+03  0.50400001928E-02 0. -1.
</event>
<event>
 5   0  0.2734072E-04  0.1442530E+04  0.7818609E-02  0.8923596E-01
        2   -1    0    0  501    0  0.00000000000E+00  0.00000000000E+00  0.18384023807E+04  0.18384023807E+04  0.25500000920E-02 0.  1.
       -2   -1    0    0    0  501  0.00000000000E+00  0.00000000000E+00 -0.28297570093E+03  0.28297570095E+03  0.25500000920E-02 0. -1.
    10030    2    1    2    0    0  0.00000000000E+00  0.00000000000E+00  0.15554266798E+04  0.21213780817E+04  0.14425300029E+04 0.  0.
        5    1    3    3  502    0  0.68883960288E+03  0.87573077176E+01  0.46359599572E+03  0.83037342574E+03  0.46999998093E+01 0. -1.
       -5    1    3    3    0  502 -0.68883960288E+03 -0.87573077176E+01  0.10918306841E+04  0.12910046559E+04  0.46999998093E+01 0.  1.
</event>
<event>
 5   0  0.1484251E-04  0.1499524E+04  0.7818609E-02  0.8884770E-01
       -1   -1    0    0    0  501  0.00000000000E+00  0.00000000000E+00  0.49891739482E+03  0.49891739484E+03  0.50400001928E-02 0.  1.
        1   -1    0    0  501    0  0.00000000000E+00  0.00000000000E+00 -0.11267257154E+04  0.11267257154E+04  0.50400001928E-02 0. -1.
    10030    2    1    2    0    0  0.00000000000E+00  0.00000000000E+00 -0.62780832055E+03  0.16256431102E+04  0.14995240026E+04 0.  0.
        5    1    3    3  502    0  0.32086540703E+03 -0.42327496220E+03  0.25975564325E+03  0.59127944937E+03  0.46999998093E+01 0.  1.
       -5    1    3    3    0  502 -0.32086540703E+03  0.42327496220E+03 -0.88756396380E+03  0.10343636608E+04  0.46999998093E+01 0. -1.
</event>
<event>
 5   0  0.1484251E-04  0.1495870E+04  0.7818609E-02  0.8887204E-01
        1   -1    0    0  501    0  0.00000000000E+00  0.00000000000E+00  0.90254481200E+03  0.90254481201E+03  0.50400001928E-02 0. -1.
       -1   -1    0    0    0  501  0.00000000000E+00  0.00000000000E+00 -0.61981052915E+03  0.61981052917E+03  0.50400001928E-02 0.  1.
    10030    2    1    2    0    0  0.00000000000E+00  0.00000000000E+00  0.28273428285E+03  0.15223553412E+04  0.14958700178E+04 0.  0.
        5    1    3    3  502    0 -0.42785137366E+03  0.35022864509E+03  0.65393909210E+03  0.85637335780E+03  0.46999998093E+01 0. -1.
       -5    1    3    3    0  502  0.42785137366E+03 -0.35022864509E+03 -0.37120480925E+03  0.66598198338E+03  0.46999998093E+01 0.  1.
</event>
<event>
 5   0  0.2734072E-04  0.1510933E+04  0.7818609E-02  0.8877215E-01
       -2   -1    0    0    0  501  0.00000000000E+00  0.00000000000E+00  0.32190375932E+03  0.32190375933E+03  0.25500000920E-02 0. -1.
        2   -1    0    0  501    0  0.00000000000E+00  0.00000000000E+00 -0.17729823521E+04  0.17729823521E+04  0.25500000920E-02 0.  1.
    10030    2    1    2    0    0  0.00000000000E+00  0.00000000000E+00 -0.14510785928E+04  0.20948861114E+04  0.15109330685E+04 0.  0.
        5    1    3    3  502    0 -0.71011564617E+03  0.24462144235E+03 -0.83820955686E+03  0.11254871089E+04  0.46999998093E+01 0.  1.
       -5    1    3    3    0  502  0.71011564617E+03 -0.24462144235E+03 -0.61286903589E+03  0.96939900255E+03  0.46999998093E+01 0. -1.
</event>
<event>
 5   0  0.1427609E-04  0.1499957E+04  0.7818609E-02  0.8884481E-01
        1   -1    0    0  501    0  0.00000000000E+00  0.00000000000E+00  0.84682877648E+03  0.84682877650E+03  0.50400001928E-02 0. -1.
       -1   -1    0    0    0  501  0.00000000000E+00  0.00000000000E+00 -0.66420515560E+03  0.66420515562E+03  0.50400001928E-02 0.  1.
    10030    2    1    2    0    0  0.00000000000E+00  0.00000000000E+00  0.18262362088E+03  0.15110339321E+04  0.14999573851E+04 0.  0.
        4    1    3    3  502    0  0.27700397475E+03 -0.49355279438E+03 -0.40440008410E+03  0.69560520685E+03  0.12699999809E+01 0.  1.
       -4    1    3    3    0  502 -0.27700397475E+03  0.49355279438E+03  0.58702370499E+03  0.81542872527E+03  0.12699999809E+01 0. -1.
</event>
<event>
 5   0  0.1427609E-04  0.1500312E+04  0.7818609E-02  0.8884245E-01
       -1   -1    0    0    0  501  0.00000000000E+00  0.00000000000E+00  0.69842932394E+03  0.69842932395E+03  0.50400001928E-02 0.  1.
        1   -1    0    0  501    0  0.00000000000E+00  0.00000000000E+00 -0.80571406611E+03  0.80571406613E+03  0.50400001928E-02 0. -1.
    10030    2    1    2    0    0  0.00000000000E+00  0.00000000000E+00 -0.10728474218E+03  0.15041433901E+04  0.15003124081E+04 0.  0.
        4    1    3    3  502    0 -0.37503868922E+03 -0.47781283897E+03  0.38767887049E+03  0.72059395433E+03  0.12699999809E+01 0.  1.
       -4    1    3    3    0  502  0.37503868922E+03  0.47781283897E+03 -0.49496361267E+03  0.78354943575E+03  0.12699999809E+01 0. -1.
</event>
<event>
 5   0  0.1484251E-04  0.1501810E+04  0.7818609E-02  0.8883250E-01
       -1   -1    0    0    0  501  0.00000000000E+00  0.00000000000E+00  0.26341277169E+03  0.26341277173E+03  0.50400001928E-02 0. -1.
        1   -1    0    0  501    0  0.00000000000E+00  0.00000000000E+00 -0.21405878531E+04  0.21405878531E+04  0.50400001928E-02 0.  1.
    10030    2    1    2    0    0  0.00000000000E+00  0.00000000000E+00 -0.18771750814E+04  0.24040006248E+04  0.15018098142E+04 0.  0.
        5    1    3    3  502    0 -0.24921063136E+03 -0.44042706966E+03 -0.50569896320E+02  0.50858760001E+03  0.46999998093E+01 0. -1.
       -5    1    3    3    0  502  0.24921063136E+03  0.44042706966E+03 -0.18266051851E+04  0.18954130248E+04  0.46999998093E+01 0.  1.
</event>
<event>
 5   0  0.1443750E-04  0.1488331E+04  0.7818609E-02  0.8892250E-01
        1   -1    0    0  501    0  0.00000000000E+00  0.00000000000E+00  0.90334402481E+03  0.90334402483E+03  0.50400001928E-02 0. -1.
       -1   -1    0    0    0  501  0.00000000000E+00  0.00000000000E+00 -0.61303578412E+03  0.61303578414E+03  0.50400001928E-02 0.  1.
    10030    2    1    2    0    0  0.00000000000E+00  0.00000000000E+00  0.29030824070E+03  0.15163798090E+04  0.14883308941E+04 0.  0.
        2    1    3    3  502    0  0.18049094557E+03 -0.12234847004E+03  0.87006571286E+03  0.89697295068E+03  0.25500000920E-02 0. -1.
       -2    1    3    3    0  502 -0.18049094557E+03  0.12234847004E+03 -0.57975747216E+03  0.61940685828E+03  0.25500000920E-02 0.  1.
</event>
<event>
 5   0  0.1427609E-04  0.1499297E+04  0.7818609E-02  0.8884921E-01
       -1   -1    0    0    0  501  0.00000000000E+00  0.00000000000E+00  0.39488681018E+03  0.39488681021E+03  0.50400001928E-02 0.  1.
        1   -1    0    0  501    0  0.00000000000E+00  0.00000000000E+00 -0.14231238305E+04  0.14231238305E+04  0.50400001928E-02 0. -1.
    10030    2    1    2    0    0  0.00000000000E+00  0.00000000000E+00 -0.10282370203E+04  0.18180106407E+04  0.14992969418E+04 0.  0.
        4    1    3    3  502    0 -0.43034398430E+02 -0.29996383475E+03  0.31730597166E+03  0.43876526088E+03  0.12699999809E+01 0.  1.
       -4    1    3    3    0  502  0.43034398430E+02  0.29996383475E+03 -0.13455429919E+04  0.13792453798E+04  0.12699999809E+01 0. -1.
</event>
<event>
 5   0  0.1427609E-04  0.1511732E+04  0.7818609E-02  0.8876688E-01
        1   -1    0    0  501    0  0.00000000000E+00  0.00000000000E+00  0.11881694860E+04  0.11881694860E+04  0.50400001928E-02 0.  1.
       -1   -1    0    0    0  501  0.00000000000E+00  0.00000000000E+00 -0.48085204694E+03  0.48085204697E+03  0.50400001928E-02 0. -1.
    10030    2    1    2    0    0  0.00000000000E+00  0.00000000000E+00  0.70731743908E+03  0.16690215330E+04  0.15117324227E+04 0.  0.
        4    1    3    3  502    0 -0.14063270818E+03 -0.43463285516E+03 -0.31120120806E+03  0.55274866096E+03  0.12699999809E+01 0. -1.
       -4    1    3    3    0  502  0.14063270818E+03  0.43463285516E+03  0.10185186471E+04  0.11162728720E+04  0.12699999809E+01 0.  1.
</event>
<event>
 5   0  0.1426929E-04  0.1490347E+04  0.7818609E-02  0.8890898E-01
       -1   -1    0    0    0  501  0.00000000000E+00  0.00000000000E+00  0.82646094960E+03  0.82646094962E+03  0.50400001928E-02 0. -1.
        1   -1    0    0  501    0  0.00000000000E+00  0.00000000000E+00 -0.67188117314E+03  0.67188117316E+03  0.50400001928E-02 0.  1.
    10030    2    1    2    0    0  0.00000000000E+00  0.00000000000E+00  0.15457977646E+03  0.14983421228E+04  0.14903470098E+04 0.  0.
        1    1    3    3  502    0  0.15514079387E+03  0.25995961145E+03  0.76185082077E+03  0.81979530289E+03  0.50400001928E-02 0. -1.
       -1    1    3    3    0  502 -0.15514079387E+03 -0.25995961145E+03 -0.60727104431E+03  0.67854681989E+03  0.50400001928E-02 0.  1.
</event>
<event>
 5   0  0.2696040E-04  0.1501560E+04  0.7818609E-02  0.8883416E-01
       -2   -1    0    0    0  501  0.00000000000E+00  0.00000000000E+00  0.13145797392E+04  0.13145797392E+04  0.25500000920E-02 0.  1.
        2   -1    0    0  501    0  0.00000000000E+00  0.00000000000E+00 -0.42878365026E+03  0.42878365027E+03  0.25500000920E-02 0. -1.
    10030    2    1    2    0    0  0.00000000000E+00  0.00000000000E+00  0.88579608899E+03  0.17433633895E+04  0.15015595881E+04 0.  0.
        2    1    3    3  502    0 -0.37252066183E+03 -0.40445825739E+03  0.10364041232E+04  0.11732398016E+04  0.25500000920E-02 0.  1.
       -2    1    3    3    0  502  0.37252066183E+03  0.40445825739E+03 -0.15060803426E+03  0.57012358788E+03  0.25500000920E-02 0. -1.
</event>
<event>
 5   0  0.1426929E-04  0.1511338E+04  0.7818609E-02  0.8876948E-01
       -1   -1    0    0    0  501  0.00000000000E+00  0.00000000000E+00  0.73781821901E+03  0.73781821903E+03  0.50400001928E-02 0. -1.
        1   -1    0    0  501    0  0.00000000000E+00  0.00000000000E+00 -0.77395161017E+03  0.77395161018E+03  0.50400001928E-02 0.  1.
    10030    2    1    2    0    0  0.00000000000E+00  0.00000000000E+00 -0.36133391157E+02  0.15117698292E+04  0.15113379485E+04 0.  0.
        1    1    3    3  502    0 -0.57074830284E+03  0.48203455140E+03  0.95652486795E+02  0.75316686876E+03  0.50400001928E-02 0. -1.
       -1    1    3    3    0  502  0.57074830284E+03 -0.48203455140E+03 -0.13178587795E+03  0.75860296045E+03  0.50400001928E-02 0.  1.
</event>
<event>
 5   0  0.1427609E-04  0.1497628E+04  0.7818609E-02  0.8886031E-01
        1   -1    0    0  501    0  0.00000000000E+00  0.00000000000E+00  0.66440476942E+03  0.66440476944E+03  0.50400001928E-02 0. -1.
       -1   -1    0    0    0  501  0.00000000000E+00  0.00000000000E+00 -0.84394754387E+03  0.84394754389E+03  0.50400001928E-02 0.  1.
    10030    2    1    2    0    0  0.00000000000E+00  0.00000000000E+00 -0.17954277445E+03  0.15083523133E+04  0.14976284897E+04 0.  0.
        4    1    3    3  502    0  0.17012687609E+03  0.48169385376E+02  0.64307734649E+03  0.66694342348E+03  0.12699999809E+01 0. -1.
       -4    1    3    3    0  502 -0.17012687609E+03 -0.48169385376E+02 -0.82262012093E+03  0.84140888985E+03  0.12699999809E+01 0.  1.
</event>
<event>
 5   0  0.2734072E-04  0.1501974E+04  0.7818609E-02  0.8883142E-01
        2   -1    0    0  501    0  0.00000000000E+00  0.00000000000E+00  0.12440635327E+04  0.12440635327E+04  0.25500000920E-02 0. -1.
       -2   -1    0    0    0  501  0.00000000000E+00  0.00000000000E+00 -0.45333786931E+03  0.45333786932E+03  0.25500000920E-02 0.  1.
    10030    2    1    2    0    0  0.00000000000E+00  0.00000000000E+00  0.79072566342E+03  0.16974014020E+04  0.15019735167E+04 0.  0.
        5    1    3    3  502    0  0.48429516881E+03  0.21021893962E+03 -0.20819130974E+03  0.56753812608E+03  0.46999998093E+01 0.  1.
       -5    1    3    3    0  502 -0.48429516881E+03 -0.21021893962E+03  0.99891697316E+03  0.11298632760E+04  0.46999998093E+01 0. -1.
</event>
<event>
 5   0  0.2734072E-04  0.1503673E+04  0.7818609E-02  0.8882014E-01
       -2   -1    0    0    0  501  0.00000000000E+00  0.00000000000E+00  0.39463799249E+03  0.39463799250E+03  0.25500000920E-02 0.  1.
        2   -1    0    0  501    0  0.00000000000E+00  0.00000000000E+00 -0.14323451069E+04  0.14323451069E+04  0.25500000920E-02 0. -1.
    10030    2    1    2    0    0  0.00000000000E+00  0.00000000000E+00 -0.10377071144E+04  0.18269830994E+04  0.15036725675E+04 0.  0.
        5    1    3    3  502    0  0.58159780926E+03 -0.42663855134E+03 -0.26122693169E+03  0.76716234596E+03  0.46999998093E+01 0.  1.
       -5    1    3    3    0  502 -0.58159780926E+03  0.42663855134E+03 -0.77648018269E+03  0.10598207534E+04  0.46999998093E+01 0. -1.
</event>
<event>
 5   0  0.1474203E-04  0.1504202E+04  0.7818609E-02  0.8881663E-01
       -1   -1    0    0    0  501  0.00000000000E+00  0.00000000000E+00  0.10835410131E+04  0.10835410132E+04  0.50400001928E-02 0. -1.
        1   -1    0    0  501    0  0.00000000000E+00  0.00000000000E+00 -0.52204396174E+03  0.52204396176E+03  0.50400001928E-02 0.  1.
    10030    2    1    2    0    0  0.00000000000E+00  0.00000000000E+00  0.56149705140E+03  0.16055849749E+04  0.15042021716E+04 0.  0.
        3    1    3    3  502    0  0.32750334376E+03  0.28747726458E+03 -0.37355480374E+03  0.57397283858E+03  0.10100000352E+00 0.  1.
       -3    1    3    3    0  502 -0.32750334376E+03 -0.28747726458E+03  0.93505185515E+03  0.10316121363E+04  0.10100000352E+00 0. -1.
</event>
<event>
 5   0  0.1427609E-04  0.1495744E+04  0.7818609E-02  0.8887288E-01
       -1   -1    0    0    0  501  0.00000000000E+00  0.00000000000E+00  0.22491477799E+03  0.22491477804E+03  0.50400001928E-02 0. -1.
        1   -1    0    0  501    0  0.00000000000E+00  0.00000000000E+00 -0.24867747237E+04  0.24867747237E+04  0.50400001928E-02 0.  1.
    10030    2    1    2    0    0  0.00000000000E+00  0.00000000000E+00 -0.22618599457E+04  0.27116895017E+04  0.14957438082E+04 0.  0.
        4    1    3    3  502    0  0.51429928446E+03 -0.25224355576E+03 -0.25924798927E+03  0.62876203627E+03  0.12699999809E+01 0. -1.
       -4    1    3    3    0  502 -0.51429928446E+03  0.25224355576E+03 -0.20026119564E+04  0.20829274654E+04  0.12699999809E+01 0.  1.
</event>
<event>
 5   0  0.1427609E-04  0.1501150E+04  0.7818609E-02  0.8883689E-01
        1   -1    0    0  501    0  0.00000000000E+00  0.00000000000E+00  0.60389341328E+03  0.60389341330E+03  0.50400001928E-02 0. -1.
       -1   -1    0    0    0  501  0.00000000000E+00  0.00000000000E+00 -0.93288409067E+03  0.93288409068E+03  0.50400001928E-02 0.  1.
    10030    2    1    2    0    0  0.00000000000E+00  0.00000000000E+00 -0.32899067739E+03  0.15367775040E+04  0.15011496364E+04 0.  0.
        4    1    3    3  502    0  0.26984082749E+03  0.13421981551E+03 -0.86821969371E+03  0.91904084812E+03  0.12699999809E+01 0.  1.
       -4    1    3    3    0  502 -0.26984082749E+03 -0.13421981551E+03  0.53922901632E+03  0.61773665586E+03  0.12699999809E+01 0. -1.
</event>
<event>
 5   0  0.2641347E-04  0.1490444E+04  0.7818609E-02  0.8890833E-01
       -2   -1    0    0    0  501  0.00000000000E+00  0.00000000000E+00  0.35477076226E+03  0.35477076227E+03  0.25500000920E-02 0.  1.
        2   -1    0    0  501    0  0.00000000000E+00  0.00000000000E+00 -0.15653925326E+04  0.15653925326E+04  0.25500000920E-02 0. -1.
    10030    2    1    2    0    0  0.00000000000E+00  0.00000000000E+00 -0.12106217703E+04  0.19201632949E+04  0.14904435609E+04 0.  0.
        4    1    3    3  502    0  0.23969037074E+03 -0.34373359615E+03 -0.13992209510E+04  0.14606249147E+04  0.12699999809E+01 0. -1.
       -4    1    3    3    0  502 -0.23969037074E+03  0.34373359615E+03  0.18859918067E+03  0.45953838011E+03  0.12699999809E+01 0.  1.
</event>
<event>
 5   0  0.1004313E-04  0.1500048E+04  0.7818609E-02  0.8884421E-01
        3   -1    0    0  501    0  0.00000000000E+00  0.00000000000E+00  0.52792847733E+03  0.52792848699E+03  0.10100000352E+00 0.  1.
       -3   -1    0    0    0  501  0.00000000000E+00  0.00000000000E+00 -0.10655539705E+04  0.10655539753E+04  0.10100000352E+00 0. -1.
    10030    2    1    2    0    0  0.00000000000E+00  0.00000000000E+00 -0.53762549320E+03  0.15934824623E+04  0.15000483948E+04 0.  0.
        4    1    3    3  502    0 -0.47466731908E+02 -0.23329507612E+03 -0.10243485356E+04  0.10516516621E+04  0.12699999809E+01 0. -1.
       -4    1    3    3    0  502  0.47466731908E+02  0.23329507612E+03  0.48672304237E+03  0.54183080020E+03  0.12699999809E+01 0.  1.
</event>
<event>
 5   0  0.1474203E-04  0.1499932E+04  0.7818609E-02  0.8884498E-01
       -1   -1    0    0    0  501  0.00000000000E+00  0.00000000000E+00  0.27229048886E+03  0.27229048890E+03  0.50400001928E-02 0. -1.
        1   -1    0    0  501    0  0.00000000000E+00  0.00000000000E+00 -0.20656205947E+04  0.20656205947E+04  0.50400001928E-02 0.  1.
    10030    2    1    2    0    0  0.00000000000E+00  0.00000000000E+00 -0.17933301058E+04  0.23379110836E+04  0.14999317872E+04 0.  0.
        3    1    3    3  502    0 -0.62906243558E+03  0.72414478628E+02 -0.27030630290E+03  0.68849757600E+03  0.10100000352E+00 0. -1.
       -3    1    3    3    0  502  0.62906243558E+03 -0.72414478628E+02 -0.15230238029E+04  0.16494135076E+04  0.10100000352E+00 0.  1.
</event>
<event>
 5   0  0.2696040E-04  0.1500208E+04  0.7818609E-02  0.8884315E-01
        2   -1    0    0  501    0  0.00000000000E+00  0.00000000000E+00  0.68044568256E+03  0.68044568256E+03  0.25500000920E-02 0. -1.
       -2   -1    0    0    0  501  0.00000000000E+00  0.00000000000E+00 -0.82689289508E+03  0.82689289509E+03  0.25500000920E-02 0.  1.
    10030    2    1    2    0    0  0.00000000000E+00  0.00000000000E+00 -0.14644721252E+03  0.15073385777E+04  0.15002075862E+04 0.  0.
        2    1    3    3  502    0 -0.13222220925E+03  0.14983361289E+02 -0.81493881199E+03  0.82573148240E+03  0.25500000920E-02 0.  1.
       -2    1    3    3    0  502  0.13222220925E+03 -0.14983361289E+02  0.66849159947E+03  0.68160709525E+03  0.25500000920E-02 0. -1.
</event>
<event>
 5   0  0.2734072E-04  0.1499575E+04  0.7818609E-02  0.8884736E-01
        2   -1    0    0  501    0  0.00000000000E+00  0.00000000000E+00  0.15114502613E+04  0.15114502613E+04  0.25500000920E-02 0. -1.
       -2   -1    0    0    0  501  0.00000000000E+00  0.00000000000E+00 -0.37194815038E+03  0.37194815039E+03  0.25500000920E-02 0.  1.
    10030    2    1    2    0    0  0.00000000000E+00  0.00000000000E+00  0.11395021109E+04  0.18833984117E+04  0.14995747785E+04 0.  0.
        5    1    3    3  502    0  0.19750881928E+03 -0.56680516082E+03  0.11340666182E+04  0.12831239256E+04  0.46999998093E+01 0. -1.
       -5    1    3    3    0  502 -0.19750881928E+03  0.56680516082E+03  0.54354927062E+01  0.60027448605E+03  0.46999998093E+01 0.  1.
</event>
<event>
 5   0  0.2646718E-04  0.1470715E+04  0.7818609E-02  0.8904164E-01
       -2   -1    0    0    0  501  0.00000000000E+00  0.00000000000E+00  0.81117476612E+03  0.81117476612E+03  0.25500000920E-02 0.  1.
        2   -1    0    0  501    0  0.00000000000E+00  0.00000000000E+00 -0.66662689796E+03  0.66662689796E+03  0.25500000920E-02 0. -1.
    10030    2    1    2    0    0  0.00000000000E+00  0.00000000000E+00  0.14454786816E+03  0.14778016641E+04  0.14707153607E+04 0.  0.
        3    1    3    3  502    0 -0.70660977141E+03 -0.19957528947E+03  0.11275754502E+03  0.74286064600E+03  0.10100000352E+00 0. -1.
       -3    1    3    3    0  502  0.70660977141E+03  0.19957528947E+03  0.31790323143E+02  0.73494101808E+03  0.10100000352E+00 0.  1.
</event>
<event>
 5   0  0.1443750E-04  0.1500133E+04  0.7818609E-02  0.8884364E-01
       -1   -1    0    0    0  501  0.00000000000E+00  0.00000000000E+00  0.43582359018E+03  0.43582359021E+03  0.50400001928E-02 0.  1.
        1   -1    0    0  501    0  0.00000000000E+00  0.00000000000E+00 -0.12908890754E+04  0.12908890754E+04  0.50400001928E-02 0. -1.
    10030    2    1    2    0    0  0.00000000000E+00  0.00000000000E+00 -0.85506548519E+03  0.17267126656E+04  0.15001332093E+04 0.  0.
        2    1    3    3  502    0  0.23925203852E+03  0.33549139187E+03  0.29387059033E+03  0.50611849978E+03  0.25500000920E-02 0.  1.
       -2    1    3    3    0  502 -0.23925203852E+03 -0.33549139187E+03 -0.11489360755E+04  0.12205941658E+04  0.25500000920E-02 0. -1.
</event>
<event>
 5   0  0.2646718E-04  0.1496061E+04  0.7818609E-02  0.8887076E-01
        2   -1    0    0  501    0  0.00000000000E+00  0.00000000000E+00  0.13872817930E+04  0.13872817930E+04  0.25500000920E-02 0. -1.
       -2   -1    0    0    0  501  0.00000000000E+00  0.00000000000E+00 -0.40334254859E+03  0.40334254860E+03  0.25500000920E-02 0.  1.
    10030    2    1    2    0    0  0.00000000000E+00  0.00000000000E+00  0.98393924444E+03  0.17906243416E+04  0.14960611940E+04 0.  0.
        3    1    3    3  502    0 -0.45729551098E+03 -0.13334536230E+02  0.12003163875E+04  0.12845452248E+04  0.10100000352E+00 0. -1.
       -3    1    3    3    0  502  0.45729551098E+03  0.13334536230E+02 -0.21637714309E+03  0.50607911681E+03  0.10100000352E+00 0.  1.
</event>
<event>
 5   0  0.1484251E-04  0.1500424E+04  0.7818609E-02  0.8884171E-01
       -1   -1    0    0    0  501  0.00000000000E+00  0.00000000000E+00  0.58368438977E+03  0.58368438980E+03  0.50400001928E-02 0. -1.
        1   -1    0    0  501    0  0.00000000000E+00  0.00000000000E+00 -0.96425079789E+03  0.96425079791E+03  0.50400001928E-02 0.  1.
    10030    2    1    2    0    0  0.00000000000E+00  0.00000000000E+00 -0.38056640812E+03  0.15479351877E+04  0.15004241248E+04 0.  0.
        5    1    3    3  502    0  0.39879291652E+03 -0.20567254825E+03 -0.81053537424E+03  0.92645921134E+03  0.46999998093E+01 0.  1.
       -5    1    3    3    0  502 -0.39879291652E+03  0.20567254825E+03  0.42996896612E+03  0.62147597637E+03  0.46999998093E+01 0. -1.
</event>
<event>
 5   0  0.1474203E-04  0.1502942E+04  0.7818609E-02  0.8882499E-01
       -1   -1    0    0    0  501  0.00000000000E+00  0.00000000000E+00  0.33944116383E+03  0.33944116386E+03  0.50400001928E-02 0.  1.
        1   -1    0    0  501    0  0.00000000000E+00  0.00000000000E+00 -0.16636430459E+04  0.16636430459E+04  0.50400001928E-02 0. -1.
    10030    2    1    2    0    0  0.00000000000E+00  0.00000000000E+00 -0.13242018820E+04  0.20030842097E+04  0.15029423565E+04 0.  0.
        3    1    3    3  502    0  0.41464973165E+03  0.25435609099E+03  0.10128666938E+03  0.49688069049E+03  0.10100000352E+00 0.  1.
       -3    1    3    3    0  502 -0.41464973165E+03 -0.25435609099E+03 -0.14254885514E+04  0.15062035193E+04  0.10100000352E+00 0. -1.
</event>
<event>
 5   0  0.1427609E-04  0.1504081E+04  0.7818609E-02  0.8881743E-01
       -1   -1    0    0    0  501  0.00000000000E+00  0.00000000000E+00  0.64705534915E+03  0.64705534917E+03  0.50400001928E-02 0. -1.
        1   -1    0    0  501    0  0.00000000000E+00  0.00000000000E+00 -0.87405992656E+03  0.87405992657E+03  0.50400001928E-02 0.  1.
    10030    2    1    2    0    0  0.00000000000E+00  0.00000000000E+00 -0.22700457741E+03  0.15211152757E+04  0.15040813156E+04 0.  0.
        4    1    3    3  502    0 -0.54368177709E+03  0.28090777382E+03 -0.55556185836E+03  0.82652867070E+03  0.12699999809E+01 0.  1.
       -4    1    3    3    0  502  0.54368177709E+03 -0.28090777382E+03  0.32855728095E+03  0.69458660504E+03  0.12699999809E+01 0. -1.
</event>
<event>
 5   0  0.2641347E-04  0.1498479E+04  0.7818609E-02  0.8885465E-01
       -2   -1    0    0    0  501  0.00000000000E+00  0.00000000000E+00  0.26599227804E+03  0.26599227806E+03  0.25500000920E-02 0.  1.
        2   -1    0    0  501    0  0.00000000000E+00  0.00000000000E+00 -0.21104374152E+04  0.21104374152E+04  0.25500000920E-02 0. -1.
    10030    2    1    2    0    0  0.00000000000E+00  0.00000000000E+00 -0.18444451371E+04  0.23764296932E+04  0.14984793035E+04 0.  0.
        4    1    3    3  502    0 -0.52400489917E+03 -0.41367572979E+03 -0.38290263203E+03  0.76962639137E+03  0.12699999809E+01 0.  1.
       -4    1    3    3    0  502  0.52400489917E+03  0.41367572979E+03 -0.14615425051E+04  0.16068033019E+04  0.12699999809E+01 0. -1.
</event>
<event>
 5   0  0.1427609E-04  0.1506312E+04  0.7818609E-02  0.8880266E-01
       -1   -1    0    0    0  501  0.00000000000E+00  0.00000000000E+00  0.95640902415E+03  0.95640902416E+03  0.50400001928E-02 0.  1.
        1   -1    0    0  501    0  0.00000000000E+00  0.00000000000E+00 -0.59309751878E+03  0.59309751881E+03  0.50400001928E-02 0. -1.
    10030    2    1    2    0    0  0.00000000000E+00  0.00000000000E+00  0.36331150536E+03  0.15495065430E+04  0.15063118126E+04 0.  0.
        4    1    3    3  502    0  0.50151798263E+03 -0.97829710154E+02  0.75083173173E+03  0.90820748806E+03  0.12699999809E+01 0.  1.
       -4    1    3    3    0  502 -0.50151798263E+03  0.97829710154E+02 -0.38752022636E+03  0.64129905491E+03  0.12699999809E+01 0. -1.
</event>
<event>
 5   0  0.2734072E-04  0.1505304E+04  0.7818609E-02  0.8880933E-01
        2   -1    0    0  501    0  0.00000000000E+00  0.00000000000E+00  0.15397833719E+04  0.15397833719E+04  0.25500000920E-02 0. -1.
       -2   -1    0    0    0  501  0.00000000000E+00  0.00000000000E+00 -0.36789924201E+03  0.36789924202E+03  0.25500000920E-02 0.  1.
    10030    2    1    2    0    0  0.00000000000E+00  0.00000000000E+00  0.11718841299E+04  0.19076826139E+04  0.15053041359E+04 0.  0.
        5    1    3    3  502    0 -0.31375294299E+03  0.45413156472E+02  0.14510216898E+04  0.14852573172E+04  0.46999998093E+01 0. -1.
       -5    1    3    3    0  502  0.31375294299E+03 -0.45413156472E+02 -0.27913755987E+03  0.42242529677E+03  0.46999998093E+01 0.  1.
</event>
<event>
 5   0  0.1474203E-04  0.1524785E+04  0.7818609E-02  0.8868137E-01
       -1   -1    0    0    0  501  0.00000000000E+00  0.00000000000E+00  0.51103366189E+03  0.51103366191E+03  0.50400001928E-02 0.  1.
        1   -1    0    0  501    0  0.00000000000E+00  0.00000000000E+00 -0.11373851912E+04  0.11373851912E+04  0.50400001928E-02 0. -1.
    10030    2    1    2    0    0  0.00000000000E+00  0.00000000000E+00 -0.62635152928E+03  0.16484188531E+04  0.15247847314E+04 0.  0.
        3    1    3    3  502    0 -0.41038134803E+03 -0.50496956296E+03  0.11632178854E+03  0.66101276766E+03  0.10100000352E+00 0. -1.
       -3    1    3    3    0  502  0.41038134803E+03  0.50496956296E+03 -0.74267331782E+03  0.98740608542E+03  0.10100000352E+00 0.  1.
</event>
<event>
 5   0  0.2696040E-04  0.1485359E+04  0.7818609E-02  0.8894248E-01
        2   -1    0    0  501    0  0.00000000000E+00  0.00000000000E+00  0.39178282855E+03  0.39178282855E+03  0.25500000920E-02 0.  1.
       -2   -1    0    0    0  501  0.00000000000E+00  0.00000000000E+00 -0.14078530422E+04  0.14078530422E+04  0.25500000920E-02 0. -1.
    10030    2    1    2    0    0  0.00000000000E+00  0.00000000000E+00 -0.10160702136E+04  0.17996358707E+04  0.14853587406E+04 0.  0.
        2    1    3    3  502    0 -0.32892270241E+03 -0.61920372163E+03 -0.80473514896E+03  0.10673340869E+04  0.25500000920E-02 0. -1.
       -2    1    3    3    0  502  0.32892270241E+03  0.61920372163E+03 -0.21133506465E+03  0.73230178383E+03  0.25500000920E-02 0.  1.
</event>
<event>
 5   0  0.2641347E-04  0.1498079E+04  0.7818609E-02  0.8885731E-01
        2   -1    0    0  501    0  0.00000000000E+00  0.00000000000E+00  0.17474417774E+04  0.17474417774E+04  0.25500000920E-02 0.  1.
       -2   -1    0    0    0  501  0.00000000000E+00  0.00000000000E+00 -0.32107512108E+03  0.32107512109E+03  0.25500000920E-02 0. -1.
    10030    2    1    2    0    0  0.00000000000E+00  0.00000000000E+00  0.14263666563E+04  0.20685168985E+04  0.14980788768E+04 0.  0.
        4    1    3    3  502    0  0.85117265665E+02  0.26719940233E+03  0.16722220527E+04  0.16955732588E+04  0.12699999809E+01 0.  1.
       -4    1    3    3    0  502 -0.85117265665E+02 -0.26719940233E+03 -0.24585539641E+03  0.37294363966E+03  0.12699999809E+01 0. -1.
</event>
<event>
 5   0  0.2696040E-04  0.1519244E+04  0.7818609E-02  0.8871756E-01
       -2   -1    0    0    0  501  0.00000000000E+00  0.00000000000E+00  0.39028170825E+03  0.39028170826E+03  0.25500000920E-02 0.  1.
        2   -1    0    0  501    0  0.00000000000E+00  0.00000000000E+00 -0.14784849436E+04  0.14784849436E+04  0.25500000920E-02 0. -1.
    10030    2    1    2    0    0  0.00000000000E+00  0.00000000000E+00 -0.10882032354E+04  0.18687666519E+04  0.15192440613E+04 0.  0.
        2    1    3    3  502    0 -0.29717374566E+03 -0.32822599964E+03 -0.13033418908E+04  0.13764972308E+04  0.25500000920E-02 0. -1.
       -2    1    3    3    0  502  0.29717374566E+03  0.32822599964E+03  0.21513865540E+03  0.49226942116E+03  0.25500000920E-02 0.  1.
</event>
<event>
 5   0  0.1427609E-04  0.1500563E+04  0.7818609E-02  0.8884079E-01
        1   -1    0    0  501    0  0.00000000000E+00  0.00000000000E+00  0.11104937524E+04  0.11104937525E+04  0.50400001928E-02 0.  1.
       -1   -1    0    0    0  501  0.00000000000E+00  0.00000000000E+00 -0.50691166871E+03  0.50691166873E+03  0.50400001928E-02 0. -1.
    10030    2    1    2    0    0  0.00000000000E+00  0.00000000000E+00  0.60358208374E+03  0.16174054212E+04  0.15005628826E+04 0.  0.
        4    1    3    3  502    0 -0.38215667874E+03  0.64565811786E+03  0.30008814678E+03  0.80806722555E+03  0.12699999809E+01 0.  1.
       -4    1    3    3    0  502  0.38215667874E+03 -0.64565811786E+03  0.30349393695E+03  0.80933819564E+03  0.12699999809E+01 0. -1.
</event>
<event>
 5   0  0.2734072E-04  0.1498745E+04  0.7818609E-02  0.8885288E-01
        2   -1    0    0  501    0  0.00000000000E+00  0.00000000000E+00  0.79508091663E+03  0.79508091663E+03  0.25500000920E-02 0.  1.
       -2   -1    0    0    0  501  0.00000000000E+00  0.00000000000E+00 -0.70629164658E+03  0.70629164659E+03  0.25500000920E-02 0. -1.
    10030    2    1    2    0    0  0.00000000000E+00  0.00000000000E+00  0.88789270044E+02  0.15013725632E+04  0.14987448212E+04 0.  0.
        5    1    3    3  502    0 -0.69081742394E+03  0.12328391141E+03 -0.21895272899E+03  0.73511225236E+03  0.46999998093E+01 0. -1.
       -5    1    3    3    0  502  0.69081742394E+03 -0.12328391141E+03  0.30774199904E+03  0.76626031086E+03  0.46999998093E+01 0.  1.
</event>
<event>
 5   0  0.1443750E-04  0.1503354E+04  0.7818609E-02  0.8882226E-01
       -1   -1    0    0    0  501  0.00000000000E+00  0.00000000000E+00  0.42888087992E+03  0.42888087995E+03  0.50400001928E-02 0. -1.
        1   -1    0    0  501    0  0.00000000000E+00  0.00000000000E+00 -0.13174250020E+04  0.13174250021E+04  0.50400001928E-02 0.  1.
    10030    2    1    2    0    0  0.00000000000E+00  0.00000000000E+00 -0.88854412212E+03  0.17463058820E+04  0.15033541088E+04 0.  0.
        2    1    3    3  502    0 -0.30025893806E+03 -0.64838436492E+03 -0.17319013913E+03  0.73522278179E+03  0.25500000920E-02 0. -1.
       -2    1    3    3    0  502  0.30025893806E+03  0.64838436492E+03 -0.71535398300E+03  0.10110831002E+04  0.25500000920E-02 0.  1.
</event>
<event>
 5   0  0.1426929E-04  0.1497843E+04  0.7818609E-02  0.8885889E-01
        1   -1    0    0  501    0  0.00000000000E+00  0.00000000000E+00  0.43180611085E+03  0.43180611088E+03  0.50400001928E-02 0.  1.
       -1   -1    0    0    0  501  0.00000000000E+00  0.00000000000E+00 -0.12989236184E+04  0.12989236184E+04  0.50400001928E-02 0. -1.
    10030    2    1    2    0    0  0.00000000000E+00  0.00000000000E+00 -0.86711750754E+03  0.17307297293E+04  0.14978426566E+04 0.  0.
        1    1    3    3  502    0 -0.22645114851E+03 -0.50011605502E+02  0.38927228611E+03  0.45311609561E+03  0.50400001928E-02 0.  1.
       -1    1    3    3    0  502  0.22645114851E+03  0.50011605502E+02 -0.12563897936E+04  0.12776136337E+04  0.50400001928E-02 0. -1.
</event>
<event>
 5   0  0.1484251E-04  0.1493384E+04  0.7818609E-02  0.8888864E-01
       -1   -1    0    0    0  501  0.00000000000E+00  0.00000000000E+00  0.14725542178E+04  0.14725542178E+04  0.50400001928E-02 0.  1.
        1   -1    0    0  501    0  0.00000000000E+00  0.00000000000E+00 -0.37862708644E+03  0.37862708648E+03  0.50400001928E-02 0. -1.
    10030    2    1    2    0    0  0.00000000000E+00  0.00000000000E+00  0.10939271313E+04  0.18511813043E+04  0.14933839602E+04 0.  0.
        5    1    3    3  502    0  0.62508943102E+02 -0.59631712855E+03  0.10985808350E+04  0.12515603968E+04  0.46999998093E+01 0.  1.
       -5    1    3    3    0  502 -0.62508943102E+02  0.59631712855E+03 -0.46537036269E+01  0.59962090751E+03  0.46999998093E+01 0. -1.
</event>
<event>
 5   0  0.1427609E-04  0.1506797E+04  0.7818609E-02  0.8879946E-01
       -1   -1    0    0    0  501  0.00000000000E+00  0.00000000000E+00  0.12753531756E+04  0.12753531756E+04  0.50400001928E-02 0.  1.
        1   -1    0    0  501    0  0.00000000000E+00  0.00000000000E+00 -0.44506037645E+03  0.44506037648E+03  0.50400001928E-02 0. -1.
    10030    2    1    2    0    0  0.00000000000E+00  0.00000000000E+00  0.83029279917E+03  0.17204135521E+04  0.15067968204E+04 0.  0.
        4    1    3    3  502    0  0.63675305803E+03 -0.31442319463E+03  0.70238953000E+03  0.99883385354E+03  0.12699999809E+01 0.  1.
       -4    1    3    3    0  502 -0.63675305803E+03  0.31442319463E+03  0.12790326917E+03  0.72157969857E+03  0.12699999809E+01 0. -1.
</event>
<event>
 5   0  0.2618901E-04  0.1504452E+04  0.7818609E-02  0.8881497E-01
       -2   -1    0    0    0  501  0.00000000000E+00  0.00000000000E+00  0.66838116729E+03  0.66838116729E+03  0.25500000920E-02 0.  1.
        2   -1    0    0  501    0  0.00000000000E+00  0.00000000000E+00 -0.84658925311E+03  0.84658925311E+03  0.25500000920E-02 0. -1.
    10030    2    1    2    0    0  0.00000000000E+00  0.00000000000E+00 -0.17820808582E+03  0.15149704204E+04  0.15044524761E+04 0.  0.
        1    1    3    3  502    0 -0.43025199896E+03  0.24570511770E+03  0.48085345002E+03  0.69044031451E+03  0.50400001928E-02 0.  1.
       -1    1    3    3    0  502  0.43025199896E+03 -0.24570511770E+03 -0.65906153584E+03  0.82453010590E+03  0.50400001928E-02 0. -1.
</event>
<event>
 5   0  0.1426929E-04  0.1506651E+04  0.7818609E-02  0.8880042E-01
       -1   -1    0    0    0  501  0.00000000000E+00  0.00000000000E+00  0.11899049783E+04  0.11899049783E+04  0.50400001928E-02 0.  1.
        1   -1    0    0  501    0  0.00000000000E+00  0.00000000000E+00 -0.47692824849E+03  0.47692824852E+03  0.50400001928E-02 0. -1.
    10030    2    1    2    0    0  0.00000000000E+00  0.00000000000E+00  0.71297672982E+03  0.16668332268E+04  0.15066509844E+04 0.  0.
        1    1    3    3  502    0  0.50992123932E+03  0.25968908237E+03 -0.18554046992E+03  0.60156741586E+03  0.50400001928E-02 0. -1.
       -1    1    3    3    0  502 -0.50992123932E+03 -0.25968908237E+03  0.89851719974E+03  0.10652658110E+04  0.50400001928E-02 0.  1.
</event>
<event>
 5   0  0.2646718E-04  0.1499021E+04  0.7818609E-02  0.8885105E-01
       -2   -1    0    0    0  501  0.00000000000E+00  0.00000000000E+00  0.54789508140E+03  0.54789508140E+03  0.25500000920E-02 0. -1.
        2   -1    0    0  501    0  0.00000000000E+00  0.00000000000E+00 -0.10253160678E+04  0.10253160678E+04  0.25500000920E-02 0.  1.
    10030    2    1    2    0    0  0.00000000000E+00  0.00000000000E+00 -0.47742098645E+03  0.15732111493E+04  0.14990205208E+04 0.  0.
        3    1    3    3  502    0  0.67160123103E+03 -0.29879170809E+03 -0.39238476539E+03  0.83324096915E+03  0.10100000352E+00 0.  1.
       -3    1    3    3    0  502 -0.67160123103E+03  0.29879170809E+03 -0.85036221056E+02  0.73997018011E+03  0.10100000352E+00 0. -1.
</event>
<event>
 5   0  0.2618901E-04  0.1498387E+04  0.7818609E-02  0.8885526E-01
       -2   -1    0    0    0  501  0.00000000000E+00  0.00000000000E+00  0.52960444552E+03  0.52960444553E+03  0.25500000920E-02 0. -1.
        2   -1    0    0  501    0  0.00000000000E+00  0.00000000000E+00 -0.10598306538E+04  0.10598306538E+04  0.25500000920E-02 0.  1.
    10030    2    1    2    0    0  0.00000000000E+00  0.00000000000E+00 -0.53022620830E+03  0.15894350994E+04  0.14983871673E+04 0.  0.
        1    1    3    3  502    0  0.33734083671E+03  0.42068408114E+02  0.44307887121E+03  0.55846886862E+03  0.50400001928E-02 0. -1.
       -1    1    3    3    0  502 -0.33734083671E+03 -0.42068408114E+02 -0.97330507952E+03  0.10309662307E+04  0.50400001928E-02 0.  1.
</event>
<event>
 5   0  0.2618901E-04  0.1495997E+04  0.7818609E-02  0.8887119E-01
        2   -1    0    0  501    0  0.00000000000E+00  0.00000000000E+00  0.98617927033E+03  0.98617927034E+03  0.25500000920E-02 0. -1.
       -2   -1    0    0    0  501  0.00000000000E+00  0.00000000000E+00 -0.56734265715E+03  0.56734265715E+03  0.25500000920E-02 0.  1.
    10030    2    1    2    0    0  0.00000000000E+00  0.00000000000E+00  0.41883661319E+03  0.15535219275E+04  0.14959967482E+04 0.  0.
        1    1    3    3  502    0  0.69135614602E+03 -0.28463073554E+03  0.23295229859E+03  0.78310583557E+03  0.50400001928E-02 0. -1.
       -1    1    3    3    0  502 -0.69135614602E+03  0.28463073554E+03  0.18588431460E+03  0.77041609192E+03  0.50400001928E-02 0.  1.
</event>
<event>
 5   0  0.2734072E-04  0.1501883E+04  0.7818609E-02  0.8883202E-01
        2   -1    0    0  501    0  0.00000000000E+00  0.00000000000E+00  0.17615272765E+04  0.17615272765E+04  0.25500000920E-02 0.  1.
       -2   -1    0    0    0  501  0.00000000000E+00  0.00000000000E+00 -0.32012744424E+03  0.32012744425E+03  0.25500000920E-02 0. -1.
    10030    2    1    2    0    0  0.00000000000E+00  0.00000000000E+00  0.14413998322E+04  0.20816547207E+04  0.15018831179E+04 0.  0.
        5    1    3    3  502    0 -0.34980669292E+03  0.66370327603E+03  0.76506096709E+03  0.10715442755E+04  0.46999998093E+01 0.  1.
       -5    1    3    3    0  502  0.34980669292E+03 -0.66370327603E+03  0.67633886514E+03  0.10101104452E+04  0.46999998093E+01 0. -1.
</event>
<event>
 5   0  0.1484251E-04  0.1488571E+04  0.7818609E-02  0.8892089E-01
       -1   -1    0    0    0  501  0.00000000000E+00  0.00000000000E+00  0.76139091094E+03  0.76139091096E+03  0.50400001928E-02 0.  1.
        1   -1    0    0  501    0  0.00000000000E+00  0.00000000000E+00 -0.72756398634E+03  0.72756398636E+03  0.50400001928E-02 0. -1.
    10030    2    1    2    0    0  0.00000000000E+00  0.00000000000E+00  0.33826924596E+02  0.14889548973E+04  0.14885705981E+04 0.  0.
        5    1    3    3  502    0  0.57485511822E+03  0.33852028607E+03 -0.31314767308E+03  0.73697893197E+03  0.46999998093E+01 0. -1.
       -5    1    3    3    0  502 -0.57485511822E+03 -0.33852028607E+03  0.34697459768E+03  0.75197596534E+03  0.46999998093E+01 0.  1.
</event>
<event>
 5   0  0.2646718E-04  0.1502859E+04  0.7818609E-02  0.8882554E-01
       -2   -1    0    0    0  501  0.00000000000E+00  0.00000000000E+00  0.64935767565E+03  0.64935767566E+03  0.25500000920E-02 0. -1.
        2   -1    0    0  501    0  0.00000000000E+00  0.00000000000E+00 -0.86954534171E+03  0.86954534171E+03  0.25500000920E-02 0.  1.
    10030    2    1    2    0    0  0.00000000000E+00  0.00000000000E+00 -0.22018766606E+03  0.15189030174E+04  0.15028585322E+04 0.  0.
        3    1    3    3  502    0 -0.35033751051E+02  0.58567638720E+03 -0.58457551498E+03  0.82823471139E+03  0.10100000352E+00 0.  1.
       -3    1    3    3    0  502  0.35033751051E+02 -0.58567638720E+03  0.36438784892E+03  0.69066830598E+03  0.10100000352E+00 0. -1.
</event>
<event>
 5   0  0.1443750E-04  0.1489943E+04  0.7818609E-02  0.8891168E-01
        1   -1    0    0  501    0  0.00000000000E+00  0.00000000000E+00  0.11898736984E+04  0.11898736984E+04  0.50400001928E-02 0. -1.
       -1   -1    0    0    0  501  0.00000000000E+00  0.00000000000E+00 -0.46642155724E+03  0.46642155727E+03  0.50400001928E-02 0.  1.
    10030    2    1    2    0    0  0.00000000000E+00  0.00000000000E+00  0.72345214111E+03  0.16562952556E+04  0.14899432786E+04 0.  0.
        2    1    3    3  502    0 -0.38158946044E+03  0.21565041677E+03 -0.30791461797E+03  0.53565570149E+03  0.25500000920E-02 0.  1.
       -2    1    3    3    0  502  0.38158946044E+03 -0.21565041677E+03  0.10313667591E+04  0.11206395541E+04  0.25500000920E-02 0. -1.
</event>
<event>
 5   0  0.1426929E-04  0.1499140E+04  0.7818609E-02  0.8885025E-01
       -1   -1    0    0    0  501  0.00000000000E+00  0.00000000000E+00  0.11646691255E+04  0.11646691255E+04  0.50400001928E-02 0.  1.
        1   -1    0    0  501    0  0.00000000000E+00  0.00000000000E+00 -0.48241632247E+03  0.48241632250E+03  0.50400001928E-02 0. -1.
    10030    2    1    2    0    0  0.00000000000E+00  0.00000000000E+00  0.68225280303E+03  0.16470854480E+04  0.14991402822E+04 0.  0.
        1    1    3    3  502    0 -0.25207332111E+03 -0.43368139070E+03 -0.27082815736E+03  0.57005999570E+03  0.50400001928E-02 0. -1.
       -1    1    3    3    0  502  0.25207332111E+03  0.43368139070E+03  0.95308096039E+03  0.10770254523E+04  0.50400001928E-02 0.  1.
</event>
<event>
 5   0  0.1474203E-04  0.1497859E+04  0.7818609E-02  0.8885878E-01
       -1   -1    0    0    0  501  0.00000000000E+00  0.00000000000E+00  0.36886316883E+03  0.36886316887E+03  0.50400001928E-02 0. -1.
        1   -1    0    0  501    0  0.00000000000E+00  0.00000000000E+00 -0.15206060809E+04  0.15206060809E+04  0.50400001928E-02 0.  1.
    10030    2    1    2    0    0  0.00000000000E+00  0.00000000000E+00 -0.11517429121E+04  0.18894692498E+04  0.14978592425E+04 0.  0.
        3    1    3    3  502    0 -0.24191364687E+03 -0.16257836559E+03 -0.14461247416E+04  0.14752053131E+04  0.10100000352E+00 0.  1.
       -3    1    3    3    0  502  0.24191364687E+03  0.16257836559E+03  0.29438182948E+03  0.41426393667E+03  0.10100000352E+00 0. -1.
</event>
<event>
 5   0  0.1474203E-04  0.1504794E+04  0.7818609E-02  0.8881271E-01
       -1   -1    0    0    0  501  0.00000000000E+00  0.00000000000E+00  0.60796572796E+03  0.60796572798E+03  0.50400001928E-02 0. -1.
        1   -1    0    0  501    0  0.00000000000E+00  0.00000000000E+00 -0.93114043460E+03  0.93114043461E+03  0.50400001928E-02 0.  1.
    10030    2    1    2    0    0  0.00000000000E+00  0.00000000000E+00 -0.32317470664E+03  0.15391061626E+04  0.15047943011E+04 0.  0.
        3    1    3    3  502    0  0.31530779497E+03  0.38957008263E+03 -0.73555830121E+03  0.89007296304E+03  0.10100000352E+00 0.  1.
       -3    1    3    3    0  502 -0.31530779497E+03 -0.38957008263E+03  0.41238359458E+03  0.64903319955E+03  0.10100000352E+00 0. -1.
</event>
<event>
 5   0  0.2696040E-04  0.1498682E+04  0.7818609E-02  0.8885330E-01
       -2   -1    0    0    0  501  0.00000000000E+00  0.00000000000E+00  0.56390386670E+03  0.56390386670E+03  0.25500000920E-02 0.  1.
        2   -1    0    0  501    0  0.00000000000E+00  0.00000000000E+00 -0.99575827440E+03  0.99575827440E+03  0.25500000920E-02 0. -1.
    10030    2    1    2    0    0  0.00000000000E+00  0.00000000000E+00 -0.43185440770E+03  0.15596621411E+04  0.14986820093E+04 0.  0.
        2    1    3    3  502    0 -0.60191571347E+03  0.42827891142E+03 -0.85170131120E+02  0.74362578179E+03  0.25500000920E-02 0. -1.
       -2    1    3    3    0  502  0.60191571347E+03 -0.42827891142E+03 -0.34668427658E+03  0.81603635932E+03  0.25500000920E-02 0.  1.
</event>
<event>
 5   0  0.1484251E-04  0.1499560E+04  0.7818609E-02  0.8884746E-01
        1   -1    0    0  501    0  0.00000000000E+00  0.00000000000E+00  0.11569478170E+04  0.11569478170E+04  0.50400001928E-02 0.  1.
       -1   -1    0    0    0  501  0.00000000000E+00  0.00000000000E+00 -0.48590782012E+03  0.48590782015E+03  0.50400001928E-02 0. -1.
    10030    2    1    2    0    0  0.00000000000E+00  0.00000000000E+00  0.67103999684E+03  0.16428556371E+04  0.14995599245E+04 0.  0.
        5    1    3    3  502    0  0.19841850980E+03 -0.31852102716E+03 -0.37559989289E+03  0.53096414127E+03  0.46999998093E+01 0. -1.
       -5    1    3    3    0  502 -0.19841850980E+03  0.31852102716E+03  0.10466398897E+04  0.11118914959E+04  0.46999998093E+01 0.  1.
</event>
<event>
 5   0  0.2734072E-04  0.1483426E+04  0.7818609E-02  0.8895550E-01
       -2   -1    0    0    0  501  0.00000000000E+00  0.00000000000E+00  0.46096856906E+03  0.46096856907E+03  0.25500000920E-02 0. -1.
        2   -1    0    0  501    0  0.00000000000E+00  0.00000000000E+00 -0.11934399013E+04  0.11934399013E+04  0.25500000920E-02 0.  1.
    10030    2    1    2    0    0  0.00000000000E+00  0.00000000000E+00 -0.73247133223E+03  0.16544084704E+04  0.14834261472E+04 0.  0.
        5    1    3    3  502    0  0.16844736761E+03  0.12280106112E+03  0.42760949271E+03  0.47573793681E+03  0.46999998093E+01 0. -1.
       -5    1    3    3    0  502 -0.16844736761E+03 -0.12280106112E+03 -0.11600808249E+04  0.11786705336E+04  0.46999998093E+01 0.  1.
</event>
<event>
 5   0  0.1443750E-04  0.1483824E+04  0.7818609E-02  0.8895282E-01
       -1   -1    0    0    0  501  0.00000000000E+00  0.00000000000E+00  0.52861802846E+03  0.52861802849E+03  0.50400001928E-02 0.  1.
        1   -1    0    0  501    0  0.00000000000E+00  0.00000000000E+00 -0.10412688131E+04  0.10412688131E+04  0.50400001928E-02 0. -1.
    10030    2    1    2    0    0  0.00000000000E+00  0.00000000000E+00 -0.51265078466E+03  0.15698868416E+04  0.14838240692E+04 0.  0.
        2    1    3    3  502    0  0.43138939930E+03  0.38046983660E+03 -0.75209704620E+03  0.94683899228E+03  0.25500000920E-02 0. -1.
       -2    1    3    3    0  502 -0.43138939930E+03 -0.38046983660E+03  0.23944626154E+03  0.62304784934E+03  0.25500000920E-02 0.  1.
</event>
<event>
 5   0  0.1004313E-04  0.1503674E+04  0.7818609E-02  0.8882014E-01
       -4   -1    0    0    0  501  0.00000000000E+00  0.00000000000E+00  0.36499835370E+03  0.36500056315E+03  0.12699999809E+01 0.  1.
        4   -1    0    0  501    0  0.00000000000E+00  0.00000000000E+00 -0.15486539747E+04  0.15486544954E+04  0.12699999809E+01 0. -1.
    10030    2    1    2    0    0  0.00000000000E+00  0.00000000000E+00 -0.11836556210E+04  0.19136550586E+04  0.15036738523E+04 0.  0.
        4    1    3    3  502    0 -0.18406849625E+03 -0.15050467594E+03  0.31589080842E+03  0.39537511876E+03  0.12699999809E+01 0.  1.
       -4    1    3    3    0  502  0.18406849625E+03  0.15050467594E+03 -0.14995464294E+04  0.15182799398E+04  0.12699999809E+01 0. -1.
</event>
<event>
 5   0  0.1426929E-04  0.1506778E+04  0.7818609E-02  0.8879958E-01
       -1   -1    0    0    0  501  0.00000000000E+00  0.00000000000E+00  0.11084043458E+04  0.11084043458E+04  0.50400001928E-02 0. -1.
        1   -1    0    0  501    0  0.00000000000E+00  0.00000000000E+00 -0.51208283388E+03  0.51208283390E+03  0.50400001928E-02 0.  1.
    10030    2    1    2    0    0  0.00000000000E+00  0.00000000000E+00  0.59632151190E+03  0.16204871797E+04  0.15067778051E+04 0.  0.
        1    1    3    3  502    0 -0.25888219095E+03 -0.33609338608E+03  0.96773275076E+03  0.10566387414E+04  0.50400001928E-02 0. -1.
       -1    1    3    3    0  502  0.25888219095E+03  0.33609338608E+03 -0.37141123886E+03  0.56384843827E+03  0.50400001928E-02 0.  1.
</event>
<event>
 5   0  0.1443750E-04  0.1515554E+04  0.7818609E-02  0.8874175E-01
        1   -1    0    0  501    0  0.00000000000E+00  0.00000000000E+00  0.16041708067E+04  0.16041708067E+04  0.50400001928E-02 0. -1.
       -1   -1    0    0    0  501  0.00000000000E+00  0.00000000000E+00 -0.35795814040E+03  0.35795814044E+03  0.50400001928E-02 0.  1.
    10030    2    1    2    0    0  0.00000000000E+00  0.00000000000E+00  0.12462126662E+04  0.19621289471E+04  0.15155540226E+04 0.  0.
        2    1    3    3  502    0  0.29679802139E+03  0.54808071777E+02 -0.27678377619E+03  0.40951465053E+03  0.25500000920E-02 0.  1.
       -2    1    3    3    0  502 -0.29679802139E+03 -0.54808071777E+02  0.15229964424E+04  0.15526142966E+04  0.25500000920E-02 0. -1.
</event>
<event>
 5   0  0.2618901E-04  0.1502584E+04  0.7818609E-02  0.8882736E-01
       -2   -1    0    0    0  501  0.00000000000E+00  0.00000000000E+00  0.48636991040E+03  0.48636991041E+03  0.25500000920E-02 0.  1.
        2   -1    0    0  501    0  0.00000000000E+00  0.00000000000E+00 -0.11605155818E+04  0.11605155818E+04  0.25500000920E-02 0. -1.
    10030    2    1    2    0    0  0.00000000000E+00  0.00000000000E+00 -0.67414567139E+03  0.16468854922E+04  0.15025842533E+04 0.  0.
        1    1    3    3  502    0 -0.20664798701E+03 -0.71519071469E+03 -0.44797683418E+03  0.86884083290E+03  0.50400001928E-02 0. -1.
       -1    1    3    3    0  502  0.20664798701E+03  0.71519071469E+03 -0.22616883721E+03  0.77804465930E+03  0.50400001928E-02 0.  1.
</event>
<event>
 5   0  0.2618901E-04  0.1545755E+04  0.7818609E-02  0.8854584E-01
       -2   -1    0    0    0  501  0.00000000000E+00  0.00000000000E+00  0.13937904118E+04  0.13937904118E+04  0.25500000920E-02 0. -1.
        2   -1    0    0  501    0  0.00000000000E+00  0.00000000000E+00 -0.42857195479E+03  0.42857195480E+03  0.25500000920E-02 0.  1.
    10030    2    1    2    0    0  0.00000000000E+00  0.00000000000E+00  0.96521845701E+03  0.18223623666E+04  0.15457548077E+04 0.  0.
        1    1    3    3  502    0 -0.46340696688E+03 -0.19004833651E+03  0.11765623651E+04  0.12787350727E+04  0.50400001928E-02 0. -1.
       -1    1    3    3    0  502  0.46340696688E+03  0.19004833651E+03 -0.21134390809E+03  0.54362729390E+03  0.50400001928E-02 0.  1.
</event>
<event>
 5   0  0.1004313E-04  0.1499287E+04  0.7818609E-02  0.8884927E-01
        3   -1    0    0  501    0  0.00000000000E+00  0.00000000000E+00  0.38745471532E+03  0.38745472848E+03  0.10100000352E+00 0. -1.
       -3   -1    0    0    0  501  0.00000000000E+00  0.00000000000E+00 -0.14504028334E+04  0.14504028370E+04  0.10100000352E+00 0.  1.
    10030    2    1    2    0    0  0.00000000000E+00  0.00000000000E+00 -0.10629481181E+04  0.18378575654E+04  0.14992870736E+04 0.  0.
        4    1    3    3  502    0  0.71007182170E+03  0.24005258286E+03 -0.54580016989E+03  0.92721446972E+03  0.12699999809E+01 0.  1.
       -4    1    3    3    0  502 -0.71007182170E+03 -0.24005258286E+03 -0.51714794823E+03  0.91064309571E+03  0.12699999809E+01 0. -1.
</event>
<event>
 5   0  0.1427609E-04  0.1500424E+04  0.7818609E-02  0.8884171E-01
        1   -1    0    0  501    0  0.00000000000E+00  0.00000000000E+00  0.12219725764E+04  0.12219725765E+04  0.50400001928E-02 0.  1.
       -1   -1    0    0    0  501  0.00000000000E+00  0.00000000000E+00 -0.46058177560E+03  0.46058177563E+03  0.50400001928E-02 0. -1.
    10030    2    1    2    0    0  0.00000000000E+00  0.00000000000E+00  0.76139080085E+03  0.16825543521E+04  0.15004243387E+04 0.  0.
        4    1    3    3  502    0  0.72291179256E+02 -0.21965493540E+03  0.11810084695E+04  0.12034354670E+04  0.12699999809E+01 0.  1.
       -4    1    3    3    0  502 -0.72291179256E+02  0.21965493540E+03 -0.41961766870E+03  0.47911888507E+03  0.12699999809E+01 0. -1.
</event>
<event>
 5   0  0.2734072E-04  0.1499529E+04  0.7818609E-02  0.8884766E-01
       -2   -1    0    0    0  501  0.00000000000E+00  0.00000000000E+00  0.25878588974E+03  0.25878588975E+03  0.25500000920E-02 0. -1.
        2   -1    0    0  501    0  0.00000000000E+00  0.00000000000E+00 -0.21722467991E+04  0.21722467991E+04  0.25500000920E-02 0.  1.
    10030    2    1    2    0    0  0.00000000000E+00  0.00000000000E+00 -0.19134609094E+04  0.24310326889E+04  0.14995290203E+04 0.  0.
        5    1    3    3  502    0 -0.24168806822E+03 -0.69309452864E+03 -0.70909773702E+03  0.10206051335E+04  0.46999998093E+01 0. -1.
       -5    1    3    3    0  502  0.24168806822E+03  0.69309452864E+03 -0.12043631724E+04  0.14104275554E+04  0.46999998093E+01 0.  1.
</event>
<event>
 5   0  0.1484251E-04  0.1503782E+04  0.7818609E-02  0.8881942E-01
       -1   -1    0    0    0  501  0.00000000000E+00  0.00000000000E+00  0.29671685126E+03  0.29671685130E+03  0.50400001928E-02 0. -1.
        1   -1    0    0  501    0  0.00000000000E+00  0.00000000000E+00 -0.19053191859E+04  0.19053191859E+04  0.50400001928E-02 0.  1.
    10030    2    1    2    0    0  0.00000000000E+00  0.00000000000E+00 -0.16086023346E+04  0.22020360372E+04  0.15037823107E+04 0.  0.
        5    1    3    3  502    0 -0.22266154141E+02 -0.45246259641E+03 -0.16830222233E+04  0.17429297395E+04  0.46999998093E+01 0.  1.
       -5    1    3    3    0  502  0.22266154141E+02  0.45246259641E+03  0.74419888634E+02  0.45910629771E+03  0.46999998093E+01 0. -1.
</event>
<event>
 5   0  0.1443750E-04  0.1496698E+04  0.7818609E-02  0.8886652E-01
       -1   -1    0    0    0  501  0.00000000000E+00  0.00000000000E+00  0.25043211465E+03  0.25043211470E+03  0.50400001928E-02 0.  1.
        1   -1    0    0  501    0  0.00000000000E+00  0.00000000000E+00 -0.22362402273E+04  0.22362402273E+04  0.50400001928E-02 0. -1.
    10030    2    1    2    0    0  0.00000000000E+00  0.00000000000E+00 -0.19858081126E+04  0.24866723420E+04  0.14966981914E+04 0.  0.
        2    1    3    3  502    0 -0.55111683882E+03  0.50506426793E+03 -0.93519005876E+03  0.11972468963E+04  0.25500000920E-02 0. -1.
       -2    1    3    3    0  502  0.55111683882E+03 -0.50506426793E+03 -0.10506180539E+04  0.12894254457E+04  0.25500000920E-02 0.  1.
</event>
<event>
 5   0  0.2734072E-04  0.1557697E+04  0.7818609E-02  0.8846967E-01
        2   -1    0    0  501    0  0.00000000000E+00  0.00000000000E+00  0.45934055774E+03  0.45934055775E+03  0.25500000920E-02 0. -1.
       -2   -1    0    0    0  501  0.00000000000E+00  0.00000000000E+00 -0.13205990113E+04  0.13205990113E+04  0.25500000920E-02 0.  1.
    10030    2    1    2    0    0  0.00000000000E+00  0.00000000000E+00 -0.86125845360E+03  0.17799395691E+04  0.15576966154E+04 0.  0.
        5    1    3    3  502    0 -0.38217271359E+03 -0.31330748262E+03  0.25722359637E+03  0.55713878900E+03  0.46999998093E+01 0. -1.
       -5    1    3    3    0  502  0.38217271359E+03  0.31330748262E+03 -0.11184820500E+04  0.12228007801E+04  0.46999998093E+01 0.  1.
</event>
<event>
 5   0  0.2618901E-04  0.1499962E+04  0.7818609E-02  0.8884478E-01
       -2   -1    0    0    0  501  0.00000000000E+00  0.00000000000E+00  0.24414576189E+03  0.24414576190E+03  0.25500000920E-02 0. -1.
        2   -1    0    0  501    0  0.00000000000E+00  0.00000000000E+00 -0.23038352446E+04  0.23038352446E+04  0.25500000920E-02 0.  1.
    10030    2    1    2    0    0  0.00000000000E+00  0.00000000000E+00 -0.20596894828E+04  0.25479810065E+04  0.14999621476E+04 0.  0.
        1    1    3    3  502    0 -0.29642327750E+03  0.21726735854E+03  0.80692218469E+02  0.37627529639E+03  0.50400001928E-02 0. -1.
       -1    1    3    3    0  502  0.29642327750E+03 -0.21726735854E+03 -0.21403817012E+04  0.21717057102E+04  0.50400001928E-02 0.  1.
</event>
<event>
 5   0  0.1443750E-04  0.1503387E+04  0.7818609E-02  0.8882204E-01
        1   -1    0    0  501    0  0.00000000000E+00  0.00000000000E+00  0.16089932200E+04  0.16089932200E+04  0.50400001928E-02 0.  1.
       -1   -1    0    0    0  501  0.00000000000E+00  0.00000000000E+00 -0.35117803858E+03  0.35117803862E+03  0.50400001928E-02 0. -1.
    10030    2    1    2    0    0  0.00000000000E+00  0.00000000000E+00  0.12578151814E+04  0.19601712586E+04  0.15033869537E+04 0.  0.
        2    1    3    3  502    0  0.12443705783E+03  0.14156733021E+03 -0.31986749683E+03  0.37126958653E+03  0.25500000920E-02 0. -1.
       -2    1    3    3    0  502 -0.12443705783E+03 -0.14156733021E+03  0.15776826783E+04  0.15889016721E+04  0.25500000920E-02 0.  1.
</event>
<event>
 5   0  0.1484251E-04  0.1496187E+04  0.7818609E-02  0.8886992E-01
        1   -1    0    0  501    0  0.00000000000E+00  0.00000000000E+00  0.14019065842E+04  0.14019065842E+04  0.50400001928E-02 0.  1.
       -1   -1    0    0    0  501  0.00000000000E+00  0.00000000000E+00 -0.39920198592E+03  0.39920198595E+03  0.50400001928E-02 0. -1.
    10030    2    1    2    0    0  0.00000000000E+00  0.00000000000E+00  0.10027045983E+04  0.18011085702E+04  0.14961870104E+04 0.  0.
        5    1    3    3  502    0 -0.32417612223E+03 -0.45092961520E+03  0.11046876229E+04  0.12364402574E+04  0.46999998093E+01 0.  1.
       -5    1    3    3    0  502  0.32417612223E+03  0.45092961520E+03 -0.10198302459E+03  0.56466831272E+03  0.46999998093E+01 0. -1.
</event>
<event>
 5   0  0.1474203E-04  0.1525123E+04  0.7818609E-02  0.8867916E-01
        1   -1    0    0  501    0  0.00000000000E+00  0.00000000000E+00  0.96891426774E+03  0.96891426775E+03  0.50400001928E-02 0.  1.
       -1   -1    0    0    0  501  0.00000000000E+00  0.00000000000E+00 -0.60015650595E+03  0.60015650597E+03  0.50400001928E-02 0. -1.
    10030    2    1    2    0    0  0.00000000000E+00  0.00000000000E+00  0.36875776179E+03  0.15690707737E+04  0.15251232101E+04 0.  0.
        3    1    3    3  502    0 -0.22478763188E+03 -0.13749406634E+03  0.92058701696E+03  0.95755655902E+03  0.10100000352E+00 0.  1.
       -3    1    3    3    0  502  0.22478763188E+03  0.13749406634E+03 -0.55182925517E+03  0.61151421471E+03  0.10100000352E+00 0. -1.
</event>
<event>
 5   0  0.1474203E-04  0.1501296E+04  0.7818609E-02  0.8883592E-01
        1   -1    0    0  501    0  0.00000000000E+00  0.00000000000E+00  0.11788155108E+04  0.11788155108E+04  0.50400001928E-02 0. -1.
       -1   -1    0    0    0  501  0.00000000000E+00  0.00000000000E+00 -0.47799873678E+03  0.47799873681E+03  0.50400001928E-02 0.  1.
    10030    2    1    2    0    0  0.00000000000E+00  0.00000000000E+00  0.70081677401E+03  0.16568142476E+04  0.15012958737E+04 0.  0.
        3    1    3    3  502    0 -0.38376661623E+03 -0.41131912264E+03 -0.19807897433E+03  0.59640215179E+03  0.10100000352E+00 0.  1.
       -3    1    3    3    0  502  0.38376661623E+03  0.41131912264E+03  0.89889574833E+03  0.10604120958E+04  0.10100000352E+00 0. -1.
</event>
<event>
 5   0  0.1484251E-04  0.1527128E+04  0.7818609E-02  0.8866611E-01
       -1   -1    0    0    0  501  0.00000000000E+00  0.00000000000E+00  0.41605654988E+03  0.41605654991E+03  0.50400001928E-02 0.  1.
        1   -1    0    0  501    0  0.00000000000E+00  0.00000000000E+00 -0.14013244207E+04  0.14013244207E+04  0.50400001928E-02 0. -1.
    10030    2    1    2    0    0  0.00000000000E+00  0.00000000000E+00 -0.98526787080E+03  0.18173809706E+04  0.15271282903E+04 0.  0.
        5    1    3    3  502    0  0.67206647361E+03  0.67091928234E+01 -0.61426864684E+02  0.67491755639E+03  0.46999998093E+01 0.  1.
       -5    1    3    3    0  502 -0.67206647361E+03 -0.67091928234E+01 -0.92384100612E+03  0.11424634142E+04  0.46999998093E+01 0. -1.
</event>
<event>
 5   0  0.1427609E-04  0.1502054E+04  0.7818609E-02  0.8883088E-01
       -1   -1    0    0    0  501  0.00000000000E+00  0.00000000000E+00  0.97975681273E+03  0.97975681274E+03  0.50400001928E-02 0.  1.
        1   -1    0    0  501    0  0.00000000000E+00  0.00000000000E+00 -0.57569524074E+03  0.57569524077E+03  0.50400001928E-02 0. -1.
    10030    2    1    2    0    0  0.00000000000E+00  0.00000000000E+00  0.40406157198E+03  0.15554520535E+04  0.15020537064E+04 0.  0.
        4    1    3    3  502    0 -0.13919074678E+03  0.34036358330E+03  0.88015275894E+03  0.95388255293E+03  0.12699999809E+01 0.  1.
       -4    1    3    3    0  502  0.13919074678E+03 -0.34036358330E+03 -0.47609118695E+03  0.60156950057E+03  0.12699999809E+01 0. -1.
</event>
<event>
 5   0  0.1484251E-04  0.1505195E+04  0.7818609E-02  0.8881006E-01
        1   -1    0    0  501    0  0.00000000000E+00  0.00000000000E+00  0.76008633018E+03  0.76008633020E+03  0.50400001928E-02 0.  1.
       -1   -1    0    0    0  501  0.00000000000E+00  0.00000000000E+00 -0.74518230640E+03  0.74518230642E+03  0.50400001928E-02 0. -1.
    10030    2    1    2    0    0  0.00000000000E+00  0.00000000000E+00  0.14904023782E+02  0.15052686366E+04  0.15051948507E+04 0.  0.
        5    1    3    3  502    0  0.10186938086E+02 -0.68872512332E+03  0.31067427209E+03  0.75563659422E+03  0.46999998093E+01 0.  1.
       -5    1    3    3    0  502 -0.10186938086E+02  0.68872512332E+03 -0.29577024831E+03  0.74963204239E+03  0.46999998093E+01 0. -1.
</event>
<event>
 5   0  0.2641347E-04  0.1500004E+04  0.7818609E-02  0.8884450E-01
        2   -1    0    0  501    0  0.00000000000E+00  0.00000000000E+00  0.74825901087E+03  0.74825901087E+03  0.25500000920E-02 0. -1.
       -2   -1    0    0    0  501  0.00000000000E+00  0.00000000000E+00 -0.75174926608E+03  0.75174926609E+03  0.25500000920E-02 0.  1.
    10030    2    1    2    0    0  0.00000000000E+00  0.00000000000E+00 -0.34902552140E+01  0.15000082770E+04  0.15000042164E+04 0.  0.
        4    1    3    3  502    0 -0.34580914802E+03  0.57197717287E+03 -0.34198081499E+03  0.75079580703E+03  0.12699999809E+01 0.  1.
       -4    1    3    3    0  502  0.34580914802E+03 -0.57197717287E+03  0.33849055977E+03  0.74921246993E+03  0.12699999809E+01 0. -1.
</event>
<event>
 5   0  0.1474203E-04  0.1504128E+04  0.7818609E-02  0.8881713E-01
       -1   -1    0    0    0  501  0.00000000000E+00  0.00000000000E+00  0.59828897753E+03  0.59828897755E+03  0.50400001928E-02 0.  1.
        1   -1    0    0  501    0  0.00000000000E+00  0.00000000000E+00 -0.94536278564E+03  0.94536278566E+03  0.50400001928E-02 0. -1.
    10030    2    1    2    0    0  0.00000000000E+00  0.00000000000E+00 -0.34707380811E+03  0.15436517632E+04  0.15041278329E+04 0.  0.
        3    1    3    3  502    0 -0.41859483986E+03 -0.28083036044E+03 -0.74633627050E+03  0.90061377414E+03  0.10100000352E+00 0. -1.
       -3    1    3    3    0  502  0.41859483986E+03  0.28083036044E+03  0.39926246239E+03  0.64303798906E+03  0.10100000352E+00 0.  1.
</event>
<event>
 5   0  0.2646718E-04  0.1495933E+04  0.7818609E-02  0.8887162E-01
       -2   -1    0    0    0  501  0.00000000000E+00  0.00000000000E+00  0.29449867363E+03  0.29449867364E+03  0.25500000920E-02 0. -1.
        2   -1    0    0  501    0  0.00000000000E+00  0.00000000000E+00 -0.18996824324E+04  0.18996824324E+04  0.25500000920E-02 0.  1.
    10030    2    1    2    0    0  0.00000000000E+00  0.00000000000E+00 -0.16051837587E+04  0.21941811060E+04  0.14959330956E+04 0.  0.
        3    1    3    3  502    0 -0.70428531120E+03 -0.43918976272E+01 -0.43322099311E+03  0.82687213486E+03  0.10100000352E+00 0. -1.
       -3    1    3    3    0  502  0.70428531120E+03  0.43918976272E+01 -0.11719627656E+04  0.13673089711E+04  0.10100000352E+00 0.  1.
</event>
<event>
 5   0  0.2646718E-04  0.1501008E+04  0.7818609E-02  0.8883783E-01
        2   -1    0    0  501    0  0.00000000000E+00  0.00000000000E+00  0.14117136076E+04  0.14117136076E+04  0.25500000920E-02 0. -1.
       -2   -1    0    0    0  501  0.00000000000E+00  0.00000000000E+00 -0.39898743777E+03  0.39898743778E+03  0.25500000920E-02 0.  1.
    10030    2    1    2    0    0  0.00000000000E+00  0.00000000000E+00  0.10127261698E+04  0.18107010454E+04  0.15010076551E+04 0.  0.
        3    1    3    3  502    0 -0.12754525221E+03 -0.52088442912E+03  0.11397319517E+04  0.12595941059E+04  0.10100000352E+00 0. -1.
       -3    1    3    3    0  502  0.12754525221E+03  0.52088442912E+03 -0.12700578186E+03  0.55110693943E+03  0.10100000352E+00 0.  1.
</event>
<event>
 5   0  0.1004313E-04  0.1499605E+04  0.7818609E-02  0.8884715E-01
        4   -1    0    0  501    0  0.00000000000E+00  0.00000000000E+00  0.10058962133E+04  0.10058970150E+04  0.12699999809E+01 0. -1.
       -4   -1    0    0    0  501  0.00000000000E+00  0.00000000000E+00 -0.55890697139E+03  0.55890841429E+03  0.12699999809E+01 0.  1.
    10030    2    1    2    0    0  0.00000000000E+00  0.00000000000E+00  0.44698924193E+03  0.15648054293E+04  0.14996054979E+04 0.  0.
        4    1    3    3  502    0  0.11670707104E+03  0.22997352494E+03 -0.51117187277E+03  0.57254402364E+03  0.12699999809E+01 0.  1.
       -4    1    3    3    0  502 -0.11670707104E+03 -0.22997352494E+03  0.95816111470E+03  0.99226140569E+03  0.12699999809E+01 0. -1.
</event>
<event>
 5   0  0.2734072E-04  0.1499739E+04  0.7818609E-02  0.8884627E-01
        2   -1    0    0  501    0  0.00000000000E+00  0.00000000000E+00  0.15743763172E+04  0.15743763172E+04  0.25500000920E-02 0. -1.
       -2   -1    0    0    0  501  0.00000000000E+00  0.00000000000E+00 -0.35715995270E+03  0.35715995271E+03  0.25500000920E-02 0.  1.
    10030    2    1    2    0    0  0.00000000000E+00  0.00000000000E+00  0.12172163645E+04  0.19315362699E+04  0.14997388719E+04 0.  0.
        5    1    3    3  502    0  0.52527029820E+03  0.10231084704E+03  0.12851077826E+04  0.13920849466E+04  0.46999998093E+01 0. -1.
       -5    1    3    3    0  502 -0.52527029820E+03 -0.10231084704E+03 -0.67891418108E+02  0.53945132333E+03  0.46999998093E+01 0.  1.
</event>
<event>
 5   0  0.1484251E-04  0.1537650E+04  0.7818609E-02  0.8859795E-01
       -1   -1    0    0    0  501  0.00000000000E+00  0.00000000000E+00  0.60297274136E+03  0.60297274138E+03  0.50400001928E-02 0. -1.
        1   -1    0    0  501    0  0.00000000000E+00  0.00000000000E+00 -0.98029613366E+03  0.98029613367E+03  0.50400001928E-02 0.  1.
    10030    2    1    2    0    0  0.00000000000E+00  0.00000000000E+00 -0.37732339230E+03  0.15832688751E+04  0.15376499564E+04 0.  0.
        5    1    3    3  502    0 -0.66172017921E+03  0.37831441554E+03 -0.85312756737E+02  0.76700439962E+03  0.46999998093E+01 0.  1.
       -5    1    3    3    0  502  0.66172017921E+03 -0.37831441554E+03 -0.29201063556E+03  0.81626447543E+03  0.46999998093E+01 0. -1.
</event>
<event>
 5   0  0.1443750E-04  0.1502178E+04  0.7818609E-02  0.8883006E-01
        1   -1    0    0  501    0  0.00000000000E+00  0.00000000000E+00  0.45373407808E+03  0.45373407810E+03  0.50400001928E-02 0. -1.
       -1   -1    0    0    0  501  0.00000000000E+00  0.00000000000E+00 -0.12433150921E+04  0.12433150921E+04  0.50400001928E-02 0.  1.
    10030    2    1    2    0    0  0.00000000000E+00  0.00000000000E+00 -0.78958101399E+03  0.16970491702E+04  0.15021776554E+04 0.  0.
        2    1    3    3  502    0  0.33604615470E+03 -0.58080283862E+03 -0.77602151943E+03  0.10258988030E+04  0.25500000920E-02 0. -1.
       -2    1    3    3    0  502 -0.33604615470E+03  0.58080283862E+03 -0.13559494567E+02  0.67115036716E+03  0.25500000920E-02 0.  1.
</event>
<event>
 5   0  0.2734072E-04  0.1496414E+04  0.7818609E-02  0.8886841E-01
        2   -1    0    0  501    0  0.00000000000E+00  0.00000000000E+00  0.91416950790E+03  0.91416950790E+03  0.25500000920E-02 0. -1.
       -2   -1    0    0    0  501  0.00000000000E+00  0.00000000000E+00 -0.61237370371E+03  0.61237370371E+03  0.25500000920E-02 0.  1.
    10030    2    1    2    0    0  0.00000000000E+00  0.00000000000E+00  0.30179580419E+03  0.15265432116E+04  0.14964135356E+04 0.  0.
        5    1    3    3  502    0 -0.54013272463E+03 -0.48182708963E+03 -0.42364631899E+02  0.72506382930E+03  0.46999998093E+01 0.  1.
       -5    1    3    3    0  502  0.54013272463E+03  0.48182708963E+03  0.34416043609E+03  0.80147938232E+03  0.46999998093E+01 0. -1.
</event>
<event>
 5   0  0.2618901E-04  0.1497507E+04  0.7818609E-02  0.8886112E-01
       -2   -1    0    0    0  501  0.00000000000E+00  0.00000000000E+00  0.45212194636E+03  0.45212194637E+03  0.25500000920E-02 0.  1.
        2   -1    0    0  501    0  0.00000000000E+00  0.00000000000E+00 -0.12400018429E+04  0.12400018429E+04  0.25500000920E-02 0. -1.
    10030    2    1    2    0    0  0.00000000000E+00  0.00000000000E+00 -0.78787989656E+03  0.16921237893E+04  0.14975073245E+04 0.  0.
        1    1    3    3  502    0 -0.53509851374E+03 -0.22728993630E+03 -0.92710989592E+03  0.10943143487E+04  0.50400001928E-02 0. -1.
       -1    1    3    3    0  502  0.53509851374E+03  0.22728993630E+03  0.13922999937E+03  0.59780944063E+03  0.50400001928E-02 0.  1.
</event>
<event>
 5   0  0.1443750E-04  0.1488148E+04  0.7818609E-02  0.8892373E-01
        1   -1    0    0  501    0  0.00000000000E+00  0.00000000000E+00  0.13757447338E+04  0.13757447338E+04  0.50400001928E-02 0. -1.
       -1   -1    0    0    0  501  0.00000000000E+00  0.00000000000E+00 -0.40243389876E+03  0.40243389879E+03  0.50400001928E-02 0.  1.
    10030    2    1    2    0    0  0.00000000000E+00  0.00000000000E+00  0.97331083502E+03  0.17781786326E+04  0.14881482681E+04 0.  0.
        2    1    3    3  502    0  0.43361269860E+03  0.51521633508E+03  0.10845989146E+03  0.68207872888E+03  0.25500000920E-02 0.  1.
       -2    1    3    3    0  502 -0.43361269860E+03 -0.51521633508E+03  0.86485094356E+03  0.10960999037E+04  0.25500000920E-02 0. -1.
</event>
<event>
 5   0  0.2618901E-04  0.1481019E+04  0.7818609E-02  0.8897174E-01
       -2   -1    0    0    0  501  0.00000000000E+00  0.00000000000E+00  0.12303857099E+04  0.12303857099E+04  0.25500000920E-02 0. -1.
        2   -1    0    0  501    0  0.00000000000E+00  0.00000000000E+00 -0.44567682513E+03  0.44567682514E+03  0.25500000920E-02 0.  1.
    10030    2    1    2    0    0  0.00000000000E+00  0.00000000000E+00  0.78470888477E+03  0.16760625350E+04  0.14810191044E+04 0.  0.
        1    1    3    3  502    0  0.40747374158E+03 -0.20259953992E+03 -0.26876587765E+03  0.52850404035E+03  0.50400001928E-02 0.  1.
       -1    1    3    3    0  502 -0.40747374158E+03  0.20259953992E+03  0.10534747624E+04  0.11475584947E+04  0.50400001928E-02 0. -1.
</event>
<event>
 5   0  0.1427609E-04  0.1506342E+04  0.7818609E-02  0.8880246E-01
       -1   -1    0    0    0  501  0.00000000000E+00  0.00000000000E+00  0.67765056894E+03  0.67765056896E+03  0.50400001928E-02 0.  1.
        1   -1    0    0  501    0  0.00000000000E+00  0.00000000000E+00 -0.83710783622E+03  0.83710783623E+03  0.50400001928E-02 0. -1.
    10030    2    1    2    0    0  0.00000000000E+00  0.00000000000E+00 -0.15945726727E+03  0.15147584052E+04  0.15063420614E+04 0.  0.
        4    1    3    3  502    0 -0.41268154517E+03  0.59491250055E+03  0.12888661444E+03  0.73541846136E+03  0.12699999809E+01 0.  1.
       -4    1    3    3    0  502  0.41268154517E+03 -0.59491250055E+03 -0.28834388171E+03  0.77933994383E+03  0.12699999809E+01 0. -1.
</event>
<event>
 5   0  0.2646718E-04  0.1513612E+04  0.7818609E-02  0.8875451E-01
        2   -1    0    0  501    0  0.00000000000E+00  0.00000000000E+00  0.11589805229E+04  0.11589805229E+04  0.25500000920E-02 0.  1.
       -2   -1    0    0    0  501  0.00000000000E+00  0.00000000000E+00 -0.49418870056E+03  0.49418870057E+03  0.25500000920E-02 0. -1.
    10030    2    1    2    0    0  0.00000000000E+00  0.00000000000E+00  0.66479182232E+03  0.16531692235E+04  0.15136116789E+04 0.  0.
        3    1    3    3  502    0 -0.30174509092E+03 -0.41054414489E+03  0.94359813438E+03  0.10723684275E+04  0.10100000352E+00 0.  1.
       -3    1    3    3    0  502  0.30174509092E+03  0.41054414489E+03 -0.27880631206E+03  0.58080079600E+03  0.10100000352E+00 0. -1.
</event>
<event>
 5   0  0.1427609E-04  0.1494918E+04  0.7818609E-02  0.8887839E-01
       -1   -1    0    0    0  501  0.00000000000E+00  0.00000000000E+00  0.67121612853E+03  0.67121612855E+03  0.50400001928E-02 0.  1.
        1   -1    0    0  501    0  0.00000000000E+00  0.00000000000E+00 -0.83236233065E+03  0.83236233067E+03  0.50400001928E-02 0. -1.
    10030    2    1    2    0    0  0.00000000000E+00  0.00000000000E+00 -0.16114620212E+03  0.15035784592E+04  0.14949180862E+04 0.  0.
        4    1    3    3  502    0  0.32590311958E+03  0.61307347724E+03 -0.35898254123E+03  0.78162779483E+03  0.12699999809E+01 0. -1.
       -4    1    3    3    0  502 -0.32590311958E+03 -0.61307347724E+03  0.19783633911E+03  0.72195066439E+03  0.12699999809E+01 0.  1.
</event>
<event>
 5   0  0.2646718E-04  0.1504480E+04  0.7818609E-02  0.8881479E-01
       -2   -1    0    0    0  501  0.00000000000E+00  0.00000000000E+00  0.32848645089E+03  0.32848645090E+03  0.25500000920E-02 0.  1.
        2   -1    0    0  501    0  0.00000000000E+00  0.00000000000E+00 -0.17226431240E+04  0.17226431240E+04  0.25500000920E-02 0. -1.
    10030    2    1    2    0    0  0.00000000000E+00  0.00000000000E+00 -0.13941566731E+04  0.20511295749E+04  0.15044798782E+04 0.  0.
        3    1    3    3  502    0 -0.41655217756E+03 -0.99902085067E+02 -0.15401178325E+04  0.15985803362E+04  0.10100000352E+00 0. -1.
       -3    1    3    3    0  502  0.41655217756E+03  0.99902085067E+02  0.14596115932E+03  0.45254923872E+03  0.10100000352E+00 0.  1.
</event>
<event>
 5   0  0.2641347E-04  0.1503289E+04  0.7818609E-02  0.8882269E-01
        2   -1    0    0  501    0  0.00000000000E+00  0.00000000000E+00  0.79459166514E+03  0.79459166514E+03  0.25500000920E-02 0.  1.
       -2   -1    0    0    0  501  0.00000000000E+00  0.00000000000E+00 -0.71101886153E+03  0.71101886154E+03  0.25500000920E-02 0. -1.
    10030    2    1    2    0    0  0.00000000000E+00  0.00000000000E+00  0.83572803606E+02  0.15056105267E+04  0.15032892751E+04 0.  0.
        4    1    3    3  502    0 -0.63852640688E+03 -0.22153552214E+03  0.37119255350E+03  0.77108980315E+03  0.12699999809E+01 0. -1.
       -4    1    3    3    0  502  0.63852640688E+03  0.22153552214E+03 -0.28761974989E+03  0.73452072352E+03  0.12699999809E+01 0.  1.
</event>
<event>
 5   0  0.2696040E-04  0.1499003E+04  0.7818609E-02  0.8885116E-01
       -2   -1    0    0    0  501  0.00000000000E+00  0.00000000000E+00  0.53679978832E+03  0.53679978832E+03  0.25500000920E-02 0.  1.
        2   -1    0    0  501    0  0.00000000000E+00  0.00000000000E+00 -0.10464842705E+04  0.10464842705E+04  0.25500000920E-02 0. -1.
    10030    2    1    2    0    0  0.00000000000E+00  0.00000000000E+00 -0.50968448217E+03  0.15832840588E+04  0.14990030485E+04 0.  0.
        2    1    3    3  502    0  0.73397785702E+03 -0.12664920332E+03 -0.16654147910E+03  0.76321660069E+03  0.25500000920E-02 0.  1.
       -2    1    3    3    0  502 -0.73397785702E+03  0.12664920332E+03 -0.34314300307E+03  0.82006745812E+03  0.25500000920E-02 0. -1.
</event>
<event>
 5   0  0.2696040E-04  0.1466767E+04  0.7818609E-02  0.8906859E-01
        2   -1    0    0  501    0  0.00000000000E+00  0.00000000000E+00  0.23510521763E+04  0.23510521763E+04  0.25500000920E-02 0. -1.
       -2   -1    0    0    0  501  0.00000000000E+00  0.00000000000E+00 -0.22877037276E+03  0.22877037277E+03  0.25500000920E-02 0.  1.
    10030    2    1    2    0    0  0.00000000000E+00  0.00000000000E+00  0.21222818035E+04  0.25798225490E+04  0.14667666246E+04 0.  0.
        2    1    3    3  502    0 -0.18248504094E+03 -0.70862723361E+03  0.97501584315E+03  0.12190608027E+04  0.25500000920E-02 0. -1.
       -2    1    3    3    0  502  0.18248504094E+03  0.70862723361E+03  0.11472659604E+04  0.13607617463E+04  0.25500000920E-02 0.  1.
</event>
<event>
 5   0  0.1443750E-04  0.1501350E+04  0.7818609E-02  0.8883556E-01
       -1   -1    0    0    0  501  0.00000000000E+00  0.00000000000E+00  0.14794527921E+04  0.14794527921E+04  0.50400001928E-02 0.  1.
        1   -1    0    0  501    0  0.00000000000E+00  0.00000000000E+00 -0.38089275548E+03  0.38089275551E+03  0.50400001928E-02 0. -1.
    10030    2    1    2    0    0  0.00000000000E+00  0.00000000000E+00  0.10985600366E+04  0.18603455476E+04  0.15013498601E+04 0.  0.
        2    1    3    3  502    0 -0.19671454067E+03  0.28768184446E+03  0.13731336485E+04  0.14166698525E+04  0.25500000920E-02 0.  1.
       -2    1    3    3    0  502  0.19671454067E+03 -0.28768184446E+03 -0.27457361189E+03  0.44367569518E+03  0.25500000920E-02 0. -1.
</event>
<event>
 5   0  0.2696040E-04  0.1516902E+04  0.7818609E-02  0.8873290E-01
       -2   -1    0    0    0  501  0.00000000000E+00  0.00000000000E+00  0.82353784092E+03  0.82353784092E+03  0.25500000920E-02 0. -1.
        2   -1    0    0  501    0  0.00000000000E+00  0.00000000000E+00 -0.69850820542E+03  0.69850820542E+03  0.25500000920E-02 0.  1.
    10030    2    1    2    0    0  0.00000000000E+00  0.00000000000E+00  0.12502963550E+03  0.15220460463E+04  0.15169020263E+04 0.  0.
        2    1    3    3  502    0 -0.21448631565E+03  0.57322126476E+03 -0.38695618882E+03  0.72410088389E+03  0.25500000920E-02 0.  1.
       -2    1    3    3    0  502  0.21448631565E+03 -0.57322126476E+03  0.51198582432E+03  0.79794516246E+03  0.25500000920E-02 0. -1.
</event>
<event>
 5   0  0.2734072E-04  0.1494062E+04  0.7818609E-02  0.8888412E-01
       -2   -1    0    0    0  501  0.00000000000E+00  0.00000000000E+00  0.68693044584E+03  0.68693044584E+03  0.25500000920E-02 0.  1.
        2   -1    0    0  501    0  0.00000000000E+00  0.00000000000E+00 -0.81238932607E+03  0.81238932607E+03  0.25500000920E-02 0. -1.
    10030    2    1    2    0    0  0.00000000000E+00  0.00000000000E+00 -0.12545888023E+03  0.14993197719E+04  0.14940615275E+04 0.  0.
        5    1    3    3  502    0 -0.22530245469E+03  0.49303134216E+03  0.45307541893E+03  0.70649877967E+03  0.46999998093E+01 0.  1.
       -5    1    3    3    0  502  0.22530245469E+03 -0.49303134216E+03 -0.57853429916E+03  0.79282099224E+03  0.46999998093E+01 0. -1.
</event>
<event>
 5   0  0.2734072E-04  0.1501741E+04  0.7818609E-02  0.8883296E-01
        2   -1    0    0  501    0  0.00000000000E+00  0.00000000000E+00  0.97562654705E+03  0.97562654706E+03  0.25500000920E-02 0. -1.
       -2   -1    0    0    0  501  0.00000000000E+00  0.00000000000E+00 -0.57789145802E+03  0.57789145802E+03  0.25500000920E-02 0.  1.
    10030    2    1    2    0    0  0.00000000000E+00  0.00000000000E+00  0.39773508904E+03  0.15535180051E+04  0.15017406537E+04 0.  0.
        5    1    3    3  502    0 -0.53563714401E+03  0.33492996002E+03  0.61869104130E+03  0.88424313554E+03  0.46999998093E+01 0.  1.
       -5    1    3    3    0  502  0.53563714401E+03 -0.33492996002E+03 -0.22095595226E+03  0.66927486954E+03  0.46999998093E+01 0. -1.
</event>
<event>
 5   0  0.2646718E-04  0.1529098E+04  0.7818609E-02  0.8865330E-01
       -2   -1    0    0    0  501  0.00000000000E+00  0.00000000000E+00  0.31340599271E+03  0.31340599272E+03  0.25500000920E-02 0. -1.
        2   -1    0    0  501    0  0.00000000000E+00  0.00000000000E+00 -0.18651059511E+04  0.18651059511E+04  0.25500000920E-02 0.  1.
    10030    2    1    2    0    0  0.00000000000E+00  0.00000000000E+00 -0.15516999584E+04  0.21785119438E+04  0.15290982730E+04 0.  0.
        3    1    3    3  502    0  0.11001607174E+03 -0.68186950619E+03 -0.12429394949E+04  0.14219522347E+04  0.10100000352E+00 0.  1.
       -3    1    3    3    0  502 -0.11001607174E+03  0.68186950619E+03 -0.30876046350E+03  0.75655970917E+03  0.10100000352E+00 0. -1.
</event>
<event>
 5   0  0.1484251E-04  0.1502449E+04  0.7818609E-02  0.8882826E-01
       -1   -1    0    0    0  501  0.00000000000E+00  0.00000000000E+00  0.72150344544E+03  0.72150344546E+03  0.50400001928E-02 0. -1.
        1   -1    0    0  501    0  0.00000000000E+00  0.00000000000E+00 -0.78216993732E+03  0.78216993733E+03  0.50400001928E-02 0.  1.
    10030    2    1    2    0    0  0.00000000000E+00  0.00000000000E+00 -0.60666491874E+02  0.15036733828E+04  0.15024490736E+04 0.  0.
        5    1    3    3  502    0 -0.28767993913E+03  0.52698688754E+03  0.42152252050E+03  0.73360633333E+03  0.46999998093E+01 0. -1.
       -5    1    3    3    0  502  0.28767993913E+03 -0.52698688754E+03 -0.48218901238E+03  0.77006704946E+03  0.46999998093E+01 0.  1.
</event>
<event>
 5   0  0.1426929E-04  0.1552175E+04  0.7818609E-02  0.8850480E-01
        1   -1    0    0  501    0  0.00000000000E+00  0.00000000000E+00  0.96900452680E+03  0.96900452682E+03  0.50400001928E-02 0. -1.
       -1   -1    0    0    0  501  0.00000000000E+00  0.00000000000E+00 -0.62157810832E+03  0.62157810834E+03  0.50400001928E-02 0.  1.
    10030    2    1    2    0    0  0.00000000000E+00  0.00000000000E+00  0.34742641849E+03  0.15905826352E+04  0.15521752488E+04 0.  0.
        1    1    3    3  502    0 -0.40022190217E+03 -0.39303474073E+03 -0.37589575004E+03  0.67524180360E+03  0.50400001928E-02 0.  1.
       -1    1    3    3    0  502  0.40022190217E+03  0.39303474073E+03  0.72332216853E+03  0.91534083155E+03  0.50400001928E-02 0. -1.
</event>
<event>
 5   0  0.2646718E-04  0.1495973E+04  0.7818609E-02  0.8887135E-01
       -2   -1    0    0    0  501  0.00000000000E+00  0.00000000000E+00  0.33715677888E+03  0.33715677889E+03  0.25500000920E-02 0. -1.
        2   -1    0    0  501    0  0.00000000000E+00  0.00000000000E+00 -0.16594176025E+04  0.16594176025E+04  0.25500000920E-02 0.  1.
    10030    2    1    2    0    0  0.00000000000E+00  0.00000000000E+00 -0.13222608237E+04  0.19965743814E+04  0.14959731197E+04 0.  0.
        3    1    3    3  502    0  0.34503195729E+02 -0.30471527432E+03 -0.15716609080E+04  0.16012994376E+04  0.10100000352E+00 0.  1.
       -3    1    3    3    0  502 -0.34503195729E+02  0.30471527432E+03  0.24940008436E+03  0.39527494381E+03  0.10100000352E+00 0. -1.
</event>
<event>
 5   0  0.1004313E-04  0.1503042E+04  0.7818609E-02  0.8882433E-01
       -4   -1    0    0    0  501  0.00000000000E+00  0.00000000000E+00  0.71639649773E+03  0.71639762343E+03  0.12699999809E+01 0. -1.
        4   -1    0    0  501    0  0.00000000000E+00  0.00000000000E+00 -0.78836502873E+03  0.78836605167E+03  0.12699999809E+01 0.  1.
    10030    2    1    2    0    0  0.00000000000E+00  0.00000000000E+00 -0.71968531002E+02  0.15047636751E+04  0.15030416656E+04 0.  0.
        5    1    3    3  502    0 -0.35440178480E+03  0.63761771512E+03 -0.21675829030E+03  0.76102774071E+03  0.46999998093E+01 0.  1.
       -5    1    3    3    0  502  0.35440178480E+03 -0.63761771512E+03  0.14478975930E+03  0.74373593439E+03  0.46999998093E+01 0. -1.
</event>
<event>
 5   0  0.2641347E-04  0.1494831E+04  0.7818609E-02  0.8887897E-01
        2   -1    0    0  501    0  0.00000000000E+00  0.00000000000E+00  0.15076905729E+04  0.15076905729E+04  0.25500000920E-02 0.  1.
       -2   -1    0    0    0  501  0.00000000000E+00  0.00000000000E+00 -0.37052032834E+03  0.37052032835E+03  0.25500000920E-02 0. -1.
    10030    2    1    2    0    0  0.00000000000E+00  0.00000000000E+00  0.11371702446E+04  0.18782109013E+04  0.14948311023E+04 0.  0.
        4    1    3    3  502    0  0.55336740658E+03 -0.24529794681E+03  0.17680811794E+02  0.60555824937E+03  0.12699999809E+01 0. -1.
       -4    1    3    3    0  502 -0.55336740658E+03  0.24529794681E+03  0.11194894328E+04  0.12726526519E+04  0.12699999809E+01 0.  1.
</event>
<event>
 5   0  0.1004313E-04  0.1513404E+04  0.7818609E-02  0.8875588E-01
       -3   -1    0    0    0  501  0.00000000000E+00  0.00000000000E+00  0.66693190983E+03  0.66693191747E+03  0.10100000352E+00 0.  1.
        3   -1    0    0  501    0  0.00000000000E+00  0.00000000000E+00 -0.85855515901E+03  0.85855516495E+03  0.10100000352E+00 0. -1.
    10030    2    1    2    0    0  0.00000000000E+00  0.00000000000E+00 -0.19162324918E+03  0.15254870824E+04  0.15134039015E+04 0.  0.
        5    1    3    3  502    0 -0.22907263102E+03  0.55577521469E+03  0.36743948449E+03  0.70455249933E+03  0.46999998093E+01 0.  1.
       -5    1    3    3    0  502  0.22907263102E+03 -0.55577521469E+03 -0.55906273368E+03  0.82093458310E+03  0.46999998093E+01 0. -1.
</event>
<event>
 5   0  0.1427609E-04  0.1503591E+04  0.7818609E-02  0.8882068E-01
       -1   -1    0    0    0  501  0.00000000000E+00  0.00000000000E+00  0.52354631508E+03  0.52354631511E+03  0.50400001928E-02 0. -1.
        1   -1    0    0  501    0  0.00000000000E+00  0.00000000000E+00 -0.10795538523E+04  0.10795538523E+04  0.50400001928E-02 0.  1.
    10030    2    1    2    0    0  0.00000000000E+00  0.00000000000E+00 -0.55600753723E+03  0.16031001674E+04  0.15035909568E+04 0.  0.
        4    1    3    3  502    0  0.19973413026E+03  0.39856861647E+03  0.36740499625E+03  0.57770122814E+03  0.12699999809E+01 0. -1.
       -4    1    3    3    0  502 -0.19973413026E+03 -0.39856861647E+03 -0.92341253347E+03  0.10253989393E+04  0.12699999809E+01 0.  1.
</event>
<event>
 5   0  0.2641347E-04  0.1500518E+04  0.7818609E-02  0.8884108E-01
        2   -1    0    0  501    0  0.00000000000E+00  0.00000000000E+00  0.69387336626E+03  0.69387336627E+03  0.25500000920E-02 0. -1.
       -2   -1    0    0    0  501  0.00000000000E+00  0.00000000000E+00 -0.81122709580E+03  0.81122709580E+03  0.25500000920E-02 0.  1.
    10030    2    1    2    0    0  0.00000000000E+00  0.00000000000E+00 -0.11735372954E+03  0.15051004621E+04  0.15005184114E+04 0.  0.
        4    1    3    3  502    0  0.68239658770E+03  0.55272408542E+02 -0.36648054381E+03  0.77654989791E+03  0.12699999809E+01 0.  1.
       -4    1    3    3    0  502 -0.68239658770E+03 -0.55272408542E+02  0.24912681427E+03  0.72855056416E+03  0.12699999809E+01 0. -1.
</event>
<event>
 5   0  0.2618901E-04  0.1499120E+04  0.7818609E-02  0.8885038E-01
        2   -1    0    0  501    0  0.00000000000E+00  0.00000000000E+00  0.12583063303E+04  0.12583063303E+04  0.25500000920E-02 0. -1.
       -2   -1    0    0    0  501  0.00000000000E+00  0.00000000000E+00 -0.44650524891E+03  0.44650524892E+03  0.25500000920E-02 0.  1.
    10030    2    1    2    0    0  0.00000000000E+00  0.00000000000E+00  0.81180108142E+03  0.17048115793E+04  0.14991202503E+04 0.  0.
        1    1    3    3  502    0 -0.11261751154E+03 -0.25039576662E+03 -0.38726405713E+03  0.47471485527E+03  0.50400001928E-02 0.  1.
       -1    1    3    3    0  502  0.11261751154E+03  0.25039576662E+03  0.11990651385E+04  0.12300967240E+04  0.50400001928E-02 0. -1.
</event>
<event>
 5   0  0.2696040E-04  0.1501764E+04  0.7818609E-02  0.8883281E-01
       -2   -1    0    0    0  501  0.00000000000E+00  0.00000000000E+00  0.15559417850E+04  0.15559417850E+04  0.25500000920E-02 0.  1.
        2   -1    0    0  501    0  0.00000000000E+00  0.00000000000E+00 -0.36236813833E+03  0.36236813833E+03  0.25500000920E-02 0. -1.
    10030    2    1    2    0    0  0.00000000000E+00  0.00000000000E+00  0.11935736467E+04  0.19183099233E+04  0.15017639335E+04 0.  0.
        2    1    3    3  502    0  0.47119864787E+03  0.27759596685E+03  0.12540262961E+04  0.13680897770E+04  0.25500000920E-02 0.  1.
       -2    1    3    3    0  502 -0.47119864787E+03 -0.27759596685E+03 -0.60452649477E+02  0.55022014631E+03  0.25500000920E-02 0. -1.
</event>
<event>
 5   0  0.1474203E-04  0.1489370E+04  0.7818609E-02  0.8891553E-01
        1   -1    0    0  501    0  0.00000000000E+00  0.00000000000E+00  0.14154818372E+04  0.14154818372E+04  0.50400001928E-02 0.  1.
       -1   -1    0    0    0  501  0.00000000000E+00  0.00000000000E+00 -0.39177852650E+03  0.39177852653E+03  0.50400001928E-02 0. -1.
    10030    2    1    2    0    0  0.00000000000E+00  0.00000000000E+00  0.10237033107E+04  0.18072603638E+04  0.14893695156E+04 0.  0.
        3    1    3    3  502    0 -0.30447578164E+03  0.15984974582E+01 -0.31279419523E+03  0.43651835651E+03  0.10100000352E+00 0. -1.
       -3    1    3    3    0  502  0.30447578164E+03 -0.15984974582E+01  0.13364975060E+04  0.13707420072E+04  0.10100000352E+00 0.  1.
</event>
<event>
 5   0  0.1004313E-04  0.1498407E+04  0.7818609E-02  0.8885513E-01
       -3   -1    0    0    0  501  0.00000000000E+00  0.00000000000E+00  0.45973405551E+03  0.45973406661E+03  0.10100000352E+00 0. -1.
        3   -1    0    0  501    0  0.00000000000E+00  0.00000000000E+00 -0.12209366546E+04  0.12209366588E+04  0.10100000352E+00 0.  1.
    10030    2    1    2    0    0  0.00000000000E+00  0.00000000000E+00 -0.76120259909E+03  0.16806707254E+04  0.14984073846E+04 0.  0.
        3    1    3    3  502    0 -0.72689875487E+03 -0.16782360240E+03 -0.30321964604E+03  0.80528797663E+03  0.10100000352E+00 0. -1.
       -3    1    3    3    0  502  0.72689875487E+03  0.16782360240E+03 -0.45798295305E+03  0.87538274876E+03  0.10100000352E+00 0.  1.
</event>
<event>
 5   0  0.1426929E-04  0.1519345E+04  0.7818609E-02  0.8871690E-01
       -1   -1    0    0    0  501  0.00000000000E+00  0.00000000000E+00  0.44641004607E+03  0.44641004610E+03  0.50400001928E-02 0.  1.
        1   -1    0    0  501    0  0.00000000000E+00  0.00000000000E+00 -0.12927631361E+04  0.12927631361E+04  0.50400001928E-02 0. -1.
    10030    2    1    2    0    0  0.00000000000E+00  0.00000000000E+00 -0.84635308998E+03  0.17391731822E+04  0.15193451894E+04 0.  0.
        1    1    3    3  502    0  0.61758334979E+03  0.61621986836E+02 -0.92461694626E+03  0.11136080821E+04  0.50400001928E-02 0.  1.
       -1    1    3    3    0  502 -0.61758334979E+03 -0.61621986836E+02  0.78263856276E+02  0.62556510007E+03  0.50400001928E-02 0. -1.
</event>
<event>
 5   0  0.1443750E-04  0.1496507E+04  0.7818609E-02  0.8886779E-01
        1   -1    0    0  501    0  0.00000000000E+00  0.00000000000E+00  0.15719359619E+04  0.15719359619E+04  0.50400001928E-02 0. -1.
       -1   -1    0    0    0  501  0.00000000000E+00  0.00000000000E+00 -0.35617453593E+03  0.35617453597E+03  0.50400001928E-02 0.  1.
    10030    2    1    2    0    0  0.00000000000E+00  0.00000000000E+00  0.12157614260E+04  0.19281104979E+04  0.14965073495E+04 0.  0.
        2    1    3    3  502    0  0.48303980481E+03 -0.36584519743E+03  0.11734802201E+04  0.13206914812E+04  0.25500000920E-02 0. -1.
       -2    1    3    3    0  502 -0.48303980481E+03  0.36584519743E+03  0.42281205915E+02  0.60741901673E+03  0.25500000920E-02 0.  1.
</event>
<event>
 5   0  0.2696040E-04  0.1527813E+04  0.7818609E-02  0.8866165E-01
        2   -1    0    0  501    0  0.00000000000E+00  0.00000000000E+00  0.74799510608E+03  0.74799510608E+03  0.25500000920E-02 0. -1.
       -2   -1    0    0    0  501  0.00000000000E+00  0.00000000000E+00 -0.78015670956E+03  0.78015670956E+03  0.25500000920E-02 0.  1.
    10030    2    1    2    0    0  0.00000000000E+00  0.00000000000E+00 -0.32161603484E+02  0.15281518156E+04  0.15278133403E+04 0.  0.
        2    1    3    3  502    0 -0.40892207843E+03  0.51196722892E+03 -0.40888359401E+03  0.77234286633E+03  0.25500000920E-02 0.  1.
       -2    1    3    3    0  502  0.40892207843E+03 -0.51196722892E+03  0.37672199052E+03  0.75580894931E+03  0.25500000920E-02 0. -1.
</event>
<event>
 5   0  0.2734072E-04  0.1503689E+04  0.7818609E-02  0.8882004E-01
       -2   -1    0    0    0  501  0.00000000000E+00  0.00000000000E+00  0.62367144917E+03  0.62367144918E+03  0.25500000920E-02 0. -1.
        2   -1    0    0  501    0  0.00000000000E+00  0.00000000000E+00 -0.90635867226E+03  0.90635867226E+03  0.25500000920E-02 0.  1.
    10030    2    1    2    0    0  0.00000000000E+00  0.00000000000E+00 -0.28268722309E+03  0.15300301214E+04  0.15036888330E+04 0.  0.
        5    1    3    3  502    0  0.46851381018E+03  0.40405024378E+03 -0.57601089890E+03  0.84532386426E+03  0.46999998093E+01 0.  1.
       -5    1    3    3    0  502 -0.46851381018E+03 -0.40405024378E+03  0.29332367581E+03  0.68470625718E+03  0.46999998093E+01 0. -1.
</event>
<event>
 5   0  0.1426929E-04  0.1474364E+04  0.7818609E-02  0.8901682E-01
        1   -1    0    0  501    0  0.00000000000E+00  0.00000000000E+00  0.12573130000E+04  0.12573130000E+04  0.50400001928E-02 0. -1.
       -1   -1    0    0    0  501  0.00000000000E+00  0.00000000000E+00 -0.43222136123E+03  0.43222136126E+03  0.50400001928E-02 0.  1.
    10030    2    1    2    0    0  0.00000000000E+00  0.00000000000E+00  0.82509163877E+03  0.16895343613E+04  0.14743643191E+04 0.  0.
        1    1    3    3  502    0 -0.56159339527E+03 -0.95223363847E+02 -0.12370420362E+03  0.58288709083E+03  0.50400001928E-02 0.  1.
       -1    1    3    3    0  502  0.56159339527E+03  0.95223363847E+02  0.94879584239E+03  0.11066472705E+04  0.50400001928E-02 0. -1.
</event>
<event>
 5   0  0.2618901E-04  0.1494656E+04  0.7818609E-02  0.8888014E-01
        2   -1    0    0  501    0  0.00000000000E+00  0.00000000000E+00  0.17795960435E+04  0.17795960435E+04  0.25500000920E-02 0.  1.
       -2   -1    0    0    0  501  0.00000000000E+00  0.00000000000E+00 -0.31383494933E+03  0.31383494934E+03  0.25500000920E-02 0. -1.
    10030    2    1    2    0    0  0.00000000000E+00  0.00000000000E+00  0.14657610941E+04  0.20934309928E+04  0.14946563941E+04 0.  0.
        1    1    3    3  502    0  0.51003270899E+03  0.49959589929E+03  0.42357073623E+03  0.83014552666E+03  0.50400001928E-02 0.  1.
       -1    1    3    3    0  502 -0.51003270899E+03 -0.49959589929E+03  0.10421903579E+04  0.12632854661E+04  0.50400001928E-02 0. -1.
</event>
<event>
 5   0  0.1426929E-04  0.1505313E+04  0.7818609E-02  0.8880928E-01
       -1   -1    0    0    0  501  0.00000000000E+00  0.00000000000E+00  0.29311069311E+03  0.29311069316E+03  0.50400001928E-02 0.  1.
        1   -1    0    0  501    0  0.00000000000E+00  0.00000000000E+00 -0.19326882557E+04  0.19326882557E+04  0.50400001928E-02 0. -1.
    10030    2    1    2    0    0  0.00000000000E+00  0.00000000000E+00 -0.16395775626E+04  0.22257989488E+04  0.15053127173E+04 0.  0.
        1    1    3    3  502    0 -0.37051778244E+03  0.36881707200E+03 -0.16204115809E+04  0.17026576729E+04  0.50400001928E-02 0. -1.
       -1    1    3    3    0  502  0.37051778244E+03 -0.36881707200E+03 -0.19165981707E+02  0.52314127593E+03  0.50400001928E-02 0.  1.
</event>
<event>
 5   0  0.2734072E-04  0.1496515E+04  0.7818609E-02  0.8886774E-01
        2   -1    0    0  501    0  0.00000000000E+00  0.00000000000E+00  0.47182976172E+03  0.47182976173E+03  0.25500000920E-02 0. -1.
       -2   -1    0    0    0  501  0.00000000000E+00  0.00000000000E+00 -0.11866340242E+04  0.11866340242E+04  0.25500000920E-02 0.  1.
    10030    2    1    2    0    0  0.00000000000E+00  0.00000000000E+00 -0.71480426246E+03  0.16584637859E+04  0.14965149500E+04 0.  0.
        5    1    3    3  502    0  0.56041399335E+03 -0.13341904870E+03 -0.88657174950E+03  0.10573060312E+04  0.46999998093E+01 0. -1.
       -5    1    3    3    0  502 -0.56041399335E+03  0.13341904870E+03  0.17176748704E+03  0.60115775476E+03  0.46999998093E+01 0.  1.
</event>
<event>
 5   0  0.2641347E-04  0.1499572E+04  0.7818609E-02  0.8884738E-01
        2   -1    0    0  501    0  0.00000000000E+00  0.00000000000E+00  0.70680337535E+03  0.70680337536E+03  0.25500000920E-02 0. -1.
       -2   -1    0    0    0  501  0.00000000000E+00  0.00000000000E+00 -0.79538236831E+03  0.79538236831E+03  0.25500000920E-02 0.  1.
    10030    2    1    2    0    0  0.00000000000E+00  0.00000000000E+00 -0.88578992954E+02  0.15021857437E+04  0.14995718624E+04 0.  0.
        4    1    3    3  502    0 -0.26203706928E+03 -0.65536361900E+03  0.20915829627E+03  0.73614788228E+03  0.12699999809E+01 0. -1.
       -4    1    3    3    0  502  0.26203706928E+03  0.65536361900E+03 -0.29773728923E+03  0.76603786139E+03  0.12699999809E+01 0.  1.
</event>
<event>
 5   0  0.2734072E-04  0.1497038E+04  0.7818609E-02  0.8886425E-01
       -2   -1    0    0    0  501  0.00000000000E+00  0.00000000000E+00  0.48595930099E+03  0.48595930100E+03  0.25500000920E-02 0. -1.
        2   -1    0    0  501    0  0.00000000000E+00  0.00000000000E+00 -0.11529367300E+04  0.11529367300E+04  0.25500000920E-02 0.  1.
    10030    2    1    2    0    0  0.00000000000E+00  0.00000000000E+00 -0.66697742903E+03  0.16388960310E+04  0.14970375111E+04 0.  0.
        5    1    3    3  502    0 -0.66434478005E+03 -0.32795688313E+03 -0.45011289152E+03  0.86691026587E+03  0.46999998093E+01 0. -1.
       -5    1    3    3    0  502  0.66434478005E+03  0.32795688313E+03 -0.21686453751E+03  0.77198576515E+03  0.46999998093E+01 0.  1.
</event>
<event>
 5   0  0.2734072E-04  0.1499406E+04  0.7818609E-02  0.8884848E-01
        2   -1    0    0  501    0  0.00000000000E+00  0.00000000000E+00  0.10096362555E+04  0.10096362555E+04  0.25500000920E-02 0. -1.
       -2   -1    0    0    0  501  0.00000000000E+00  0.00000000000E+00 -0.55668991862E+03  0.55668991863E+03  0.25500000920E-02 0.  1.
    10030    2    1    2    0    0  0.00000000000E+00  0.00000000000E+00  0.45294633689E+03  0.15663261741E+04  0.14994056488E+04 0.  0.
        5    1    3    3  502    0  0.15401070801E+03  0.19266895426E+03  0.96601877111E+03  0.99702305904E+03  0.46999998093E+01 0. -1.
       -5    1    3    3    0  502 -0.15401070801E+03 -0.19266895426E+03 -0.51307243422E+03  0.56930311511E+03  0.46999998093E+01 0.  1.
</event>
<event>
 5   0  0.1004313E-04  0.1524849E+04  0.7818609E-02  0.8868095E-01
        4   -1    0    0  501    0  0.00000000000E+00  0.00000000000E+00  0.99529234063E+03  0.99529315090E+03  0.12699999809E+01 0. -1.
       -4   -1    0    0    0  501  0.00000000000E+00  0.00000000000E+00 -0.58403871585E+03  0.58404009666E+03  0.12699999809E+01 0.  1.
    10030    2    1    2    0    0  0.00000000000E+00  0.00000000000E+00  0.41125362478E+03  0.15793332476E+04  0.15248488328E+04 0.  0.
        4    1    3    3  502    0 -0.48704797203E+03  0.25847924594E+03 -0.33974446829E+03  0.64765358354E+03  0.12699999809E+01 0.  1.
       -4    1    3    3    0  502  0.48704797203E+03 -0.25847924594E+03  0.75099809307E+03  0.93167966402E+03  0.12699999809E+01 0. -1.
</event>
<event>
 5   0  0.2618901E-04  0.1499274E+04  0.7818609E-02  0.8884936E-01
        2   -1    0    0  501    0  0.00000000000E+00  0.00000000000E+00  0.11184757439E+04  0.11184757439E+04  0.25500000920E-02 0.  1.
       -2   -1    0    0    0  501  0.00000000000E+00  0.00000000000E+00 -0.50242994621E+03  0.50242994622E+03  0.25500000920E-02 0. -1.
    10030    2    1    2    0    0  0.00000000000E+00  0.00000000000E+00  0.61604579767E+03  0.16209056901E+04  0.14992741015E+04 0.  0.
        1    1    3    3  502    0 -0.71138515201E+03 -0.17575464414E+03  0.47895443769E+03  0.87541754772E+03  0.50400001928E-02 0. -1.
       -1    1    3    3    0  502  0.71138515201E+03  0.17575464414E+03  0.13709135999E+03  0.74548814240E+03  0.50400001928E-02 0.  1.
</event>
<event>
 5   0  0.1443750E-04  0.1504135E+04  0.7818609E-02  0.8881708E-01
        1   -1    0    0  501    0  0.00000000000E+00  0.00000000000E+00  0.68819752456E+03  0.68819752458E+03  0.50400001928E-02 0.  1.
       -1   -1    0    0    0  501  0.00000000000E+00  0.00000000000E+00 -0.82186455111E+03  0.82186455113E+03  0.50400001928E-02 0. -1.
    10030    2    1    2    0    0  0.00000000000E+00  0.00000000000E+00 -0.13366702655E+03  0.15100620757E+04  0.15041345015E+04 0.  0.
        2    1    3    3  502    0  0.50792649151E+03  0.28040839250E+03  0.41357810899E+03  0.71250616812E+03  0.25500000920E-02 0.  1.
       -2    1    3    3    0  502 -0.50792649151E+03 -0.28040839250E+03 -0.54724513554E+03  0.79755590760E+03  0.25500000920E-02 0. -1.
</event>
<event>
 5   0  0.2641347E-04  0.1512088E+04  0.7818609E-02  0.8876454E-01
       -2   -1    0    0    0  501  0.00000000000E+00  0.00000000000E+00  0.99238278074E+03  0.99238278075E+03  0.25500000920E-02 0. -1.
        2   -1    0    0  501    0  0.00000000000E+00  0.00000000000E+00 -0.57598963677E+03  0.57598963677E+03  0.25500000920E-02 0.  1.
    10030    2    1    2    0    0  0.00000000000E+00  0.00000000000E+00  0.41639314398E+03  0.15683724175E+04  0.15120875602E+04 0.  0.
        4    1    3    3  502    0 -0.62116376320E+03 -0.39742238176E+03  0.35220769462E+02  0.73826220663E+03  0.12699999809E+01 0.  1.
       -4    1    3    3    0  502  0.62116376320E+03  0.39742238176E+03  0.38117237452E+03  0.83011021089E+03  0.12699999809E+01 0. -1.
</event>
<event>
 5   0  0.1474203E-04  0.1500942E+04  0.7818609E-02  0.8883827E-01
        1   -1    0    0  501    0  0.00000000000E+00  0.00000000000E+00  0.13913090175E+04  0.13913090175E+04  0.50400001928E-02 0. -1.
       -1   -1    0    0    0  501  0.00000000000E+00  0.00000000000E+00 -0.40480333692E+03  0.40480333696E+03  0.50400001928E-02 0.  1.
    10030    2    1    2    0    0  0.00000000000E+00  0.00000000000E+00  0.98650568058E+03  0.17961123545E+04  0.15009417484E+04 0.  0.
        3    1    3    3  502    0  0.63109537326E+03 -0.33770298348E+03  0.76318280571E+03  0.10463138536E+04  0.10100000352E+00 0. -1.
       -3    1    3    3    0  502 -0.63109537326E+03  0.33770298348E+03  0.22332287487E+03  0.74979850083E+03  0.10100000352E+00 0.  1.
</event>
<event>
 5   0  0.2646718E-04  0.1483541E+04  0.7818609E-02  0.8895472E-01
        2   -1    0    0  501    0  0.00000000000E+00  0.00000000000E+00  0.92136309040E+03  0.92136309040E+03  0.25500000920E-02 0. -1.
       -2   -1    0    0    0  501  0.00000000000E+00  0.00000000000E+00 -0.59718457827E+03  0.59718457828E+03  0.25500000920E-02 0.  1.
    10030    2    1    2    0    0  0.00000000000E+00  0.00000000000E+00  0.32417851213E+03  0.15185476687E+04  0.14835414771E+04 0.  0.
        3    1    3    3  502    0 -0.23930165303E+03 -0.10081696316E+03  0.87331895493E+03  0.91110666140E+03  0.10100000352E+00 0. -1.
       -3    1    3    3    0  502  0.23930165303E+03  0.10081696316E+03 -0.54914044280E+03  0.60744100728E+03  0.10100000352E+00 0.  1.
</event>
<event>
 5   0  0.1427609E-04  0.1503311E+04  0.7818609E-02  0.8882254E-01
        1   -1    0    0  501    0  0.00000000000E+00  0.00000000000E+00  0.89695313543E+03  0.89695313545E+03  0.50400001928E-02 0. -1.
       -1   -1    0    0    0  501  0.00000000000E+00  0.00000000000E+00 -0.62989484335E+03  0.62989484337E+03  0.50400001928E-02 0.  1.
    10030    2    1    2    0    0  0.00000000000E+00  0.00000000000E+00  0.26705829208E+03  0.15268479788E+04  0.15033112183E+04 0.  0.
        4    1    3    3  502    0  0.47982139974E+03 -0.41369588777E+03  0.54435148461E+03  0.83528020143E+03  0.12699999809E+01 0. -1.
       -4    1    3    3    0  502 -0.47982139974E+03  0.41369588777E+03 -0.27729319253E+03  0.69156777739E+03  0.12699999809E+01 0.  1.
</event>
<event>
 5   0  0.2618901E-04  0.1504292E+04  0.7818609E-02  0.8881604E-01
        2   -1    0    0  501    0  0.00000000000E+00  0.00000000000E+00  0.28994472025E+04  0.28994472025E+04  0.25500000920E-02 0.  1.
       -2   -1    0    0    0  501  0.00000000000E+00  0.00000000000E+00 -0.19511423097E+03  0.19511423099E+03  0.25500000920E-02 0. -1.
    10030    2    1    2    0    0  0.00000000000E+00  0.00000000000E+00  0.27043329715E+04  0.30945614335E+04  0.15042917419E+04 0.  0.
        1    1    3    3  502    0  0.26768477936E+03  0.51299346494E+03  0.23406845792E+04  0.24111453162E+04  0.50400001928E-02 0.  1.
       -1    1    3    3    0  502 -0.26768477936E+03 -0.51299346494E+03  0.36364839230E+03  0.68341611733E+03  0.50400001928E-02 0. -1.
</event>
<event>
 5   0  0.1484251E-04  0.1500084E+04  0.7818609E-02  0.8884397E-01
        1   -1    0    0  501    0  0.00000000000E+00  0.00000000000E+00  0.78966257796E+03  0.78966257798E+03  0.50400001928E-02 0. -1.
       -1   -1    0    0    0  501  0.00000000000E+00  0.00000000000E+00 -0.71240960819E+03  0.71240960821E+03  0.50400001928E-02 0.  1.
    10030    2    1    2    0    0  0.00000000000E+00  0.00000000000E+00  0.77252969773E+02  0.15020721862E+04  0.15000842747E+04 0.  0.
        5    1    3    3  502    0 -0.50500384864E+03 -0.22060021265E+03  0.54807155699E+03  0.77723732704E+03  0.46999998093E+01 0. -1.
       -5    1    3    3    0  502  0.50500384864E+03  0.22060021265E+03 -0.47081858722E+03  0.72483485914E+03  0.46999998093E+01 0.  1.
</event>
<event>
 5   0  0.1427609E-04  0.1503767E+04  0.7818609E-02  0.8881952E-01
       -1   -1    0    0    0  501  0.00000000000E+00  0.00000000000E+00  0.16935815030E+04  0.16935815030E+04  0.50400001928E-02 0. -1.
        1   -1    0    0  501    0  0.00000000000E+00  0.00000000000E+00 -0.33380672896E+03  0.33380672900E+03  0.50400001928E-02 0.  1.
    10030    2    1    2    0    0  0.00000000000E+00  0.00000000000E+00  0.13597747741E+04  0.20273882320E+04  0.15037671386E+04 0.  0.
        4    1    3    3  502    0 -0.14167135711E+03 -0.42866696096E+03  0.14904959255E+04  0.15573714566E+04  0.12699999809E+01 0. -1.
       -4    1    3    3    0  502  0.14167135711E+03  0.42866696096E+03 -0.13072115148E+03  0.47001677543E+03  0.12699999809E+01 0.  1.
</event>
<event>
 5   0  0.2646718E-04  0.1498390E+04  0.7818609E-02  0.8885524E-01
       -2   -1    0    0    0  501  0.00000000000E+00  0.00000000000E+00  0.67011106841E+03  0.67011106841E+03  0.25500000920E-02 0. -1.
        2   -1    0    0  501    0  0.00000000000E+00  0.00000000000E+00 -0.83761264705E+03  0.83761264706E+03  0.25500000920E-02 0.  1.
    10030    2    1    2    0    0  0.00000000000E+00  0.00000000000E+00 -0.16750157864E+03  0.15077237155E+04  0.14983904776E+04 0.  0.
        3    1    3    3  502    0 -0.12725028487E+03  0.45747459208E+03 -0.66685832689E+03  0.81864258119E+03  0.10100000352E+00 0.  1.
       -3    1    3    3    0  502  0.12725028487E+03 -0.45747459208E+03  0.49935674825E+03  0.68908113428E+03  0.10100000352E+00 0. -1.
</event>
<event>
 5   0  0.1484251E-04  0.1495888E+04  0.7818609E-02  0.8887192E-01
       -1   -1    0    0    0  501  0.00000000000E+00  0.00000000000E+00  0.10061523513E+04  0.10061523513E+04  0.50400001928E-02 0.  1.
        1   -1    0    0  501    0  0.00000000000E+00  0.00000000000E+00 -0.55599979230E+03  0.55599979232E+03  0.50400001928E-02 0. -1.
    10030    2    1    2    0    0  0.00000000000E+00  0.00000000000E+00  0.45015255898E+03  0.15621521436E+04  0.14958883626E+04 0.  0.
        5    1    3    3  502    0  0.17936360357E+03 -0.29724241251E+03  0.91689784994E+03  0.98043261436E+03  0.46999998093E+01 0.  1.
       -5    1    3    3    0  502 -0.17936360357E+03  0.29724241251E+03 -0.46674529096E+03  0.58171952925E+03  0.46999998093E+01 0. -1.
</event>
<event>
 5   0  0.1474203E-04  0.1502347E+04  0.7818609E-02  0.8882894E-01
        1   -1    0    0  501    0  0.00000000000E+00  0.00000000000E+00  0.12516678249E+04  0.12516678249E+04  0.50400001928E-02 0. -1.
       -1   -1    0    0    0  501  0.00000000000E+00  0.00000000000E+00 -0.45080765016E+03  0.45080765019E+03  0.50400001928E-02 0.  1.
    10030    2    1    2    0    0  0.00000000000E+00  0.00000000000E+00  0.80086017471E+03  0.17024754751E+04  0.15023467389E+04 0.  0.
        3    1    3    3  502    0 -0.60738854515E+03  0.36317111405E+03  0.68587172198E+03  0.98551211665E+03  0.10100000352E+00 0.  1.
       -3    1    3    3    0  502  0.60738854515E+03 -0.36317111405E+03  0.11498845273E+03  0.71696335842E+03  0.10100000352E+00 0. -1.
</event>
<event>
 5   0  0.1443750E-04  0.1481157E+04  0.7818609E-02  0.8897081E-01
        1   -1    0    0  501    0  0.00000000000E+00  0.00000000000E+00  0.39539944527E+03  0.39539944530E+03  0.50400001928E-02 0. -1.
       -1   -1    0    0    0  501  0.00000000000E+00  0.00000000000E+00 -0.13870943864E+04  0.13870943864E+04  0.50400001928E-02 0.  1.
    10030    2    1    2    0    0  0.00000000000E+00  0.00000000000E+00 -0.99169494117E+03  0.17824938317E+04  0.14811567790E+04 0.  0.
        2    1    3    3  502    0 -0.62813557841E+03 -0.29914445428E+03 -0.19041211847E+03  0.72131718700E+03  0.25500000920E-02 0.  1.
       -2    1    3    3    0  502  0.62813557841E+03  0.29914445428E+03 -0.80128282270E+03  0.10611766447E+04  0.25500000920E-02 0. -1.
</event>
<event>
 5   0  0.2696040E-04  0.1501513E+04  0.7818609E-02  0.8883447E-01
       -2   -1    0    0    0  501  0.00000000000E+00  0.00000000000E+00  0.33931090039E+03  0.33931090040E+03  0.25500000920E-02 0. -1.
        2   -1    0    0  501    0  0.00000000000E+00  0.00000000000E+00 -0.16611175585E+04  0.16611175585E+04  0.25500000920E-02 0.  1.
    10030    2    1    2    0    0  0.00000000000E+00  0.00000000000E+00 -0.13218066581E+04  0.20004284589E+04  0.15015129629E+04 0.  0.
        2    1    3    3  502    0  0.69694691757E+02 -0.44189350796E+02  0.33325005946E+03  0.34331567241E+03  0.25500000920E-02 0. -1.
       -2    1    3    3    0  502 -0.69694691757E+02  0.44189350796E+02 -0.16550567176E+04  0.16571127865E+04  0.25500000920E-02 0.  1.
</event>
<event>
 5   0  0.1443750E-04  0.1499261E+04  0.7818609E-02  0.8884944E-01
       -1   -1    0    0    0  501  0.00000000000E+00  0.00000000000E+00  0.10235334310E+04  0.10235334310E+04  0.50400001928E-02 0. -1.
        1   -1    0    0  501    0  0.00000000000E+00  0.00000000000E+00 -0.54902566775E+03  0.54902566778E+03  0.50400001928E-02 0.  1.
    10030    2    1    2    0    0  0.00000000000E+00  0.00000000000E+00  0.47450776324E+03  0.15725590988E+04  0.14992613187E+04 0.  0.
        2    1    3    3  502    0 -0.39456161422E+03  0.51733964858E+03  0.62778304173E+03  0.90411875708E+03  0.25500000920E-02 0.  1.
       -2    1    3    3    0  502  0.39456161422E+03 -0.51733964858E+03 -0.15327527849E+03  0.66844034170E+03  0.25500000920E-02 0. -1.
</event>
<event>
 5   0  0.1443750E-04  0.1503370E+04  0.7818609E-02  0.8882215E-01
       -1   -1    0    0    0  501  0.00000000000E+00  0.00000000000E+00  0.66982274098E+03  0.66982274100E+03  0.50400001928E-02 0.  1.
        1   -1    0    0  501    0  0.00000000000E+00  0.00000000000E+00 -0.84355219318E+03  0.84355219320E+03  0.50400001928E-02 0. -1.
    10030    2    1    2    0    0  0.00000000000E+00  0.00000000000E+00 -0.17372945220E+03  0.15133749342E+04  0.15033701370E+04 0.  0.
        2    1    3    3  502    0 -0.25731755936E+03  0.65232730864E+03  0.18565295008E+03  0.72540351656E+03  0.25500000920E-02 0.  1.
       -2    1    3    3    0  502  0.25731755936E+03 -0.65232730864E+03 -0.35938240228E+03  0.78797141765E+03  0.25500000920E-02 0. -1.
</event>
<event>
 5   0  0.1474203E-04  0.1501289E+04  0.7818609E-02  0.8883596E-01
       -1   -1    0    0    0  501  0.00000000000E+00  0.00000000000E+00  0.13027044213E+04  0.13027044213E+04  0.50400001928E-02 0. -1.
        1   -1    0    0  501    0  0.00000000000E+00  0.00000000000E+00 -0.43253666865E+03  0.43253666868E+03  0.50400001928E-02 0.  1.
    10030    2    1    2    0    0  0.00000000000E+00  0.00000000000E+00  0.87016775267E+03  0.17352410900E+04  0.15012893534E+04 0.  0.
        3    1    3    3  502    0  0.98552759482E+02 -0.22331082671E+03  0.12555525735E+04  0.12790592819E+04  0.10100000352E+00 0. -1.
       -3    1    3    3    0  502 -0.98552759482E+02  0.22331082671E+03 -0.38538482080E+03  0.45618180809E+03  0.10100000352E+00 0.  1.
</event>
<event>
 5   0  0.2618901E-04  0.1504602E+04  0.7818609E-02  0.8881399E-01
       -2   -1    0    0    0  501  0.00000000000E+00  0.00000000000E+00  0.63669672616E+03  0.63669672616E+03  0.25500000920E-02 0. -1.
        2   -1    0    0  501    0  0.00000000000E+00  0.00000000000E+00 -0.88889522033E+03  0.88889522033E+03  0.25500000920E-02 0.  1.
    10030    2    1    2    0    0  0.00000000000E+00  0.00000000000E+00 -0.25219849417E+03  0.15255919465E+04  0.15046018433E+04 0.  0.
        1    1    3    3  502    0  0.57263096851E+03 -0.26451510770E+03  0.28959849982E+03  0.69407619137E+03  0.50400001928E-02 0. -1.
       -1    1    3    3    0  502 -0.57263096851E+03  0.26451510770E+03 -0.54179699400E+03  0.83151575513E+03  0.50400001928E-02 0.  1.
</event>
<event>
 5   0  0.2641347E-04  0.1541710E+04  0.7818609E-02  0.8857181E-01
       -2   -1    0    0    0  501  0.00000000000E+00  0.00000000000E+00  0.32115606209E+03  0.32115606210E+03  0.25500000920E-02 0. -1.
        2   -1    0    0  501    0  0.00000000000E+00  0.00000000000E+00 -0.18502444237E+04  0.18502444237E+04  0.25500000920E-02 0.  1.
    10030    2    1    2    0    0  0.00000000000E+00  0.00000000000E+00 -0.15290883616E+04  0.21714004858E+04  0.15417097172E+04 0.  0.
        4    1    3    3  502    0  0.66821812426E+03 -0.36383909616E+03 -0.93887911809E+03  0.12084659535E+04  0.12699999809E+01 0.  1.
       -4    1    3    3    0  502 -0.66821812426E+03  0.36383909616E+03 -0.59020924356E+03  0.96293453234E+03  0.12699999809E+01 0. -1.
</event>
<event>
 5   0  0.1426929E-04  0.1504976E+04  0.7818609E-02  0.8881151E-01
        1   -1    0    0  501    0  0.00000000000E+00  0.00000000000E+00  0.12338680062E+04  0.12338680062E+04  0.50400001928E-02 0. -1.
       -1   -1    0    0    0  501  0.00000000000E+00  0.00000000000E+00 -0.45891289002E+03  0.45891289005E+03  0.50400001928E-02 0.  1.
    10030    2    1    2    0    0  0.00000000000E+00  0.00000000000E+00  0.77495511616E+03  0.16927808962E+04  0.15049756578E+04 0.  0.
        1    1    3    3  502    0 -0.64777913601E+03 -0.10472397010E+03 -0.26794838661E+02  0.65673653954E+03  0.50400001928E-02 0.  1.
       -1    1    3    3    0  502  0.64777913601E+03  0.10472397010E+03  0.80174995482E+03  0.10360443567E+04  0.50400001928E-02 0. -1.
</event>
<event>
 5   0  0.2618901E-04  0.1497959E+04  0.7818609E-02  0.8885812E-01
       -2   -1    0    0    0  501  0.00000000000E+00  0.00000000000E+00  0.10268476239E+04  0.10268476239E+04  0.25500000920E-02 0. -1.
        2   -1    0    0  501    0  0.00000000000E+00  0.00000000000E+00 -0.54630300198E+03  0.54630300198E+03  0.25500000920E-02 0.  1.
    10030    2    1    2    0    0  0.00000000000E+00  0.00000000000E+00  0.48054462196E+03  0.15731506259E+04  0.14979585302E+04 0.  0.
        1    1    3    3  502    0 -0.42622907199E+03  0.53924321145E+03 -0.72177396975E+02  0.69113243272E+03  0.50400001928E-02 0.  1.
       -1    1    3    3    0  502  0.42622907199E+03 -0.53924321145E+03  0.55272201893E+03  0.88201819320E+03  0.50400001928E-02 0. -1.
</event>
<event>
 5   0  0.2641347E-04  0.1493021E+04  0.7818609E-02  0.8889107E-01
        2   -1    0    0  501    0  0.00000000000E+00  0.00000000000E+00  0.83888272950E+03  0.83888272950E+03  0.25500000920E-02 0.  1.
       -2   -1    0    0    0  501  0.00000000000E+00  0.00000000000E+00 -0.66430948857E+03  0.66430948857E+03  0.25500000920E-02 0. -1.
    10030    2    1    2    0    0  0.00000000000E+00  0.00000000000E+00  0.17457324093E+03  0.15031922181E+04  0.14930207728E+04 0.  0.
        4    1    3    3  502    0  0.15805724935E+03  0.92548303899E+02 -0.64133477914E+03  0.66697765665E+03  0.12699999809E+01 0. -1.
       -4    1    3    3    0  502 -0.15805724935E+03 -0.92548303899E+02  0.81590802007E+03  0.83621456143E+03  0.12699999809E+01 0.  1.
</event>
<event>
 5   0  0.2734072E-04  0.1499256E+04  0.7818609E-02  0.8884948E-01
        2   -1    0    0  501    0  0.00000000000E+00  0.00000000000E+00  0.14277574166E+04  0.14277574166E+04  0.25500000920E-02 0.  1.
       -2   -1    0    0    0  501  0.00000000000E+00  0.00000000000E+00 -0.39358400106E+03  0.39358400107E+03  0.25500000920E-02 0. -1.
    10030    2    1    2    0    0  0.00000000000E+00  0.00000000000E+00  0.10341734155E+04  0.18213414177E+04  0.14992564512E+04 0.  0.
        5    1    3    3  502    0 -0.31303274422E+02  0.70721932838E+01 -0.39273117783E+03  0.39406824148E+03  0.46999998093E+01 0. -1.
       -5    1    3    3    0  502  0.31303274422E+02 -0.70721932838E+01  0.14269045934E+04  0.14272731762E+04  0.46999998093E+01 0.  1.
</event>
<event>
 5   0  0.2618901E-04  0.1508695E+04  0.7818609E-02  0.8878692E-01
        2   -1    0    0  501    0  0.00000000000E+00  0.00000000000E+00  0.83974126791E+03  0.83974126791E+03  0.25500000920E-02 0. -1.
       -2   -1    0    0    0  501  0.00000000000E+00  0.00000000000E+00 -0.67763707391E+03  0.67763707391E+03  0.25500000920E-02 0.  1.
    10030    2    1    2    0    0  0.00000000000E+00  0.00000000000E+00  0.16210419400E+03  0.15173783418E+04  0.15086945557E+04 0.  0.
        1    1    3    3  502    0  0.37631406657E+03  0.51188797826E+03 -0.32798057129E+03  0.71499149237E+03  0.50400001928E-02 0.  1.
       -1    1    3    3    0  502 -0.37631406657E+03 -0.51188797826E+03  0.49008476529E+03  0.80238684946E+03  0.50400001928E-02 0. -1.
</event>
<event>
 5   0  0.2734072E-04  0.1497316E+04  0.7818609E-02  0.8886240E-01
        2   -1    0    0  501    0  0.00000000000E+00  0.00000000000E+00  0.24000931167E+04  0.24000931167E+04  0.25500000920E-02 0. -1.
       -2   -1    0    0    0  501  0.00000000000E+00  0.00000000000E+00 -0.23352793071E+03  0.23352793072E+03  0.25500000920E-02 0.  1.
    10030    2    1    2    0    0  0.00000000000E+00  0.00000000000E+00  0.21665651860E+04  0.26336210474E+04  0.14973159707E+04 0.  0.
        5    1    3    3  502    0 -0.50737078442E+03  0.11296095020E+03  0.13562939646E+03  0.53721756518E+03  0.46999998093E+01 0.  1.
       -5    1    3    3    0  502  0.50737078442E+03 -0.11296095020E+03  0.20309357895E+04  0.20964034822E+04  0.46999998093E+01 0. -1.
</event>
<event>
 5   0  0.2618901E-04  0.1501685E+04  0.7818609E-02  0.8883333E-01
       -2   -1    0    0    0  501  0.00000000000E+00  0.00000000000E+00  0.45225450161E+03  0.45225450162E+03  0.25500000920E-02 0. -1.
        2   -1    0    0  501    0  0.00000000000E+00  0.00000000000E+00 -0.12465652430E+04  0.12465652430E+04  0.25500000920E-02 0.  1.
    10030    2    1    2    0    0  0.00000000000E+00  0.00000000000E+00 -0.79431074136E+03  0.16988197446E+04  0.15016853768E+04 0.  0.
        1    1    3    3  502    0  0.34439256640E+03  0.23392319534E+03 -0.11040336444E+04  0.11799222809E+04  0.50400001928E-02 0.  1.
       -1    1    3    3    0  502 -0.34439256640E+03 -0.23392319534E+03  0.30972290301E+03  0.51889746365E+03  0.50400001928E-02 0. -1.
</event>
<event>
 5   0  0.1427609E-04  0.1499246E+04  0.7818609E-02  0.8884954E-01
        1   -1    0    0  501    0  0.00000000000E+00  0.00000000000E+00  0.13681681446E+04  0.13681681446E+04  0.50400001928E-02 0.  1.
       -1   -1    0    0    0  501  0.00000000000E+00  0.00000000000E+00 -0.41072071194E+03  0.41072071197E+03  0.50400001928E-02 0. -1.
    10030    2    1    2    0    0  0.00000000000E+00  0.00000000000E+00  0.95744743262E+03  0.17788888565E+04  0.14992464700E+04 0.  0.
        4    1    3    3  502    0  0.46734563256E+03 -0.79232452225E+02  0.11677688604E+04  0.12603076791E+04  0.12699999809E+01 0.  1.
       -4    1    3    3    0  502 -0.46734563256E+03  0.79232452225E+02 -0.21032142776E+03  0.51858117747E+03  0.12699999809E+01 0. -1.
</event>
<event>
 5   0  0.1474203E-04  0.1505081E+04  0.7818609E-02  0.8881081E-01
       -1   -1    0    0    0  501  0.00000000000E+00  0.00000000000E+00  0.40674445587E+03  0.40674445590E+03  0.50400001928E-02 0.  1.
        1   -1    0    0  501    0  0.00000000000E+00  0.00000000000E+00 -0.13923176550E+04  0.13923176550E+04  0.50400001928E-02 0. -1.
    10030    2    1    2    0    0  0.00000000000E+00  0.00000000000E+00 -0.98557319915E+03  0.17990621109E+04  0.15050813759E+04 0.  0.
        3    1    3    3  502    0  0.10603279224E+02  0.69651019390E+03 -0.15242599360E+03  0.71307262846E+03  0.10100000352E+00 0.  1.
       -3    1    3    3    0  502 -0.10603279224E+02 -0.69651019390E+03 -0.83314720555E+03  0.10859894825E+04  0.10100000352E+00 0. -1.
</event>
<event>
 5   0  0.2618901E-04  0.1498519E+04  0.7818609E-02  0.8885439E-01
       -2   -1    0    0    0  501  0.00000000000E+00  0.00000000000E+00  0.10292149937E+04  0.10292149937E+04  0.25500000920E-02 0.  1.
        2   -1    0    0  501    0  0.00000000000E+00  0.00000000000E+00 -0.54545401753E+03  0.54545401754E+03  0.25500000920E-02 0. -1.
    10030    2    1    2    0    0  0.00000000000E+00  0.00000000000E+00  0.48376097621E+03  0.15746690113E+04  0.14985185394E+04 0.  0.
        1    1    3    3  502    0  0.53107477750E+02  0.43592208617E+03  0.87980612511E+03  0.98331443964E+03  0.50400001928E-02 0.  1.
       -1    1    3    3    0  502 -0.53107477750E+02 -0.43592208617E+03 -0.39604514890E+03  0.59135457164E+03  0.50400001928E-02 0. -1.
</event>
<event>
 5   0  0.1443750E-04  0.1497103E+04  0.7818609E-02  0.8886382E-01
        1   -1    0    0  501    0  0.00000000000E+00  0.00000000000E+00  0.81860009445E+03  0.81860009447E+03  0.50400001928E-02 0.  1.
       -1   -1    0    0    0  501  0.00000000000E+00  0.00000000000E+00 -0.68449661281E+03  0.68449661283E+03  0.50400001928E-02 0. -1.
    10030    2    1    2    0    0  0.00000000000E+00  0.00000000000E+00  0.13410348164E+03  0.15030967073E+04  0.14971025241E+04 0.  0.
        2    1    3    3  502    0  0.38955584264E+03  0.42927756066E+03  0.54254696363E+03  0.79397114958E+03  0.25500000920E-02 0.  1.
       -2    1    3    3    0  502 -0.38955584264E+03 -0.42927756066E+03 -0.40844348199E+03  0.70912555771E+03  0.25500000920E-02 0. -1.
</event>
<event>
 5   0  0.2696040E-04  0.1509594E+04  0.7818609E-02  0.8878098E-01
       -2   -1    0    0    0  501  0.00000000000E+00  0.00000000000E+00  0.25133721534E+03  0.25133721535E+03  0.25500000920E-02 0.  1.
        2   -1    0    0  501    0  0.00000000000E+00  0.00000000000E+00 -0.22667484258E+04  0.22667484258E+04  0.25500000920E-02 0. -1.
    10030    2    1    2    0    0  0.00000000000E+00  0.00000000000E+00 -0.20154112105E+04  0.25180856412E+04  0.15095936370E+04 0.  0.
        2    1    3    3  502    0 -0.40132461742E+03 -0.32176863594E+03 -0.86308143380E+02  0.52157990686E+03  0.25500000920E-02 0.  1.
       -2    1    3    3    0  502  0.40132461742E+03  0.32176863594E+03 -0.19291030671E+04  0.19965057343E+04  0.25500000920E-02 0. -1.
</event>
<event>
 5   0  0.1427609E-04  0.1504614E+04  0.7818609E-02  0.8881391E-01
       -1   -1    0    0    0  501  0.00000000000E+00  0.00000000000E+00  0.45919215465E+03  0.45919215468E+03  0.50400001928E-02 0. -1.
        1   -1    0    0  501    0  0.00000000000E+00  0.00000000000E+00 -0.12325242459E+04  0.12325242459E+04  0.50400001928E-02 0.  1.
    10030    2    1    2    0    0  0.00000000000E+00  0.00000000000E+00 -0.77333209125E+03  0.16917164006E+04  0.15046135240E+04 0.  0.
        4    1    3    3  502    0  0.34263854139E+03 -0.20799107247E+03 -0.11024668525E+04  0.11730712809E+04  0.12699999809E+01 0.  1.
       -4    1    3    3    0  502 -0.34263854139E+03  0.20799107247E+03  0.32913476123E+03  0.51864511973E+03  0.12699999809E+01 0. -1.
</event>
<event>
 5   0  0.2734072E-04  0.1501485E+04  0.7818609E-02  0.8883466E-01
        2   -1    0    0  501    0  0.00000000000E+00  0.00000000000E+00  0.13718414835E+04  0.13718414835E+04  0.25500000920E-02 0.  1.
       -2   -1    0    0    0  501  0.00000000000E+00  0.00000000000E+00 -0.41084507741E+03  0.41084507741E+03  0.25500000920E-02 0. -1.
    10030    2    1    2    0    0  0.00000000000E+00  0.00000000000E+00  0.96099640606E+03  0.17826865609E+04  0.15014850255E+04 0.  0.
        5    1    3    3  502    0  0.72822117464E+03 -0.42900167272E+02  0.26995811287E+03  0.77784701340E+03  0.46999998093E+01 0. -1.
       -5    1    3    3    0  502 -0.72822117464E+03  0.42900167272E+02  0.69103829318E+03  0.10048395475E+04  0.46999998093E+01 0.  1.
</event>
<event>
 5   0  0.1427609E-04  0.1492240E+04  0.7818609E-02  0.8889630E-01
        1   -1    0    0  501    0  0.00000000000E+00  0.00000000000E+00  0.10081782154E+04  0.10081782154E+04  0.50400001928E-02 0. -1.
       -1   -1    0    0    0  501  0.00000000000E+00  0.00000000000E+00 -0.55217898869E+03  0.55217898871E+03  0.50400001928E-02 0.  1.
    10030    2    1    2    0    0  0.00000000000E+00  0.00000000000E+00  0.45599922670E+03  0.15603572041E+04  0.14922396958E+04 0.  0.
        4    1    3    3  502    0 -0.41011657713E+02  0.73191938555E+03  0.82713736592E+02  0.73772021671E+03  0.12699999809E+01 0. -1.
       -4    1    3    3    0  502  0.41011657713E+02 -0.73191938555E+03  0.37328549011E+03  0.82263698740E+03  0.12699999809E+01 0.  1.
</event>
<event>
 5   0  0.2618901E-04  0.1502582E+04  0.7818609E-02  0.8882738E-01
        2   -1    0    0  501    0  0.00000000000E+00  0.00000000000E+00  0.65292342758E+03  0.65292342759E+03  0.25500000920E-02 0.  1.
       -2   -1    0    0    0  501  0.00000000000E+00  0.00000000000E+00 -0.86447780629E+03  0.86447780630E+03  0.25500000920E-02 0. -1.
    10030    2    1    2    0    0  0.00000000000E+00  0.00000000000E+00 -0.21155437871E+03  0.15174012339E+04  0.15025815284E+04 0.  0.
        1    1    3    3  502    0 -0.59034774845E+03 -0.42800379021E+03  0.76949679863E+02  0.73322504171E+03  0.50400001928E-02 0.  1.
       -1    1    3    3    0  502  0.59034774845E+03  0.42800379021E+03 -0.28850405857E+03  0.78417619217E+03  0.50400001928E-02 0. -1.
</event>
<event>
 5   0  0.1443750E-04  0.1499843E+04  0.7818609E-02  0.8884557E-01
        1   -1    0    0  501    0  0.00000000000E+00  0.00000000000E+00  0.27318335667E+03  0.27318335671E+03  0.50400001928E-02 0.  1.
       -1   -1    0    0    0  501  0.00000000000E+00  0.00000000000E+00 -0.20586256410E+04  0.20586256410E+04  0.50400001928E-02 0. -1.
    10030    2    1    2    0    0  0.00000000000E+00  0.00000000000E+00 -0.17854422844E+04  0.23318089977E+04  0.14998430088E+04 0.  0.
        2    1    3    3  502    0 -0.50201338460E+03 -0.39550110664E+03 -0.28272353740E+03  0.69883557600E+03  0.25500000920E-02 0.  1.
       -2    1    3    3    0  502  0.50201338460E+03  0.39550110664E+03 -0.15027187470E+04  0.16329734217E+04  0.25500000920E-02 0. -1.
</event>
<event>
 5   0  0.1443750E-04  0.1501913E+04  0.7818609E-02  0.8883182E-01
       -1   -1    0    0    0  501  0.00000000000E+00  0.00000000000E+00  0.56396615876E+03  0.56396615878E+03  0.50400001928E-02 0. -1.
        1   -1    0    0  501    0  0.00000000000E+00  0.00000000000E+00 -0.99994601368E+03  0.99994601369E+03  0.50400001928E-02 0.  1.
    10030    2    1    2    0    0  0.00000000000E+00  0.00000000000E+00 -0.43597985492E+03  0.15639121725E+04  0.15019130632E+04 0.  0.
        2    1    3    3  502    0 -0.14167804084E+03 -0.32080741813E+03  0.47345897938E+03  0.58919731155E+03  0.25500000920E-02 0. -1.
       -2    1    3    3    0  502  0.14167804084E+03  0.32080741813E+03 -0.90943883429E+03  0.97471486092E+03  0.25500000920E-02 0.  1.
</event>
<event>
 5   0  0.1474203E-04  0.1501271E+04  0.7818609E-02  0.8883608E-01
        1   -1    0    0  501    0  0.00000000000E+00  0.00000000000E+00  0.13683750572E+04  0.13683750572E+04  0.50400001928E-02 0. -1.
       -1   -1    0    0    0  501  0.00000000000E+00  0.00000000000E+00 -0.41176841400E+03  0.41176841403E+03  0.50400001928E-02 0.  1.
    10030    2    1    2    0    0  0.00000000000E+00  0.00000000000E+00  0.95660664318E+03  0.17801434712E+04  0.15012709643E+04 0.  0.
        3    1    3    3  502    0 -0.48119720974E+03 -0.45349781779E+03  0.89961051200E+03  0.11164721711E+04  0.10100000352E+00 0. -1.
       -3    1    3    3    0  502  0.48119720974E+03  0.45349781779E+03  0.56996131184E+02  0.66367130010E+03  0.10100000352E+00 0.  1.
</event>
<event>
 5   0  0.1484251E-04  0.1502836E+04  0.7818609E-02  0.8882569E-01
        1   -1    0    0  501    0  0.00000000000E+00  0.00000000000E+00  0.86489172359E+03  0.86489172360E+03  0.50400001928E-02 0. -1.
       -1   -1    0    0    0  501  0.00000000000E+00  0.00000000000E+00 -0.65283213384E+03  0.65283213386E+03  0.50400001928E-02 0.  1.
    10030    2    1    2    0    0  0.00000000000E+00  0.00000000000E+00  0.21205958975E+03  0.15177238575E+04  0.15028361314E+04 0.  0.
        5    1    3    3  502    0 -0.17608747926E+03 -0.72923498366E+03  0.62986477508E+02  0.75284782532E+03  0.46999998093E+01 0. -1.
       -5    1    3    3    0  502  0.17608747926E+03  0.72923498366E+03  0.14907311224E+03  0.76487603214E+03  0.46999998093E+01 0.  1.
</event>
<event>
 5   0  0.1427609E-04  0.1504133E+04  0.7818609E-02  0.8881709E-01
        1   -1    0    0  501    0  0.00000000000E+00  0.00000000000E+00  0.11189879114E+04  0.11189879114E+04  0.50400001928E-02 0.  1.
       -1   -1    0    0    0  501  0.00000000000E+00  0.00000000000E+00 -0.50546004416E+03  0.50546004419E+03  0.50400001928E-02 0. -1.
    10030    2    1    2    0    0  0.00000000000E+00  0.00000000000E+00  0.61352786725E+03  0.16244479556E+04  0.15041325462E+04 0.  0.
        4    1    3    3  502    0 -0.46487570492E+01 -0.31384908054E+02  0.11182636596E+04  0.11187143732E+04  0.12699999809E+01 0.  1.
       -4    1    3    3    0  502  0.46487570492E+01  0.31384908054E+02 -0.50473579238E+03  0.50573358244E+03  0.12699999809E+01 0. -1.
</event>
<event>
 5   0  0.2641347E-04  0.1499699E+04  0.7818609E-02  0.8884653E-01
       -2   -1    0    0    0  501  0.00000000000E+00  0.00000000000E+00  0.32445399317E+03  0.32445399318E+03  0.25500000920E-02 0. -1.
        2   -1    0    0  501    0  0.00000000000E+00  0.00000000000E+00 -0.17329869784E+04  0.17329869784E+04  0.25500000920E-02 0.  1.
    10030    2    1    2    0    0  0.00000000000E+00  0.00000000000E+00 -0.14085329853E+04  0.20574409716E+04  0.14996993636E+04 0.  0.
        4    1    3    3  502    0 -0.16917157413E+03  0.71502721073E+01  0.29788232979E+03  0.34264506882E+03  0.12699999809E+01 0. -1.
       -4    1    3    3    0  502  0.16917157413E+03 -0.71502721073E+01 -0.17064153151E+04  0.17147959028E+04  0.12699999809E+01 0.  1.
</event>
<event>
 5   0  0.2618901E-04  0.1499558E+04  0.7818609E-02  0.8884747E-01
       -2   -1    0    0    0  501  0.00000000000E+00  0.00000000000E+00  0.30063462420E+03  0.30063462421E+03  0.25500000920E-02 0. -1.
        2   -1    0    0  501    0  0.00000000000E+00  0.00000000000E+00 -0.18699404597E+04  0.18699404597E+04  0.25500000920E-02 0.  1.
    10030    2    1    2    0    0  0.00000000000E+00  0.00000000000E+00 -0.15693058355E+04  0.21705750839E+04  0.14995583982E+04 0.  0.
        1    1    3    3  502    0 -0.70772505752E+03 -0.23724885583E+03 -0.68222854952E+03  0.10112356651E+04  0.50400001928E-02 0.  1.
       -1    1    3    3    0  502  0.70772505752E+03  0.23724885583E+03 -0.88707728601E+03  0.11593394188E+04  0.50400001928E-02 0. -1.
</event>
<event>
 5   0  0.2734072E-04  0.1500641E+04  0.7818609E-02  0.8884027E-01
       -2   -1    0    0    0  501  0.00000000000E+00  0.00000000000E+00  0.36834695415E+03  0.36834695416E+03  0.25500000920E-02 0. -1.
        2   -1    0    0  501    0  0.00000000000E+00  0.00000000000E+00 -0.15283980290E+04  0.15283980290E+04  0.25500000920E-02 0.  1.
    10030    2    1    2    0    0  0.00000000000E+00  0.00000000000E+00 -0.11600510748E+04  0.18967449831E+04  0.15006408747E+04 0.  0.
        5    1    3    3  502    0  0.15152306913E+03  0.45829360431E+03 -0.13060763770E+04  0.13924258906E+04  0.46999998093E+01 0.  1.
       -5    1    3    3    0  502 -0.15152306913E+03 -0.45829360431E+03  0.14602530217E+03  0.50431909254E+03  0.46999998093E+01 0. -1.
</event>
<event>
 5   0  0.2696040E-04  0.1402683E+04  0.7818609E-02  0.8951879E-01
        2   -1    0    0  501    0  0.00000000000E+00  0.00000000000E+00  0.43132942612E+03  0.43132942613E+03  0.25500000920E-02 0.  1.
       -2   -1    0    0    0  501  0.00000000000E+00  0.00000000000E+00 -0.11403814418E+04  0.11403814418E+04  0.25500000920E-02 0. -1.
    10030    2    1    2    0    0  0.00000000000E+00  0.00000000000E+00 -0.70905201565E+03  0.15717108679E+04  0.14026832470E+04 0.  0.
        2    1    3    3  502    0 -0.10720930244E+03 -0.50771510370E+03  0.17414677579E+03  0.54735323199E+03  0.25500000920E-02 0.  1.
       -2    1    3    3    0  502  0.10720930244E+03  0.50771510370E+03 -0.88319879143E+03  0.10243576359E+04  0.25500000920E-02 0. -1.
</event>
<event>
 5   0  0.1443750E-04  0.1503071E+04  0.7818609E-02  0.8882413E-01
       -1   -1    0    0    0  501  0.00000000000E+00  0.00000000000E+00  0.24726953114E+03  0.24726953119E+03  0.50400001928E-02 0. -1.
        1   -1    0    0  501    0  0.00000000000E+00  0.00000000000E+00 -0.22841712483E+04  0.22841712483E+04  0.50400001928E-02 0.  1.
    10030    2    1    2    0    0  0.00000000000E+00  0.00000000000E+00 -0.20369017172E+04  0.25314407795E+04  0.15030714603E+04 0.  0.
        2    1    3    3  502    0  0.18987601386E+03 -0.64721946150E+03 -0.15766741890E+04  0.17148899179E+04  0.25500000920E-02 0.  1.
       -2    1    3    3    0  502 -0.18987601386E+03  0.64721946150E+03 -0.46022752814E+03  0.81655086165E+03  0.25500000920E-02 0. -1.
</event>
<event>
 5   0  0.1426929E-04  0.1503026E+04  0.7818609E-02  0.8882443E-01
       -1   -1    0    0    0  501  0.00000000000E+00  0.00000000000E+00  0.53230409426E+03  0.53230409428E+03  0.50400001928E-02 0. -1.
        1   -1    0    0  501    0  0.00000000000E+00  0.00000000000E+00 -0.10609953234E+04  0.10609953235E+04  0.50400001928E-02 0.  1.
    10030    2    1    2    0    0  0.00000000000E+00  0.00000000000E+00 -0.52869122918E+03  0.15932994177E+04  0.15030264864E+04 0.  0.
        1    1    3    3  502    0  0.57640235474E+03 -0.14133568861E+03  0.22438344912E+03  0.63447882839E+03  0.50400001928E-02 0. -1.
       -1    1    3    3    0  502 -0.57640235474E+03  0.14133568861E+03 -0.75307467830E+03  0.95882058934E+03  0.50400001928E-02 0.  1.
</event>
<event>
 5   0  0.2734072E-04  0.1501472E+04  0.7818609E-02  0.8883475E-01
        2   -1    0    0  501    0  0.00000000000E+00  0.00000000000E+00  0.23752366655E+04  0.23752366655E+04  0.25500000920E-02 0. -1.
       -2   -1    0    0    0  501  0.00000000000E+00  0.00000000000E+00 -0.23728339122E+03  0.23728339124E+03  0.25500000920E-02 0.  1.
    10030    2    1    2    0    0  0.00000000000E+00  0.00000000000E+00  0.21379532742E+04  0.26125200567E+04  0.15014715594E+04 0.  0.
        5    1    3    3  502    0 -0.64632250825E+02 -0.65214308973E+03  0.17061826689E+04  0.18277169712E+04  0.46999998093E+01 0. -1.
       -5    1    3    3    0  502  0.64632250825E+02  0.65214308973E+03  0.43177060537E+03  0.78480308548E+03  0.46999998093E+01 0.  1.
</event>
<event>
 5   0  0.2618901E-04  0.1484206E+04  0.7818609E-02  0.8895024E-01
       -2   -1    0    0    0  501  0.00000000000E+00  0.00000000000E+00  0.62216185855E+03  0.62216185855E+03  0.25500000920E-02 0. -1.
        2   -1    0    0  501    0  0.00000000000E+00  0.00000000000E+00 -0.88516613472E+03  0.88516613473E+03  0.25500000920E-02 0.  1.
    10030    2    1    2    0    0  0.00000000000E+00  0.00000000000E+00 -0.26300427618E+03  0.15073279933E+04  0.14842056562E+04 0.  0.
        1    1    3    3  502    0  0.24939824357E+03  0.49148515355E+03  0.37318998004E+03  0.66560341141E+03  0.50400001928E-02 0. -1.
       -1    1    3    3    0  502 -0.24939824357E+03 -0.49148515355E+03 -0.63619425621E+03  0.84172458187E+03  0.50400001928E-02 0.  1.
</event>
<event>
 5   0  0.1484251E-04  0.1505301E+04  0.7818609E-02  0.8880936E-01
        1   -1    0    0  501    0  0.00000000000E+00  0.00000000000E+00  0.13326726866E+04  0.13326726866E+04  0.50400001928E-02 0. -1.
       -1   -1    0    0    0  501  0.00000000000E+00  0.00000000000E+00 -0.42507241727E+03  0.42507241730E+03  0.50400001928E-02 0.  1.
    10030    2    1    2    0    0  0.00000000000E+00  0.00000000000E+00  0.90760026930E+03  0.17577451039E+04  0.15053005020E+04 0.  0.
        5    1    3    3  502    0 -0.30065726037E+03  0.70790704543E+02 -0.34763454235E+03  0.46505696113E+03  0.46999998093E+01 0. -1.
       -5    1    3    3    0  502  0.30065726037E+03 -0.70790704543E+02  0.12552348117E+04  0.12926881428E+04  0.46999998093E+01 0.  1.
</event>
<event>
 5   0  0.1474203E-04  0.1494584E+04  0.7818609E-02  0.8888063E-01
       -1   -1    0    0    0  501  0.00000000000E+00  0.00000000000E+00  0.10769014811E+04  0.10769014811E+04  0.50400001928E-02 0.  1.
        1   -1    0    0  501    0  0.00000000000E+00  0.00000000000E+00 -0.51856650339E+03  0.51856650342E+03  0.50400001928E-02 0. -1.
    10030    2    1    2    0    0  0.00000000000E+00  0.00000000000E+00  0.55833497772E+03  0.15954679845E+04  0.14945836017E+04 0.  0.
        3    1    3    3  502    0 -0.22091632694E+03  0.64020943666E+03 -0.58022081684E+02  0.67973429991E+03  0.10100000352E+00 0. -1.
       -3    1    3    3    0  502  0.22091632694E+03 -0.64020943666E+03  0.61635705940E+03  0.91573368464E+03  0.10100000352E+00 0.  1.
</event>
<event>
 5   0  0.2734072E-04  0.1501706E+04  0.7818609E-02  0.8883320E-01
       -2   -1    0    0    0  501  0.00000000000E+00  0.00000000000E+00  0.21948821807E+03  0.21948821808E+03  0.25500000920E-02 0. -1.
        2   -1    0    0  501    0  0.00000000000E+00  0.00000000000E+00 -0.25686113936E+04  0.25686113936E+04  0.25500000920E-02 0.  1.
    10030    2    1    2    0    0  0.00000000000E+00  0.00000000000E+00 -0.23491231755E+04  0.27880996117E+04  0.15017056139E+04 0.  0.
        5    1    3    3  502    0  0.28023063249E+03  0.69595396406E+03 -0.11195880107E+04  0.13477316243E+04  0.46999998093E+01 0.  1.
       -5    1    3    3    0  502 -0.28023063249E+03 -0.69595396406E+03 -0.12295351648E+04  0.14403679873E+04  0.46999998093E+01 0. -1.
</event>
<event>
 5   0  0.1474203E-04  0.1504130E+04  0.7818609E-02  0.8881711E-01
       -1   -1    0    0    0  501  0.00000000000E+00  0.00000000000E+00  0.55227493784E+03  0.55227493786E+03  0.50400001928E-02 0. -1.
        1   -1    0    0  501    0  0.00000000000E+00  0.00000000000E+00 -0.10241303824E+04  0.10241303824E+04  0.50400001928E-02 0.  1.
    10030    2    1    2    0    0  0.00000000000E+00  0.00000000000E+00 -0.47185544457E+03  0.15764053203E+04  0.15041297063E+04 0.  0.
        3    1    3    3  502    0  0.58817352208E+02  0.30018108435E+03 -0.95598816589E+03  0.10037338033E+04  0.10100000352E+00 0.  1.
       -3    1    3    3    0  502 -0.58817352208E+02 -0.30018108435E+03  0.48413272132E+03  0.57267151700E+03  0.10100000352E+00 0. -1.
</event>
<event>
 5   0  0.2646718E-04  0.1504879E+04  0.7818609E-02  0.8881215E-01
        2   -1    0    0  501    0  0.00000000000E+00  0.00000000000E+00  0.11900514605E+04  0.11900514605E+04  0.25500000920E-02 0. -1.
       -2   -1    0    0    0  501  0.00000000000E+00  0.00000000000E+00 -0.47574842453E+03  0.47574842454E+03  0.25500000920E-02 0.  1.
    10030    2    1    2    0    0  0.00000000000E+00  0.00000000000E+00  0.71430303597E+03  0.16657998850E+04  0.15048788755E+04 0.  0.
        3    1    3    3  502    0  0.22631160855E+03  0.48878905950E+03  0.93872166574E+03  0.10822800307E+04  0.10100000352E+00 0. -1.
       -3    1    3    3    0  502 -0.22631160855E+03 -0.48878905950E+03 -0.22441862978E+03  0.58351985437E+03  0.10100000352E+00 0.  1.
</event>
<event>
 5   0  0.1443750E-04  0.1507800E+04  0.7818609E-02  0.8879283E-01
        1   -1    0    0  501    0  0.00000000000E+00  0.00000000000E+00  0.62062004586E+03  0.62062004588E+03  0.50400001928E-02 0. -1.
       -1   -1    0    0    0  501  0.00000000000E+00  0.00000000000E+00 -0.91580193856E+03  0.91580193858E+03  0.50400001928E-02 0.  1.
    10030    2    1    2    0    0  0.00000000000E+00  0.00000000000E+00 -0.29518189270E+03  0.15364219845E+04  0.15077997760E+04 0.  0.
        2    1    3    3  502    0  0.36276505834E+03  0.13295563785E+03  0.51206905547E+03  0.64147518016E+03  0.25500000920E-02 0. -1.
       -2    1    3    3    0  502 -0.36276505834E+03 -0.13295563785E+03 -0.80725094817E+03  0.89494680429E+03  0.25500000920E-02 0.  1.
</event>
<event>
 5   0  0.2618901E-04  0.1498297E+04  0.7818609E-02  0.8885586E-01
        2   -1    0    0  501    0  0.00000000000E+00  0.00000000000E+00  0.72786001759E+03  0.72786001759E+03  0.25500000920E-02 0. -1.
       -2   -1    0    0    0  501  0.00000000000E+00  0.00000000000E+00 -0.77105972074E+03  0.77105972074E+03  0.25500000920E-02 0.  1.
    10030    2    1    2    0    0  0.00000000000E+00  0.00000000000E+00 -0.43199703148E+02  0.14989197383E+04  0.14982970892E+04 0.  0.
        1    1    3    3  502    0 -0.65530445784E+03 -0.95406173145E+02  0.32882741852E+03  0.73936035973E+03  0.50400001928E-02 0.  1.
       -1    1    3    3    0  502  0.65530445784E+03  0.95406173145E+02 -0.37202712167E+03  0.75955937861E+03  0.50400001928E-02 0. -1.
</event>
<event>
 5   0  0.1443750E-04  0.1490674E+04  0.7818609E-02  0.8890678E-01
        1   -1    0    0  501    0  0.00000000000E+00  0.00000000000E+00  0.76189800523E+03  0.76189800525E+03  0.50400001928E-02 0.  1.
       -1   -1    0    0    0  501  0.00000000000E+00  0.00000000000E+00 -0.72913642295E+03  0.72913642297E+03  0.50400001928E-02 0. -1.
    10030    2    1    2    0    0  0.00000000000E+00  0.00000000000E+00  0.32761582280E+02  0.14910344282E+04  0.14906744597E+04 0.  0.
        2    1    3    3  502    0 -0.50607783965E+03 -0.47931542104E+03 -0.24763281699E+03  0.73971620550E+03  0.25500000920E-02 0. -1.
       -2    1    3    3    0  502  0.50607783965E+03  0.47931542104E+03  0.28039439927E+03  0.75131822271E+03  0.25500000920E-02 0.  1.
</event>
<event>
 5   0  0.2641347E-04  0.1550485E+04  0.7818609E-02  0.8851558E-01
       -2   -1    0    0    0  501  0.00000000000E+00  0.00000000000E+00  0.42964311268E+03  0.42964311269E+03  0.25500000920E-02 0.  1.
        2   -1    0    0  501    0  0.00000000000E+00  0.00000000000E+00 -0.13988373220E+04  0.13988373220E+04  0.25500000920E-02 0. -1.
    10030    2    1    2    0    0  0.00000000000E+00  0.00000000000E+00 -0.96919420931E+03  0.18284804347E+04  0.15504848547E+04 0.  0.
        4    1    3    3  502    0  0.70641498359E+01  0.65984431256E+03 -0.96443402779E+03  0.11685799185E+04  0.12699999809E+01 0. -1.
       -4    1    3    3    0  502 -0.70641498359E+01 -0.65984431256E+03 -0.47601815124E+01  0.65990051619E+03  0.12699999809E+01 0.  1.
</event>
<event>
 5   0  0.1427609E-04  0.1495051E+04  0.7818609E-02  0.8887750E-01
        1   -1    0    0  501    0  0.00000000000E+00  0.00000000000E+00  0.22571749976E+04  0.22571749976E+04  0.50400001928E-02 0. -1.
       -1   -1    0    0    0  501  0.00000000000E+00  0.00000000000E+00 -0.24756368181E+03  0.24756368186E+03  0.50400001928E-02 0.  1.
    10030    2    1    2    0    0  0.00000000000E+00  0.00000000000E+00  0.20096113157E+04  0.25047386794E+04  0.14950512405E+04 0.  0.
        4    1    3    3  502    0  0.17039731461E+03  0.70427344392E+03  0.69699350180E+03  0.10054043381E+04  0.12699999809E+01 0. -1.
       -4    1    3    3    0  502 -0.17039731461E+03 -0.70427344392E+03  0.13126178139E+04  0.14993343413E+04  0.12699999809E+01 0.  1.
</event>
<event>
 5   0  0.1004313E-04  0.1494060E+04  0.7818609E-02  0.8888412E-01
        4   -1    0    0  501    0  0.00000000000E+00  0.00000000000E+00  0.52482845734E+03  0.52482999393E+03  0.12699999809E+01 0.  1.
       -4   -1    0    0    0  501  0.00000000000E+00  0.00000000000E+00 -0.10633042935E+04  0.10633050520E+04  0.12699999809E+01 0. -1.
    10030    2    1    2    0    0  0.00000000000E+00  0.00000000000E+00 -0.53847583618E+03  0.15881350459E+04  0.14940604733E+04 0.  0.
        1    1    3    3  502    0  0.14613111730E+03 -0.38004038072E+03  0.39651234561E+03  0.56833707838E+03  0.50400001928E-02 0.  1.
       -1    1    3    3    0  502 -0.14613111730E+03  0.38004038072E+03 -0.93498818179E+03  0.10197979675E+04  0.50400001928E-02 0. -1.
</event>
<event>
 5   0  0.1474203E-04  0.1496552E+04  0.7818609E-02  0.8886749E-01
        1   -1    0    0  501    0  0.00000000000E+00  0.00000000000E+00  0.10028490887E+04  0.10028490887E+04  0.50400001928E-02 0. -1.
       -1   -1    0    0    0  501  0.00000000000E+00  0.00000000000E+00 -0.55832610582E+03  0.55832610585E+03  0.50400001928E-02 0.  1.
    10030    2    1    2    0    0  0.00000000000E+00  0.00000000000E+00  0.44452298288E+03  0.15611751946E+04  0.14965518053E+04 0.  0.
        3    1    3    3  502    0  0.11619286705E+03 -0.44110542528E+03 -0.39651492167E+03  0.60439959619E+03  0.10100000352E+00 0.  1.
       -3    1    3    3    0  502 -0.11619286705E+03  0.44110542528E+03  0.84103790455E+03  0.95677559838E+03  0.10100000352E+00 0. -1.
</event>
<event>
 5   0  0.1443750E-04  0.1501010E+04  0.7818609E-02  0.8883782E-01
       -1   -1    0    0    0  501  0.00000000000E+00  0.00000000000E+00  0.51195192635E+03  0.51195192638E+03  0.50400001928E-02 0.  1.
        1   -1    0    0  501    0  0.00000000000E+00  0.00000000000E+00 -0.11002155551E+04  0.11002155551E+04  0.50400001928E-02 0. -1.
    10030    2    1    2    0    0  0.00000000000E+00  0.00000000000E+00 -0.58826362877E+03  0.16121674815E+04  0.15010096241E+04 0.  0.
        2    1    3    3  502    0  0.17441128434E+03 -0.97527418997E+00 -0.10781460696E+04  0.10921626228E+04  0.25500000920E-02 0. -1.
       -2    1    3    3    0  502 -0.17441128434E+03  0.97527418997E+00  0.48988244082E+03  0.52000485872E+03  0.25500000920E-02 0.  1.
</event>
<event>
 5   0  0.1474203E-04  0.1502733E+04  0.7818609E-02  0.8882638E-01
       -1   -1    0    0    0  501  0.00000000000E+00  0.00000000000E+00  0.10871145385E+04  0.10871145385E+04  0.50400001928E-02 0.  1.
        1   -1    0    0  501    0  0.00000000000E+00  0.00000000000E+00 -0.51931177341E+03  0.51931177344E+03  0.50400001928E-02 0. -1.
    10030    2    1    2    0    0  0.00000000000E+00  0.00000000000E+00  0.56780276511E+03  0.16064263120E+04  0.15027326827E+04 0.  0.
        3    1    3    3  502    0 -0.51900806219E+03 -0.51409024610E+03  0.96008357590E+02  0.73680103467E+03  0.10100000352E+00 0.  1.
       -3    1    3    3    0  502  0.51900806219E+03  0.51409024610E+03  0.47179440752E+03  0.86962527731E+03  0.10100000352E+00 0. -1.
</event>
<event>
 5   0  0.1484251E-04  0.1513203E+04  0.7818609E-02  0.8875720E-01
        1   -1    0    0  501    0  0.00000000000E+00  0.00000000000E+00  0.81756549435E+03  0.81756549436E+03  0.50400001928E-02 0. -1.
       -1   -1    0    0    0  501  0.00000000000E+00  0.00000000000E+00 -0.70018318252E+03  0.70018318254E+03  0.50400001928E-02 0.  1.
    10030    2    1    2    0    0  0.00000000000E+00  0.00000000000E+00  0.11738231183E+03  0.15177486769E+04  0.15132027092E+04 0.  0.
        5    1    3    3  502    0  0.52562534894E+03 -0.71792519191E+02 -0.48236183845E+03  0.71702943207E+03  0.46999998093E+01 0.  1.
       -5    1    3    3    0  502 -0.52562534894E+03  0.71792519191E+02  0.59974415027E+03  0.80071924483E+03  0.46999998093E+01 0. -1.
</event>
<event>
 5   0  0.1484251E-04  0.1496579E+04  0.7818609E-02  0.8886731E-01
       -1   -1    0    0    0  501  0.00000000000E+00  0.00000000000E+00  0.44294042997E+03  0.44294043000E+03  0.50400001928E-02 0.  1.
        1   -1    0    0  501    0  0.00000000000E+00  0.00000000000E+00 -0.12641369921E+04  0.12641369921E+04  0.50400001928E-02 0. -1.
    10030    2    1    2    0    0  0.00000000000E+00  0.00000000000E+00 -0.82119656213E+03  0.17070774221E+04  0.14965792767E+04 0.  0.
        5    1    3    3  502    0 -0.29246219644E+03 -0.65113629997E+03 -0.15451555405E+03  0.73034906991E+03  0.46999998093E+01 0.  1.
       -5    1    3    3    0  502  0.29246219644E+03  0.65113629997E+03 -0.66668100808E+03  0.97672835221E+03  0.46999998093E+01 0. -1.
</event>
<event>
 5   0  0.1484251E-04  0.1523240E+04  0.7818609E-02  0.8869144E-01
       -1   -1    0    0    0  501  0.00000000000E+00  0.00000000000E+00  0.71743973023E+03  0.71743973025E+03  0.50400001928E-02 0. -1.
        1   -1    0    0  501    0  0.00000000000E+00  0.00000000000E+00 -0.80852062978E+03  0.80852062980E+03  0.50400001928E-02 0.  1.
    10030    2    1    2    0    0  0.00000000000E+00  0.00000000000E+00 -0.91080899552E+02  0.15259603600E+04  0.15232397350E+04 0.  0.
        5    1    3    3  502    0 -0.36812301427E+03 -0.59751521524E+03 -0.34187911187E+03  0.78066792121E+03  0.46999998093E+01 0.  1.
       -5    1    3    3    0  502  0.36812301427E+03  0.59751521524E+03  0.25079821232E+03  0.74529243883E+03  0.46999998093E+01 0. -1.
</event>
<event>
 5   0  0.2641347E-04  0.1502178E+04  0.7818609E-02  0.8883006E-01
       -2   -1    0    0    0  501  0.00000000000E+00  0.00000000000E+00  0.53835984666E+03  0.53835984667E+03  0.25500000920E-02 0. -1.
        2   -1    0    0  501    0  0.00000000000E+00  0.00000000000E+00 -0.10478764118E+04  0.10478764118E+04  0.25500000920E-02 0.  1.
    10030    2    1    2    0    0  0.00000000000E+00  0.00000000000E+00 -0.50951656516E+03  0.15862362585E+04  0.15021778648E+04 0.  0.
        4    1    3    3  502    0 -0.51025589386E+03 -0.54021269635E+03 -0.13936313716E+03  0.75605193699E+03  0.12699999809E+01 0.  1.
       -4    1    3    3    0  502  0.51025589386E+03  0.54021269635E+03 -0.37015342801E+03  0.83018432152E+03  0.12699999809E+01 0. -1.
</event>
<event>
 5   0  0.1427609E-04  0.1497865E+04  0.7818609E-02  0.8885874E-01
        1   -1    0    0  501    0  0.00000000000E+00  0.00000000000E+00  0.10180821258E+04  0.10180821258E+04  0.50400001928E-02 0. -1.
       -1   -1    0    0    0  501  0.00000000000E+00  0.00000000000E+00 -0.55093763536E+03  0.55093763538E+03  0.50400001928E-02 0.  1.
    10030    2    1    2    0    0  0.00000000000E+00  0.00000000000E+00  0.46714449045E+03  0.15690197612E+04  0.14978648257E+04 0.  0.
        4    1    3    3  502    0  0.26809639434E+03  0.47696949727E+03 -0.30211385447E+03  0.62501997724E+03  0.12699999809E+01 0.  1.
       -4    1    3    3    0  502 -0.26809639434E+03 -0.47696949727E+03  0.76925834492E+03  0.94399978396E+03  0.12699999809E+01 0. -1.
</event>
<event>
 5   0  0.2646718E-04  0.1507666E+04  0.7818609E-02  0.8879371E-01
       -2   -1    0    0    0  501  0.00000000000E+00  0.00000000000E+00  0.42089250449E+03  0.42089250450E+03  0.25500000920E-02 0.  1.
        2   -1    0    0  501    0  0.00000000000E+00  0.00000000000E+00 -0.13501415028E+04  0.13501415028E+04  0.25500000920E-02 0. -1.
    10030    2    1    2    0    0  0.00000000000E+00  0.00000000000E+00 -0.92924899830E+03  0.17710340073E+04  0.15076663272E+04 0.  0.
        3    1    3    3  502    0  0.39694840191E+03  0.19882068340E+03  0.25103458108E+03  0.51001575370E+03  0.10100000352E+00 0.  1.
       -3    1    3    3    0  502 -0.39694840191E+03 -0.19882068340E+03 -0.11802835794E+04  0.12610182536E+04  0.10100000352E+00 0. -1.
</event>
<event>
 5   0  0.2618901E-04  0.1501116E+04  0.7818609E-02  0.8883711E-01
       -2   -1    0    0    0  501  0.00000000000E+00  0.00000000000E+00  0.25830179096E+03  0.25830179097E+03  0.25500000920E-02 0. -1.
        2   -1    0    0  501    0  0.00000000000E+00  0.00000000000E+00 -0.21809268208E+04  0.21809268208E+04  0.25500000920E-02 0.  1.
    10030    2    1    2    0    0  0.00000000000E+00  0.00000000000E+00 -0.19226250298E+04  0.24392286118E+04  0.15011159899E+04 0.  0.
        1    1    3    3  502    0 -0.50951194854E+03 -0.39465312129E+03 -0.33621851509E+03  0.72690879880E+03  0.50400001928E-02 0.  1.
       -1    1    3    3    0  502  0.50951194854E+03  0.39465312129E+03 -0.15864065147E+04  0.17123198130E+04  0.50400001928E-02 0. -1.
</event>
<event>
 5   0  0.1427609E-04  0.1497654E+04  0.7818609E-02  0.8886014E-01
       -1   -1    0    0    0  501  0.00000000000E+00  0.00000000000E+00  0.41431789237E+03  0.41431789240E+03  0.50400001928E-02 0. -1.
        1   -1    0    0  501    0  0.00000000000E+00  0.00000000000E+00 -0.13534098962E+04  0.13534098962E+04  0.50400001928E-02 0.  1.
    10030    2    1    2    0    0  0.00000000000E+00  0.00000000000E+00 -0.93909200379E+03  0.17677277886E+04  0.14976540799E+04 0.  0.
        4    1    3    3  502    0 -0.23855779603E+03  0.70267028476E+03 -0.58807953158E+03  0.94683393448E+03  0.12699999809E+01 0.  1.
       -4    1    3    3    0  502  0.23855779603E+03 -0.70267028476E+03 -0.35101247221E+03  0.82089385409E+03  0.12699999809E+01 0. -1.
</event>
<event>
 5   0  0.2618901E-04  0.1499834E+04  0.7818609E-02  0.8884563E-01
        2   -1    0    0  501    0  0.00000000000E+00  0.00000000000E+00  0.84346128201E+03  0.84346128201E+03  0.25500000920E-02 0. -1.
       -2   -1    0    0    0  501  0.00000000000E+00  0.00000000000E+00 -0.66674720271E+03  0.66674720271E+03  0.25500000920E-02 0.  1.
    10030    2    1    2    0    0  0.00000000000E+00  0.00000000000E+00  0.17671407930E+03  0.15102084847E+04  0.14998339246E+04 0.  0.
        1    1    3    3  502    0  0.40142813025E+03  0.32539211852E+03 -0.45886409815E+03  0.69107223584E+03  0.50400001928E-02 0.  1.
       -1    1    3    3    0  502 -0.40142813025E+03 -0.32539211852E+03  0.63557817745E+03  0.81913624888E+03  0.50400001928E-02 0. -1.
</event>
<event>
 5   0  0.2618901E-04  0.1487700E+04  0.7818609E-02  0.8892674E-01
       -2   -1    0    0    0  501  0.00000000000E+00  0.00000000000E+00  0.31993165350E+03  0.31993165351E+03  0.25500000920E-02 0. -1.
        2   -1    0    0  501    0  0.00000000000E+00  0.00000000000E+00 -0.17294718502E+04  0.17294718502E+04  0.25500000920E-02 0.  1.
    10030    2    1    2    0    0  0.00000000000E+00  0.00000000000E+00 -0.14095401967E+04  0.20494035037E+04  0.14876999546E+04 0.  0.
        1    1    3    3  502    0 -0.23069041267E+03 -0.29975540136E+03  0.17756159386E+03  0.41785103420E+03  0.50400001928E-02 0. -1.
       -1    1    3    3    0  502  0.23069041267E+03  0.29975540136E+03 -0.15871017905E+04  0.16315524695E+04  0.50400001928E-02 0.  1.
</event>
<event>
 5   0  0.1443750E-04  0.1492190E+04  0.7818609E-02  0.8889663E-01
        1   -1    0    0  501    0  0.00000000000E+00  0.00000000000E+00  0.57538794234E+03  0.57538794236E+03  0.50400001928E-02 0. -1.
       -1   -1    0    0    0  501  0.00000000000E+00  0.00000000000E+00 -0.96744779916E+03  0.96744779917E+03  0.50400001928E-02 0.  1.
    10030    2    1    2    0    0  0.00000000000E+00  0.00000000000E+00 -0.39205985682E+03  0.15428357415E+04  0.14921900663E+04 0.  0.
        2    1    3    3  502    0  0.34356240532E+03  0.20055457327E+03  0.45658274506E+03  0.60557829081E+03  0.25500000920E-02 0. -1.
       -2    1    3    3    0  502 -0.34356240532E+03 -0.20055457327E+03 -0.84864260188E+03  0.93725745072E+03  0.25500000920E-02 0.  1.
</event>
<event>
 5   0  0.2618901E-04  0.1494092E+04  0.7818609E-02  0.8888391E-01
       -2   -1    0    0    0  501  0.00000000000E+00  0.00000000000E+00  0.29438652877E+03  0.29438652879E+03  0.25500000920E-02 0. -1.
        2   -1    0    0  501    0  0.00000000000E+00  0.00000000000E+00 -0.18957305431E+04  0.18957305431E+04  0.25500000920E-02 0.  1.
    10030    2    1    2    0    0  0.00000000000E+00  0.00000000000E+00 -0.16013440143E+04  0.21901170719E+04  0.14940917430E+04 0.  0.
        1    1    3    3  502    0  0.67673425750E+03  0.12670473048E+03 -0.37569077758E+03  0.78432576420E+03  0.50400001928E-02 0. -1.
       -1    1    3    3    0  502 -0.67673425750E+03 -0.12670473048E+03 -0.12256532367E+04  0.14057913077E+04  0.50400001928E-02 0.  1.
</event>
<event>
 5   0  0.1427609E-04  0.1500776E+04  0.7818609E-02  0.8883937E-01
       -1   -1    0    0    0  501  0.00000000000E+00  0.00000000000E+00  0.11509398069E+04  0.11509398069E+04  0.50400001928E-02 0.  1.
        1   -1    0    0  501    0  0.00000000000E+00  0.00000000000E+00 -0.48923655414E+03  0.48923655417E+03  0.50400001928E-02 0. -1.
    10030    2    1    2    0    0  0.00000000000E+00  0.00000000000E+00  0.66170325279E+03  0.16401763611E+04  0.15007755664E+04 0.  0.
        4    1    3    3  502    0  0.27054869701E+03 -0.64535519191E+03  0.34761661107E+02  0.70063535963E+03  0.12699999809E+01 0. -1.
       -4    1    3    3    0  502 -0.27054869701E+03  0.64535519191E+03  0.62694159169E+03  0.93954100148E+03  0.12699999809E+01 0.  1.
</event>
<event>
 5   0  0.1004313E-04  0.1538001E+04  0.7818609E-02  0.8859569E-01
        4   -1    0    0  501    0  0.00000000000E+00  0.00000000000E+00  0.59117057686E+03  0.59117194102E+03  0.12699999809E+01 0. -1.
       -4   -1    0    0    0  501  0.00000000000E+00  0.00000000000E+00 -0.10003198598E+04  0.10003206660E+04  0.12699999809E+01 0.  1.
    10030    2    1    2    0    0  0.00000000000E+00  0.00000000000E+00 -0.40914928290E+03  0.15914926070E+04  0.15380005144E+04 0.  0.
        5    1    3    3  502    0  0.36794565843E+03 -0.54983214929E+03 -0.61017670949E+03  0.90002061463E+03  0.46999998093E+01 0.  1.
       -5    1    3    3    0  502 -0.36794565843E+03  0.54983214929E+03  0.20102742659E+03  0.69147199234E+03  0.46999998093E+01 0. -1.
</event>
<event>
 5   0  0.1427609E-04  0.1500913E+04  0.7818609E-02  0.8883846E-01
        1   -1    0    0  501    0  0.00000000000E+00  0.00000000000E+00  0.85182625305E+03  0.85182625307E+03  0.50400001928E-02 0.  1.
       -1   -1    0    0    0  501  0.00000000000E+00  0.00000000000E+00 -0.66115000980E+03  0.66115000981E+03  0.50400001928E-02 0. -1.
    10030    2    1    2    0    0  0.00000000000E+00  0.00000000000E+00  0.19067624326E+03  0.15129762629E+04  0.15009129696E+04 0.  0.
        4    1    3    3  502    0  0.60475016680E+03 -0.23016531105E+03  0.47850434257E+03  0.80477751796E+03  0.12699999809E+01 0.  1.
       -4    1    3    3    0  502 -0.60475016680E+03  0.23016531105E+03 -0.28782809931E+03  0.70819874492E+03  0.12699999809E+01 0. -1.
</event>
<event>
 5   0  0.2618901E-04  0.1490740E+04  0.7818609E-02  0.8890634E-01
       -2   -1    0    0    0  501  0.00000000000E+00  0.00000000000E+00  0.25129803374E+03  0.25129803375E+03  0.25500000920E-02 0. -1.
        2   -1    0    0  501    0  0.00000000000E+00  0.00000000000E+00 -0.22108270344E+04  0.22108270344E+04  0.25500000920E-02 0.  1.
    10030    2    1    2    0    0  0.00000000000E+00  0.00000000000E+00 -0.19595290006E+04  0.24621250681E+04  0.14907400668E+04 0.  0.
        1    1    3    3  502    0 -0.33107174723E+03 -0.65998671255E+03 -0.81144966565E+03  0.10971059759E+04  0.50400001928E-02 0. -1.
       -1    1    3    3    0  502  0.33107174723E+03  0.65998671255E+03 -0.11480793350E+04  0.13650190922E+04  0.50400001928E-02 0.  1.
</event>
<event>
 5   0  0.1426929E-04  0.1503249E+04  0.7818609E-02  0.8882295E-01
       -1   -1    0    0    0  501  0.00000000000E+00  0.00000000000E+00  0.62623358969E+03  0.62623358971E+03  0.50400001928E-02 0. -1.
        1   -1    0    0  501    0  0.00000000000E+00  0.00000000000E+00 -0.90212245010E+03  0.90212245011E+03  0.50400001928E-02 0.  1.
    10030    2    1    2    0    0  0.00000000000E+00  0.00000000000E+00 -0.27588886041E+03  0.15283560398E+04  0.15032489884E+04 0.  0.
        1    1    3    3  502    0  0.61228191818E+03 -0.41933399298E+03 -0.16751030094E+02  0.74230097806E+03  0.50400001928E-02 0. -1.
       -1    1    3    3    0  502 -0.61228191818E+03  0.41933399298E+03 -0.25913783031E+03  0.78605506176E+03  0.50400001928E-02 0.  1.
</event>
<event>
 5   0  0.1443750E-04  0.1495153E+04  0.7818609E-02  0.8887682E-01
        1   -1    0    0  501    0  0.00000000000E+00  0.00000000000E+00  0.18497161928E+04  0.18497161928E+04  0.50400001928E-02 0. -1.
       -1   -1    0    0    0  501  0.00000000000E+00  0.00000000000E+00 -0.30213869713E+03  0.30213869717E+03  0.50400001928E-02 0.  1.
    10030    2    1    2    0    0  0.00000000000E+00  0.00000000000E+00  0.15475774957E+04  0.21518548900E+04  0.14951532906E+04 0.  0.
        2    1    3    3  502    0  0.58506831381E+03  0.30320927358E+03  0.26570110024E+03  0.71051943681E+03  0.25500000920E-02 0.  1.
       -2    1    3    3    0  502 -0.58506831381E+03 -0.30320927358E+03  0.12818763954E+04  0.14413354532E+04  0.25500000920E-02 0. -1.
</event>
<event>
 5   0  0.2696040E-04  0.1500915E+04  0.7818609E-02  0.8883845E-01
        2   -1    0    0  501    0  0.00000000000E+00  0.00000000000E+00  0.21037208873E+04  0.21037208874E+04  0.25500000920E-02 0. -1.
       -2   -1    0    0    0  501  0.00000000000E+00  0.00000000000E+00 -0.26770966192E+03  0.26770966193E+03  0.25500000920E-02 0.  1.
    10030    2    1    2    0    0  0.00000000000E+00  0.00000000000E+00  0.18360112254E+04  0.23714305493E+04  0.15009149310E+04 0.  0.
        2    1    3    3  502    0  0.23871833751E+03  0.47586504078E+03  0.82323199048E+02  0.53871243796E+03  0.25500000920E-02 0.  1.
       -2    1    3    3    0  502 -0.23871833751E+03 -0.47586504078E+03  0.17536880264E+04  0.18327181113E+04  0.25500000920E-02 0. -1.
</event>
<event>
 5   0  0.2696040E-04  0.1515565E+04  0.7818609E-02  0.8874168E-01
       -2   -1    0    0    0  501  0.00000000000E+00  0.00000000000E+00  0.39302371106E+03  0.39302371106E+03  0.25500000920E-02 0. -1.
        2   -1    0    0  501    0  0.00000000000E+00  0.00000000000E+00 -0.14610669140E+04  0.14610669140E+04  0.25500000920E-02 0.  1.
    10030    2    1    2    0    0  0.00000000000E+00  0.00000000000E+00 -0.10680432029E+04  0.18540906250E+04  0.15155645029E+04 0.  0.
        2    1    3    3  502    0 -0.48627773027E+03  0.49622727767E+03 -0.90413066454E+03  0.11402455002E+04  0.25500000920E-02 0. -1.
       -2    1    3    3    0  502  0.48627773027E+03 -0.49622727767E+03 -0.16391253837E+03  0.71384512487E+03  0.25500000920E-02 0.  1.
</event>
<event>
 5   0  0.2734072E-04  0.1510672E+04  0.7818609E-02  0.8877387E-01
       -2   -1    0    0    0  501  0.00000000000E+00  0.00000000000E+00  0.47901478578E+03  0.47901478579E+03  0.25500000920E-02 0.  1.
        2   -1    0    0  501    0  0.00000000000E+00  0.00000000000E+00 -0.11910536313E+04  0.11910536313E+04  0.25500000920E-02 0. -1.
    10030    2    1    2    0    0  0.00000000000E+00  0.00000000000E+00 -0.71203884550E+03  0.16700684171E+04  0.15106717712E+04 0.  0.
        5    1    3    3  502    0 -0.15689276690E+03 -0.51752623223E+03  0.22693493796E+03  0.58648981015E+03  0.46999998093E+01 0.  1.
       -5    1    3    3    0  502  0.15689276690E+03  0.51752623223E+03 -0.93897378346E+03  0.10835786069E+04  0.46999998093E+01 0. -1.
</event>
<event>
 5   0  0.2618901E-04  0.1501613E+04  0.7818609E-02  0.8883381E-01
       -2   -1    0    0    0  501  0.00000000000E+00  0.00000000000E+00  0.46590857968E+03  0.46590857969E+03  0.25500000920E-02 0. -1.
        2   -1    0    0  501    0  0.00000000000E+00  0.00000000000E+00 -0.12099163187E+04  0.12099163187E+04  0.25500000920E-02 0.  1.
    10030    2    1    2    0    0  0.00000000000E+00  0.00000000000E+00 -0.74400773902E+03  0.16758248984E+04  0.15016129909E+04 0.  0.
        1    1    3    3  502    0 -0.58682401843E+03  0.25118950557E+03 -0.81315066872E+03  0.10337662242E+04  0.50400001928E-02 0.  1.
       -1    1    3    3    0  502  0.58682401843E+03 -0.25118950557E+03  0.69142929698E+02  0.64205867416E+03  0.50400001928E-02 0. -1.
</event>
<event>
 5   0  0.1474203E-04  0.1508294E+04  0.7818609E-02  0.8878956E-01
       -1   -1    0    0    0  501  0.00000000000E+00  0.00000000000E+00  0.31226498787E+03  0.31226498791E+03  0.50400001928E-02 0.  1.
        1   -1    0    0  501    0  0.00000000000E+00  0.00000000000E+00 -0.18213314386E+04  0.18213314386E+04  0.50400001928E-02 0. -1.
    10030    2    1    2    0    0  0.00000000000E+00  0.00000000000E+00 -0.15090664507E+04  0.21335964265E+04  0.15082944535E+04 0.  0.
        3    1    3    3  502    0  0.10148720150E+03 -0.68261688711E+03 -0.11846957657E+04  0.13710468752E+04  0.10100000352E+00 0.  1.
       -3    1    3    3    0  502 -0.10148720150E+03  0.68261688711E+03 -0.32437068503E+03  0.76254955128E+03  0.10100000352E+00 0. -1.
</event>
<event>
 5   0  0.2641347E-04  0.1499666E+04  0.7818609E-02  0.8884675E-01
        2   -1    0    0  501    0  0.00000000000E+00  0.00000000000E+00  0.92393597020E+03  0.92393597020E+03  0.25500000920E-02 0. -1.
       -2   -1    0    0    0  501  0.00000000000E+00  0.00000000000E+00 -0.60853699525E+03  0.60853699526E+03  0.25500000920E-02 0.  1.
    10030    2    1    2    0    0  0.00000000000E+00  0.00000000000E+00  0.31539897495E+03  0.15324729655E+04  0.14996655882E+04 0.  0.
        4    1    3    3  502    0  0.20591870039E+02  0.52635204821E+03  0.70301886351E+03  0.87846891756E+03  0.12699999809E+01 0. -1.
       -4    1    3    3    0  502 -0.20591870039E+02 -0.52635204821E+03 -0.38761988856E+03  0.65400404791E+03  0.12699999809E+01 0.  1.
</event>
<event>
 5   0  0.2734072E-04  0.1474292E+04  0.7818609E-02  0.8901731E-01
       -2   -1    0    0    0  501  0.00000000000E+00  0.00000000000E+00  0.39680823418E+03  0.39680823419E+03  0.25500000920E-02 0.  1.
        2   -1    0    0  501    0  0.00000000000E+00  0.00000000000E+00 -0.13693870265E+04  0.13693870265E+04  0.25500000920E-02 0. -1.
    10030    2    1    2    0    0  0.00000000000E+00  0.00000000000E+00 -0.97257879231E+03  0.17661952607E+04  0.14742917593E+04 0.  0.
        5    1    3    3  502    0 -0.61573126137E+03  0.18343774920E+03 -0.53370854241E+02  0.64470530643E+03  0.46999998093E+01 0.  1.
       -5    1    3    3    0  502  0.61573126137E+03 -0.18343774920E+03 -0.91920793807E+03  0.11214899542E+04  0.46999998093E+01 0. -1.
</event>
<event>
 5   0  0.2618901E-04  0.1500154E+04  0.7818609E-02  0.8884351E-01
       -2   -1    0    0    0  501  0.00000000000E+00  0.00000000000E+00  0.93382577250E+03  0.93382577250E+03  0.25500000920E-02 0. -1.
        2   -1    0    0  501    0  0.00000000000E+00  0.00000000000E+00 -0.60248412885E+03  0.60248412886E+03  0.25500000920E-02 0.  1.
    10030    2    1    2    0    0  0.00000000000E+00  0.00000000000E+00  0.33134164365E+03  0.15363099014E+04  0.15001536015E+04 0.  0.
        1    1    3    3  502    0  0.48573415188E+03 -0.14605386240E+03 -0.40022838214E+03  0.64610537447E+03  0.50400001928E-02 0.  1.
       -1    1    3    3    0  502 -0.48573415188E+03  0.14605386240E+03  0.73157002579E+03  0.89020452688E+03  0.50400001928E-02 0. -1.
</event>
<event>
 5   0  0.1426929E-04  0.1484814E+04  0.7818609E-02  0.8894615E-01
        1   -1    0    0  501    0  0.00000000000E+00  0.00000000000E+00  0.70134202862E+03  0.70134202864E+03  0.50400001928E-02 0. -1.
       -1   -1    0    0    0  501  0.00000000000E+00  0.00000000000E+00 -0.78587669353E+03  0.78587669355E+03  0.50400001928E-02 0.  1.
    10030    2    1    2    0    0  0.00000000000E+00  0.00000000000E+00 -0.84534664911E+02  0.14872187222E+04  0.14848142706E+04 0.  0.
        1    1    3    3  502    0 -0.35677701823E+03 -0.10298042737E+03 -0.68617191228E+03  0.78020939650E+03  0.50400001928E-02 0.  1.
       -1    1    3    3    0  502  0.35677701823E+03  0.10298042737E+03  0.60163724737E+03  0.70700932568E+03  0.50400001928E-02 0. -1.
</event>
<event>
 5   0  0.1004313E-04  0.1502383E+04  0.7818609E-02  0.8882870E-01
       -4   -1    0    0    0  501  0.00000000000E+00  0.00000000000E+00  0.57466958908E+03  0.57467099241E+03  0.12699999809E+01 0.  1.
        4   -1    0    0  501    0  0.00000000000E+00  0.00000000000E+00 -0.98193318392E+03  0.98193400520E+03  0.12699999809E+01 0. -1.
    10030    2    1    2    0    0  0.00000000000E+00  0.00000000000E+00 -0.40726359484E+03  0.15566049976E+04  0.15023832676E+04 0.  0.
        1    1    3    3  502    0  0.53210762333E+03  0.23940933632E+03 -0.69381705116E+03  0.90655251013E+03  0.50400001928E-02 0.  1.
       -1    1    3    3    0  502 -0.53210762333E+03 -0.23940933632E+03  0.28655345632E+03  0.65005248748E+03  0.50400001928E-02 0. -1.
</event>
<event>
 5   0  0.1443750E-04  0.1539900E+04  0.7818609E-02  0.8858345E-01
        1   -1    0    0  501    0  0.00000000000E+00  0.00000000000E+00  0.54124150639E+03  0.54124150641E+03  0.50400001928E-02 0. -1.
       -1   -1    0    0    0  501  0.00000000000E+00  0.00000000000E+00 -0.10953020157E+04  0.10953020157E+04  0.50400001928E-02 0.  1.
    10030    2    1    2    0    0  0.00000000000E+00  0.00000000000E+00 -0.55406050930E+03  0.16365435221E+04  0.15398998837E+04 0.  0.
        2    1    3    3  502    0 -0.44109516280E+01 -0.74684812451E+03 -0.78145532011E+02  0.75093828093E+03  0.25500000920E-02 0.  1.
       -2    1    3    3    0  502  0.44109516280E+01  0.74684812451E+03 -0.47591497729E+03  0.88560524118E+03  0.25500000920E-02 0. -1.
</event>
<event>
 5   0  0.2696040E-04  0.1499006E+04  0.7818609E-02  0.8885114E-01
        2   -1    0    0  501    0  0.00000000000E+00  0.00000000000E+00  0.18457344707E+04  0.18457344707E+04  0.25500000920E-02 0.  1.
       -2   -1    0    0    0  501  0.00000000000E+00  0.00000000000E+00 -0.30435288956E+03  0.30435288957E+03  0.25500000920E-02 0. -1.
    10030    2    1    2    0    0  0.00000000000E+00  0.00000000000E+00  0.15413815811E+04  0.21500873603E+04  0.14990058299E+04 0.  0.
        2    1    3    3  502    0  0.33834768994E+02 -0.72100250767E+02  0.18396476337E+04  0.18413708627E+04  0.25500000920E-02 0.  1.
       -2    1    3    3    0  502 -0.33834768994E+02  0.72100250767E+02 -0.29826605257E+03  0.30871649758E+03  0.25500000920E-02 0. -1.
</event>
<event>
 5   0  0.2641347E-04  0.1502209E+04  0.7818609E-02  0.8882986E-01
        2   -1    0    0  501    0  0.00000000000E+00  0.00000000000E+00  0.21871774112E+04  0.21871774112E+04  0.25500000920E-02 0. -1.
       -2   -1    0    0    0  501  0.00000000000E+00  0.00000000000E+00 -0.25793866516E+03  0.25793866517E+03  0.25500000920E-02 0.  1.
    10030    2    1    2    0    0  0.00000000000E+00  0.00000000000E+00  0.19292387460E+04  0.24451160763E+04  0.15022085367E+04 0.  0.
        4    1    3    3  502    0 -0.25837878012E+03  0.68141462141E+03  0.66862065875E+03  0.98900994863E+03  0.12699999809E+01 0. -1.
       -4    1    3    3    0  502  0.25837878012E+03 -0.68141462141E+03  0.12606180873E+04  0.14561061277E+04  0.12699999809E+01 0.  1.
</event>
<event>
 5   0  0.2734072E-04  0.1492751E+04  0.7818609E-02  0.8889288E-01
        2   -1    0    0  501    0  0.00000000000E+00  0.00000000000E+00  0.11339707654E+04  0.11339707654E+04  0.25500000920E-02 0.  1.
       -2   -1    0    0    0  501  0.00000000000E+00  0.00000000000E+00 -0.49126179962E+03  0.49126179962E+03  0.25500000920E-02 0. -1.
    10030    2    1    2    0    0  0.00000000000E+00  0.00000000000E+00  0.64270896579E+03  0.16252325650E+04  0.14927511768E+04 0.  0.
        5    1    3    3  502    0  0.17034594782E+03  0.44778470963E+03  0.94444433722E+03  0.10590212860E+04  0.46999998093E+01 0.  1.
       -5    1    3    3    0  502 -0.17034594782E+03 -0.44778470963E+03 -0.30173537143E+03  0.56621127902E+03  0.46999998093E+01 0. -1.
</event>
<event>
 5   0  0.1427609E-04  0.1501045E+04  0.7818609E-02  0.8883758E-01
        1   -1    0    0  501    0  0.00000000000E+00  0.00000000000E+00  0.13552450954E+04  0.13552450954E+04  0.50400001928E-02 0. -1.
       -1   -1    0    0    0  501  0.00000000000E+00  0.00000000000E+00 -0.41563268642E+03  0.41563268645E+03  0.50400001928E-02 0.  1.
    10030    2    1    2    0    0  0.00000000000E+00  0.00000000000E+00  0.93961240896E+03  0.17708777818E+04  0.15010451822E+04 0.  0.
        4    1    3    3  502    0 -0.51929140498E+03  0.37364022646E+03  0.93279667776E+03  0.11310976249E+04  0.12699999809E+01 0. -1.
       -4    1    3    3    0  502  0.51929140498E+03 -0.37364022646E+03  0.68157312037E+01  0.63978015694E+03  0.12699999809E+01 0.  1.
</event>
<event>
 5   0  0.1427609E-04  0.1497811E+04  0.7818609E-02  0.8885910E-01
       -1   -1    0    0    0  501  0.00000000000E+00  0.00000000000E+00  0.11044890631E+04  0.11044890631E+04  0.50400001928E-02 0.  1.
        1   -1    0    0  501    0  0.00000000000E+00  0.00000000000E+00 -0.50779962830E+03  0.50779962833E+03  0.50400001928E-02 0. -1.
    10030    2    1    2    0    0  0.00000000000E+00  0.00000000000E+00  0.59668943483E+03  0.16122886915E+04  0.14978105832E+04 0.  0.
        4    1    3    3  502    0  0.21120672746E+03 -0.12217830248E+03 -0.46381179758E+03  0.52407901675E+03  0.12699999809E+01 0. -1.
       -4    1    3    3    0  502 -0.21120672746E+03  0.12217830248E+03  0.10605012324E+04  0.10882096747E+04  0.12699999809E+01 0.  1.
</event>
<event>
 5   0  0.2696040E-04  0.1505327E+04  0.7818609E-02  0.8880918E-01
       -2   -1    0    0    0  501  0.00000000000E+00  0.00000000000E+00  0.62560960094E+03  0.62560960095E+03  0.25500000920E-02 0.  1.
        2   -1    0    0  501    0  0.00000000000E+00  0.00000000000E+00 -0.90552086833E+03  0.90552086833E+03  0.25500000920E-02 0. -1.
    10030    2    1    2    0    0  0.00000000000E+00  0.00000000000E+00 -0.27991126738E+03  0.15311304693E+04  0.15053272722E+04 0.  0.
        2    1    3    3  502    0  0.52567899917E+03  0.10270031176E+03 -0.67780775766E+03  0.86389184540E+03  0.25500000920E-02 0. -1.
       -2    1    3    3    0  502 -0.52567899917E+03 -0.10270031176E+03  0.39789649028E+03  0.66723862387E+03  0.25500000920E-02 0.  1.
</event>
<event>
 5   0  0.2618901E-04  0.1532952E+04  0.7818609E-02  0.8862831E-01
       -2   -1    0    0    0  501  0.00000000000E+00  0.00000000000E+00  0.49509693166E+03  0.49509693167E+03  0.25500000920E-02 0. -1.
        2   -1    0    0  501    0  0.00000000000E+00  0.00000000000E+00 -0.11866068640E+04  0.11866068640E+04  0.25500000920E-02 0.  1.
    10030    2    1    2    0    0  0.00000000000E+00  0.00000000000E+00 -0.69150993233E+03  0.16817037957E+04  0.15329519464E+04 0.  0.
        1    1    3    3  502    0 -0.75100248813E+03 -0.23526881640E+02 -0.51186510910E+03  0.90915572994E+03  0.50400001928E-02 0. -1.
       -1    1    3    3    0  502  0.75100248813E+03  0.23526881640E+02 -0.17964482323E+03  0.77254806573E+03  0.50400001928E-02 0.  1.
</event>
<event>
 5   0  0.2618901E-04  0.1493834E+04  0.7818609E-02  0.8888564E-01
       -2   -1    0    0    0  501  0.00000000000E+00  0.00000000000E+00  0.10050797862E+04  0.10050797862E+04  0.25500000920E-02 0.  1.
        2   -1    0    0  501    0  0.00000000000E+00  0.00000000000E+00 -0.55506524701E+03  0.55506524702E+03  0.25500000920E-02 0. -1.
    10030    2    1    2    0    0  0.00000000000E+00  0.00000000000E+00  0.45001453915E+03  0.15601450332E+04  0.14938338057E+04 0.  0.
        1    1    3    3  502    0 -0.55881626309E+02 -0.24885528667E+03 -0.50817616783E+03  0.56859012253E+03  0.50400001928E-02 0. -1.
       -1    1    3    3    0  502  0.55881626309E+02  0.24885528667E+03  0.95819070698E+03  0.99155491065E+03  0.50400001928E-02 0.  1.
</event>
<event>
 5   0  0.1443750E-04  0.1499302E+04  0.7818609E-02  0.8884917E-01
        1   -1    0    0  501    0  0.00000000000E+00  0.00000000000E+00  0.74673273942E+03  0.74673273943E+03  0.50400001928E-02 0.  1.
       -1   -1    0    0    0  501  0.00000000000E+00  0.00000000000E+00 -0.75258055094E+03  0.75258055096E+03  0.50400001928E-02 0. -1.
    10030    2    1    2    0    0  0.00000000000E+00  0.00000000000E+00 -0.58478115233E+01  0.14993132904E+04  0.14993018862E+04 0.  0.
        2    1    3    3  502    0 -0.74767158114E+03 -0.43278933718E+02  0.30101746355E+02  0.74952783437E+03  0.25500000920E-02 0.  1.
       -2    1    3    3    0  502  0.74767158114E+03  0.43278933718E+02 -0.35949557879E+02  0.74978545603E+03  0.25500000920E-02 0. -1.
</event>
<event>
 5   0  0.2734072E-04  0.1500756E+04  0.7818609E-02  0.8883951E-01
       -2   -1    0    0    0  501  0.00000000000E+00  0.00000000000E+00  0.86368209039E+03  0.86368209039E+03  0.25500000920E-02 0.  1.
        2   -1    0    0  501    0  0.00000000000E+00  0.00000000000E+00 -0.65193774969E+03  0.65193774970E+03  0.25500000920E-02 0. -1.
    10030    2    1    2    0    0  0.00000000000E+00  0.00000000000E+00  0.21174434069E+03  0.15156198401E+04  0.15007557542E+04 0.  0.
        5    1    3    3  502    0  0.44049559222E+02  0.45591093324E+03 -0.49436264369E+03  0.67395226551E+03  0.46999998093E+01 0. -1.
       -5    1    3    3    0  502 -0.44049559222E+02 -0.45591093324E+03  0.70610698438E+03  0.84166757458E+03  0.46999998093E+01 0.  1.
</event>
<event>
 5   0  0.1427609E-04  0.1506965E+04  0.7818609E-02  0.8879835E-01
        1   -1    0    0  501    0  0.00000000000E+00  0.00000000000E+00  0.93079440927E+03  0.93079440929E+03  0.50400001928E-02 0.  1.
       -1   -1    0    0    0  501  0.00000000000E+00  0.00000000000E+00 -0.60994757184E+03  0.60994757186E+03  0.50400001928E-02 0. -1.
    10030    2    1    2    0    0  0.00000000000E+00  0.00000000000E+00  0.32084683744E+03  0.15407419811E+04  0.15069648833E+04 0.  0.
        4    1    3    3  502    0 -0.13858265555E+03 -0.42929908108E+03 -0.45661958147E+03  0.64187686398E+03  0.12699999809E+01 0. -1.
       -4    1    3    3    0  502  0.13858265555E+03  0.42929908108E+03  0.77746641890E+03  0.89886511716E+03  0.12699999809E+01 0.  1.
</event>
<event>
 5   0  0.1426929E-04  0.1496714E+04  0.7818609E-02  0.8886641E-01
        1   -1    0    0  501    0  0.00000000000E+00  0.00000000000E+00  0.14568717669E+04  0.14568717669E+04  0.50400001928E-02 0.  1.
       -1   -1    0    0    0  501  0.00000000000E+00  0.00000000000E+00 -0.38441123102E+03  0.38441123105E+03  0.50400001928E-02 0. -1.
    10030    2    1    2    0    0  0.00000000000E+00  0.00000000000E+00  0.10724605359E+04  0.18412829980E+04  0.14967135590E+04 0.  0.
        1    1    3    3  502    0 -0.52986412956E+03 -0.21517294605E+03 -0.57574224534E+02  0.57477837804E+03  0.50400001928E-02 0. -1.
       -1    1    3    3    0  502  0.52986412956E+03  0.21517294605E+03  0.11300347604E+04  0.12665046199E+04  0.50400001928E-02 0.  1.
</event>
<event>
 5   0  0.1426929E-04  0.1488819E+04  0.7818609E-02  0.8891923E-01
        1   -1    0    0  501    0  0.00000000000E+00  0.00000000000E+00  0.92362452582E+03  0.92362452583E+03  0.50400001928E-02 0. -1.
       -1   -1    0    0    0  501  0.00000000000E+00  0.00000000000E+00 -0.59996805574E+03  0.59996805576E+03  0.50400001928E-02 0.  1.
    10030    2    1    2    0    0  0.00000000000E+00  0.00000000000E+00  0.32365647008E+03  0.15235925816E+04  0.14888186068E+04 0.  0.
        1    1    3    3  502    0 -0.24993590367E+03 -0.50534632134E+03  0.65929157617E+03  0.86747232974E+03  0.50400001928E-02 0. -1.
       -1    1    3    3    0  502  0.24993590367E+03  0.50534632134E+03 -0.33563510608E+03  0.65612025185E+03  0.50400001928E-02 0.  1.
</event>
<event>
 5   0  0.1443750E-04  0.1500314E+04  0.7818609E-02  0.8884244E-01
       -1   -1    0    0    0  501  0.00000000000E+00  0.00000000000E+00  0.57455924171E+03  0.57455924173E+03  0.50400001928E-02 0. -1.
        1   -1    0    0  501    0  0.00000000000E+00  0.00000000000E+00 -0.97942159449E+03  0.97942159450E+03  0.50400001928E-02 0.  1.
    10030    2    1    2    0    0  0.00000000000E+00  0.00000000000E+00 -0.40486235278E+03  0.15539808362E+04  0.15003142720E+04 0.  0.
        2    1    3    3  502    0  0.48814191293E+03 -0.56494265773E+03 -0.27778653826E+03  0.79662293120E+03  0.25500000920E-02 0. -1.
       -2    1    3    3    0  502 -0.48814191293E+03  0.56494265773E+03 -0.12707581452E+03  0.75735790503E+03  0.25500000920E-02 0.  1.
</event>
<event>
 5   0  0.1426929E-04  0.1500623E+04  0.7818609E-02  0.8884038E-01
       -1   -1    0    0    0  501  0.00000000000E+00  0.00000000000E+00  0.33868695081E+03  0.33868695085E+03  0.50400001928E-02 0. -1.
        1   -1    0    0  501    0  0.00000000000E+00  0.00000000000E+00 -0.16622065296E+04  0.16622065296E+04  0.50400001928E-02 0.  1.
    10030    2    1    2    0    0  0.00000000000E+00  0.00000000000E+00 -0.13235195788E+04  0.20008934804E+04  0.15006234187E+04 0.  0.
        1    1    3    3  502    0 -0.22133029857E+03  0.62129513427E+02 -0.16140923445E+04  0.16303807145E+04  0.50400001928E-02 0.  1.
       -1    1    3    3    0  502  0.22133029857E+03 -0.62129513427E+02  0.29057276576E+03  0.37051276594E+03  0.50400001928E-02 0. -1.
</event>
<event>
 5   0  0.2646718E-04  0.1494036E+04  0.7818609E-02  0.8888429E-01
       -2   -1    0    0    0  501  0.00000000000E+00  0.00000000000E+00  0.64571536281E+03  0.64571536281E+03  0.25500000920E-02 0.  1.
        2   -1    0    0  501    0  0.00000000000E+00  0.00000000000E+00 -0.86421311863E+03  0.86421311864E+03  0.25500000920E-02 0. -1.
    10030    2    1    2    0    0  0.00000000000E+00  0.00000000000E+00 -0.21849775583E+03  0.15099284815E+04  0.14940357257E+04 0.  0.
        3    1    3    3  502    0  0.21112671509E+03 -0.68782188413E+03 -0.31228954974E+03  0.78434571917E+03  0.10100000352E+00 0. -1.
       -3    1    3    3    0  502 -0.21112671509E+03  0.68782188413E+03  0.93791793915E+02  0.72558276228E+03  0.10100000352E+00 0.  1.
</event>
<event>
 5   0  0.1474203E-04  0.1494827E+04  0.7818609E-02  0.8887900E-01
        1   -1    0    0  501    0  0.00000000000E+00  0.00000000000E+00  0.16440116551E+04  0.16440116551E+04  0.50400001928E-02 0. -1.
       -1   -1    0    0    0  501  0.00000000000E+00  0.00000000000E+00 -0.33979506861E+03  0.33979506865E+03  0.50400001928E-02 0.  1.
    10030    2    1    2    0    0  0.00000000000E+00  0.00000000000E+00  0.13042165865E+04  0.19838067237E+04  0.14948271514E+04 0.  0.
        3    1    3    3  502    0  0.67963523867E+03 -0.27241822011E+03  0.45299114879E+03  0.86099752345E+03  0.10100000352E+00 0. -1.
       -3    1    3    3    0  502 -0.67963523867E+03  0.27241822011E+03  0.85122543768E+03  0.11228092003E+04  0.10100000352E+00 0.  1.
</event>
<event>
 5   0  0.2641347E-04  0.1502164E+04  0.7818609E-02  0.8883015E-01
       -2   -1    0    0    0  501  0.00000000000E+00  0.00000000000E+00  0.10956471515E+04  0.10956471515E+04  0.25500000920E-02 0. -1.
        2   -1    0    0  501    0  0.00000000000E+00  0.00000000000E+00 -0.51487743113E+03  0.51487743114E+03  0.25500000920E-02 0.  1.
    10030    2    1    2    0    0  0.00000000000E+00  0.00000000000E+00  0.58076972034E+03  0.16105245826E+04  0.15021637604E+04 0.  0.
        4    1    3    3  502    0 -0.52937146934E+02  0.70956470610E+03  0.32541129173E+02  0.71228151153E+03  0.12699999809E+01 0.  1.
       -4    1    3    3    0  502  0.52937146934E+02 -0.70956470610E+03  0.54822859117E+03  0.89824307108E+03  0.12699999809E+01 0. -1.
</event>
<event>
 5   0  0.2646718E-04  0.1497711E+04  0.7818609E-02  0.8885976E-01
       -2   -1    0    0    0  501  0.00000000000E+00  0.00000000000E+00  0.84677210493E+03  0.84677210493E+03  0.25500000920E-02 0. -1.
        2   -1    0    0  501    0  0.00000000000E+00  0.00000000000E+00 -0.66226160252E+03  0.66226160252E+03  0.25500000920E-02 0.  1.
    10030    2    1    2    0    0  0.00000000000E+00  0.00000000000E+00  0.18451050241E+03  0.15090337074E+04  0.14977111219E+04 0.  0.
        3    1    3    3  502    0 -0.58393841756E+02 -0.69992781076E+03  0.35398018582E+03  0.78651812642E+03  0.10100000352E+00 0. -1.
       -3    1    3    3    0  502  0.58393841756E+02  0.69992781076E+03 -0.16946968341E+03  0.72251558103E+03  0.10100000352E+00 0.  1.
</event>
<event>
 5   0  0.2696040E-04  0.1501706E+04  0.7818609E-02  0.8883319E-01
        2   -1    0    0  501    0  0.00000000000E+00  0.00000000000E+00  0.19705115888E+04  0.19705115888E+04  0.25500000920E-02 0.  1.
       -2   -1    0    0    0  501  0.00000000000E+00  0.00000000000E+00 -0.28610844280E+03  0.28610844282E+03  0.25500000920E-02 0. -1.
    10030    2    1    2    0    0  0.00000000000E+00  0.00000000000E+00  0.16844031460E+04  0.22566200316E+04  0.15017056998E+04 0.  0.
        2    1    3    3  502    0  0.14242284845E+02 -0.73918287979E+03  0.64520491324E+03  0.98126630052E+03  0.25500000920E-02 0. -1.
       -2    1    3    3    0  502 -0.14242284845E+02  0.73918287979E+03  0.10391982327E+04  0.12753537311E+04  0.25500000920E-02 0.  1.
</event>
<event>
 5   0  0.1484251E-04  0.1502769E+04  0.7818609E-02  0.8882613E-01
       -1   -1    0    0    0  501  0.00000000000E+00  0.00000000000E+00  0.34917694999E+03  0.34917695002E+03  0.50400001928E-02 0.  1.
        1   -1    0    0  501    0  0.00000000000E+00  0.00000000000E+00 -0.16168849103E+04  0.16168849103E+04  0.50400001928E-02 0. -1.
    10030    2    1    2    0    0  0.00000000000E+00  0.00000000000E+00 -0.12677079604E+04  0.19660618604E+04  0.15027693656E+04 0.  0.
        5    1    3    3  502    0 -0.56564676384E+03  0.46871500054E+03 -0.42738056269E+03  0.84989778711E+03  0.46999998093E+01 0.  1.
       -5    1    3    3    0  502  0.56564676384E+03 -0.46871500054E+03 -0.84032739766E+03  0.11161640733E+04  0.46999998093E+01 0. -1.
</event>
<event>
 5   0  0.1426929E-04  0.1496515E+04  0.7818609E-02  0.8886774E-01
        1   -1    0    0  501    0  0.00000000000E+00  0.00000000000E+00  0.11014129829E+04  0.11014129829E+04  0.50400001928E-02 0.  1.
       -1   -1    0    0    0  501  0.00000000000E+00  0.00000000000E+00 -0.50833714852E+03  0.50833714854E+03  0.50400001928E-02 0. -1.
    10030    2    1    2    0    0  0.00000000000E+00  0.00000000000E+00  0.59307583439E+03  0.16097501315E+04  0.14965147979E+04 0.  0.
        1    1    3    3  502    0  0.24031896113E+03  0.70571127517E+03  0.22759848138E+03  0.77947589811E+03  0.50400001928E-02 0. -1.
       -1    1    3    3    0  502 -0.24031896113E+03 -0.70571127517E+03  0.36547735301E+03  0.83027423336E+03  0.50400001928E-02 0.  1.
</event>
<event>
 5   0  0.2641347E-04  0.1500806E+04  0.7818609E-02  0.8883917E-01
        2   -1    0    0  501    0  0.00000000000E+00  0.00000000000E+00  0.19094448605E+04  0.19094448605E+04  0.25500000920E-02 0. -1.
       -2   -1    0    0    0  501  0.00000000000E+00  0.00000000000E+00 -0.29490510038E+03  0.29490510039E+03  0.25500000920E-02 0.  1.
    10030    2    1    2    0    0  0.00000000000E+00  0.00000000000E+00  0.16145397601E+04  0.22043499608E+04  0.15008064875E+04 0.  0.
        4    1    3    3  502    0 -0.30670763108E+03 -0.44042784860E+01 -0.19861656463E+03  0.36543004977E+03  0.12699999809E+01 0.  1.
       -4    1    3    3    0  502  0.30670763108E+03  0.44042784860E+01  0.18131563247E+04  0.18389199111E+04  0.12699999809E+01 0. -1.
</event>
<event>
 5   0  0.2641347E-04  0.1503785E+04  0.7818609E-02  0.8881940E-01
       -2   -1    0    0    0  501  0.00000000000E+00  0.00000000000E+00  0.19508894516E+03  0.19508894518E+03  0.25500000920E-02 0.  1.
        2   -1    0    0  501    0  0.00000000000E+00  0.00000000000E+00 -0.28978693575E+04  0.28978693575E+04  0.25500000920E-02 0. -1.
    10030    2    1    2    0    0  0.00000000000E+00  0.00000000000E+00 -0.27027804123E+04  0.30929583027E+04  0.15037849264E+04 0.  0.
        4    1    3    3  502    0 -0.60092797152E+03 -0.18904422195E+03 -0.21956449191E+04  0.22842308046E+04  0.12699999809E+01 0. -1.
       -4    1    3    3    0  502  0.60092797152E+03  0.18904422195E+03 -0.50713549322E+03  0.80872749810E+03  0.12699999809E+01 0.  1.
</event>
<event>
 5   0  0.2734072E-04  0.1506793E+04  0.7818609E-02  0.8879948E-01
       -2   -1    0    0    0  501  0.00000000000E+00  0.00000000000E+00  0.66118210781E+03  0.66118210782E+03  0.25500000920E-02 0. -1.
        2   -1    0    0  501    0  0.00000000000E+00  0.00000000000E+00 -0.85847146044E+03  0.85847146045E+03  0.25500000920E-02 0.  1.
    10030    2    1    2    0    0  0.00000000000E+00  0.00000000000E+00 -0.19728935263E+03  0.15196535683E+04  0.15067925799E+04 0.  0.
        5    1    3    3  502    0  0.57023189153E+03 -0.11902568781E+03  0.38319078028E+03  0.69727239194E+03  0.46999998093E+01 0. -1.
       -5    1    3    3    0  502 -0.57023189153E+03  0.11902568781E+03 -0.58048013291E+03  0.82238117633E+03  0.46999998093E+01 0.  1.
</event>
<event>
 5   0  0.2646718E-04  0.1501602E+04  0.7818609E-02  0.8883388E-01
        2   -1    0    0  501    0  0.00000000000E+00  0.00000000000E+00  0.81975562836E+03  0.81975562837E+03  0.25500000920E-02 0. -1.
       -2   -1    0    0    0  501  0.00000000000E+00  0.00000000000E+00 -0.68764664875E+03  0.68764664876E+03  0.25500000920E-02 0.  1.
    10030    2    1    2    0    0  0.00000000000E+00  0.00000000000E+00  0.13210897961E+03  0.15074022771E+04  0.15016020920E+04 0.  0.
        3    1    3    3  502    0  0.44923281668E+03 -0.49404924375E+03 -0.27850215347E+03  0.72350413856E+03  0.10100000352E+00 0.  1.
       -3    1    3    3    0  502 -0.44923281668E+03  0.49404924375E+03  0.41061113308E+03  0.78389813856E+03  0.10100000352E+00 0. -1.
</event>
<event>
 5   0  0.2641347E-04  0.1494012E+04  0.7818609E-02  0.8888444E-01
       -2   -1    0    0    0  501  0.00000000000E+00  0.00000000000E+00  0.50641656112E+03  0.50641656112E+03  0.25500000920E-02 0. -1.
        2   -1    0    0  501    0  0.00000000000E+00  0.00000000000E+00 -0.11018956514E+04  0.11018956514E+04  0.25500000920E-02 0.  1.
    10030    2    1    2    0    0  0.00000000000E+00  0.00000000000E+00 -0.59547909031E+03  0.16083122126E+04  0.14940123246E+04 0.  0.
        4    1    3    3  502    0 -0.25701258049E+03 -0.43174438997E+03  0.29732345038E+03  0.58383347955E+03  0.12699999809E+01 0. -1.
       -4    1    3    3    0  502  0.25701258049E+03  0.43174438997E+03 -0.89280254070E+03  0.10244787330E+04  0.12699999809E+01 0.  1.
</event>
<event>
 5   0  0.1484251E-04  0.1507045E+04  0.7818609E-02  0.8879781E-01
       -1   -1    0    0    0  501  0.00000000000E+00  0.00000000000E+00  0.55307043979E+03  0.55307043981E+03  0.50400001928E-02 0.  1.
        1   -1    0    0  501    0  0.00000000000E+00  0.00000000000E+00 -0.10266257140E+04  0.10266257140E+04  0.50400001928E-02 0. -1.
    10030    2    1    2    0    0  0.00000000000E+00  0.00000000000E+00 -0.47355527416E+03  0.15796961538E+04  0.15070452351E+04 0.  0.
        5    1    3    3  502    0  0.65897376442E+03  0.34116157245E+03 -0.37399518635E+03  0.83098262926E+03  0.46999998093E+01 0. -1.
       -5    1    3    3    0  502 -0.65897376442E+03 -0.34116157245E+03 -0.99560087813E+02  0.74871352452E+03  0.46999998093E+01 0.  1.
</event>
<event>
 5   0  0.1443750E-04  0.1500517E+04  0.7818609E-02  0.8884109E-01
       -1   -1    0    0    0  501  0.00000000000E+00  0.00000000000E+00  0.38704802276E+03  0.38704802280E+03  0.50400001928E-02 0. -1.
        1   -1    0    0  501    0  0.00000000000E+00  0.00000000000E+00 -0.14543098339E+04  0.14543098340E+04  0.50400001928E-02 0.  1.
    10030    2    1    2    0    0  0.00000000000E+00  0.00000000000E+00 -0.10672618112E+04  0.18413578568E+04  0.15005169053E+04 0.  0.
        2    1    3    3  502    0 -0.71464339412E+03 -0.21139359610E+03 -0.63980101745E+03  0.98221574777E+03  0.25500000920E-02 0.  1.
       -2    1    3    3    0  502  0.71464339412E+03  0.21139359610E+03 -0.42746079374E+03  0.85914210898E+03  0.25500000920E-02 0. -1.
</event>
<event>
 5   0  0.2641347E-04  0.1505087E+04  0.7818609E-02  0.8881077E-01
        2   -1    0    0  501    0  0.00000000000E+00  0.00000000000E+00  0.13925898683E+04  0.13925898683E+04  0.25500000920E-02 0. -1.
       -2   -1    0    0    0  501  0.00000000000E+00  0.00000000000E+00 -0.40666796341E+03  0.40666796342E+03  0.25500000920E-02 0.  1.
    10030    2    1    2    0    0  0.00000000000E+00  0.00000000000E+00  0.98592190489E+03  0.17992578317E+04  0.15050869551E+04 0.  0.
        4    1    3    3  502    0  0.29123723715E+03 -0.32125117336E+03 -0.24231302054E+03  0.49672795120E+03  0.12699999809E+01 0.  1.
       -4    1    3    3    0  502 -0.29123723715E+03  0.32125117336E+03  0.12282349254E+04  0.13025298805E+04  0.12699999809E+01 0. -1.
</event>
<event>
 5   0  0.2646718E-04  0.1501089E+04  0.7818609E-02  0.8883729E-01
       -2   -1    0    0    0  501  0.00000000000E+00  0.00000000000E+00  0.60689387981E+03  0.60689387982E+03  0.25500000920E-02 0.  1.
        2   -1    0    0  501    0  0.00000000000E+00  0.00000000000E+00 -0.92819752000E+03  0.92819752000E+03  0.25500000920E-02 0. -1.
    10030    2    1    2    0    0  0.00000000000E+00  0.00000000000E+00 -0.32130364018E+03  0.15350913998E+04  0.15010894632E+04 0.  0.
        3    1    3    3  502    0 -0.58629608884E+03  0.41567469523E+02  0.31666076065E+03  0.66764137518E+03  0.10100000352E+00 0.  1.
       -3    1    3    3    0  502  0.58629608884E+03 -0.41567469523E+02 -0.63796440083E+03  0.86745002464E+03  0.10100000352E+00 0. -1.
</event>
<event>
 5   0  0.1004313E-04  0.1496571E+04  0.7818609E-02  0.8886736E-01
        3   -1    0    0  501    0  0.00000000000E+00  0.00000000000E+00  0.17909423535E+03  0.17909426383E+03  0.10100000352E+00 0. -1.
       -3   -1    0    0    0  501  0.00000000000E+00  0.00000000000E+00 -0.31264616769E+04  0.31264616785E+04  0.10100000352E+00 0.  1.
    10030    2    1    2    0    0  0.00000000000E+00  0.00000000000E+00 -0.29473674416E+04  0.33055559424E+04  0.14965711652E+04 0.  0.
        2    1    3    3  502    0  0.74505023411E+03 -0.71089795943E+01 -0.13209612058E+04  0.15166043967E+04  0.25500000920E-02 0. -1.
       -2    1    3    3    0  502 -0.74505023411E+03  0.71089795943E+01 -0.16264062358E+04  0.17889515457E+04  0.25500000920E-02 0.  1.
</event>
<event>
 5   0  0.2696040E-04  0.1502893E+04  0.7818609E-02  0.8882531E-01
        2   -1    0    0  501    0  0.00000000000E+00  0.00000000000E+00  0.25256626932E+04  0.25256626932E+04  0.25500000920E-02 0. -1.
       -2   -1    0    0    0  501  0.00000000000E+00  0.00000000000E+00 -0.22357378619E+03  0.22357378620E+03  0.25500000920E-02 0.  1.
    10030    2    1    2    0    0  0.00000000000E+00  0.00000000000E+00  0.23020889070E+04  0.27492364794E+04  0.15028931711E+04 0.  0.
        2    1    3    3  502    0 -0.68956115057E+02  0.74548972795E+03  0.10330287620E+04  0.12757971247E+04  0.25500000920E-02 0. -1.
       -2    1    3    3    0  502  0.68956115057E+02 -0.74548972795E+03  0.12690601450E+04  0.14734393547E+04  0.25500000920E-02 0.  1.
</event>
<event>
 5   0  0.2641347E-04  0.1502759E+04  0.7818609E-02  0.8882620E-01
       -2   -1    0    0    0  501  0.00000000000E+00  0.00000000000E+00  0.37937863697E+03  0.37937863698E+03  0.25500000920E-02 0. -1.
        2   -1    0    0  501    0  0.00000000000E+00  0.00000000000E+00 -0.14881467363E+04  0.14881467363E+04  0.25500000920E-02 0.  1.
    10030    2    1    2    0    0  0.00000000000E+00  0.00000000000E+00 -0.11087680993E+04  0.18675253733E+04  0.15027589034E+04 0.  0.
        4    1    3    3  502    0  0.19633595492E+03 -0.50859271445E+03  0.88187431970E+02  0.55226170648E+03  0.12699999809E+01 0. -1.
       -4    1    3    3    0  502 -0.19633595492E+03  0.50859271445E+03 -0.11969555313E+04  0.13152636668E+04  0.12699999809E+01 0.  1.
</event>
<event>
 5   0  0.1426929E-04  0.1498406E+04  0.7818609E-02  0.8885514E-01
       -1   -1    0    0    0  501  0.00000000000E+00  0.00000000000E+00  0.70534902138E+03  0.70534902140E+03  0.50400001928E-02 0.  1.
        1   -1    0    0  501    0  0.00000000000E+00  0.00000000000E+00 -0.79578359689E+03  0.79578359691E+03  0.50400001928E-02 0. -1.
    10030    2    1    2    0    0  0.00000000000E+00  0.00000000000E+00 -0.90434575511E+02  0.15011326183E+04  0.14984060616E+04 0.  0.
        1    1    3    3  502    0  0.29396400582E+03  0.39697850160E+03  0.51910017699E+03  0.71656943922E+03  0.50400001928E-02 0.  1.
       -1    1    3    3    0  502 -0.29396400582E+03 -0.39697850160E+03 -0.60953475250E+03  0.78456317909E+03  0.50400001928E-02 0. -1.
</event>
<event>
 5   0  0.2696040E-04  0.1483891E+04  0.7818609E-02  0.8895237E-01
        2   -1    0    0  501    0  0.00000000000E+00  0.00000000000E+00  0.85673697973E+03  0.85673697973E+03  0.25500000920E-02 0. -1.
       -2   -1    0    0    0  501  0.00000000000E+00  0.00000000000E+00 -0.64253430924E+03  0.64253430925E+03  0.25500000920E-02 0.  1.
    10030    2    1    2    0    0  0.00000000000E+00  0.00000000000E+00  0.21420267048E+03  0.14992712890E+04  0.14838907015E+04 0.  0.
        2    1    3    3  502    0 -0.66914648434E+03 -0.31748499734E+03  0.15147882260E+03  0.75597590884E+03  0.25500000920E-02 0. -1.
       -2    1    3    3    0  502  0.66914648434E+03  0.31748499734E+03  0.62723847880E+02  0.74329538014E+03  0.25500000920E-02 0.  1.
</event>
<event>
 5   0  0.1484251E-04  0.1498897E+04  0.7818609E-02  0.8885187E-01
       -1   -1    0    0    0  501  0.00000000000E+00  0.00000000000E+00  0.40905928511E+03  0.40905928514E+03  0.50400001928E-02 0.  1.
        1   -1    0    0  501    0  0.00000000000E+00  0.00000000000E+00 -0.13730843331E+04  0.13730843331E+04  0.50400001928E-02 0. -1.
    10030    2    1    2    0    0  0.00000000000E+00  0.00000000000E+00 -0.96402504798E+03  0.17821436182E+04  0.14988967886E+04 0.  0.
        5    1    3    3  502    0 -0.53647573856E+03 -0.50688638582E+03 -0.32739711112E+03  0.80743481753E+03  0.46999998093E+01 0.  1.
       -5    1    3    3    0  502  0.53647573856E+03  0.50688638582E+03 -0.63662793686E+03  0.97470880071E+03  0.46999998093E+01 0. -1.
</event>
<event>
 5   0  0.1004313E-04  0.1499752E+04  0.7818609E-02  0.8884618E-01
       -3   -1    0    0    0  501  0.00000000000E+00  0.00000000000E+00  0.38894331110E+03  0.38894332421E+03  0.10100000352E+00 0. -1.
        3   -1    0    0  501    0  0.00000000000E+00  0.00000000000E+00 -0.14457480399E+04  0.14457480434E+04  0.10100000352E+00 0.  1.
    10030    2    1    2    0    0  0.00000000000E+00  0.00000000000E+00 -0.10568047288E+04  0.18346913676E+04  0.14997520394E+04 0.  0.
        5    1    3    3  502    0 -0.10627619507E+03  0.20393677962E+03 -0.14015266332E+04  0.14202759708E+04  0.46999998093E+01 0.  1.
       -5    1    3    3    0  502  0.10627619507E+03 -0.20393677962E+03  0.34472190442E+03  0.41441539680E+03  0.46999998093E+01 0. -1.
</event>
<event>
 5   0  0.1426929E-04  0.1498837E+04  0.7818609E-02  0.8885227E-01
        1   -1    0    0  501    0  0.00000000000E+00  0.00000000000E+00  0.12847146501E+04  0.12847146501E+04  0.50400001928E-02 0. -1.
       -1   -1    0    0    0  501  0.00000000000E+00  0.00000000000E+00 -0.43716171787E+03  0.43716171790E+03  0.50400001928E-02 0.  1.
    10030    2    1    2    0    0  0.00000000000E+00  0.00000000000E+00  0.84755293221E+03  0.17218763680E+04  0.14988369670E+04 0.  0.
        1    1    3    3  502    0  0.21035082940E+03  0.59315314788E+03 -0.43648685020E+02  0.63085920458E+03  0.50400001928E-02 0.  1.
       -1    1    3    3    0  502 -0.21035082940E+03 -0.59315314788E+03  0.89120161723E+03  0.10910171634E+04  0.50400001928E-02 0. -1.
</event>
<event>
 5   0  0.2734072E-04  0.1499113E+04  0.7818609E-02  0.8885043E-01
       -2   -1    0    0    0  501  0.00000000000E+00  0.00000000000E+00  0.39135205516E+03  0.39135205517E+03  0.25500000920E-02 0. -1.
        2   -1    0    0  501    0  0.00000000000E+00  0.00000000000E+00 -0.14356246505E+04  0.14356246505E+04  0.25500000920E-02 0.  1.
    10030    2    1    2    0    0  0.00000000000E+00  0.00000000000E+00 -0.10442725954E+04  0.18269767057E+04  0.14991126141E+04 0.  0.
        5    1    3    3  502    0  0.81981159740E+02  0.36496058179E+02 -0.14290363413E+04  0.14318588714E+04  0.46999998093E+01 0.  1.
       -5    1    3    3    0  502 -0.81981159740E+02 -0.36496058179E+02  0.38476374593E+03  0.39511783432E+03  0.46999998093E+01 0. -1.
</event>
<event>
 5   0  0.1484251E-04  0.1503535E+04  0.7818609E-02  0.8882106E-01
        1   -1    0    0  501    0  0.00000000000E+00  0.00000000000E+00  0.47506792329E+03  0.47506792332E+03  0.50400001928E-02 0. -1.
       -1   -1    0    0    0  501  0.00000000000E+00  0.00000000000E+00 -0.11896278960E+04  0.11896278961E+04  0.50400001928E-02 0.  1.
    10030    2    1    2    0    0  0.00000000000E+00  0.00000000000E+00 -0.71455997275E+03  0.16646958194E+04  0.15035345744E+04 0.  0.
        5    1    3    3  502    0  0.50713007319E+02  0.40905853478E+03 -0.10533406938E+04  0.11311274911E+04  0.46999998093E+01 0. -1.
       -5    1    3    3    0  502 -0.50713007319E+02 -0.40905853478E+03  0.33878072102E+03  0.53356832826E+03  0.46999998093E+01 0.  1.
</event>
<event>
 5   0  0.2646718E-04  0.1496065E+04  0.7818609E-02  0.8887074E-01
       -2   -1    0    0    0  501  0.00000000000E+00  0.00000000000E+00  0.35160378142E+03  0.35160378143E+03  0.25500000920E-02 0.  1.
        2   -1    0    0  501    0  0.00000000000E+00  0.00000000000E+00 -0.15914300210E+04  0.15914300210E+04  0.25500000920E-02 0. -1.
    10030    2    1    2    0    0  0.00000000000E+00  0.00000000000E+00 -0.12398262396E+04  0.19430338024E+04  0.14960652569E+04 0.  0.
        3    1    3    3  502    0  0.39712763386E+02 -0.28087895817E+03 -0.15188621484E+04  0.15451253440E+04  0.10100000352E+00 0. -1.
       -3    1    3    3    0  502 -0.39712763386E+02  0.28087895817E+03  0.27903590877E+03  0.39790845845E+03  0.10100000352E+00 0.  1.
</event>
<event>
 5   0  0.1426929E-04  0.1499242E+04  0.7818609E-02  0.8884957E-01
        1   -1    0    0  501    0  0.00000000000E+00  0.00000000000E+00  0.28504751027E+03  0.28504751032E+03  0.50400001928E-02 0.  1.
       -1   -1    0    0    0  501  0.00000000000E+00  0.00000000000E+00 -0.19713619212E+04  0.19713619212E+04  0.50400001928E-02 0. -1.
    10030    2    1    2    0    0  0.00000000000E+00  0.00000000000E+00 -0.16863144110E+04  0.22564094316E+04  0.14992422187E+04 0.  0.
        1    1    3    3  502    0  0.55376894862E+03  0.45688631446E+01 -0.82778876565E+02  0.55994041237E+03  0.50400001928E-02 0.  1.
       -1    1    3    3    0  502 -0.55376894862E+03 -0.45688631446E+01 -0.16035355344E+04  0.16964690192E+04  0.50400001928E-02 0. -1.
</event>
<event>
 5   0  0.1474203E-04  0.1456921E+04  0.7818609E-02  0.8913616E-01
       -1   -1    0    0    0  501  0.00000000000E+00  0.00000000000E+00  0.94366707721E+03  0.94366707722E+03  0.50400001928E-02 0.  1.
        1   -1    0    0  501    0  0.00000000000E+00  0.00000000000E+00 -0.56233283931E+03  0.56233283933E+03  0.50400001928E-02 0. -1.
    10030    2    1    2    0    0  0.00000000000E+00  0.00000000000E+00  0.38133423790E+03  0.15059999166E+04  0.14569213938E+04 0.  0.
        3    1    3    3  502    0 -0.42348621493E+02  0.52776746786E+03  0.70784419457E+03  0.88395436526E+03  0.10100000352E+00 0.  1.
       -3    1    3    3    0  502  0.42348621493E+02 -0.52776746786E+03 -0.32650995667E+03  0.62204555129E+03  0.10100000352E+00 0. -1.
</event>
<event>
 5   0  0.2646718E-04  0.1493172E+04  0.7818609E-02  0.8889006E-01
       -2   -1    0    0    0  501  0.00000000000E+00  0.00000000000E+00  0.10247365435E+04  0.10247365435E+04  0.25500000920E-02 0.  1.
        2   -1    0    0  501    0  0.00000000000E+00  0.00000000000E+00 -0.54393549790E+03  0.54393549791E+03  0.25500000920E-02 0. -1.
    10030    2    1    2    0    0  0.00000000000E+00  0.00000000000E+00  0.48080104558E+03  0.15686720414E+04  0.14931719017E+04 0.  0.
        3    1    3    3  502    0 -0.40994791876E+03  0.51246412523E+03 -0.13356735354E+03  0.66971413594E+03  0.10100000352E+00 0. -1.
       -3    1    3    3    0  502  0.40994791876E+03 -0.51246412523E+03  0.61436839912E+03  0.89895790546E+03  0.10100000352E+00 0.  1.
</event>
<event>
 5   0  0.2734072E-04  0.1503977E+04  0.7818609E-02  0.8881813E-01
        2   -1    0    0  501    0  0.00000000000E+00  0.00000000000E+00  0.14020397478E+04  0.14020397478E+04  0.25500000920E-02 0.  1.
       -2   -1    0    0    0  501  0.00000000000E+00  0.00000000000E+00 -0.40333148246E+03  0.40333148247E+03  0.25500000920E-02 0. -1.
    10030    2    1    2    0    0  0.00000000000E+00  0.00000000000E+00  0.99870826534E+03  0.18053712303E+04  0.15039770875E+04 0.  0.
        5    1    3    3  502    0 -0.60557074601E+03  0.44163435723E+03  0.42625938960E+03  0.86225053850E+03  0.46999998093E+01 0. -1.
       -5    1    3    3    0  502  0.60557074601E+03 -0.44163435723E+03  0.57244887574E+03  0.94312069177E+03  0.46999998093E+01 0.  1.
</event>
<event>
 5   0  0.2734072E-04  0.1540906E+04  0.7818609E-02  0.8857697E-01
       -2   -1    0    0    0  501  0.00000000000E+00  0.00000000000E+00  0.57276870035E+03  0.57276870035E+03  0.25500000920E-02 0. -1.
        2   -1    0    0  501    0  0.00000000000E+00  0.00000000000E+00 -0.10363662955E+04  0.10363662955E+04  0.25500000920E-02 0.  1.
    10030    2    1    2    0    0  0.00000000000E+00  0.00000000000E+00 -0.46359759517E+03  0.16091349959E+04  0.15409064555E+04 0.  0.
        5    1    3    3  502    0  0.22379067211E+03 -0.36780362063E+03 -0.89900537982E+03  0.99679212036E+03  0.46999998093E+01 0.  1.
       -5    1    3    3    0  502 -0.22379067211E+03  0.36780362063E+03  0.43540778464E+03  0.61234287552E+03  0.46999998093E+01 0. -1.
</event>
<event>
 5   0  0.1427609E-04  0.1502226E+04  0.7818609E-02  0.8882974E-01
        1   -1    0    0  501    0  0.00000000000E+00  0.00000000000E+00  0.45179276866E+03  0.45179276869E+03  0.50400001928E-02 0. -1.
       -1   -1    0    0    0  501  0.00000000000E+00  0.00000000000E+00 -0.12487377182E+04  0.12487377182E+04  0.50400001928E-02 0.  1.
    10030    2    1    2    0    0  0.00000000000E+00  0.00000000000E+00 -0.79694494951E+03  0.17005304869E+04  0.15022259098E+04 0.  0.
        4    1    3    3  502    0  0.30225476164E+03 -0.18831937608E+03 -0.11470938359E+04  0.12011028306E+04  0.12699999809E+01 0.  1.
       -4    1    3    3    0  502 -0.30225476164E+03  0.18831937608E+03  0.35014888638E+03  0.49942765630E+03  0.12699999809E+01 0. -1.
</event>
<event>
 5   0  0.1484251E-04  0.1498581E+04  0.7818609E-02  0.8885397E-01
       -1   -1    0    0    0  501  0.00000000000E+00  0.00000000000E+00  0.40002936683E+03  0.40002936687E+03  0.50400001928E-02 0. -1.
        1   -1    0    0  501    0  0.00000000000E+00  0.00000000000E+00 -0.14034883632E+04  0.14034883632E+04  0.50400001928E-02 0.  1.
    10030    2    1    2    0    0  0.00000000000E+00  0.00000000000E+00 -0.10034589963E+04  0.18035177300E+04  0.14985814110E+04 0.  0.
        5    1    3    3  502    0 -0.55151413742E+02  0.64660123806E+03 -0.50977787403E+02  0.65096517902E+03  0.46999998093E+01 0. -1.
       -5    1    3    3    0  502  0.55151413742E+02 -0.64660123806E+03 -0.95248120894E+03  0.11525525510E+04  0.46999998093E+01 0.  1.
</event>
<event>
 5   0  0.1427609E-04  0.1503024E+04  0.7818609E-02  0.8882444E-01
       -1   -1    0    0    0  501  0.00000000000E+00  0.00000000000E+00  0.19625385020E+03  0.19625385026E+03  0.50400001928E-02 0.  1.
        1   -1    0    0  501    0  0.00000000000E+00  0.00000000000E+00 -0.28777555180E+04  0.28777555180E+04  0.50400001928E-02 0. -1.
    10030    2    1    2    0    0  0.00000000000E+00  0.00000000000E+00 -0.26815016678E+04  0.30740093683E+04  0.15030244182E+04 0.  0.
        4    1    3    3  502    0 -0.46162563753E+03 -0.28914706489E+03 -0.28184097621E+03  0.61330270106E+03  0.12699999809E+01 0.  1.
       -4    1    3    3    0  502  0.46162563753E+03  0.28914706489E+03 -0.23996606916E+04  0.24607066672E+04  0.12699999809E+01 0. -1.
</event>
<event>
 5   0  0.1426929E-04  0.1513146E+04  0.7818609E-02  0.8875757E-01
       -1   -1    0    0    0  501  0.00000000000E+00  0.00000000000E+00  0.30671333537E+03  0.30671333541E+03  0.50400001928E-02 0. -1.
        1   -1    0    0  501    0  0.00000000000E+00  0.00000000000E+00 -0.18662476176E+04  0.18662476176E+04  0.50400001928E-02 0.  1.
    10030    2    1    2    0    0  0.00000000000E+00  0.00000000000E+00 -0.15595342822E+04  0.21729609530E+04  0.15131464324E+04 0.  0.
        1    1    3    3  502    0 -0.41390336246E+03 -0.47002300204E+03 -0.13893134110E+04  0.15239518923E+04  0.50400001928E-02 0.  1.
       -1    1    3    3    0  502  0.41390336246E+03  0.47002300204E+03 -0.17022087121E+03  0.64900906074E+03  0.50400001928E-02 0. -1.
</event>
<event>
 5   0  0.1427609E-04  0.1499923E+04  0.7818609E-02  0.8884504E-01
        1   -1    0    0  501    0  0.00000000000E+00  0.00000000000E+00  0.60044415002E+03  0.60044415004E+03  0.50400001928E-02 0.  1.
       -1   -1    0    0    0  501  0.00000000000E+00  0.00000000000E+00 -0.93671048534E+03  0.93671048536E+03  0.50400001928E-02 0. -1.
    10030    2    1    2    0    0  0.00000000000E+00  0.00000000000E+00 -0.33626633532E+03  0.15371546354E+04  0.14999231063E+04 0.  0.
        4    1    3    3  502    0 -0.25230177226E+02  0.45641088198E+03 -0.77744433011E+03  0.90186958833E+03  0.12699999809E+01 0. -1.
       -4    1    3    3    0  502  0.25230177226E+02 -0.45641088198E+03  0.44117799479E+03  0.63528504706E+03  0.12699999809E+01 0.  1.
</event>
<event>
 5   0  0.2646718E-04  0.1500399E+04  0.7818609E-02  0.8884188E-01
       -2   -1    0    0    0  501  0.00000000000E+00  0.00000000000E+00  0.49546913639E+03  0.49546913639E+03  0.25500000920E-02 0. -1.
        2   -1    0    0  501    0  0.00000000000E+00  0.00000000000E+00 -0.11358915395E+04  0.11358915395E+04  0.25500000920E-02 0.  1.
    10030    2    1    2    0    0  0.00000000000E+00  0.00000000000E+00 -0.64042240308E+03  0.16313606759E+04  0.15003988804E+04 0.  0.
        3    1    3    3  502    0  0.18667775968E+03 -0.55476998823E+03  0.18998009293E+03  0.61539480962E+03  0.10100000352E+00 0.  1.
       -3    1    3    3    0  502 -0.18667775968E+03  0.55476998823E+03 -0.83040249600E+03  0.10159658662E+04  0.10100000352E+00 0. -1.
</event>
<event>
 5   0  0.2734072E-04  0.1496878E+04  0.7818609E-02  0.8886532E-01
       -2   -1    0    0    0  501  0.00000000000E+00  0.00000000000E+00  0.40917043419E+03  0.40917043420E+03  0.25500000920E-02 0.  1.
        2   -1    0    0  501    0  0.00000000000E+00  0.00000000000E+00 -0.13690157740E+04  0.13690157740E+04  0.25500000920E-02 0. -1.
    10030    2    1    2    0    0  0.00000000000E+00  0.00000000000E+00 -0.95984533984E+03  0.17781862082E+04  0.14968777888E+04 0.  0.
        5    1    3    3  502    0 -0.33920990961E+03  0.66568852412E+03 -0.53216613960E+03  0.91729355392E+03  0.46999998093E+01 0. -1.
       -5    1    3    3    0  502  0.33920990961E+03 -0.66568852412E+03 -0.42767920023E+03  0.86089265430E+03  0.46999998093E+01 0.  1.
</event>
<event>
 5   0  0.2734072E-04  0.1509376E+04  0.7818609E-02  0.8878242E-01
        2   -1    0    0  501    0  0.00000000000E+00  0.00000000000E+00  0.69971516474E+03  0.69971516475E+03  0.25500000920E-02 0. -1.
       -2   -1    0    0    0  501  0.00000000000E+00  0.00000000000E+00 -0.81397932712E+03  0.81397932712E+03  0.25500000920E-02 0.  1.
    10030    2    1    2    0    0  0.00000000000E+00  0.00000000000E+00 -0.11426416238E+03  0.15136944919E+04  0.15093756047E+04 0.  0.
        5    1    3    3  502    0 -0.43124357364E+02 -0.45543801850E+03  0.54479204045E+03  0.71140983704E+03  0.46999998093E+01 0. -1.
       -5    1    3    3    0  502  0.43124357364E+02  0.45543801850E+03 -0.65905620283E+03  0.80228465483E+03  0.46999998093E+01 0.  1.
</event>
<event>
 5   0  0.1426929E-04  0.1503504E+04  0.7818609E-02  0.8882126E-01
        1   -1    0    0  501    0  0.00000000000E+00  0.00000000000E+00  0.75853262353E+03  0.75853262354E+03  0.50400001928E-02 0. -1.
       -1   -1    0    0    0  501  0.00000000000E+00  0.00000000000E+00 -0.74503230203E+03  0.74503230204E+03  0.50400001928E-02 0.  1.
    10030    2    1    2    0    0  0.00000000000E+00  0.00000000000E+00  0.13500321501E+02  0.15035649256E+04  0.15035043155E+04 0.  0.
        1    1    3    3  502    0  0.46806239253E+03 -0.16600688063E+03  0.57112264219E+03  0.75684989275E+03  0.50400001928E-02 0. -1.
       -1    1    3    3    0  502 -0.46806239253E+03  0.16600688063E+03 -0.55762232068E+03  0.74671503284E+03  0.50400001928E-02 0.  1.
</event>
<event>
 5   0  0.2618901E-04  0.1495974E+04  0.7818609E-02  0.8887135E-01
       -2   -1    0    0    0  501  0.00000000000E+00  0.00000000000E+00  0.93605088767E+03  0.93605088767E+03  0.25500000920E-02 0. -1.
        2   -1    0    0  501    0  0.00000000000E+00  0.00000000000E+00 -0.59770735346E+03  0.59770735346E+03  0.25500000920E-02 0.  1.
    10030    2    1    2    0    0  0.00000000000E+00  0.00000000000E+00  0.33834353421E+03  0.15337582411E+04  0.14959739286E+04 0.  0.
        1    1    3    3  502    0 -0.36951486102E+03 -0.13307299515E+03 -0.48348714848E+03  0.62290406752E+03  0.50400001928E-02 0.  1.
       -1    1    3    3    0  502  0.36951486102E+03  0.13307299515E+03  0.82183068270E+03  0.91085417362E+03  0.50400001928E-02 0. -1.
</event>
<event>
 5   0  0.2618901E-04  0.1503113E+04  0.7818609E-02  0.8882385E-01
        2   -1    0    0  501    0  0.00000000000E+00  0.00000000000E+00  0.11259970190E+04  0.11259970190E+04  0.25500000920E-02 0.  1.
       -2   -1    0    0    0  501  0.00000000000E+00  0.00000000000E+00 -0.50163312761E+03  0.50163312762E+03  0.25500000920E-02 0. -1.
    10030    2    1    2    0    0  0.00000000000E+00  0.00000000000E+00  0.62436389138E+03  0.16276301466E+04  0.15031133109E+04 0.  0.
        1    1    3    3  502    0  0.38274448636E+03  0.44265029884E+03  0.82284690717E+03  0.10097077110E+04  0.50400001928E-02 0.  1.
       -1    1    3    3    0  502 -0.38274448636E+03 -0.44265029884E+03 -0.19848301578E+03  0.61792243565E+03  0.50400001928E-02 0. -1.
</event>
<event>
 5   0  0.1474203E-04  0.1506198E+04  0.7818609E-02  0.8880342E-01
       -1   -1    0    0    0  501  0.00000000000E+00  0.00000000000E+00  0.52523625887E+03  0.52523625890E+03  0.50400001928E-02 0.  1.
        1   -1    0    0  501    0  0.00000000000E+00  0.00000000000E+00 -0.10798156610E+04  0.10798156610E+04  0.50400001928E-02 0. -1.
    10030    2    1    2    0    0  0.00000000000E+00  0.00000000000E+00 -0.55457940211E+03  0.16050519199E+04  0.15061983111E+04 0.  0.
        3    1    3    3  502    0 -0.41474738378E+03  0.59213801443E+03 -0.52455387302E+02  0.72484094693E+03  0.10100000352E+00 0.  1.
       -3    1    3    3    0  502  0.41474738378E+03 -0.59213801443E+03 -0.50212401481E+03  0.88021097297E+03  0.10100000352E+00 0. -1.
</event>
<event>
 5   0  0.2641347E-04  0.1509746E+04  0.7818609E-02  0.8877997E-01
       -2   -1    0    0    0  501  0.00000000000E+00  0.00000000000E+00  0.46544000963E+03  0.46544000963E+03  0.25500000920E-02 0.  1.
        2   -1    0    0  501    0  0.00000000000E+00  0.00000000000E+00 -0.12242899015E+04  0.12242899015E+04  0.25500000920E-02 0. -1.
    10030    2    1    2    0    0  0.00000000000E+00  0.00000000000E+00 -0.75884989188E+03  0.16897299111E+04  0.15097463410E+04 0.  0.
        4    1    3    3  502    0  0.68633788571E+03  0.20862384903E+02 -0.28453575631E+02  0.68724533562E+03  0.12699999809E+01 0.  1.
       -4    1    3    3    0  502 -0.68633788571E+03 -0.20862384903E+02 -0.73039631624E+03  0.10024845755E+04  0.12699999809E+01 0. -1.
</event>
<event>
 5   0  0.1443750E-04  0.1482533E+04  0.7818609E-02  0.8896152E-01
       -1   -1    0    0    0  501  0.00000000000E+00  0.00000000000E+00  0.53100465963E+03  0.53100465965E+03  0.50400001928E-02 0.  1.
        1   -1    0    0  501    0  0.00000000000E+00  0.00000000000E+00 -0.10347855767E+04  0.10347855767E+04  0.50400001928E-02 0. -1.
    10030    2    1    2    0    0  0.00000000000E+00  0.00000000000E+00 -0.50378091705E+03  0.15657902363E+04  0.14825329176E+04 0.  0.
        2    1    3    3  502    0  0.73041940345E+03 -0.12528028372E+03 -0.26919047314E+03  0.78846126428E+03  0.25500000920E-02 0.  1.
       -2    1    3    3    0  502 -0.73041940345E+03  0.12528028372E+03 -0.23459044391E+03  0.77732897206E+03  0.25500000920E-02 0. -1.
</event>
<event>
 5   0  0.2696040E-04  0.1517158E+04  0.7818609E-02  0.8873122E-01
       -2   -1    0    0    0  501  0.00000000000E+00  0.00000000000E+00  0.35017827959E+03  0.35017827960E+03  0.25500000920E-02 0.  1.
        2   -1    0    0  501    0  0.00000000000E+00  0.00000000000E+00 -0.16432842477E+04  0.16432842477E+04  0.25500000920E-02 0. -1.
    10030    2    1    2    0    0  0.00000000000E+00  0.00000000000E+00 -0.12931059682E+04  0.19934625273E+04  0.15171584634E+04 0.  0.
        2    1    3    3  502    0 -0.41488024195E+03 -0.30093949057E+02  0.18695959128E+03  0.45605388904E+03  0.25500000920E-02 0.  1.
       -2    1    3    3    0  502  0.41488024195E+03  0.30093949057E+02 -0.14800655594E+04  0.15374086383E+04  0.25500000920E-02 0. -1.
</event>
<event>
 5   0  0.1426929E-04  0.1494765E+04  0.7818609E-02  0.8887942E-01
        1   -1    0    0  501    0  0.00000000000E+00  0.00000000000E+00  0.63174929987E+03  0.63174929989E+03  0.50400001928E-02 0. -1.
       -1   -1    0    0    0  501  0.00000000000E+00  0.00000000000E+00 -0.88418055546E+03  0.88418055547E+03  0.50400001928E-02 0.  1.
    10030    2    1    2    0    0  0.00000000000E+00  0.00000000000E+00 -0.25243125559E+03  0.15159298554E+04  0.14947647934E+04 0.  0.
        1    1    3    3  502    0 -0.52523599683E+03  0.16441270501E+03  0.38658822086E+03  0.67257329895E+03  0.50400001928E-02 0. -1.
       -1    1    3    3    0  502  0.52523599683E+03 -0.16441270501E+03 -0.63901947645E+03  0.84335655641E+03  0.50400001928E-02 0.  1.
</event>
<event>
 5   0  0.2696040E-04  0.1496271E+04  0.7818609E-02  0.8886936E-01
       -2   -1    0    0    0  501  0.00000000000E+00  0.00000000000E+00  0.72727617976E+03  0.72727617976E+03  0.25500000920E-02 0. -1.
        2   -1    0    0  501    0  0.00000000000E+00  0.00000000000E+00 -0.76959346810E+03  0.76959346811E+03  0.25500000920E-02 0.  1.
    10030    2    1    2    0    0  0.00000000000E+00  0.00000000000E+00 -0.42317288347E+02  0.14968696479E+04  0.14962713624E+04 0.  0.
        2    1    3    3  502    0 -0.53320897049E+03 -0.44264452973E+03 -0.30315965368E+03  0.75640714006E+03  0.25500000920E-02 0.  1.
       -2    1    3    3    0  502  0.53320897049E+03  0.44264452973E+03  0.26084236533E+03  0.74046250781E+03  0.25500000920E-02 0. -1.
</event>
<event>
 5   0  0.2734072E-04  0.1494140E+04  0.7818609E-02  0.8888359E-01
        2   -1    0    0  501    0  0.00000000000E+00  0.00000000000E+00  0.19195932841E+04  0.19195932841E+04  0.25500000920E-02 0.  1.
       -2   -1    0    0    0  501  0.00000000000E+00  0.00000000000E+00 -0.29074590639E+03  0.29074590640E+03  0.25500000920E-02 0. -1.
    10030    2    1    2    0    0  0.00000000000E+00  0.00000000000E+00  0.16288473777E+04  0.22103391905E+04  0.14941404075E+04 0.  0.
        5    1    3    3  502    0  0.53270731302E+03  0.20829500081E+03  0.10352825266E+03  0.58129517270E+03  0.46999998093E+01 0. -1.
       -5    1    3    3    0  502 -0.53270731302E+03 -0.20829500081E+03  0.15253191250E+04  0.16290440178E+04  0.46999998093E+01 0.  1.
</event>
<event>
 5   0  0.2734072E-04  0.1506651E+04  0.7818609E-02  0.8880042E-01
        2   -1    0    0  501    0  0.00000000000E+00  0.00000000000E+00  0.70304161862E+03  0.70304161863E+03  0.25500000920E-02 0.  1.
       -2   -1    0    0    0  501  0.00000000000E+00  0.00000000000E+00 -0.80720633450E+03  0.80720633450E+03  0.25500000920E-02 0. -1.
    10030    2    1    2    0    0  0.00000000000E+00  0.00000000000E+00 -0.10416471588E+03  0.15102479531E+04  0.15066514500E+04 0.  0.
        5    1    3    3  502    0  0.71526424397E+03  0.17465943334E+03  0.10757339860E+03  0.74411221093E+03  0.46999998093E+01 0. -1.
       -5    1    3    3    0  502 -0.71526424397E+03 -0.17465943334E+03 -0.21173811447E+03  0.76613574220E+03  0.46999998093E+01 0.  1.
</event>
<event>
 5   0  0.2734072E-04  0.1488923E+04  0.7818609E-02  0.8891853E-01
       -2   -1    0    0    0  501  0.00000000000E+00  0.00000000000E+00  0.51621088179E+03  0.51621088180E+03  0.25500000920E-02 0.  1.
        2   -1    0    0  501    0  0.00000000000E+00  0.00000000000E+00 -0.10736368116E+04  0.10736368116E+04  0.25500000920E-02 0. -1.
    10030    2    1    2    0    0  0.00000000000E+00  0.00000000000E+00 -0.55742592980E+03  0.15898476934E+04  0.14889231078E+04 0.  0.
        5    1    3    3  502    0  0.24665385286E+02 -0.74101737879E+03 -0.20719713946E+03  0.76984925895E+03  0.46999998093E+01 0.  1.
       -5    1    3    3    0  502 -0.24665385286E+02  0.74101737879E+03 -0.35022879034E+03  0.81999843444E+03  0.46999998093E+01 0. -1.
</event>
<event>
 5   0  0.1426929E-04  0.1511194E+04  0.7818609E-02  0.8877043E-01
       -1   -1    0    0    0  501  0.00000000000E+00  0.00000000000E+00  0.81116004948E+03  0.81116004950E+03  0.50400001928E-02 0.  1.
        1   -1    0    0  501    0  0.00000000000E+00  0.00000000000E+00 -0.70384018709E+03  0.70384018711E+03  0.50400001928E-02 0. -1.
    10030    2    1    2    0    0  0.00000000000E+00  0.00000000000E+00  0.10731986239E+03  0.15150002366E+04  0.15111942840E+04 0.  0.
        1    1    3    3  502    0 -0.35883815867E+03  0.64258070034E+03 -0.11780373837E+03  0.74535394369E+03  0.50400001928E-02 0. -1.
       -1    1    3    3    0  502  0.35883815867E+03 -0.64258070034E+03  0.22512360076E+03  0.76964629293E+03  0.50400001928E-02 0.  1.
</event>
<event>
 5   0  0.1426929E-04  0.1460256E+04  0.7818609E-02  0.8911321E-01
        1   -1    0    0  501    0  0.00000000000E+00  0.00000000000E+00  0.80497375333E+03  0.80497375335E+03  0.50400001928E-02 0. -1.
       -1   -1    0    0    0  501  0.00000000000E+00  0.00000000000E+00 -0.66224119395E+03  0.66224119397E+03  0.50400001928E-02 0.  1.
    10030    2    1    2    0    0  0.00000000000E+00  0.00000000000E+00  0.14273255938E+03  0.14672149473E+04  0.14602558400E+04 0.  0.
        1    1    3    3  502    0  0.20111181184E+03  0.17111935131E+03 -0.61258251097E+03  0.66707205460E+03  0.50400001928E-02 0.  1.
       -1    1    3    3    0  502 -0.20111181184E+03 -0.17111935131E+03  0.75531507035E+03  0.80014289272E+03  0.50400001928E-02 0. -1.
</event>
<event>
 5   0  0.1474203E-04  0.1505665E+04  0.7818609E-02  0.8880694E-01
        1   -1    0    0  501    0  0.00000000000E+00  0.00000000000E+00  0.11229410251E+04  0.11229410251E+04  0.50400001928E-02 0.  1.
       -1   -1    0    0    0  501  0.00000000000E+00  0.00000000000E+00 -0.50470782280E+03  0.50470782283E+03  0.50400001928E-02 0. -1.
    10030    2    1    2    0    0  0.00000000000E+00  0.00000000000E+00  0.61823320231E+03  0.16276488480E+04  0.15056654608E+04 0.  0.
        3    1    3    3  502    0  0.33891493748E+03 -0.53634431786E+02 -0.41525877426E+03  0.53868343851E+03  0.10100000352E+00 0. -1.
       -3    1    3    3    0  502 -0.33891493748E+03  0.53634431786E+02  0.10334919766E+04  0.10889654094E+04  0.10100000352E+00 0.  1.
</event>
<event>
 5   0  0.2618901E-04  0.1501801E+04  0.7818609E-02  0.8883256E-01
        2   -1    0    0  501    0  0.00000000000E+00  0.00000000000E+00  0.13677722024E+04  0.13677722024E+04  0.25500000920E-02 0. -1.
       -2   -1    0    0    0  501  0.00000000000E+00  0.00000000000E+00 -0.41224061241E+03  0.41224061241E+03  0.25500000920E-02 0.  1.
    10030    2    1    2    0    0  0.00000000000E+00  0.00000000000E+00  0.95553158995E+03  0.17800128148E+04  0.15018005864E+04 0.  0.
        1    1    3    3  502    0 -0.11153516172E+03 -0.26449108341E+03  0.13001769489E+04  0.13314862838E+04  0.50400001928E-02 0. -1.
       -1    1    3    3    0  502  0.11153516172E+03  0.26449108341E+03 -0.34464535895E+03  0.44852653096E+03  0.50400001928E-02 0.  1.
</event>
<event>
 5   0  0.1484251E-04  0.1505077E+04  0.7818609E-02  0.8881084E-01
        1   -1    0    0  501    0  0.00000000000E+00  0.00000000000E+00  0.82373238766E+03  0.82373238767E+03  0.50400001928E-02 0.  1.
       -1   -1    0    0    0  501  0.00000000000E+00  0.00000000000E+00 -0.68749759511E+03  0.68749759513E+03  0.50400001928E-02 0. -1.
    10030    2    1    2    0    0  0.00000000000E+00  0.00000000000E+00  0.13623479255E+03  0.15112299828E+04  0.15050767895E+04 0.  0.
        5    1    3    3  502    0  0.52488922431E+03 -0.21121530606E+03 -0.43006760693E+03  0.71070446730E+03  0.46999998093E+01 0. -1.
       -5    1    3    3    0  502 -0.52488922431E+03  0.21121530606E+03  0.56630239947E+03  0.80052551550E+03  0.46999998093E+01 0.  1.
</event>
<event>
 5   0  0.2618901E-04  0.1499326E+04  0.7818609E-02  0.8884901E-01
       -2   -1    0    0    0  501  0.00000000000E+00  0.00000000000E+00  0.29874146397E+03  0.29874146398E+03  0.25500000920E-02 0.  1.
        2   -1    0    0  501    0  0.00000000000E+00  0.00000000000E+00 -0.18812080632E+04  0.18812080632E+04  0.25500000920E-02 0. -1.
    10030    2    1    2    0    0  0.00000000000E+00  0.00000000000E+00 -0.15824665992E+04  0.21799495272E+04  0.14993263165E+04 0.  0.
        1    1    3    3  502    0 -0.44318042612E+03  0.60463679636E+03 -0.79203656443E+03  0.10905578687E+04  0.50400001928E-02 0.  1.
       -1    1    3    3    0  502  0.44318042612E+03 -0.60463679636E+03 -0.79043003482E+03  0.10893916585E+04  0.50400001928E-02 0. -1.
</event>
<event>
 5   0  0.2646718E-04  0.1531728E+04  0.7818609E-02  0.8863624E-01
        2   -1    0    0  501    0  0.00000000000E+00  0.00000000000E+00  0.64414477045E+03  0.64414477045E+03  0.25500000920E-02 0.  1.
       -2   -1    0    0    0  501  0.00000000000E+00  0.00000000000E+00 -0.91058384752E+03  0.91058384752E+03  0.25500000920E-02 0. -1.
    10030    2    1    2    0    0  0.00000000000E+00  0.00000000000E+00 -0.26643907707E+03  0.15547286180E+04  0.15317282049E+04 0.  0.
        3    1    3    3  502    0 -0.73335281793E+03 -0.25694042047E+01  0.90855111165E+02  0.73896388195E+03  0.10100000352E+00 0. -1.
       -3    1    3    3    0  502  0.73335281793E+03  0.25694042047E+01 -0.35729418824E+03  0.81576473603E+03  0.10100000352E+00 0.  1.
</event>
<event>
 5   0  0.2696040E-04  0.1493664E+04  0.7818609E-02  0.8888677E-01
        2   -1    0    0  501    0  0.00000000000E+00  0.00000000000E+00  0.15335510725E+04  0.15335510725E+04  0.25500000920E-02 0.  1.
       -2   -1    0    0    0  501  0.00000000000E+00  0.00000000000E+00 -0.36370360441E+03  0.36370360442E+03  0.25500000920E-02 0. -1.
    10030    2    1    2    0    0  0.00000000000E+00  0.00000000000E+00  0.11698474681E+04  0.18972546769E+04  0.14936640220E+04 0.  0.
        2    1    3    3  502    0 -0.25753520137E+03 -0.14727022575E+03  0.14554940720E+04  0.14854211163E+04  0.25500000920E-02 0.  1.
       -2    1    3    3    0  502  0.25753520137E+03  0.14727022575E+03 -0.28564660386E+03  0.41183356060E+03  0.25500000920E-02 0. -1.
</event>
<event>
 5   0  0.1443750E-04  0.1497068E+04  0.7818609E-02  0.8886405E-01
        1   -1    0    0  501    0  0.00000000000E+00  0.00000000000E+00  0.12301102839E+04  0.12301102839E+04  0.50400001928E-02 0. -1.
       -1   -1    0    0    0  501  0.00000000000E+00  0.00000000000E+00 -0.45548992945E+03  0.45548992948E+03  0.50400001928E-02 0.  1.
    10030    2    1    2    0    0  0.00000000000E+00  0.00000000000E+00  0.77462035447E+03  0.16856002134E+04  0.14970675956E+04 0.  0.
        2    1    3    3  502    0  0.15689711785E+03  0.49991533469E+03  0.98920705718E+03  0.11194028093E+04  0.25500000920E-02 0. -1.
       -2    1    3    3    0  502 -0.15689711785E+03 -0.49991533469E+03 -0.21458670272E+03  0.56619740412E+03  0.25500000920E-02 0.  1.
</event>
<event>
 5   0  0.2734072E-04  0.1499545E+04  0.7818609E-02  0.8884755E-01
       -2   -1    0    0    0  501  0.00000000000E+00  0.00000000000E+00  0.41264557910E+03  0.41264557910E+03  0.25500000920E-02 0. -1.
        2   -1    0    0  501    0  0.00000000000E+00  0.00000000000E+00 -0.13623285564E+04  0.13623285564E+04  0.25500000920E-02 0.  1.
    10030    2    1    2    0    0  0.00000000000E+00  0.00000000000E+00 -0.94968297735E+03  0.17749741355E+04  0.14995450725E+04 0.  0.
        5    1    3    3  502    0  0.42872933206E+03  0.12426123866E+03  0.23820566781E+03  0.50597798942E+03  0.46999998093E+01 0. -1.
       -5    1    3    3    0  502 -0.42872933206E+03 -0.12426123866E+03 -0.11878886452E+04  0.12689961461E+04  0.46999998093E+01 0.  1.
</event>
<event>
 5   0  0.1004313E-04  0.1486900E+04  0.7818609E-02  0.8893211E-01
       -3   -1    0    0    0  501  0.00000000000E+00  0.00000000000E+00  0.10104842414E+04  0.10104842464E+04  0.10100000352E+00 0. -1.
        3   -1    0    0  501    0  0.00000000000E+00  0.00000000000E+00 -0.54698298596E+03  0.54698299529E+03  0.10100000352E+00 0.  1.
    10030    2    1    2    0    0  0.00000000000E+00  0.00000000000E+00  0.46350125541E+03  0.15574672417E+04  0.14868997260E+04 0.  0.
        4    1    3    3  502    0  0.56971096452E+01 -0.68298238306E+03 -0.75815112482E+02  0.68720225320E+03  0.12699999809E+01 0.  1.
       -4    1    3    3    0  502 -0.56971096452E+01  0.68298238306E+03  0.53931636789E+03  0.87026498850E+03  0.12699999809E+01 0. -1.
</event>
<event>
 5   0  0.2734072E-04  0.1499136E+04  0.7818609E-02  0.8885027E-01
        2   -1    0    0  501    0  0.00000000000E+00  0.00000000000E+00  0.12648669350E+04  0.12648669350E+04  0.25500000920E-02 0.  1.
       -2   -1    0    0    0  501  0.00000000000E+00  0.00000000000E+00 -0.44419889903E+03  0.44419889904E+03  0.25500000920E-02 0. -1.
    10030    2    1    2    0    0  0.00000000000E+00  0.00000000000E+00  0.82066803601E+03  0.17090658341E+04  0.14991364180E+04 0.  0.
        5    1    3    3  502    0 -0.43517133320E+03  0.43096294828E+03  0.90296474609E+03  0.10910868777E+04  0.46999998093E+01 0. -1.
       -5    1    3    3    0  502  0.43517133320E+03 -0.43096294828E+03 -0.82296710085E+02  0.61797895637E+03  0.46999998093E+01 0.  1.
</event>
<event>
 5   0  0.2618901E-04  0.1497340E+04  0.7818609E-02  0.8886224E-01
        2   -1    0    0  501    0  0.00000000000E+00  0.00000000000E+00  0.82252259872E+03  0.82252259873E+03  0.25500000920E-02 0.  1.
       -2   -1    0    0    0  501  0.00000000000E+00  0.00000000000E+00 -0.68144859955E+03  0.68144859955E+03  0.25500000920E-02 0. -1.
    10030    2    1    2    0    0  0.00000000000E+00  0.00000000000E+00  0.14107399918E+03  0.15039711983E+04  0.14973401390E+04 0.  0.
        1    1    3    3  502    0 -0.42709116750E+03  0.58507458408E+03 -0.11947725457E+03  0.73416207249E+03  0.50400001928E-02 0. -1.
       -1    1    3    3    0  502  0.42709116750E+03 -0.58507458408E+03  0.26055125374E+03  0.76980912579E+03  0.50400001928E-02 0.  1.
</event>
<event>
 5   0  0.2641347E-04  0.1496742E+04  0.7818609E-02  0.8886622E-01
       -2   -1    0    0    0  501  0.00000000000E+00  0.00000000000E+00  0.72371797175E+03  0.72371797175E+03  0.25500000920E-02 0.  1.
        2   -1    0    0  501    0  0.00000000000E+00  0.00000000000E+00 -0.77386418597E+03  0.77386418597E+03  0.25500000920E-02 0. -1.
    10030    2    1    2    0    0  0.00000000000E+00  0.00000000000E+00 -0.50146214219E+02  0.14975821577E+04  0.14967423547E+04 0.  0.
        4    1    3    3  502    0  0.15650558296E+03  0.33887796743E+03 -0.67407063544E+03  0.77052262054E+03  0.12699999809E+01 0. -1.
       -4    1    3    3    0  502 -0.15650558296E+03 -0.33887796743E+03  0.62392442122E+03  0.72705953718E+03  0.12699999809E+01 0.  1.
</event>
<event>
 5   0  0.1443750E-04  0.1523466E+04  0.7818609E-02  0.8868997E-01
        1   -1    0    0  501    0  0.00000000000E+00  0.00000000000E+00  0.37958619211E+03  0.37958619214E+03  0.50400001928E-02 0. -1.
       -1   -1    0    0    0  501  0.00000000000E+00  0.00000000000E+00 -0.15286042358E+04  0.15286042358E+04  0.50400001928E-02 0.  1.
    10030    2    1    2    0    0  0.00000000000E+00  0.00000000000E+00 -0.11490180437E+04  0.19081904280E+04  0.15234658659E+04 0.  0.
        2    1    3    3  502    0 -0.64645909378E+03  0.77252126559E+02 -0.10697898899E+04  0.12523288943E+04  0.25500000920E-02 0.  1.
       -2    1    3    3    0  502  0.64645909378E+03 -0.77252126559E+02 -0.79228153833E+02  0.65586153368E+03  0.25500000920E-02 0. -1.
</event>
<event>
 5   0  0.1443750E-04  0.1499738E+04  0.7818609E-02  0.8884627E-01
       -1   -1    0    0    0  501  0.00000000000E+00  0.00000000000E+00  0.38907275067E+03  0.38907275070E+03  0.50400001928E-02 0. -1.
        1   -1    0    0  501    0  0.00000000000E+00  0.00000000000E+00 -0.14452394436E+04  0.14452394436E+04  0.50400001928E-02 0.  1.
    10030    2    1    2    0    0  0.00000000000E+00  0.00000000000E+00 -0.10561666929E+04  0.18343121943E+04  0.14997376914E+04 0.  0.
        2    1    3    3  502    0  0.64025805127E+02 -0.12929900702E+03 -0.14281019002E+04  0.14353719289E+04  0.25500000920E-02 0.  1.
       -2    1    3    3    0  502 -0.64025805127E+02  0.12929900702E+03  0.37193520727E+03  0.39894026540E+03  0.25500000920E-02 0. -1.
</event>
<event>
 5   0  0.2734072E-04  0.1501534E+04  0.7818609E-02  0.8883434E-01
       -2   -1    0    0    0  501  0.00000000000E+00  0.00000000000E+00  0.87239843912E+03  0.87239843912E+03  0.25500000920E-02 0.  1.
        2   -1    0    0  501    0  0.00000000000E+00  0.00000000000E+00 -0.64609354203E+03  0.64609354204E+03  0.25500000920E-02 0. -1.
    10030    2    1    2    0    0  0.00000000000E+00  0.00000000000E+00  0.22630489709E+03  0.15184919812E+04  0.15015338792E+04 0.  0.
        5    1    3    3  502    0  0.49280995735E+03 -0.47984898495E+03  0.41740269601E+03  0.80458921386E+03  0.46999998093E+01 0.  1.
       -5    1    3    3    0  502 -0.49280995735E+03  0.47984898495E+03 -0.19109779893E+03  0.71390276731E+03  0.46999998093E+01 0. -1.
</event>
<event>
 5   0  0.2646718E-04  0.1500905E+04  0.7818609E-02  0.8883851E-01
        2   -1    0    0  501    0  0.00000000000E+00  0.00000000000E+00  0.17112042152E+04  0.17112042152E+04  0.25500000920E-02 0. -1.
       -2   -1    0    0    0  501  0.00000000000E+00  0.00000000000E+00 -0.32911276231E+03  0.32911276232E+03  0.25500000920E-02 0.  1.
    10030    2    1    2    0    0  0.00000000000E+00  0.00000000000E+00  0.13820914529E+04  0.20403169775E+04  0.15009052550E+04 0.  0.
        3    1    3    3  502    0 -0.72980237756E+03 -0.11999022685E+03  0.51818394388E+03  0.90306354966E+03  0.10100000352E+00 0. -1.
       -3    1    3    3    0  502  0.72980237756E+03  0.11999022685E+03  0.86390750898E+03  0.11372534278E+04  0.10100000352E+00 0.  1.
</event>
<event>
 5   0  0.1443750E-04  0.1499170E+04  0.7818609E-02  0.8885005E-01
        1   -1    0    0  501    0  0.00000000000E+00  0.00000000000E+00  0.17410544184E+04  0.17410544184E+04  0.50400001928E-02 0. -1.
       -1   -1    0    0    0  501  0.00000000000E+00  0.00000000000E+00 -0.32272283594E+03  0.32272283598E+03  0.50400001928E-02 0.  1.
    10030    2    1    2    0    0  0.00000000000E+00  0.00000000000E+00  0.14183315824E+04  0.20637772544E+04  0.14991704633E+04 0.  0.
        2    1    3    3  502    0 -0.54442079389E+03 -0.10239505321E+03  0.14011393528E+02  0.55414354359E+03  0.25500000920E-02 0.  1.
       -2    1    3    3    0  502  0.54442079389E+03  0.10239505321E+03  0.14043201889E+04  0.15096337108E+04  0.25500000920E-02 0. -1.
</event>
<event>
 5   0  0.2641347E-04  0.1440167E+04  0.7818609E-02  0.8925246E-01
        2   -1    0    0  501    0  0.00000000000E+00  0.00000000000E+00  0.62882598141E+03  0.62882598142E+03  0.25500000920E-02 0.  1.
       -2   -1    0    0    0  501  0.00000000000E+00  0.00000000000E+00 -0.82458446867E+03  0.82458446867E+03  0.25500000920E-02 0. -1.
    10030    2    1    2    0    0  0.00000000000E+00  0.00000000000E+00 -0.19575848725E+03  0.14534104501E+04  0.14401668484E+04 0.  0.
        4    1    3    3  502    0  0.50014734100E+03  0.13233887526E+03  0.40758342600E+03  0.65862493323E+03  0.12699999809E+01 0.  1.
       -4    1    3    3    0  502 -0.50014734100E+03 -0.13233887526E+03 -0.60334191326E+03  0.79478551686E+03  0.12699999809E+01 0. -1.
</event>
<event>
 5   0  0.1443750E-04  0.1527239E+04  0.7818609E-02  0.8866539E-01
       -1   -1    0    0    0  501  0.00000000000E+00  0.00000000000E+00  0.29052203364E+03  0.29052203368E+03  0.50400001928E-02 0. -1.
        1   -1    0    0  501    0  0.00000000000E+00  0.00000000000E+00 -0.20071272153E+04  0.20071272154E+04  0.50400001928E-02 0.  1.
    10030    2    1    2    0    0  0.00000000000E+00  0.00000000000E+00 -0.17166051817E+04  0.22976492490E+04  0.15272389210E+04 0.  0.
        2    1    3    3  502    0 -0.37906956158E+03 -0.40933603299E+03 -0.16427310947E+04  0.17348818893E+04  0.25500000920E-02 0.  1.
       -2    1    3    3    0  502  0.37906956158E+03  0.40933603299E+03 -0.73874087019E+02  0.56276735972E+03  0.25500000920E-02 0. -1.
</event>
<event>
 5   0  0.1474203E-04  0.1496380E+04  0.7818609E-02  0.8886864E-01
       -1   -1    0    0    0  501  0.00000000000E+00  0.00000000000E+00  0.16864188406E+04  0.16864188406E+04  0.50400001928E-02 0. -1.
        1   -1    0    0  501    0  0.00000000000E+00  0.00000000000E+00 -0.33193891195E+03  0.33193891198E+03  0.50400001928E-02 0.  1.
    10030    2    1    2    0    0  0.00000000000E+00  0.00000000000E+00  0.13544799287E+04  0.20183577526E+04  0.14963796779E+04 0.  0.
        3    1    3    3  502    0 -0.30218172882E+03 -0.63198446399E+03  0.10317272386E+04  0.12470682680E+04  0.10100000352E+00 0.  1.
       -3    1    3    3    0  502  0.30218172882E+03  0.63198446399E+03  0.32275269010E+03  0.77128948464E+03  0.10100000352E+00 0. -1.
</event>
<event>
 5   0  0.2618901E-04  0.1497879E+04  0.7818609E-02  0.8885865E-01
       -2   -1    0    0    0  501  0.00000000000E+00  0.00000000000E+00  0.72205371594E+03  0.72205371594E+03  0.25500000920E-02 0.  1.
        2   -1    0    0  501    0  0.00000000000E+00  0.00000000000E+00 -0.77682634747E+03  0.77682634748E+03  0.25500000920E-02 0. -1.
    10030    2    1    2    0    0  0.00000000000E+00  0.00000000000E+00 -0.54772631537E+02  0.14988800634E+04  0.14978789682E+04 0.  0.
        1    1    3    3  502    0  0.34063863163E+03  0.57836154966E+03 -0.35983356754E+03  0.76158844256E+03  0.50400001928E-02 0.  1.
       -1    1    3    3    0  502 -0.34063863163E+03 -0.57836154966E+03  0.30506093600E+03  0.73729162086E+03  0.50400001928E-02 0. -1.
</event>
<event>
 5   0  0.1443750E-04  0.1502833E+04  0.7818609E-02  0.8882571E-01
        1   -1    0    0  501    0  0.00000000000E+00  0.00000000000E+00  0.10336105958E+04  0.10336105958E+04  0.50400001928E-02 0.  1.
       -1   -1    0    0    0  501  0.00000000000E+00  0.00000000000E+00 -0.54626648937E+03  0.54626648939E+03  0.50400001928E-02 0. -1.
    10030    2    1    2    0    0  0.00000000000E+00  0.00000000000E+00  0.48734410643E+03  0.15798770852E+04  0.15028330999E+04 0.  0.
        2    1    3    3  502    0 -0.29864787782E+03 -0.13747836574E+03 -0.46664141811E+03  0.57082840599E+03  0.25500000920E-02 0. -1.
       -2    1    3    3    0  502  0.29864787782E+03  0.13747836574E+03  0.95398552454E+03  0.10090486792E+04  0.25500000920E-02 0.  1.
</event>
<event>
 5   0  0.2618901E-04  0.1497317E+04  0.7818609E-02  0.8886239E-01
        2   -1    0    0  501    0  0.00000000000E+00  0.00000000000E+00  0.79545328471E+03  0.79545328471E+03  0.25500000920E-02 0. -1.
       -2   -1    0    0    0  501  0.00000000000E+00  0.00000000000E+00 -0.70461613526E+03  0.70461613526E+03  0.25500000920E-02 0.  1.
    10030    2    1    2    0    0  0.00000000000E+00  0.00000000000E+00  0.90837149451E+02  0.15000694200E+04  0.14973165587E+04 0.  0.
        1    1    3    3  502    0 -0.34335364054E+03 -0.14485390084E+03  0.69593112057E+03  0.78942669049E+03  0.50400001928E-02 0. -1.
       -1    1    3    3    0  502  0.34335364054E+03  0.14485390084E+03 -0.60509397111E+03  0.71064272948E+03  0.50400001928E-02 0.  1.
</event>
<event>
 5   0  0.2646718E-04  0.1488325E+04  0.7818609E-02  0.8892254E-01
        2   -1    0    0  501    0  0.00000000000E+00  0.00000000000E+00  0.52786380550E+03  0.52786380550E+03  0.25500000920E-02 0.  1.
       -2   -1    0    0    0  501  0.00000000000E+00  0.00000000000E+00 -0.10490921198E+04  0.10490921198E+04  0.25500000920E-02 0. -1.
    10030    2    1    2    0    0  0.00000000000E+00  0.00000000000E+00 -0.52122831426E+03  0.15769559253E+04  0.14883249090E+04 0.  0.
        3    1    3    3  502    0  0.46871288620E+03 -0.29797015202E+03 -0.78538581705E+03  0.96192976511E+03  0.10100000352E+00 0. -1.
       -3    1    3    3    0  502 -0.46871288620E+03  0.29797015202E+03  0.26415750279E+03  0.61502616015E+03  0.10100000352E+00 0.  1.
</event>
<event>
 5   0  0.1426929E-04  0.1499848E+04  0.7818609E-02  0.8884554E-01
       -1   -1    0    0    0  501  0.00000000000E+00  0.00000000000E+00  0.71291651213E+03  0.71291651215E+03  0.50400001928E-02 0. -1.
        1   -1    0    0  501    0  0.00000000000E+00  0.00000000000E+00 -0.78885215548E+03  0.78885215549E+03  0.50400001928E-02 0.  1.
    10030    2    1    2    0    0  0.00000000000E+00  0.00000000000E+00 -0.75935643347E+02  0.15017686676E+04  0.14998476287E+04 0.  0.
        1    1    3    3  502    0 -0.20219711846E+03  0.16475052379E+03 -0.74197528030E+03  0.78648186655E+03  0.50400001928E-02 0.  1.
       -1    1    3    3    0  502  0.20219711846E+03 -0.16475052379E+03  0.66603963696E+03  0.71528680110E+03  0.50400001928E-02 0. -1.
</event>
<event>
 5   0  0.1426929E-04  0.1480203E+04  0.7818609E-02  0.8897725E-01
        1   -1    0    0  501    0  0.00000000000E+00  0.00000000000E+00  0.79418459040E+03  0.79418459042E+03  0.50400001928E-02 0. -1.
       -1   -1    0    0    0  501  0.00000000000E+00  0.00000000000E+00 -0.68970161162E+03  0.68970161164E+03  0.50400001928E-02 0.  1.
    10030    2    1    2    0    0  0.00000000000E+00  0.00000000000E+00  0.10448297878E+03  0.14838862021E+04  0.14802032184E+04 0.  0.
        1    1    3    3  502    0 -0.40586145599E+03  0.60693239255E+03 -0.69138017402E+02  0.73339656126E+03  0.50400001928E-02 0. -1.
       -1    1    3    3    0  502  0.40586145599E+03 -0.60693239255E+03  0.17362099619E+03  0.75048964079E+03  0.50400001928E-02 0.  1.
</event>
<event>
 5   0  0.2618901E-04  0.1492421E+04  0.7818609E-02  0.8889509E-01
       -2   -1    0    0    0  501  0.00000000000E+00  0.00000000000E+00  0.30088289812E+03  0.30088289813E+03  0.25500000920E-02 0.  1.
        2   -1    0    0  501    0  0.00000000000E+00  0.00000000000E+00 -0.18506537149E+04  0.18506537149E+04  0.25500000920E-02 0. -1.
    10030    2    1    2    0    0  0.00000000000E+00  0.00000000000E+00 -0.15497708168E+04  0.21515366131E+04  0.14924209234E+04 0.  0.
        1    1    3    3  502    0 -0.58331415265E+03  0.46536462252E+03 -0.77953916148E+03  0.10791204460E+04  0.50400001928E-02 0.  1.
       -1    1    3    3    0  502  0.58331415265E+03 -0.46536462252E+03 -0.77023165532E+03  0.10724161671E+04  0.50400001928E-02 0. -1.
</event>
<event>
 5   0  0.1443750E-04  0.1521899E+04  0.7818609E-02  0.8870020E-01
        1   -1    0    0  501    0  0.00000000000E+00  0.00000000000E+00  0.82642349076E+03  0.82642349078E+03  0.50400001928E-02 0.  1.
       -1   -1    0    0    0  501  0.00000000000E+00  0.00000000000E+00 -0.70066227774E+03  0.70066227776E+03  0.50400001928E-02 0. -1.
    10030    2    1    2    0    0  0.00000000000E+00  0.00000000000E+00  0.12576121302E+03  0.15270857685E+04  0.15218985057E+04 0.  0.
        2    1    3    3  502    0 -0.15465456124E+03  0.29503682725E+03  0.74937551266E+03  0.82007830219E+03  0.25500000920E-02 0.  1.
       -2    1    3    3    0  502  0.15465456124E+03 -0.29503682725E+03 -0.62361429964E+03  0.70700746635E+03  0.25500000920E-02 0. -1.
</event>
<event>
 5   0  0.1426929E-04  0.1500277E+04  0.7818609E-02  0.8884269E-01
       -1   -1    0    0    0  501  0.00000000000E+00  0.00000000000E+00  0.64305701391E+03  0.64305701393E+03  0.50400001928E-02 0. -1.
        1   -1    0    0  501    0  0.00000000000E+00  0.00000000000E+00 -0.87505073207E+03  0.87505073209E+03  0.50400001928E-02 0.  1.
    10030    2    1    2    0    0  0.00000000000E+00  0.00000000000E+00 -0.23199371816E+03  0.15181077460E+04  0.15002766556E+04 0.  0.
        1    1    3    3  502    0 -0.94686349351E+02  0.33147874863E+03 -0.79014622465E+03  0.86207582143E+03  0.50400001928E-02 0.  1.
       -1    1    3    3    0  502  0.94686349351E+02 -0.33147874863E+03  0.55815250649E+03  0.65603192458E+03  0.50400001928E-02 0. -1.
</event>
<event>
 5   0  0.2646718E-04  0.1494348E+04  0.7818609E-02  0.8888220E-01
        2   -1    0    0  501    0  0.00000000000E+00  0.00000000000E+00  0.11142292690E+04  0.11142292690E+04  0.25500000920E-02 0. -1.
       -2   -1    0    0    0  501  0.00000000000E+00  0.00000000000E+00 -0.50103611403E+03  0.50103611404E+03  0.25500000920E-02 0.  1.
    10030    2    1    2    0    0  0.00000000000E+00  0.00000000000E+00  0.61319315496E+03  0.16152653830E+04  0.14943481563E+04 0.  0.
        3    1    3    3  502    0 -0.20973289377E+03  0.61089667335E+03 -0.99411583308E+02  0.65350233766E+03  0.10100000352E+00 0.  1.
       -3    1    3    3    0  502  0.20973289377E+03 -0.61089667335E+03  0.71260473827E+03  0.96176304537E+03  0.10100000352E+00 0. -1.
</event>
<event>
 5   0  0.1427609E-04  0.1501473E+04  0.7818609E-02  0.8883474E-01
       -1   -1    0    0    0  501  0.00000000000E+00  0.00000000000E+00  0.25118340250E+03  0.25118340255E+03  0.50400001928E-02 0. -1.
        1   -1    0    0  501    0  0.00000000000E+00  0.00000000000E+00 -0.22437984459E+04  0.22437984459E+04  0.50400001928E-02 0.  1.
    10030    2    1    2    0    0  0.00000000000E+00  0.00000000000E+00 -0.19926150434E+04  0.24949818485E+04  0.15014725149E+04 0.  0.
        4    1    3    3  502    0 -0.35414964197E+03  0.63937269620E+03 -0.12811499867E+04  0.14749801066E+04  0.12699999809E+01 0.  1.
       -4    1    3    3    0  502  0.35414964197E+03 -0.63937269620E+03 -0.71146505670E+03  0.10200017418E+04  0.12699999809E+01 0. -1.
</event>
<event>
 5   0  0.1427609E-04  0.1501995E+04  0.7818609E-02  0.8883128E-01
       -1   -1    0    0    0  501  0.00000000000E+00  0.00000000000E+00  0.11111395654E+04  0.11111395654E+04  0.50400001928E-02 0. -1.
        1   -1    0    0  501    0  0.00000000000E+00  0.00000000000E+00 -0.50758418510E+03  0.50758418512E+03  0.50400001928E-02 0.  1.
    10030    2    1    2    0    0  0.00000000000E+00  0.00000000000E+00  0.60355538033E+03  0.16187237506E+04  0.15019945018E+04 0.  0.
        4    1    3    3  502    0 -0.29383104929E+03 -0.48061514087E+03 -0.23347702519E+03  0.60978744932E+03  0.12699999809E+01 0.  1.
       -4    1    3    3    0  502  0.29383104929E+03  0.48061514087E+03  0.83703240552E+03  0.10089363012E+04  0.12699999809E+01 0. -1.
</event>
<event>
 5   0  0.1427609E-04  0.1473140E+04  0.7818609E-02  0.8902513E-01
       -1   -1    0    0    0  501  0.00000000000E+00  0.00000000000E+00  0.65280664027E+03  0.65280664029E+03  0.50400001928E-02 0.  1.
        1   -1    0    0  501    0  0.00000000000E+00  0.00000000000E+00 -0.83108169031E+03  0.83108169033E+03  0.50400001928E-02 0. -1.
    10030    2    1    2    0    0  0.00000000000E+00  0.00000000000E+00 -0.17827505005E+03  0.14838883306E+04  0.14731403817E+04 0.  0.
        4    1    3    3  502    0 -0.18945787052E+03 -0.53911568242E+03 -0.55727990444E+03  0.79818701350E+03  0.12699999809E+01 0. -1.
       -4    1    3    3    0  502  0.18945787052E+03  0.53911568242E+03  0.37900485439E+03  0.68570131711E+03  0.12699999809E+01 0.  1.
</event>
<event>
 5   0  0.2696040E-04  0.1499938E+04  0.7818609E-02  0.8884494E-01
        2   -1    0    0  501    0  0.00000000000E+00  0.00000000000E+00  0.10648603891E+04  0.10648603891E+04  0.25500000920E-02 0.  1.
       -2   -1    0    0    0  501  0.00000000000E+00  0.00000000000E+00 -0.52819428396E+03  0.52819428397E+03  0.25500000920E-02 0. -1.
    10030    2    1    2    0    0  0.00000000000E+00  0.00000000000E+00  0.53666610510E+03  0.15930546730E+04  0.14999375597E+04 0.  0.
        2    1    3    3  502    0 -0.19021059683E+03 -0.27496719307E+03  0.98132556043E+03  0.10367192889E+04  0.25500000920E-02 0.  1.
       -2    1    3    3    0  502  0.19021059683E+03  0.27496719307E+03 -0.44465945533E+03  0.55633538413E+03  0.25500000920E-02 0. -1.
</event>
<event>
 5   0  0.2641347E-04  0.1503119E+04  0.7818609E-02  0.8882382E-01
        2   -1    0    0  501    0  0.00000000000E+00  0.00000000000E+00  0.60495413549E+03  0.60495413549E+03  0.25500000920E-02 0.  1.
       -2   -1    0    0    0  501  0.00000000000E+00  0.00000000000E+00 -0.93369285619E+03  0.93369285619E+03  0.25500000920E-02 0. -1.
    10030    2    1    2    0    0  0.00000000000E+00  0.00000000000E+00 -0.32873872070E+03  0.15386469917E+04  0.15031185644E+04 0.  0.
        4    1    3    3  502    0 -0.24004687230E+03  0.70702515734E+03 -0.25202437285E+03  0.78805137613E+03  0.12699999809E+01 0. -1.
       -4    1    3    3    0  502  0.24004687230E+03 -0.70702515734E+03 -0.76714347852E+02  0.75059561555E+03  0.12699999809E+01 0.  1.
</event>
<event>
 5   0  0.2646718E-04  0.1495374E+04  0.7818609E-02  0.8887535E-01
        2   -1    0    0  501    0  0.00000000000E+00  0.00000000000E+00  0.11142873385E+04  0.11142873385E+04  0.25500000920E-02 0.  1.
       -2   -1    0    0    0  501  0.00000000000E+00  0.00000000000E+00 -0.50169802674E+03  0.50169802674E+03  0.25500000920E-02 0. -1.
    10030    2    1    2    0    0  0.00000000000E+00  0.00000000000E+00  0.61258931174E+03  0.16159853652E+04  0.14953738783E+04 0.  0.
        3    1    3    3  502    0 -0.13849314394E+03 -0.46399826780E+03  0.92194737701E+03  0.10413749179E+04  0.10100000352E+00 0.  1.
       -3    1    3    3    0  502  0.13849314394E+03  0.46399826780E+03 -0.30935806527E+03  0.57461044733E+03  0.10100000352E+00 0. -1.
</event>
<event>
 5   0  0.1474203E-04  0.1514637E+04  0.7818609E-02  0.8874778E-01
       -1   -1    0    0    0  501  0.00000000000E+00  0.00000000000E+00  0.12387573807E+04  0.12387573807E+04  0.50400001928E-02 0. -1.
        1   -1    0    0  501    0  0.00000000000E+00  0.00000000000E+00 -0.46298899053E+03  0.46298899056E+03  0.50400001928E-02 0.  1.
    10030    2    1    2    0    0  0.00000000000E+00  0.00000000000E+00  0.77576839018E+03  0.17017463713E+04  0.15146366287E+04 0.  0.
        3    1    3    3  502    0 -0.32340966035E+03 -0.39842460658E+03 -0.23787005072E+03  0.56561307161E+03  0.10100000352E+00 0.  1.
       -3    1    3    3    0  502  0.32340966035E+03  0.39842460658E+03  0.10136384409E+04  0.11361332997E+04  0.10100000352E+00 0. -1.
</event>
<event>
 5   0  0.2646718E-04  0.1512016E+04  0.7818609E-02  0.8876502E-01
       -2   -1    0    0    0  501  0.00000000000E+00  0.00000000000E+00  0.52533777586E+03  0.52533777586E+03  0.25500000920E-02 0. -1.
        2   -1    0    0  501    0  0.00000000000E+00  0.00000000000E+00 -0.10879626270E+04  0.10879626270E+04  0.25500000920E-02 0.  1.
    10030    2    1    2    0    0  0.00000000000E+00  0.00000000000E+00 -0.56262485112E+03  0.16133004028E+04  0.15120156966E+04 0.  0.
        3    1    3    3  502    0 -0.41285317549E+03 -0.24980955437E+03  0.33964743323E+03  0.59009571009E+03  0.10100000352E+00 0. -1.
       -3    1    3    3    0  502  0.41285317549E+03  0.24980955437E+03 -0.90227228435E+03  0.10232046928E+04  0.10100000352E+00 0.  1.
</event>
<event>
 5   0  0.2696040E-04  0.1498974E+04  0.7818609E-02  0.8885135E-01
       -2   -1    0    0    0  501  0.00000000000E+00  0.00000000000E+00  0.38725577779E+03  0.38725577780E+03  0.25500000920E-02 0. -1.
        2   -1    0    0  501    0  0.00000000000E+00  0.00000000000E+00 -0.14505427154E+04  0.14505427154E+04  0.25500000920E-02 0.  1.
    10030    2    1    2    0    0  0.00000000000E+00  0.00000000000E+00 -0.10632869376E+04  0.18377984932E+04  0.14989743793E+04 0.  0.
        2    1    3    3  502    0 -0.15816345722E+03 -0.73207761362E+03 -0.56583509523E+03  0.93868134452E+03  0.25500000920E-02 0.  1.
       -2    1    3    3    0  502  0.15816345722E+03  0.73207761362E+03 -0.49745184238E+03  0.89911714868E+03  0.25500000920E-02 0. -1.
</event>
<event>
 5   0  0.1474203E-04  0.1501566E+04  0.7818609E-02  0.8883413E-01
        1   -1    0    0  501    0  0.00000000000E+00  0.00000000000E+00  0.15768211841E+04  0.15768211841E+04  0.50400001928E-02 0. -1.
       -1   -1    0    0    0  501  0.00000000000E+00  0.00000000000E+00 -0.35747539513E+03  0.35747539517E+03  0.50400001928E-02 0.  1.
    10030    2    1    2    0    0  0.00000000000E+00  0.00000000000E+00  0.12193457889E+04  0.19342965792E+04  0.15015655508E+04 0.  0.
        3    1    3    3  502    0  0.70518761825E+03 -0.13313961475E+03  0.89383129458E+03  0.11462766365E+04  0.10100000352E+00 0. -1.
       -3    1    3    3    0  502 -0.70518761825E+03  0.13313961475E+03  0.32551449435E+03  0.78801994276E+03  0.10100000352E+00 0.  1.
</event>
<event>
 5   0  0.2734072E-04  0.1499554E+04  0.7818609E-02  0.8884750E-01
        2   -1    0    0  501    0  0.00000000000E+00  0.00000000000E+00  0.58310747041E+03  0.58310747042E+03  0.25500000920E-02 0. -1.
       -2   -1    0    0    0  501  0.00000000000E+00  0.00000000000E+00 -0.96408569323E+03  0.96408569323E+03  0.25500000920E-02 0.  1.
    10030    2    1    2    0    0  0.00000000000E+00  0.00000000000E+00 -0.38097822282E+03  0.15471931637E+04  0.14995540268E+04 0.  0.
        5    1    3    3  502    0  0.73017309961E+03  0.94700391586E+02 -0.44492685047E+02  0.73764666920E+03  0.46999998093E+01 0. -1.
       -5    1    3    3    0  502 -0.73017309961E+03 -0.94700391586E+02 -0.33648553777E+03  0.80954649446E+03  0.46999998093E+01 0.  1.
</event>
<event>
 5   0  0.1484251E-04  0.1502385E+04  0.7818609E-02  0.8882868E-01
       -1   -1    0    0    0  501  0.00000000000E+00  0.00000000000E+00  0.67330301894E+03  0.67330301896E+03  0.50400001928E-02 0. -1.
        1   -1    0    0  501    0  0.00000000000E+00  0.00000000000E+00 -0.83809276136E+03  0.83809276138E+03  0.50400001928E-02 0.  1.
    10030    2    1    2    0    0  0.00000000000E+00  0.00000000000E+00 -0.16478974242E+03  0.15113957803E+04  0.15023852853E+04 0.  0.
        5    1    3    3  502    0 -0.67291156243E+03  0.82226102829E+02 -0.40790492304E+03  0.79118873796E+03  0.46999998093E+01 0.  1.
       -5    1    3    3    0  502  0.67291156243E+03 -0.82226102829E+02  0.24311518062E+03  0.72020704238E+03  0.46999998093E+01 0. -1.
</event>
<event>
 5   0  0.2734072E-04  0.1485247E+04  0.7818609E-02  0.8894323E-01
       -2   -1    0    0    0  501  0.00000000000E+00  0.00000000000E+00  0.22719381899E+03  0.22719381901E+03  0.25500000920E-02 0. -1.
        2   -1    0    0  501    0  0.00000000000E+00  0.00000000000E+00 -0.24273969261E+04  0.24273969261E+04  0.25500000920E-02 0.  1.
    10030    2    1    2    0    0  0.00000000000E+00  0.00000000000E+00 -0.22002031071E+04  0.26545907451E+04  0.14852468857E+04 0.  0.
        5    1    3    3  502    0 -0.42975815053E+02  0.58403437203E+02  0.22082476186E+03  0.23247268142E+03  0.46999998093E+01 0. -1.
       -5    1    3    3    0  502  0.42975815053E+02 -0.58403437203E+02 -0.24210278690E+04  0.24221180637E+04  0.46999998093E+01 0.  1.
</event>
<event>
 5   0  0.2618901E-04  0.1404334E+04  0.7818609E-02  0.8950688E-01
       -2   -1    0    0    0  501  0.00000000000E+00  0.00000000000E+00  0.19281701569E+03  0.19281701571E+03  0.25500000920E-02 0. -1.
        2   -1    0    0  501    0  0.00000000000E+00  0.00000000000E+00 -0.25570261473E+04  0.25570261473E+04  0.25500000920E-02 0.  1.
    10030    2    1    2    0    0  0.00000000000E+00  0.00000000000E+00 -0.23642091316E+04  0.27498431630E+04  0.14043335085E+04 0.  0.
        1    1    3    3  502    0  0.51825488379E+03 -0.39393627536E+03 -0.16974425968E+04  0.18179893517E+04  0.50400001928E-02 0. -1.
       -1    1    3    3    0  502 -0.51825488379E+03  0.39393627536E+03 -0.66676653484E+03  0.93185381130E+03  0.50400001928E-02 0.  1.
</event>
<event>
 5   0  0.2641347E-04  0.1515824E+04  0.7818609E-02  0.8873998E-01
       -2   -1    0    0    0  501  0.00000000000E+00  0.00000000000E+00  0.14439881570E+04  0.14439881570E+04  0.25500000920E-02 0. -1.
        2   -1    0    0  501    0  0.00000000000E+00  0.00000000000E+00 -0.39780812567E+03  0.39780812567E+03  0.25500000920E-02 0.  1.
    10030    2    1    2    0    0  0.00000000000E+00  0.00000000000E+00  0.10461800313E+04  0.18417962827E+04  0.15158235019E+04 0.  0.
        4    1    3    3  502    0  0.25385536923E+03  0.71400782641E+03  0.50683903760E+03  0.91166723512E+03  0.12699999809E+01 0. -1.
       -4    1    3    3    0  502 -0.25385536923E+03 -0.71400782641E+03  0.53934099371E+03  0.93012904753E+03  0.12699999809E+01 0.  1.
</event>
<event>
 5   0  0.1474203E-04  0.1501945E+04  0.7818609E-02  0.8883161E-01
       -1   -1    0    0    0  501  0.00000000000E+00  0.00000000000E+00  0.60574896774E+03  0.60574896776E+03  0.50400001928E-02 0. -1.
        1   -1    0    0  501    0  0.00000000000E+00  0.00000000000E+00 -0.93101219266E+03  0.93101219267E+03  0.50400001928E-02 0.  1.
    10030    2    1    2    0    0  0.00000000000E+00  0.00000000000E+00 -0.32526322492E+03  0.15367611604E+04  0.15019449719E+04 0.  0.
        3    1    3    3  502    0  0.45469940149E+03 -0.42950458757E+03 -0.58787853465E+03  0.85838622902E+03  0.10100000352E+00 0.  1.
       -3    1    3    3    0  502 -0.45469940149E+03  0.42950458757E+03  0.26261530974E+03  0.67837493141E+03  0.10100000352E+00 0. -1.
</event>
<event>
 5   0  0.1427609E-04  0.1498374E+04  0.7818609E-02  0.8885535E-01
        1   -1    0    0  501    0  0.00000000000E+00  0.00000000000E+00  0.82880581530E+03  0.82880581532E+03  0.50400001928E-02 0. -1.
       -1   -1    0    0    0  501  0.00000000000E+00  0.00000000000E+00 -0.67721655907E+03  0.67721655909E+03  0.50400001928E-02 0.  1.
    10030    2    1    2    0    0  0.00000000000E+00  0.00000000000E+00  0.15158925623E+03  0.15060223744E+04  0.14983738150E+04 0.  0.
        4    1    3    3  502    0  0.62369839189E+03  0.36567805561E+03  0.27316217166E+03  0.77287729254E+03  0.12699999809E+01 0. -1.
       -4    1    3    3    0  502 -0.62369839189E+03 -0.36567805561E+03 -0.12157291543E+03  0.73314508187E+03  0.12699999809E+01 0.  1.
</event>
<event>
 5   0  0.2618901E-04  0.1515865E+04  0.7818609E-02  0.8873971E-01
       -2   -1    0    0    0  501  0.00000000000E+00  0.00000000000E+00  0.68990240835E+03  0.68990240836E+03  0.25500000920E-02 0.  1.
        2   -1    0    0  501    0  0.00000000000E+00  0.00000000000E+00 -0.83267136998E+03  0.83267136998E+03  0.25500000920E-02 0. -1.
    10030    2    1    2    0    0  0.00000000000E+00  0.00000000000E+00 -0.14276896163E+03  0.15225737783E+04  0.15158654076E+04 0.  0.
        1    1    3    3  502    0 -0.71706255089E+03 -0.24545502266E+03 -0.65432596782E+02  0.76072879188E+03  0.50400001928E-02 0.  1.
       -1    1    3    3    0  502  0.71706255089E+03  0.24545502266E+03 -0.77336364844E+02  0.76184498646E+03  0.50400001928E-02 0. -1.
</event>
<event>
 5   0  0.1426929E-04  0.1502543E+04  0.7818609E-02  0.8882763E-01
        1   -1    0    0  501    0  0.00000000000E+00  0.00000000000E+00  0.12563704641E+04  0.12563704641E+04  0.50400001928E-02 0. -1.
       -1   -1    0    0    0  501  0.00000000000E+00  0.00000000000E+00 -0.44923775478E+03  0.44923775481E+03  0.50400001928E-02 0.  1.
    10030    2    1    2    0    0  0.00000000000E+00  0.00000000000E+00  0.80713270931E+03  0.17056082189E+04  0.15025432393E+04 0.  0.
        1    1    3    3  502    0  0.21703114477E+03 -0.42605390965E+03 -0.25421670583E+03  0.54152616305E+03  0.50400001928E-02 0.  1.
       -1    1    3    3    0  502 -0.21703114477E+03  0.42605390965E+03  0.10613494151E+04  0.11640820559E+04  0.50400001928E-02 0. -1.
</event>
<event>
 5   0  0.2641347E-04  0.1500798E+04  0.7818609E-02  0.8883922E-01
        2   -1    0    0  501    0  0.00000000000E+00  0.00000000000E+00  0.15352629935E+04  0.15352629935E+04  0.25500000920E-02 0. -1.
       -2   -1    0    0    0  501  0.00000000000E+00  0.00000000000E+00 -0.36677689240E+03  0.36677689241E+03  0.25500000920E-02 0.  1.
    10030    2    1    2    0    0  0.00000000000E+00  0.00000000000E+00  0.11684861011E+04  0.19020398859E+04  0.15007984405E+04 0.  0.
        4    1    3    3  502    0  0.59033644907E+01  0.17160942005E+03  0.15100284828E+04  0.15197605977E+04  0.12699999809E+01 0. -1.
       -4    1    3    3    0  502 -0.59033644907E+01 -0.17160942005E+03 -0.34154238169E+03  0.38227928816E+03  0.12699999809E+01 0.  1.
</event>
<event>
 5   0  0.2734072E-04  0.1484648E+04  0.7818609E-02  0.8894727E-01
       -2   -1    0    0    0  501  0.00000000000E+00  0.00000000000E+00  0.35877149952E+03  0.35877149953E+03  0.25500000920E-02 0.  1.
        2   -1    0    0  501    0  0.00000000000E+00  0.00000000000E+00 -0.15359211087E+04  0.15359211087E+04  0.25500000920E-02 0. -1.
    10030    2    1    2    0    0  0.00000000000E+00  0.00000000000E+00 -0.11771496092E+04  0.18946926083E+04  0.14846477284E+04 0.  0.
        5    1    3    3  502    0  0.11603736896E+03 -0.33664404956E+03 -0.14197936623E+04  0.14637725303E+04  0.46999998093E+01 0. -1.
       -5    1    3    3    0  502 -0.11603736896E+03  0.33664404956E+03  0.24264405306E+03  0.43092007795E+03  0.46999998093E+01 0.  1.
</event>
<event>
 5   0  0.2734072E-04  0.1403272E+04  0.7818609E-02  0.8951454E-01
       -2   -1    0    0    0  501  0.00000000000E+00  0.00000000000E+00  0.30656169786E+03  0.30656169787E+03  0.25500000920E-02 0. -1.
        2   -1    0    0  501    0  0.00000000000E+00  0.00000000000E+00 -0.16058521340E+04  0.16058521340E+04  0.25500000920E-02 0.  1.
    10030    2    1    2    0    0  0.00000000000E+00  0.00000000000E+00 -0.12992904361E+04  0.19124138319E+04  0.14032715442E+04 0.  0.
        5    1    3    3  502    0 -0.86490893081E+02  0.60200337926E+03 -0.17288633360E+03  0.63229780766E+03  0.46999998093E+01 0. -1.
       -5    1    3    3    0  502  0.86490893081E+02 -0.60200337926E+03 -0.11264041025E+04  0.12801160242E+04  0.46999998093E+01 0.  1.
</event>
<event>
 5   0  0.1427609E-04  0.1498199E+04  0.7818609E-02  0.8885651E-01
       -1   -1    0    0    0  501  0.00000000000E+00  0.00000000000E+00  0.35021303582E+03  0.35021303586E+03  0.50400001928E-02 0.  1.
        1   -1    0    0  501    0  0.00000000000E+00  0.00000000000E+00 -0.16023112154E+04  0.16023112154E+04  0.50400001928E-02 0. -1.
    10030    2    1    2    0    0  0.00000000000E+00  0.00000000000E+00 -0.12520981796E+04  0.19525242513E+04  0.14981992860E+04 0.  0.
        4    1    3    3  502    0 -0.42579619259E+03  0.30657416599E+03 -0.13228399424E+04  0.14230942495E+04  0.12699999809E+01 0. -1.
       -4    1    3    3    0  502  0.42579619259E+03 -0.30657416599E+03  0.70741762797E+02  0.52943000178E+03  0.12699999809E+01 0.  1.
</event>
<event>
 5   0  0.1427609E-04  0.1502668E+04  0.7818609E-02  0.8882681E-01
       -1   -1    0    0    0  501  0.00000000000E+00  0.00000000000E+00  0.53203526786E+03  0.53203526788E+03  0.50400001928E-02 0.  1.
        1   -1    0    0  501    0  0.00000000000E+00  0.00000000000E+00 -0.10610244690E+04  0.10610244690E+04  0.50400001928E-02 0. -1.
    10030    2    1    2    0    0  0.00000000000E+00  0.00000000000E+00 -0.52898920112E+03  0.15930597369E+04  0.15026675448E+04 0.  0.
        4    1    3    3  502    0 -0.32143884562E+02  0.72291352158E+03 -0.47880224201E+03  0.86769256587E+03  0.12699999809E+01 0. -1.
       -4    1    3    3    0  502  0.32143884562E+02 -0.72291352158E+03 -0.50186959108E+02  0.72536717100E+03  0.12699999809E+01 0.  1.
</event>
<event>
 5   0  0.1426929E-04  0.1509837E+04  0.7818609E-02  0.8877938E-01
        1   -1    0    0  501    0  0.00000000000E+00  0.00000000000E+00  0.13244753332E+04  0.13244753332E+04  0.50400001928E-02 0. -1.
       -1   -1    0    0    0  501  0.00000000000E+00  0.00000000000E+00 -0.43028509297E+03  0.43028509300E+03  0.50400001928E-02 0.  1.
    10030    2    1    2    0    0  0.00000000000E+00  0.00000000000E+00  0.89419024018E+03  0.17547604262E+04  0.15098370666E+04 0.  0.
        1    1    3    3  502    0  0.92271447775E+02 -0.74425904170E+03  0.54752081547E+03  0.92855510586E+03  0.50400001928E-02 0.  1.
       -1    1    3    3    0  502 -0.92271447775E+02  0.74425904170E+03  0.34666942472E+03  0.82620532030E+03  0.50400001928E-02 0. -1.
</event>
<event>
 5   0  0.2734072E-04  0.1486077E+04  0.7818609E-02  0.8893765E-01
        2   -1    0    0  501    0  0.00000000000E+00  0.00000000000E+00  0.35037143244E+03  0.35037143245E+03  0.25500000920E-02 0. -1.
       -2   -1    0    0    0  501  0.00000000000E+00  0.00000000000E+00 -0.15757736866E+04  0.15757736866E+04  0.25500000920E-02 0.  1.
    10030    2    1    2    0    0  0.00000000000E+00  0.00000000000E+00 -0.12254022542E+04  0.19261451191E+04  0.14860768268E+04 0.  0.
        5    1    3    3  502    0  0.25384001305E+03 -0.66951412037E+03 -0.35542687910E+03  0.79939618837E+03  0.46999998093E+01 0. -1.
       -5    1    3    3    0  502 -0.25384001305E+03  0.66951412037E+03 -0.86997537505E+03  0.11267489307E+04  0.46999998093E+01 0.  1.
</event>
<event>
 5   0  0.2641347E-04  0.1501223E+04  0.7818609E-02  0.8883640E-01
        2   -1    0    0  501    0  0.00000000000E+00  0.00000000000E+00  0.51921562494E+03  0.51921562495E+03  0.25500000920E-02 0.  1.
       -2   -1    0    0    0  501  0.00000000000E+00  0.00000000000E+00 -0.10851323355E+04  0.10851323355E+04  0.25500000920E-02 0. -1.
    10030    2    1    2    0    0  0.00000000000E+00  0.00000000000E+00 -0.56591671056E+03  0.16043479604E+04  0.15012230530E+04 0.  0.
        4    1    3    3  502    0 -0.57508971030E+03  0.46176011833E+03 -0.13385556245E+03  0.74957955300E+03  0.12699999809E+01 0. -1.
       -4    1    3    3    0  502  0.57508971030E+03 -0.46176011833E+03 -0.43206114811E+03  0.85476840745E+03  0.12699999809E+01 0.  1.
</event>
<event>
 5   0  0.2618901E-04  0.1501317E+04  0.7818609E-02  0.8883577E-01
        2   -1    0    0  501    0  0.00000000000E+00  0.00000000000E+00  0.12187095077E+04  0.12187095077E+04  0.25500000920E-02 0. -1.
       -2   -1    0    0    0  501  0.00000000000E+00  0.00000000000E+00 -0.46236474461E+03  0.46236474462E+03  0.25500000920E-02 0.  1.
    10030    2    1    2    0    0  0.00000000000E+00  0.00000000000E+00  0.75634476312E+03  0.16810742524E+04  0.15013171688E+04 0.  0.
        1    1    3    3  502    0  0.27240914153E+03  0.65238926512E+03  0.66071323000E+03  0.96765720477E+03  0.50400001928E-02 0. -1.
       -1    1    3    3    0  502 -0.27240914153E+03 -0.65238926512E+03  0.95631533120E+02  0.71341704758E+03  0.50400001928E-02 0.  1.
</event>
<event>
 5   0  0.2618901E-04  0.1497848E+04  0.7818609E-02  0.8885885E-01
        2   -1    0    0  501    0  0.00000000000E+00  0.00000000000E+00  0.15303981176E+04  0.15303981176E+04  0.25500000920E-02 0. -1.
       -2   -1    0    0    0  501  0.00000000000E+00  0.00000000000E+00 -0.36649747757E+03  0.36649747758E+03  0.25500000920E-02 0.  1.
    10030    2    1    2    0    0  0.00000000000E+00  0.00000000000E+00  0.11639006400E+04  0.18968955952E+04  0.14978478558E+04 0.  0.
        1    1    3    3  502    0 -0.21837002050E+03  0.29010961950E+03  0.14114640943E+04  0.14574223638E+04  0.50400001928E-02 0. -1.
       -1    1    3    3    0  502  0.21837002050E+03 -0.29010961950E+03 -0.24756345423E+03  0.43947323135E+03  0.50400001928E-02 0.  1.
</event>
<event>
 5   0  0.1443750E-04  0.1498743E+04  0.7818609E-02  0.8885289E-01
       -1   -1    0    0    0  501  0.00000000000E+00  0.00000000000E+00  0.40073199133E+03  0.40073199136E+03  0.50400001928E-02 0. -1.
        1   -1    0    0  501    0  0.00000000000E+00  0.00000000000E+00 -0.14013292171E+04  0.14013292171E+04  0.50400001928E-02 0.  1.
    10030    2    1    2    0    0  0.00000000000E+00  0.00000000000E+00 -0.10005972258E+04  0.18020612085E+04  0.14987427367E+04 0.  0.
        2    1    3    3  502    0  0.38072860395E+03 -0.45376267000E+03 -0.10522202392E+04  0.12074859264E+04  0.25500000920E-02 0.  1.
       -2    1    3    3    0  502 -0.38072860395E+03  0.45376267000E+03  0.51623013458E+02  0.59457528210E+03  0.25500000920E-02 0. -1.
</event>
<event>
 5   0  0.1484251E-04  0.1500594E+04  0.7818609E-02  0.8884058E-01
       -1   -1    0    0    0  501  0.00000000000E+00  0.00000000000E+00  0.59812297644E+03  0.59812297646E+03  0.50400001928E-02 0. -1.
        1   -1    0    0  501    0  0.00000000000E+00  0.00000000000E+00 -0.94118647453E+03  0.94118647454E+03  0.50400001928E-02 0.  1.
    10030    2    1    2    0    0  0.00000000000E+00  0.00000000000E+00 -0.34306349809E+03  0.15393094510E+04  0.15005935566E+04 0.  0.
        5    1    3    3  502    0 -0.98469030613E+02 -0.80539819170E+02  0.58696447479E+03  0.60060985433E+03  0.46999998093E+01 0. -1.
       -5    1    3    3    0  502  0.98469030613E+02  0.80539819170E+02 -0.93002797288E+03  0.93869959667E+03  0.46999998093E+01 0.  1.
</event>
<event>
 5   0  0.2734072E-04  0.1498745E+04  0.7818609E-02  0.8885288E-01
        2   -1    0    0  501    0  0.00000000000E+00  0.00000000000E+00  0.96243854479E+03  0.96243854479E+03  0.25500000920E-02 0.  1.
       -2   -1    0    0    0  501  0.00000000000E+00  0.00000000000E+00 -0.58347508996E+03  0.58347508996E+03  0.25500000920E-02 0. -1.
    10030    2    1    2    0    0  0.00000000000E+00  0.00000000000E+00  0.37896345483E+03  0.15459136348E+04  0.14987446968E+04 0.  0.
        5    1    3    3  502    0 -0.22758862848E+02 -0.68951943925E+03 -0.11226897211E+03  0.69898600490E+03  0.46999998093E+01 0.  1.
       -5    1    3    3    0  502  0.22758862848E+02  0.68951943925E+03  0.49123242694E+03  0.84692762986E+03  0.46999998093E+01 0. -1.
</event>
<event>
 5   0  0.1427609E-04  0.1489255E+04  0.7818609E-02  0.8891630E-01
       -1   -1    0    0    0  501  0.00000000000E+00  0.00000000000E+00  0.78994142474E+03  0.78994142476E+03  0.50400001928E-02 0. -1.
        1   -1    0    0  501    0  0.00000000000E+00  0.00000000000E+00 -0.70191265076E+03  0.70191265078E+03  0.50400001928E-02 0.  1.
    10030    2    1    2    0    0  0.00000000000E+00  0.00000000000E+00  0.88028773981E+02  0.14918540755E+04  0.14892546853E+04 0.  0.
        4    1    3    3  502    0 -0.45560988077E+02  0.48043904044E+03  0.61207629364E+03  0.77944626328E+03  0.12699999809E+01 0. -1.
       -4    1    3    3    0  502  0.45560988077E+02 -0.48043904044E+03 -0.52404751965E+03  0.71240781226E+03  0.12699999809E+01 0.  1.
</event>
<event>
 5   0  0.2696040E-04  0.1506330E+04  0.7818609E-02  0.8880255E-01
        2   -1    0    0  501    0  0.00000000000E+00  0.00000000000E+00  0.17951396611E+04  0.17951396611E+04  0.25500000920E-02 0.  1.
       -2   -1    0    0    0  501  0.00000000000E+00  0.00000000000E+00 -0.31599623425E+03  0.31599623426E+03  0.25500000920E-02 0. -1.
    10030    2    1    2    0    0  0.00000000000E+00  0.00000000000E+00  0.14791434268E+04  0.21111358953E+04  0.15063298083E+04 0.  0.
        2    1    3    3  502    0  0.16578983304E+03 -0.29475673841E+03 -0.20360328265E+03  0.39474308137E+03  0.25500000920E-02 0. -1.
       -2    1    3    3    0  502 -0.16578983304E+03  0.29475673841E+03  0.16827467095E+04  0.17163928140E+04  0.25500000920E-02 0.  1.
</event>
<event>
 5   0  0.1426929E-04  0.1500775E+04  0.7818609E-02  0.8883938E-01
        1   -1    0    0  501    0  0.00000000000E+00  0.00000000000E+00  0.93337037816E+03  0.93337037817E+03  0.50400001928E-02 0. -1.
       -1   -1    0    0    0  501  0.00000000000E+00  0.00000000000E+00 -0.60327731534E+03  0.60327731536E+03  0.50400001928E-02 0.  1.
    10030    2    1    2    0    0  0.00000000000E+00  0.00000000000E+00  0.33009306282E+03  0.15366476935E+04  0.15007747012E+04 0.  0.
        1    1    3    3  502    0  0.87754991614E+02  0.56851297471E+03 -0.32831454689E+03  0.66234310043E+03  0.50400001928E-02 0.  1.
       -1    1    3    3    0  502 -0.87754991614E+02 -0.56851297471E+03  0.65840760971E+03  0.87430459310E+03  0.50400001928E-02 0. -1.
</event>
<event>
 5   0  0.2646718E-04  0.1509143E+04  0.7818609E-02  0.8878395E-01
       -2   -1    0    0    0  501  0.00000000000E+00  0.00000000000E+00  0.43092899549E+03  0.43092899550E+03  0.25500000920E-02 0.  1.
        2   -1    0    0  501    0  0.00000000000E+00  0.00000000000E+00 -0.13212811186E+04  0.13212811186E+04  0.25500000920E-02 0. -1.
    10030    2    1    2    0    0  0.00000000000E+00  0.00000000000E+00 -0.89035212313E+03  0.17522101141E+04  0.15091432605E+04 0.  0.
        3    1    3    3  502    0  0.16018206264E+03  0.68709765669E+03 -0.75589185439E+03  0.10339893562E+04  0.10100000352E+00 0. -1.
       -3    1    3    3    0  502 -0.16018206264E+03 -0.68709765669E+03 -0.13446026874E+03  0.71822075791E+03  0.10100000352E+00 0.  1.
</event>
<event>
 5   0  0.2734072E-04  0.1506333E+04  0.7818609E-02  0.8880253E-01
        2   -1    0    0  501    0  0.00000000000E+00  0.00000000000E+00  0.17850882417E+04  0.17850882417E+04  0.25500000920E-02 0.  1.
       -2   -1    0    0    0  501  0.00000000000E+00  0.00000000000E+00 -0.31777684013E+03  0.31777684014E+03  0.25500000920E-02 0. -1.
    10030    2    1    2    0    0  0.00000000000E+00  0.00000000000E+00  0.14673114016E+04  0.21028650818E+04  0.15063328992E+04 0.  0.
        5    1    3    3  502    0  0.34918084310E+03 -0.66303182673E+03  0.62826668374E+03  0.97789548539E+03  0.46999998093E+01 0.  1.
       -5    1    3    3    0  502 -0.34918084310E+03  0.66303182673E+03  0.83904471781E+03  0.11249695964E+04  0.46999998093E+01 0. -1.
</event>
<event>
 5   0  0.1426929E-04  0.1505094E+04  0.7818609E-02  0.8881072E-01
        1   -1    0    0  501    0  0.00000000000E+00  0.00000000000E+00  0.66602197477E+03  0.66602197479E+03  0.50400001928E-02 0. -1.
       -1   -1    0    0    0  501  0.00000000000E+00  0.00000000000E+00 -0.85031321729E+03  0.85031321731E+03  0.50400001928E-02 0.  1.
    10030    2    1    2    0    0  0.00000000000E+00  0.00000000000E+00 -0.18429124252E+03  0.15163351921E+04  0.15050943999E+04 0.  0.
        1    1    3    3  502    0  0.57485392023E+03 -0.40640452748E+02  0.39543021718E+03  0.69890895880E+03  0.50400001928E-02 0. -1.
       -1    1    3    3    0  502 -0.57485392023E+03  0.40640452748E+02 -0.57972145970E+03  0.81742623329E+03  0.50400001928E-02 0.  1.
</event>
<event>
 5   0  0.1427609E-04  0.1498175E+04  0.7818609E-02  0.8885667E-01
        1   -1    0    0  501    0  0.00000000000E+00  0.00000000000E+00  0.21570491748E+04  0.21570491748E+04  0.50400001928E-02 0. -1.
       -1   -1    0    0    0  501  0.00000000000E+00  0.00000000000E+00 -0.26013886600E+03  0.26013886605E+03  0.50400001928E-02 0.  1.
    10030    2    1    2    0    0  0.00000000000E+00  0.00000000000E+00  0.18969103088E+04  0.24171880409E+04  0.14981753253E+04 0.  0.
        4    1    3    3  502    0 -0.17424842512E+03 -0.30824316398E+03 -0.11659157556E+03  0.37278890835E+03  0.12699999809E+01 0.  1.
       -4    1    3    3    0  502  0.17424842512E+03  0.30824316398E+03  0.20135018844E+04  0.20443991325E+04  0.12699999809E+01 0. -1.
</event>
<event>
 5   0  0.1484251E-04  0.1499568E+04  0.7818609E-02  0.8884741E-01
       -1   -1    0    0    0  501  0.00000000000E+00  0.00000000000E+00  0.75115441879E+03  0.75115441881E+03  0.50400001928E-02 0.  1.
        1   -1    0    0  501    0  0.00000000000E+00  0.00000000000E+00 -0.74841558807E+03  0.74841558809E+03  0.50400001928E-02 0. -1.
    10030    2    1    2    0    0  0.00000000000E+00  0.00000000000E+00  0.27388307196E+01  0.14995700069E+04  0.14995675058E+04 0.  0.
        5    1    3    3  502    0  0.53512188220E+03  0.32799744045E+03  0.41151133895E+03  0.75053409105E+03  0.46999998093E+01 0. -1.
       -5    1    3    3    0  502 -0.53512188220E+03 -0.32799744045E+03 -0.40877250823E+03  0.74903591585E+03  0.46999998093E+01 0.  1.
</event>
<event>
 5   0  0.1484251E-04  0.1504517E+04  0.7818609E-02  0.8881455E-01
        1   -1    0    0  501    0  0.00000000000E+00  0.00000000000E+00  0.32179898156E+03  0.32179898160E+03  0.50400001928E-02 0.  1.
       -1   -1    0    0    0  501  0.00000000000E+00  0.00000000000E+00 -0.17585281993E+04  0.17585281993E+04  0.50400001928E-02 0. -1.
    10030    2    1    2    0    0  0.00000000000E+00  0.00000000000E+00 -0.14367292177E+04  0.20803271809E+04  0.15045166448E+04 0.  0.
        5    1    3    3  502    0 -0.59820641836E+03  0.13049688419E+03 -0.11408196902E+03  0.62282994581E+03  0.46999998093E+01 0.  1.
       -5    1    3    3    0  502  0.59820641836E+03 -0.13049688419E+03 -0.13226472487E+04  0.14574972351E+04  0.46999998093E+01 0. -1.
</event>
<event>
 5   0  0.2734072E-04  0.1489276E+04  0.7818609E-02  0.8891616E-01
        2   -1    0    0  501    0  0.00000000000E+00  0.00000000000E+00  0.78682879032E+03  0.78682879032E+03  0.25500000920E-02 0.  1.
       -2   -1    0    0    0  501  0.00000000000E+00  0.00000000000E+00 -0.70470966888E+03  0.70470966888E+03  0.25500000920E-02 0. -1.
    10030    2    1    2    0    0  0.00000000000E+00  0.00000000000E+00  0.82119121439E+02  0.14915384592E+04  0.14892761413E+04 0.  0.
        5    1    3    3  502    0  0.72644884374E+03  0.15737814985E+02 -0.12193952179E+03  0.73679504502E+03  0.46999998093E+01 0. -1.
       -5    1    3    3    0  502 -0.72644884374E+03 -0.15737814985E+02  0.20405864322E+03  0.75474341419E+03  0.46999998093E+01 0.  1.
</event>
<event>
 5   0  0.2734072E-04  0.1497696E+04  0.7818609E-02  0.8885987E-01
       -2   -1    0    0    0  501  0.00000000000E+00  0.00000000000E+00  0.52002801334E+03  0.52002801334E+03  0.25500000920E-02 0. -1.
        2   -1    0    0  501    0  0.00000000000E+00  0.00000000000E+00 -0.10783516772E+04  0.10783516772E+04  0.25500000920E-02 0.  1.
    10030    2    1    2    0    0  0.00000000000E+00  0.00000000000E+00 -0.55832366383E+03  0.15983796905E+04  0.14976956705E+04 0.  0.
        5    1    3    3  502    0  0.83401382585E+02 -0.61446037223E+03 -0.72718533472E+03  0.95568715628E+03  0.46999998093E+01 0.  1.
       -5    1    3    3    0  502 -0.83401382585E+02  0.61446037223E+03  0.16886167089E+03  0.64269253423E+03  0.46999998093E+01 0. -1.
</event>
<event>
 5   0  0.2646718E-04  0.1494912E+04  0.7818609E-02  0.8887844E-01
        2   -1    0    0  501    0  0.00000000000E+00  0.00000000000E+00  0.16789671616E+04  0.16789671616E+04  0.25500000920E-02 0.  1.
       -2   -1    0    0    0  501  0.00000000000E+00  0.00000000000E+00 -0.33275828401E+03  0.33275828402E+03  0.25500000920E-02 0. -1.
    10030    2    1    2    0    0  0.00000000000E+00  0.00000000000E+00  0.13462088776E+04  0.20117254457E+04  0.14949116785E+04 0.  0.
        3    1    3    3  502    0 -0.37478162168E+03 -0.37561726073E+02 -0.19570883179E+03  0.42446920296E+03  0.10100000352E+00 0. -1.
       -3    1    3    3    0  502  0.37478162168E+03  0.37561726073E+02  0.15419177094E+04  0.15872562427E+04  0.10100000352E+00 0.  1.
</event>
<event>
 5   0  0.2734072E-04  0.1491809E+04  0.7818609E-02  0.8889918E-01
       -2   -1    0    0    0  501  0.00000000000E+00  0.00000000000E+00  0.56388582839E+03  0.56388582839E+03  0.25500000920E-02 0.  1.
        2   -1    0    0  501    0  0.00000000000E+00  0.00000000000E+00 -0.98667808649E+03  0.98667808649E+03  0.25500000920E-02 0. -1.
    10030    2    1    2    0    0  0.00000000000E+00  0.00000000000E+00 -0.42279225810E+03  0.15505639149E+04  0.14918093580E+04 0.  0.
        5    1    3    3  502    0 -0.23782135076E+03  0.52377204516E+02  0.52138806578E+03  0.57547369320E+03  0.46999998093E+01 0.  1.
       -5    1    3    3    0  502  0.23782135076E+03 -0.52377204516E+02 -0.94418032388E+03  0.97509022168E+03  0.46999998093E+01 0. -1.
</event>
<event>
 5   0  0.1443750E-04  0.1498893E+04  0.7818609E-02  0.8885190E-01
       -1   -1    0    0    0  501  0.00000000000E+00  0.00000000000E+00  0.66801456186E+03  0.66801456188E+03  0.50400001928E-02 0.  1.
        1   -1    0    0  501    0  0.00000000000E+00  0.00000000000E+00 -0.84080468632E+03  0.84080468634E+03  0.50400001928E-02 0. -1.
    10030    2    1    2    0    0  0.00000000000E+00  0.00000000000E+00 -0.17279012446E+03  0.15088192482E+04  0.14988926235E+04 0.  0.
        2    1    3    3  502    0  0.21062127924E+03  0.71210030777E+03 -0.18816656538E+03  0.76606450637E+03  0.25500000920E-02 0.  1.
       -2    1    3    3    0  502 -0.21062127924E+03 -0.71210030777E+03  0.15376440922E+02  0.74275474185E+03  0.25500000920E-02 0. -1.
</event>
<event>
 5   0  0.2646718E-04  0.1498245E+04  0.7818609E-02  0.8885621E-01
        2   -1    0    0  501    0  0.00000000000E+00  0.00000000000E+00  0.10202685638E+04  0.10202685638E+04  0.25500000920E-02 0. -1.
       -2   -1    0    0    0  501  0.00000000000E+00  0.00000000000E+00 -0.55003617644E+03  0.55003617645E+03  0.25500000920E-02 0.  1.
    10030    2    1    2    0    0  0.00000000000E+00  0.00000000000E+00  0.47023238734E+03  0.15703047402E+04  0.14982451332E+04 0.  0.
        3    1    3    3  502    0 -0.17428378088E+03  0.34158439166E+03  0.90959661498E+03  0.98712752220E+03  0.10100000352E+00 0. -1.
       -3    1    3    3    0  502  0.17428378088E+03 -0.34158439166E+03 -0.43936422764E+03  0.58317721803E+03  0.10100000352E+00 0.  1.
</event>
<event>
 5   0  0.2641347E-04  0.1501385E+04  0.7818609E-02  0.8883532E-01
        2   -1    0    0  501    0  0.00000000000E+00  0.00000000000E+00  0.21896222719E+04  0.21896222719E+04  0.25500000920E-02 0.  1.
       -2   -1    0    0    0  501  0.00000000000E+00  0.00000000000E+00 -0.25736821473E+03  0.25736821474E+03  0.25500000920E-02 0. -1.
    10030    2    1    2    0    0  0.00000000000E+00  0.00000000000E+00  0.19322540571E+04  0.24469904866E+04  0.15013849274E+04 0.  0.
        4    1    3    3  502    0 -0.71157198772E+03 -0.13494323893E+02  0.13553126390E+04  0.15308137551E+04  0.12699999809E+01 0. -1.
       -4    1    3    3    0  502  0.71157198772E+03  0.13494323893E+02  0.57694141815E+03  0.91617673152E+03  0.12699999809E+01 0.  1.
</event>
<event>
 5   0  0.2646718E-04  0.1511161E+04  0.7818609E-02  0.8877065E-01
       -2   -1    0    0    0  501  0.00000000000E+00  0.00000000000E+00  0.45036016860E+03  0.45036016861E+03  0.25500000920E-02 0. -1.
        2   -1    0    0  501    0  0.00000000000E+00  0.00000000000E+00 -0.12676558003E+04  0.12676558003E+04  0.25500000920E-02 0.  1.
    10030    2    1    2    0    0  0.00000000000E+00  0.00000000000E+00 -0.81729563168E+03  0.17180159689E+04  0.15111607194E+04 0.  0.
        3    1    3    3  502    0 -0.56866300353E+03  0.25406149655E+03  0.77663719263E+02  0.62765955668E+03  0.10100000352E+00 0. -1.
       -3    1    3    3    0  502  0.56866300353E+03 -0.25406149655E+03 -0.89495935094E+03  0.10903564122E+04  0.10100000352E+00 0.  1.
</event>
<event>
 5   0  0.1443750E-04  0.1477572E+04  0.7818609E-02  0.8899505E-01
        1   -1    0    0  501    0  0.00000000000E+00  0.00000000000E+00  0.42922222674E+03  0.42922222677E+03  0.50400001928E-02 0. -1.
       -1   -1    0    0    0  501  0.00000000000E+00  0.00000000000E+00 -0.12716142375E+04  0.12716142375E+04  0.50400001928E-02 0.  1.
    10030    2    1    2    0    0  0.00000000000E+00  0.00000000000E+00 -0.84239201076E+03  0.17008364643E+04  0.14775724613E+04 0.  0.
        2    1    3    3  502    0  0.10822726723E+03 -0.34297747590E+03  0.32165135634E+03  0.48250003667E+03  0.25500000920E-02 0. -1.
       -2    1    3    3    0  502 -0.10822726723E+03  0.34297747590E+03 -0.11640433671E+04  0.12183364276E+04  0.25500000920E-02 0.  1.
</event>
<event>
 5   0  0.2696040E-04  0.1501388E+04  0.7818609E-02  0.8883530E-01
       -2   -1    0    0    0  501  0.00000000000E+00  0.00000000000E+00  0.53754399817E+03  0.53754399817E+03  0.25500000920E-02 0.  1.
        2   -1    0    0  501    0  0.00000000000E+00  0.00000000000E+00 -0.10483641204E+04  0.10483641204E+04  0.25500000920E-02 0. -1.
    10030    2    1    2    0    0  0.00000000000E+00  0.00000000000E+00 -0.51082012223E+03  0.15859081186E+04  0.15013884785E+04 0.  0.
        2    1    3    3  502    0  0.16492164324E+03 -0.74691576433E+02  0.51413776523E+03  0.54508313278E+03  0.25500000920E-02 0.  1.
       -2    1    3    3    0  502 -0.16492164324E+03  0.74691576433E+02 -0.10249578875E+04  0.10408249858E+04  0.25500000920E-02 0. -1.
</event>
<event>
 5   0  0.1427609E-04  0.1485770E+04  0.7818609E-02  0.8893971E-01
       -1   -1    0    0    0  501  0.00000000000E+00  0.00000000000E+00  0.93229629801E+03  0.93229629802E+03  0.50400001928E-02 0.  1.
        1   -1    0    0  501    0  0.00000000000E+00  0.00000000000E+00 -0.59195585166E+03  0.59195585168E+03  0.50400001928E-02 0. -1.
    10030    2    1    2    0    0  0.00000000000E+00  0.00000000000E+00  0.34034044634E+03  0.15242521497E+04  0.14857701695E+04 0.  0.
        4    1    3    3  502    0  0.68982264791E+03 -0.19258155393E+03 -0.32256570845E+02  0.71692749964E+03  0.12699999809E+01 0.  1.
       -4    1    3    3    0  502 -0.68982264791E+03  0.19258155393E+03  0.37259701719E+03  0.80732465006E+03  0.12699999809E+01 0. -1.
</event>
<event>
 5   0  0.1427609E-04  0.1502357E+04  0.7818609E-02  0.8882887E-01
       -1   -1    0    0    0  501  0.00000000000E+00  0.00000000000E+00  0.36338042426E+03  0.36338042430E+03  0.50400001928E-02 0.  1.
        1   -1    0    0  501    0  0.00000000000E+00  0.00000000000E+00 -0.15528339768E+04  0.15528339769E+04  0.50400001928E-02 0. -1.
    10030    2    1    2    0    0  0.00000000000E+00  0.00000000000E+00 -0.11894535526E+04  0.19162144012E+04  0.15023574400E+04 0.  0.
        4    1    3    3  502    0  0.32332489832E+02  0.62752672989E+03 -0.69714564954E+02  0.63221588092E+03  0.12699999809E+01 0.  1.
       -4    1    3    3    0  502 -0.32332489832E+02 -0.62752672989E+03 -0.11197389876E+04  0.12839985202E+04  0.12699999809E+01 0. -1.
</event>
<event>
 5   0  0.2641347E-04  0.1517140E+04  0.7818609E-02  0.8873134E-01
       -2   -1    0    0    0  501  0.00000000000E+00  0.00000000000E+00  0.46617747111E+03  0.46617747112E+03  0.25500000920E-02 0.  1.
        2   -1    0    0  501    0  0.00000000000E+00  0.00000000000E+00 -0.12343551941E+04  0.12343551942E+04  0.25500000920E-02 0. -1.
    10030    2    1    2    0    0  0.00000000000E+00  0.00000000000E+00 -0.76817772304E+03  0.17005326653E+04  0.15171401819E+04 0.  0.
        4    1    3    3  502    0  0.22060488345E+03 -0.38637508266E+00 -0.11976042798E+04  0.12177537879E+04  0.12699999809E+01 0. -1.
       -4    1    3    3    0  502 -0.22060488345E+03  0.38637508266E+00  0.42942655679E+03  0.48277887740E+03  0.12699999809E+01 0.  1.
</event>
<event>
 5   0  0.1474203E-04  0.1497534E+04  0.7818609E-02  0.8886095E-01
       -1   -1    0    0    0  501  0.00000000000E+00  0.00000000000E+00  0.69785264686E+03  0.69785264688E+03  0.50400001928E-02 0.  1.
        1   -1    0    0  501    0  0.00000000000E+00  0.00000000000E+00 -0.80339568831E+03  0.80339568833E+03  0.50400001928E-02 0. -1.
    10030    2    1    2    0    0  0.00000000000E+00  0.00000000000E+00 -0.10554304145E+03  0.15012483352E+04  0.14975337159E+04 0.  0.
        3    1    3    3  502    0  0.19198024664E+03 -0.20451839864E+02  0.67247105210E+03  0.69963706232E+03  0.10100000352E+00 0.  1.
       -3    1    3    3    0  502 -0.19198024664E+03  0.20451839864E+02 -0.77801409355E+03  0.80161127289E+03  0.10100000352E+00 0. -1.
</event>
<event>
 5   0  0.1004313E-04  0.1502036E+04  0.7818609E-02  0.8883100E-01
       -4   -1    0    0    0  501  0.00000000000E+00  0.00000000000E+00  0.60106712444E+03  0.60106846613E+03  0.12699999809E+01 0. -1.
        4   -1    0    0  501    0  0.00000000000E+00  0.00000000000E+00 -0.93837457164E+03  0.93837543105E+03  0.12699999809E+01 0.  1.
    10030    2    1    2    0    0  0.00000000000E+00  0.00000000000E+00 -0.33730744720E+03  0.15394438972E+04  0.15020356849E+04 0.  0.
        3    1    3    3  502    0 -0.87042497037E+02  0.37133712428E+03  0.49442111154E+03  0.62443566674E+03  0.10100000352E+00 0. -1.
       -3    1    3    3    0  502  0.87042497037E+02 -0.37133712428E+03 -0.83172855874E+03  0.91500823045E+03  0.10100000352E+00 0.  1.
</event>
<event>
 5   0  0.2618901E-04  0.1492221E+04  0.7818609E-02  0.8889642E-01
        2   -1    0    0  501    0  0.00000000000E+00  0.00000000000E+00  0.14615438996E+04  0.14615438996E+04  0.25500000920E-02 0. -1.
       -2   -1    0    0    0  501  0.00000000000E+00  0.00000000000E+00 -0.38088568140E+03  0.38088568141E+03  0.25500000920E-02 0.  1.
    10030    2    1    2    0    0  0.00000000000E+00  0.00000000000E+00  0.10806582182E+04  0.18424295810E+04  0.14922213563E+04 0.  0.
        1    1    3    3  502    0  0.40908738575E+03 -0.15135687045E+03 -0.20706055091E+03  0.48284103304E+03  0.50400001928E-02 0.  1.
       -1    1    3    3    0  502 -0.40908738575E+03  0.15135687045E+03  0.12877187691E+04  0.13595885479E+04  0.50400001928E-02 0. -1.
</event>
<event>
 5   0  0.2646718E-04  0.1506268E+04  0.7818609E-02  0.8880295E-01
       -2   -1    0    0    0  501  0.00000000000E+00  0.00000000000E+00  0.43655231685E+03  0.43655231686E+03  0.25500000920E-02 0. -1.
        2   -1    0    0  501    0  0.00000000000E+00  0.00000000000E+00 -0.12992961956E+04  0.12992961956E+04  0.25500000920E-02 0.  1.
    10030    2    1    2    0    0  0.00000000000E+00  0.00000000000E+00 -0.86274387875E+03  0.17358485125E+04  0.15062679237E+04 0.  0.
        3    1    3    3  502    0  0.55588686187E+03 -0.28476031162E+03 -0.91636299545E+03  0.11089724018E+04  0.10100000352E+00 0.  1.
       -3    1    3    3    0  502 -0.55588686187E+03  0.28476031162E+03  0.53619116699E+02  0.62687611069E+03  0.10100000352E+00 0. -1.
</event>
<event>
 5   0  0.2641347E-04  0.1488207E+04  0.7818609E-02  0.8892333E-01
       -2   -1    0    0    0  501  0.00000000000E+00  0.00000000000E+00  0.87554783217E+03  0.87554783217E+03  0.25500000920E-02 0.  1.
        2   -1    0    0  501    0  0.00000000000E+00  0.00000000000E+00 -0.63239287769E+03  0.63239287769E+03  0.25500000920E-02 0. -1.
    10030    2    1    2    0    0  0.00000000000E+00  0.00000000000E+00  0.24315495448E+03  0.15079407099E+04  0.14882072613E+04 0.  0.
        4    1    3    3  502    0  0.68391156106E+03  0.28715538170E+03  0.18148302313E+03  0.76363010494E+03  0.12699999809E+01 0.  1.
       -4    1    3    3    0  502 -0.68391156106E+03 -0.28715538170E+03  0.61671931349E+02  0.74431060492E+03  0.12699999809E+01 0. -1.
</event>
<event>
 5   0  0.1426929E-04  0.1514857E+04  0.7818609E-02  0.8874633E-01
       -1   -1    0    0    0  501  0.00000000000E+00  0.00000000000E+00  0.47784988103E+03  0.47784988106E+03  0.50400001928E-02 0. -1.
        1   -1    0    0  501    0  0.00000000000E+00  0.00000000000E+00 -0.12005819494E+04  0.12005819494E+04  0.50400001928E-02 0.  1.
    10030    2    1    2    0    0  0.00000000000E+00  0.00000000000E+00 -0.72273206840E+03  0.16784318305E+04  0.15148570120E+04 0.  0.
        1    1    3    3  502    0  0.12079442575E+03 -0.74772735979E+03 -0.36494668588E+03  0.84075774242E+03  0.50400001928E-02 0.  1.
       -1    1    3    3    0  502 -0.12079442575E+03  0.74772735979E+03 -0.35778538252E+03  0.83767408808E+03  0.50400001928E-02 0. -1.
</event>
<event>
 5   0  0.2641347E-04  0.1499806E+04  0.7818609E-02  0.8884582E-01
        2   -1    0    0  501    0  0.00000000000E+00  0.00000000000E+00  0.71924978249E+03  0.71924978250E+03  0.25500000920E-02 0. -1.
       -2   -1    0    0    0  501  0.00000000000E+00  0.00000000000E+00 -0.78186300900E+03  0.78186300901E+03  0.25500000920E-02 0.  1.
    10030    2    1    2    0    0  0.00000000000E+00  0.00000000000E+00 -0.62613226509E+02  0.15011127915E+04  0.14998063864E+04 0.  0.
        4    1    3    3  502    0  0.43330693289E+02  0.54385775183E+02 -0.77862816294E+03  0.78172807967E+03  0.12699999809E+01 0.  1.
       -4    1    3    3    0  502 -0.43330693289E+02 -0.54385775183E+02  0.71601493643E+03  0.71938471183E+03  0.12699999809E+01 0. -1.
</event>
<event>
 5   0  0.1474203E-04  0.1499216E+04  0.7818609E-02  0.8884975E-01
        1   -1    0    0  501    0  0.00000000000E+00  0.00000000000E+00  0.95218966617E+03  0.95218966619E+03  0.50400001928E-02 0. -1.
       -1   -1    0    0    0  501  0.00000000000E+00  0.00000000000E+00 -0.59012609560E+03  0.59012609562E+03  0.50400001928E-02 0.  1.
    10030    2    1    2    0    0  0.00000000000E+00  0.00000000000E+00  0.36206357058E+03  0.15423157618E+04  0.14992157550E+04 0.  0.
        3    1    3    3  502    0 -0.36157418505E+03 -0.33472438156E+03 -0.40012969948E+03  0.63472835884E+03  0.10100000352E+00 0.  1.
       -3    1    3    3    0  502  0.36157418505E+03  0.33472438156E+03  0.76219327005E+03  0.90758740297E+03  0.10100000352E+00 0. -1.
</event>
<event>
 5   0  0.2646718E-04  0.1502652E+04  0.7818609E-02  0.8882691E-01
       -2   -1    0    0    0  501  0.00000000000E+00  0.00000000000E+00  0.31871713102E+03  0.31871713103E+03  0.25500000920E-02 0.  1.
        2   -1    0    0  501    0  0.00000000000E+00  0.00000000000E+00 -0.17711337081E+04  0.17711337081E+04  0.25500000920E-02 0. -1.
    10030    2    1    2    0    0  0.00000000000E+00  0.00000000000E+00 -0.14524165771E+04  0.20898508391E+04  0.15026518614E+04 0.  0.
        3    1    3    3  502    0 -0.34289109675E+03 -0.11708290092E+03  0.18917950559E+03  0.40874393629E+03  0.10100000352E+00 0.  1.
       -3    1    3    3    0  502  0.34289109675E+03  0.11708290092E+03 -0.16415960827E+04  0.16811069028E+04  0.10100000352E+00 0. -1.
</event>
<event>
 5   0  0.2646718E-04  0.1500501E+04  0.7818609E-02  0.8884120E-01
        2   -1    0    0  501    0  0.00000000000E+00  0.00000000000E+00  0.15198194442E+04  0.15198194442E+04  0.25500000920E-02 0.  1.
       -2   -1    0    0    0  501  0.00000000000E+00  0.00000000000E+00 -0.37035681715E+03  0.37035681716E+03  0.25500000920E-02 0. -1.
    10030    2    1    2    0    0  0.00000000000E+00  0.00000000000E+00  0.11494626270E+04  0.18901762613E+04  0.15005005725E+04 0.  0.
        3    1    3    3  502    0 -0.74437206454E+03  0.76912350564E+02  0.64221865884E+03  0.98612884356E+03  0.10100000352E+00 0.  1.
       -3    1    3    3    0  502  0.74437206454E+03 -0.76912350564E+02  0.50724396819E+03  0.90404741779E+03  0.10100000352E+00 0. -1.
</event>
<event>
 5   0  0.1427609E-04  0.1500668E+04  0.7818609E-02  0.8884009E-01
        1   -1    0    0  501    0  0.00000000000E+00  0.00000000000E+00  0.18057037333E+04  0.18057037333E+04  0.50400001928E-02 0. -1.
       -1   -1    0    0    0  501  0.00000000000E+00  0.00000000000E+00 -0.31179033233E+03  0.31179033237E+03  0.50400001928E-02 0.  1.
    10030    2    1    2    0    0  0.00000000000E+00  0.00000000000E+00  0.14939134010E+04  0.21174940657E+04  0.15006678076E+04 0.  0.
        4    1    3    3  502    0  0.13249623101E+03  0.37453631857E+03 -0.15120489389E+03  0.42508497739E+03  0.12699999809E+01 0.  1.
       -4    1    3    3    0  502 -0.13249623101E+03 -0.37453631857E+03  0.16451182949E+04  0.16924090883E+04  0.12699999809E+01 0. -1.
</event>
<event>
 5   0  0.1426929E-04  0.1501222E+04  0.7818609E-02  0.8883640E-01
       -1   -1    0    0    0  501  0.00000000000E+00  0.00000000000E+00  0.38249749871E+03  0.38249749875E+03  0.50400001928E-02 0.  1.
        1   -1    0    0  501    0  0.00000000000E+00  0.00000000000E+00 -0.14729958513E+04  0.14729958513E+04  0.50400001928E-02 0. -1.
    10030    2    1    2    0    0  0.00000000000E+00  0.00000000000E+00 -0.10904983526E+04  0.18554933500E+04  0.15012224735E+04 0.  0.
        1    1    3    3  502    0 -0.58716473365E+03  0.44128138946E+03 -0.35406796194E+03  0.81538690866E+03  0.50400001928E-02 0.  1.
       -1    1    3    3    0  502  0.58716473365E+03 -0.44128138946E+03 -0.73643039064E+03  0.10401064414E+04  0.50400001928E-02 0. -1.
</event>
<event>
 5   0  0.2618901E-04  0.1497673E+04  0.7818609E-02  0.8886002E-01
        2   -1    0    0  501    0  0.00000000000E+00  0.00000000000E+00  0.66973953879E+03  0.66973953880E+03  0.25500000920E-02 0.  1.
       -2   -1    0    0    0  501  0.00000000000E+00  0.00000000000E+00 -0.83727443403E+03  0.83727443404E+03  0.25500000920E-02 0. -1.
    10030    2    1    2    0    0  0.00000000000E+00  0.00000000000E+00 -0.16753489524E+03  0.15070139728E+04  0.14976725854E+04 0.  0.
        1    1    3    3  502    0  0.65199789332E+03 -0.36812786991E+03 -0.72015053962E+02  0.75220047163E+03  0.50400001928E-02 0. -1.
       -1    1    3    3    0  502 -0.65199789332E+03  0.36812786991E+03 -0.95519841278E+02  0.75481350121E+03  0.50400001928E-02 0.  1.
</event>
<event>
 5   0  0.1427609E-04  0.1499411E+04  0.7818609E-02  0.8884844E-01
        1   -1    0    0  501    0  0.00000000000E+00  0.00000000000E+00  0.12640246779E+04  0.12640246779E+04  0.50400001928E-02 0. -1.
       -1   -1    0    0    0  501  0.00000000000E+00  0.00000000000E+00 -0.44465795501E+03  0.44465795504E+03  0.50400001928E-02 0.  1.
    10030    2    1    2    0    0  0.00000000000E+00  0.00000000000E+00  0.81936672290E+03  0.17086826330E+04  0.14994113890E+04 0.  0.
        4    1    3    3  502    0  0.12027134483E+03  0.92950869578E+02 -0.42691233425E+03  0.45316753478E+03  0.12699999809E+01 0.  1.
       -4    1    3    3    0  502 -0.12027134483E+03 -0.92950869578E+02  0.12462790572E+04  0.12555150982E+04  0.12699999809E+01 0. -1.
</event>
<event>
 5   0  0.2734072E-04  0.1499713E+04  0.7818609E-02  0.8884644E-01
       -2   -1    0    0    0  501  0.00000000000E+00  0.00000000000E+00  0.49984699403E+03  0.49984699403E+03  0.25500000920E-02 0. -1.
        2   -1    0    0  501    0  0.00000000000E+00  0.00000000000E+00 -0.11249143006E+04  0.11249143006E+04  0.25500000920E-02 0.  1.
    10030    2    1    2    0    0  0.00000000000E+00  0.00000000000E+00 -0.62506730661E+03  0.16247612947E+04  0.14997133482E+04 0.  0.
        5    1    3    3  502    0 -0.41486016864E+03 -0.28244294873E+03 -0.91610434937E+03  0.10445823317E+04  0.46999998093E+01 0.  1.
       -5    1    3    3    0  502  0.41486016864E+03  0.28244294873E+03  0.29103704275E+03  0.58017896296E+03  0.46999998093E+01 0. -1.
</event>
<event>
 5   0  0.1443750E-04  0.1499183E+04  0.7818609E-02  0.8884997E-01
        1   -1    0    0  501    0  0.00000000000E+00  0.00000000000E+00  0.11428507002E+04  0.11428507002E+04  0.50400001928E-02 0.  1.
       -1   -1    0    0    0  501  0.00000000000E+00  0.00000000000E+00 -0.49165400979E+03  0.49165400982E+03  0.50400001928E-02 0. -1.
    10030    2    1    2    0    0  0.00000000000E+00  0.00000000000E+00  0.65119669039E+03  0.16345047100E+04  0.14991826165E+04 0.  0.
        2    1    3    3  502    0 -0.28087893521E+03  0.56882175147E+03  0.76093455347E+03  0.99069296750E+03  0.25500000920E-02 0.  1.
       -2    1    3    3    0  502  0.28087893521E+03 -0.56882175147E+03 -0.10973786308E+03  0.64381174251E+03  0.25500000920E-02 0. -1.
</event>
<event>
 5   0  0.1484251E-04  0.1496827E+04  0.7818609E-02  0.8886565E-01
        1   -1    0    0  501    0  0.00000000000E+00  0.00000000000E+00  0.51982573264E+03  0.51982573267E+03  0.50400001928E-02 0. -1.
       -1   -1    0    0    0  501  0.00000000000E+00  0.00000000000E+00 -0.10775208418E+04  0.10775208418E+04  0.50400001928E-02 0.  1.
    10030    2    1    2    0    0  0.00000000000E+00  0.00000000000E+00 -0.55769510916E+03  0.15973465745E+04  0.14968273929E+04 0.  0.
        5    1    3    3  502    0  0.44623325129E+03 -0.49608805386E+03 -0.64053826765E+03  0.92495342264E+03  0.46999998093E+01 0.  1.
       -5    1    3    3    0  502 -0.44623325129E+03  0.49608805386E+03  0.82843158486E+02  0.67239315184E+03  0.46999998093E+01 0. -1.
</event>
<event>
 5   0  0.1426929E-04  0.1498654E+04  0.7818609E-02  0.8885349E-01
        1   -1    0    0  501    0  0.00000000000E+00  0.00000000000E+00  0.52612769478E+03  0.52612769480E+03  0.50400001928E-02 0. -1.
       -1   -1    0    0    0  501  0.00000000000E+00  0.00000000000E+00 -0.10672139782E+04  0.10672139782E+04  0.50400001928E-02 0.  1.
    10030    2    1    2    0    0  0.00000000000E+00  0.00000000000E+00 -0.54108628343E+03  0.15933416730E+04  0.14986538362E+04 0.  0.
        1    1    3    3  502    0  0.41235048090E+03 -0.82926813345E+02  0.38878487173E+03  0.57276823584E+03  0.50400001928E-02 0. -1.
       -1    1    3    3    0  502 -0.41235048090E+03  0.82926813345E+02 -0.92987115516E+03  0.10205734372E+04  0.50400001928E-02 0.  1.
</event>
<event>
 5   0  0.2734072E-04  0.1484666E+04  0.7818609E-02  0.8894714E-01
        2   -1    0    0  501    0  0.00000000000E+00  0.00000000000E+00  0.14033629337E+04  0.14033629337E+04  0.25500000920E-02 0.  1.
       -2   -1    0    0    0  501  0.00000000000E+00  0.00000000000E+00 -0.39267005800E+03  0.39267005801E+03  0.25500000920E-02 0. -1.
    10030    2    1    2    0    0  0.00000000000E+00  0.00000000000E+00  0.10106928757E+04  0.17960329917E+04  0.14846664333E+04 0.  0.
        5    1    3    3  502    0 -0.59376214886E+02 -0.44380436314E+02  0.13988561139E+04  0.14008267828E+04  0.46999998093E+01 0.  1.
       -5    1    3    3    0  502  0.59376214886E+02  0.44380436314E+02 -0.38816323823E+03  0.39520620887E+03  0.46999998093E+01 0. -1.
</event>
<event>
 5   0  0.1443750E-04  0.1498482E+04  0.7818609E-02  0.8885463E-01
        1   -1    0    0  501    0  0.00000000000E+00  0.00000000000E+00  0.97873457853E+03  0.97873457854E+03  0.50400001928E-02 0. -1.
       -1   -1    0    0    0  501  0.00000000000E+00  0.00000000000E+00 -0.57355937561E+03  0.57355937563E+03  0.50400001928E-02 0.  1.
    10030    2    1    2    0    0  0.00000000000E+00  0.00000000000E+00  0.40517520292E+03  0.15522939542E+04  0.14984824240E+04 0.  0.
        2    1    3    3  502    0  0.49109385077E+03  0.22776791824E+01 -0.38358045787E+03  0.62314711405E+03  0.25500000920E-02 0.  1.
       -2    1    3    3    0  502 -0.49109385077E+03 -0.22776791824E+01  0.78875566078E+03  0.92914684012E+03  0.25500000920E-02 0. -1.
</event>
<event>
 5   0  0.1474203E-04  0.1500170E+04  0.7818609E-02  0.8884340E-01
        1   -1    0    0  501    0  0.00000000000E+00  0.00000000000E+00  0.96176478346E+03  0.96176478347E+03  0.50400001928E-02 0.  1.
       -1   -1    0    0    0  501  0.00000000000E+00  0.00000000000E+00 -0.58499525952E+03  0.58499525954E+03  0.50400001928E-02 0. -1.
    10030    2    1    2    0    0  0.00000000000E+00  0.00000000000E+00  0.37676952394E+03  0.15467600430E+04  0.15001704425E+04 0.  0.
        3    1    3    3  502    0 -0.71768801938E+03  0.53273505417E+02  0.40640785460E+03  0.82648745545E+03  0.10100000352E+00 0.  1.
       -3    1    3    3    0  502  0.71768801938E+03 -0.53273505417E+02 -0.29638330651E+02  0.72027258756E+03  0.10100000352E+00 0. -1.
</event>
<event>
 5   0  0.2646718E-04  0.1503749E+04  0.7818609E-02  0.8881964E-01
        2   -1    0    0  501    0  0.00000000000E+00  0.00000000000E+00  0.95449055807E+03  0.95449055807E+03  0.25500000920E-02 0.  1.
       -2   -1    0    0    0  501  0.00000000000E+00  0.00000000000E+00 -0.59226882417E+03  0.59226882417E+03  0.25500000920E-02 0. -1.
    10030    2    1    2    0    0  0.00000000000E+00  0.00000000000E+00  0.36222173390E+03  0.15467593822E+04  0.15037486499E+04 0.  0.
        3    1    3    3  502    0 -0.22454317127E+03 -0.14887945570E+03  0.90313568666E+03  0.94246422044E+03  0.10100000352E+00 0.  1.
       -3    1    3    3    0  502  0.22454317127E+03  0.14887945570E+03 -0.54091395276E+03  0.60429516181E+03  0.10100000352E+00 0. -1.
</event>
<event>
 5   0  0.2734072E-04  0.1502923E+04  0.7818609E-02  0.8882512E-01
        2   -1    0    0  501    0  0.00000000000E+00  0.00000000000E+00  0.19404337385E+04  0.19404337385E+04  0.25500000920E-02 0.  1.
       -2   -1    0    0    0  501  0.00000000000E+00  0.00000000000E+00 -0.29101436758E+03  0.29101436759E+03  0.25500000920E-02 0. -1.
    10030    2    1    2    0    0  0.00000000000E+00  0.00000000000E+00  0.16494193709E+04  0.22314481061E+04  0.15029226158E+04 0.  0.
        5    1    3    3  502    0 -0.55086310684E+02  0.63303894702E+03  0.14202718647E+04  0.15559457155E+04  0.46999998093E+01 0.  1.
       -5    1    3    3    0  502  0.55086310684E+02 -0.63303894702E+03  0.22914750628E+03  0.67550239060E+03  0.46999998093E+01 0. -1.
</event>
<event>
 5   0  0.2618901E-04  0.1503651E+04  0.7818609E-02  0.8882029E-01
       -2   -1    0    0    0  501  0.00000000000E+00  0.00000000000E+00  0.39814751947E+03  0.39814751948E+03  0.25500000920E-02 0. -1.
        2   -1    0    0  501    0  0.00000000000E+00  0.00000000000E+00 -0.14196784272E+04  0.14196784272E+04  0.25500000920E-02 0.  1.
    10030    2    1    2    0    0  0.00000000000E+00  0.00000000000E+00 -0.10215309077E+04  0.18178259466E+04  0.15036508162E+04 0.  0.
        1    1    3    3  502    0 -0.43977333968E+03 -0.21753284526E+03 -0.11994593727E+04  0.12959258913E+04  0.50400001928E-02 0.  1.
       -1    1    3    3    0  502  0.43977333968E+03  0.21753284526E+03  0.17792846499E+03  0.52190005532E+03  0.50400001928E-02 0. -1.
</event>
<event>
 5   0  0.1427609E-04  0.1496441E+04  0.7818609E-02  0.8886823E-01
        1   -1    0    0  501    0  0.00000000000E+00  0.00000000000E+00  0.12772246349E+04  0.12772246349E+04  0.50400001928E-02 0.  1.
       -1   -1    0    0    0  501  0.00000000000E+00  0.00000000000E+00 -0.43832075002E+03  0.43832075005E+03  0.50400001928E-02 0. -1.
    10030    2    1    2    0    0  0.00000000000E+00  0.00000000000E+00  0.83890388488E+03  0.17155453849E+04  0.14964411915E+04 0.  0.
        4    1    3    3  502    0  0.28716882943E+03  0.55224918551E+03  0.89543911752E+03  0.10905310292E+04  0.12699999809E+01 0.  1.
       -4    1    3    3    0  502 -0.28716882943E+03 -0.55224918551E+03 -0.56535232648E+02  0.62501435578E+03  0.12699999809E+01 0. -1.
</event>
<event>
 5   0  0.1474203E-04  0.1465105E+04  0.7818609E-02  0.8907995E-01
        1   -1    0    0  501    0  0.00000000000E+00  0.00000000000E+00  0.36784659567E+03  0.36784659571E+03  0.50400001928E-02 0.  1.
       -1   -1    0    0    0  501  0.00000000000E+00  0.00000000000E+00 -0.14588506626E+04  0.14588506627E+04  0.50400001928E-02 0. -1.
    10030    2    1    2    0    0  0.00000000000E+00  0.00000000000E+00 -0.10910040670E+04  0.18266972584E+04  0.14651051155E+04 0.  0.
        3    1    3    3  502    0  0.29346843843E+03 -0.55677922766E+03 -0.10128559175E+04  0.11924780721E+04  0.10100000352E+00 0. -1.
       -3    1    3    3    0  502 -0.29346843843E+03  0.55677922766E+03 -0.78148149466E+02  0.63421918622E+03  0.10100000352E+00 0.  1.
</event>
<event>
 5   0  0.1426929E-04  0.1500059E+04  0.7818609E-02  0.8884414E-01
        1   -1    0    0  501    0  0.00000000000E+00  0.00000000000E+00  0.16245436817E+04  0.16245436817E+04  0.50400001928E-02 0. -1.
       -1   -1    0    0    0  501  0.00000000000E+00  0.00000000000E+00 -0.34627808642E+03  0.34627808646E+03  0.50400001928E-02 0.  1.
    10030    2    1    2    0    0  0.00000000000E+00  0.00000000000E+00  0.12782655953E+04  0.19708217682E+04  0.15000585021E+04 0.  0.
        1    1    3    3  502    0 -0.55156442295E+01 -0.29451363313E+03 -0.26710055664E+03  0.39763225449E+03  0.50400001928E-02 0.  1.
       -1    1    3    3    0  502  0.55156442295E+01  0.29451363313E+03  0.15453661519E+04  0.15731895137E+04  0.50400001928E-02 0. -1.
</event>
<event>
 5   0  0.2696040E-04  0.1491000E+04  0.7818609E-02  0.8890460E-01
        2   -1    0    0  501    0  0.00000000000E+00  0.00000000000E+00  0.16462819001E+04  0.16462819001E+04  0.25500000920E-02 0.  1.
       -2   -1    0    0    0  501  0.00000000000E+00  0.00000000000E+00 -0.33759102263E+03  0.33759102264E+03  0.25500000920E-02 0. -1.
    10030    2    1    2    0    0  0.00000000000E+00  0.00000000000E+00  0.13086908774E+04  0.19838729227E+04  0.14909996515E+04 0.  0.
        2    1    3    3  502    0 -0.46003626850E+03 -0.56976959629E+03  0.84014514699E+03  0.11145019646E+04  0.25500000920E-02 0.  1.
       -2    1    3    3    0  502  0.46003626850E+03  0.56976959629E+03  0.46854573044E+03  0.86937095805E+03  0.25500000920E-02 0. -1.
</event>
<event>
 5   0  0.1426929E-04  0.1504555E+04  0.7818609E-02  0.8881429E-01
       -1   -1    0    0    0  501  0.00000000000E+00  0.00000000000E+00  0.43400482342E+03  0.43400482345E+03  0.50400001928E-02 0. -1.
        1   -1    0    0  501    0  0.00000000000E+00  0.00000000000E+00 -0.13039524094E+04  0.13039524094E+04  0.50400001928E-02 0.  1.
    10030    2    1    2    0    0  0.00000000000E+00  0.00000000000E+00 -0.86994758594E+03  0.17379572328E+04  0.15045552635E+04 0.  0.
        1    1    3    3  502    0  0.14852863375E+03 -0.41154405286E+03  0.27191716955E+03  0.51513901970E+03  0.50400001928E-02 0. -1.
       -1    1    3    3    0  502 -0.14852863375E+03  0.41154405286E+03 -0.11418647555E+04  0.12228182131E+04  0.50400001928E-02 0.  1.
</event>
<event>
 5   0  0.1004313E-04  0.1497818E+04  0.7818609E-02  0.8885905E-01
       -4   -1    0    0    0  501  0.00000000000E+00  0.00000000000E+00  0.56442477763E+03  0.56442620643E+03  0.12699999809E+01 0. -1.
        4   -1    0    0  501    0  0.00000000000E+00  0.00000000000E+00 -0.99368974789E+03  0.99369055947E+03  0.12699999809E+01 0.  1.
    10030    2    1    2    0    0  0.00000000000E+00  0.00000000000E+00 -0.42926497026E+03  0.15581167659E+04  0.14978182271E+04 0.  0.
        4    1    3    3  502    0 -0.40957946924E+03  0.29879973756E+03  0.35876238408E+03  0.62108669759E+03  0.12699999809E+01 0. -1.
       -4    1    3    3    0  502  0.40957946924E+03 -0.29879973756E+03 -0.78802735435E+03  0.93703006830E+03  0.12699999809E+01 0.  1.
</event>
<event>
 5   0  0.1427609E-04  0.1509633E+04  0.7818609E-02  0.8878072E-01
        1   -1    0    0  501    0  0.00000000000E+00  0.00000000000E+00  0.11926157295E+04  0.11926157295E+04  0.50400001928E-02 0. -1.
       -1   -1    0    0    0  501  0.00000000000E+00  0.00000000000E+00 -0.47772975500E+03  0.47772975503E+03  0.50400001928E-02 0.  1.
    10030    2    1    2    0    0  0.00000000000E+00  0.00000000000E+00  0.71488597446E+03  0.16703454845E+04  0.15096330949E+04 0.  0.
        4    1    3    3  502    0  0.72164315311E+02  0.40029726796E+03  0.10609804179E+04  0.11362775414E+04  0.12699999809E+01 0. -1.
       -4    1    3    3    0  502 -0.72164315311E+02 -0.40029726796E+03 -0.34609444342E+03  0.53406794306E+03  0.12699999809E+01 0.  1.
</event>
<event>
 5   0  0.2618901E-04  0.1496066E+04  0.7818609E-02  0.8887073E-01
        2   -1    0    0  501    0  0.00000000000E+00  0.00000000000E+00  0.50399641099E+03  0.50399641100E+03  0.25500000920E-02 0. -1.
       -2   -1    0    0    0  501  0.00000000000E+00  0.00000000000E+00 -0.11102333923E+04  0.11102333923E+04  0.25500000920E-02 0.  1.
    10030    2    1    2    0    0  0.00000000000E+00  0.00000000000E+00 -0.60623698129E+03  0.16142298033E+04  0.14960663690E+04 0.  0.
        1    1    3    3  502    0  0.33904733308E+03 -0.40760699235E+03  0.26625027872E+03  0.59328388249E+03  0.50400001928E-02 0. -1.
       -1    1    3    3    0  502 -0.33904733308E+03  0.40760699235E+03 -0.87248726001E+03  0.10209459208E+04  0.50400001928E-02 0.  1.
</event>
<event>
 5   0  0.2646718E-04  0.1605160E+04  0.7818609E-02  0.8817384E-01
       -2   -1    0    0    0  501  0.00000000000E+00  0.00000000000E+00  0.54772430994E+03  0.54772430995E+03  0.25500000920E-02 0.  1.
        2   -1    0    0  501    0  0.00000000000E+00  0.00000000000E+00 -0.11760196883E+04  0.11760196883E+04  0.25500000920E-02 0. -1.
    10030    2    1    2    0    0  0.00000000000E+00  0.00000000000E+00 -0.62829537831E+03  0.17237439982E+04  0.16051598951E+04 0.  0.
        3    1    3    3  502    0  0.10013081784E+02 -0.20269939084E+02 -0.11756776582E+04  0.11758950201E+04  0.10100000352E+00 0. -1.
       -3    1    3    3    0  502 -0.10013081784E+02  0.20269939084E+02  0.54738227987E+03  0.54784897806E+03  0.10100000352E+00 0.  1.
</event>
<event>
 5   0  0.1443750E-04  0.1500875E+04  0.7818609E-02  0.8883872E-01
       -1   -1    0    0    0  501  0.00000000000E+00  0.00000000000E+00  0.39402992969E+03  0.39402992972E+03  0.50400001928E-02 0.  1.
        1   -1    0    0  501    0  0.00000000000E+00  0.00000000000E+00 -0.14292217397E+04  0.14292217397E+04  0.50400001928E-02 0. -1.
    10030    2    1    2    0    0  0.00000000000E+00  0.00000000000E+00 -0.10351918100E+04  0.18232516694E+04  0.15008746005E+04 0.  0.
        2    1    3    3  502    0 -0.61129859571E+03  0.19220494735E+02  0.10665433287E+02  0.61169367498E+03  0.25500000920E-02 0.  1.
       -2    1    3    3    0  502  0.61129859571E+03 -0.19220494735E+02 -0.10458572433E+04  0.12115579944E+04  0.25500000920E-02 0. -1.
</event>
<event>
 5   0  0.1004313E-04  0.1496956E+04  0.7818609E-02  0.8886480E-01
       -3   -1    0    0    0  501  0.00000000000E+00  0.00000000000E+00  0.71974446891E+03  0.71974447599E+03  0.10100000352E+00 0.  1.
        3   -1    0    0  501    0  0.00000000000E+00  0.00000000000E+00 -0.77835852678E+03  0.77835853333E+03  0.10100000352E+00 0. -1.
    10030    2    1    2    0    0  0.00000000000E+00  0.00000000000E+00 -0.58614057869E+02  0.14981030093E+04  0.14969559174E+04 0.  0.
        3    1    3    3  502    0  0.37458122083E+03 -0.58007679997E+03  0.25973787040E+03  0.73774247294E+03  0.10100000352E+00 0.  1.
       -3    1    3    3    0  502 -0.37458122083E+03  0.58007679997E+03 -0.31835192827E+03  0.76036053638E+03  0.10100000352E+00 0. -1.
</event>
<event>
 5   0  0.1484251E-04  0.1501685E+04  0.7818609E-02  0.8883333E-01
       -1   -1    0    0    0  501  0.00000000000E+00  0.00000000000E+00  0.49760353820E+03  0.49760353823E+03  0.50400001928E-02 0. -1.
        1   -1    0    0  501    0  0.00000000000E+00  0.00000000000E+00 -0.11329587579E+04  0.11329587579E+04  0.50400001928E-02 0.  1.
    10030    2    1    2    0    0  0.00000000000E+00  0.00000000000E+00 -0.63535521973E+03  0.16305622962E+04  0.15016847693E+04 0.  0.
        5    1    3    3  502    0  0.68101948890E+03 -0.72656274161E+02  0.16423504285E+02  0.68509729231E+03  0.46999998093E+01 0. -1.
       -5    1    3    3    0  502 -0.68101948890E+03  0.72656274161E+02 -0.65177872401E+03  0.94546500386E+03  0.46999998093E+01 0.  1.
</event>
<event>
 5   0  0.2734072E-04  0.1507198E+04  0.7818609E-02  0.8879680E-01
        2   -1    0    0  501    0  0.00000000000E+00  0.00000000000E+00  0.23718625421E+04  0.23718625421E+04  0.25500000920E-02 0.  1.
       -2   -1    0    0    0  501  0.00000000000E+00  0.00000000000E+00 -0.23943700705E+03  0.23943700706E+03  0.25500000920E-02 0. -1.
    10030    2    1    2    0    0  0.00000000000E+00  0.00000000000E+00  0.21324255350E+04  0.26112995491E+04  0.15071982859E+04 0.  0.
        5    1    3    3  502    0 -0.70617699977E+03 -0.64932089924E+02  0.62453957531E+03  0.94497296386E+03  0.46999998093E+01 0. -1.
       -5    1    3    3    0  502  0.70617699977E+03  0.64932089924E+02  0.15078859597E+04  0.16663265853E+04  0.46999998093E+01 0.  1.
</event>
<event>
 5   0  0.2618901E-04  0.1504670E+04  0.7818609E-02  0.8881353E-01
       -2   -1    0    0    0  501  0.00000000000E+00  0.00000000000E+00  0.20376458319E+04  0.20376458319E+04  0.25500000920E-02 0. -1.
        2   -1    0    0  501    0  0.00000000000E+00  0.00000000000E+00 -0.27777559447E+03  0.27777559448E+03  0.25500000920E-02 0.  1.
    10030    2    1    2    0    0  0.00000000000E+00  0.00000000000E+00  0.17598702374E+04  0.23154214264E+04  0.15046704387E+04 0.  0.
        1    1    3    3  502    0  0.16607129271E+02 -0.40188565991E+03 -0.98422821064E+02  0.41409531767E+03  0.50400001928E-02 0.  1.
       -1    1    3    3    0  502 -0.16607129271E+02  0.40188565991E+03  0.18582930585E+04  0.19013261087E+04  0.50400001928E-02 0. -1.
</event>
<event>
 5   0  0.1484251E-04  0.1500860E+04  0.7818609E-02  0.8883882E-01
       -1   -1    0    0    0  501  0.00000000000E+00  0.00000000000E+00  0.65704492985E+03  0.65704492986E+03  0.50400001928E-02 0.  1.
        1   -1    0    0  501    0  0.00000000000E+00  0.00000000000E+00 -0.85708724858E+03  0.85708724860E+03  0.50400001928E-02 0. -1.
    10030    2    1    2    0    0  0.00000000000E+00  0.00000000000E+00 -0.20004231874E+03  0.15141321785E+04  0.15008595286E+04 0.  0.
        5    1    3    3  502    0 -0.16187601577E+03  0.66518830384E+03  0.21001302976E+03  0.71610536007E+03  0.46999998093E+01 0.  1.
       -5    1    3    3    0  502  0.16187601577E+03 -0.66518830384E+03 -0.41005534850E+03  0.79802681839E+03  0.46999998093E+01 0. -1.
</event>
<event>
 5   0  0.1427609E-04  0.1499188E+04  0.7818609E-02  0.8884993E-01
       -1   -1    0    0    0  501  0.00000000000E+00  0.00000000000E+00  0.11803654220E+04  0.11803654221E+04  0.50400001928E-02 0.  1.
        1   -1    0    0  501    0  0.00000000000E+00  0.00000000000E+00 -0.47603148257E+03  0.47603148259E+03  0.50400001928E-02 0. -1.
    10030    2    1    2    0    0  0.00000000000E+00  0.00000000000E+00  0.70433393948E+03  0.16563969046E+04  0.14991879160E+04 0.  0.
        4    1    3    3  502    0 -0.22951792415E+03 -0.31127883612E+00  0.11405861648E+04  0.11634504659E+04  0.12699999809E+01 0.  1.
       -4    1    3    3    0  502  0.22951792415E+03  0.31127883612E+00 -0.43625222536E+03  0.49294643870E+03  0.12699999809E+01 0. -1.
</event>
<event>
 5   0  0.2641347E-04  0.1500508E+04  0.7818609E-02  0.8884115E-01
        2   -1    0    0  501    0  0.00000000000E+00  0.00000000000E+00  0.30719815712E+04  0.30719815712E+04  0.25500000920E-02 0.  1.
       -2   -1    0    0    0  501  0.00000000000E+00  0.00000000000E+00 -0.18323066176E+03  0.18323066178E+03  0.25500000920E-02 0. -1.
    10030    2    1    2    0    0  0.00000000000E+00  0.00000000000E+00  0.28887509095E+04  0.32552122330E+04  0.15005082022E+04 0.  0.
        4    1    3    3  502    0  0.41108233041E+03  0.26043533530E+03  0.26831509304E+04  0.27269242334E+04  0.12699999809E+01 0.  1.
       -4    1    3    3    0  502 -0.41108233041E+03 -0.26043533530E+03  0.20559997901E+03  0.52828799960E+03  0.12699999809E+01 0. -1.
</event>
<event>
 5   0  0.2618901E-04  0.1495824E+04  0.7818609E-02  0.8887235E-01
        2   -1    0    0  501    0  0.00000000000E+00  0.00000000000E+00  0.14578973231E+04  0.14578973231E+04  0.25500000920E-02 0.  1.
       -2   -1    0    0    0  501  0.00000000000E+00  0.00000000000E+00 -0.38368430345E+03  0.38368430346E+03  0.25500000920E-02 0. -1.
    10030    2    1    2    0    0  0.00000000000E+00  0.00000000000E+00  0.10742130196E+04  0.18415816265E+04  0.14958239454E+04 0.  0.
        1    1    3    3  502    0  0.29698806806E+03  0.66411459953E+03  0.75078158826E+03  0.10454296280E+04  0.50400001928E-02 0.  1.
       -1    1    3    3    0  502 -0.29698806806E+03 -0.66411459953E+03  0.32343143136E+03  0.79615199849E+03  0.50400001928E-02 0. -1.
</event>
<event>
 5   0  0.2734072E-04  0.1500756E+04  0.7818609E-02  0.8883950E-01
        2   -1    0    0  501    0  0.00000000000E+00  0.00000000000E+00  0.77127436751E+03  0.77127436751E+03  0.25500000920E-02 0.  1.
       -2   -1    0    0    0  501  0.00000000000E+00  0.00000000000E+00 -0.73004804246E+03  0.73004804247E+03  0.25500000920E-02 0. -1.
    10030    2    1    2    0    0  0.00000000000E+00  0.00000000000E+00  0.41226325048E+02  0.15013224100E+04  0.15007562656E+04 0.  0.
        5    1    3    3  502    0  0.36548387488E+03 -0.48242162217E+03  0.46432999692E+03  0.76284567271E+03  0.46999998093E+01 0.  1.
       -5    1    3    3    0  502 -0.36548387488E+03  0.48242162217E+03 -0.42310367187E+03  0.73847673727E+03  0.46999998093E+01 0. -1.
</event>
<event>
 5   0  0.2734072E-04  0.1503863E+04  0.7818609E-02  0.8881888E-01
        2   -1    0    0  501    0  0.00000000000E+00  0.00000000000E+00  0.72243116144E+03  0.72243116144E+03  0.25500000920E-02 0.  1.
       -2   -1    0    0    0  501  0.00000000000E+00  0.00000000000E+00 -0.78263678234E+03  0.78263678235E+03  0.25500000920E-02 0. -1.
    10030    2    1    2    0    0  0.00000000000E+00  0.00000000000E+00 -0.60205620906E+02  0.15050679438E+04  0.15038632912E+04 0.  0.
        5    1    3    3  502    0 -0.46750501167E+03 -0.35174977648E+03 -0.50280548600E+03  0.77144299072E+03  0.46999998093E+01 0. -1.
       -5    1    3    3    0  502  0.46750501167E+03  0.35174977648E+03  0.44259986509E+03  0.73362495307E+03  0.46999998093E+01 0.  1.
</event>
<event>
 5   0  0.2734072E-04  0.1490784E+04  0.7818609E-02  0.8890605E-01
        2   -1    0    0  501    0  0.00000000000E+00  0.00000000000E+00  0.14537432805E+04  0.14537432805E+04  0.25500000920E-02 0.  1.
       -2   -1    0    0    0  501  0.00000000000E+00  0.00000000000E+00 -0.38219192089E+03  0.38219192090E+03  0.25500000920E-02 0. -1.
    10030    2    1    2    0    0  0.00000000000E+00  0.00000000000E+00  0.10715513596E+04  0.18359352014E+04  0.14907836018E+04 0.  0.
        5    1    3    3  502    0 -0.22358010284E+03 -0.64580507023E+03  0.16933874119E+03  0.70409512879E+03  0.46999998093E+01 0. -1.
       -5    1    3    3    0  502  0.22358010284E+03  0.64580507023E+03  0.90221261838E+03  0.11318400726E+04  0.46999998093E+01 0.  1.
</event>
<event>
 5   0  0.1484251E-04  0.1505447E+04  0.7818609E-02  0.8880839E-01
       -1   -1    0    0    0  501  0.00000000000E+00  0.00000000000E+00  0.84546983137E+03  0.84546983139E+03  0.50400001928E-02 0. -1.
        1   -1    0    0  501    0  0.00000000000E+00  0.00000000000E+00 -0.67015133576E+03  0.67015133578E+03  0.50400001928E-02 0.  1.
    10030    2    1    2    0    0  0.00000000000E+00  0.00000000000E+00  0.17531849561E+03  0.15156211672E+04  0.15054470922E+04 0.  0.
        5    1    3    3  502    0  0.93514759855E+02 -0.74519910349E+03  0.13803673393E+03  0.76363796662E+03  0.46999998093E+01 0.  1.
       -5    1    3    3    0  502 -0.93514759855E+02  0.74519910349E+03  0.37281761681E+02  0.75198320055E+03  0.46999998093E+01 0. -1.
</event>
<event>
 5   0  0.2618901E-04  0.1496893E+04  0.7818609E-02  0.8886522E-01
        2   -1    0    0  501    0  0.00000000000E+00  0.00000000000E+00  0.12342048416E+04  0.12342048416E+04  0.25500000920E-02 0. -1.
       -2   -1    0    0    0  501  0.00000000000E+00  0.00000000000E+00 -0.45387264142E+03  0.45387264143E+03  0.25500000920E-02 0.  1.
    10030    2    1    2    0    0  0.00000000000E+00  0.00000000000E+00  0.78033220017E+03  0.16880774830E+04  0.14968925299E+04 0.  0.
        1    1    3    3  502    0  0.17681670841E+03 -0.56153759962E+03  0.91134315506E+03  0.10849585109E+04  0.50400001928E-02 0. -1.
       -1    1    3    3    0  502 -0.17681670841E+03  0.56153759962E+03 -0.13101095489E+03  0.60311897208E+03  0.50400001928E-02 0.  1.
</event>
<event>
 5   0  0.1443750E-04  0.1502178E+04  0.7818609E-02  0.8883006E-01
        1   -1    0    0  501    0  0.00000000000E+00  0.00000000000E+00  0.81812391382E+03  0.81812391384E+03  0.50400001928E-02 0.  1.
       -1   -1    0    0    0  501  0.00000000000E+00  0.00000000000E+00 -0.68954663486E+03  0.68954663488E+03  0.50400001928E-02 0. -1.
    10030    2    1    2    0    0  0.00000000000E+00  0.00000000000E+00  0.12857727897E+03  0.15076705487E+04  0.15021778746E+04 0.  0.
        2    1    3    3  502    0 -0.29995225230E+03 -0.75297869215E+02 -0.62267991937E+03  0.69524916739E+03  0.25500000920E-02 0. -1.
       -2    1    3    3    0  502  0.29995225230E+03  0.75297869215E+02  0.75125719833E+03  0.81242138132E+03  0.25500000920E-02 0.  1.
</event>
<event>
 5   0  0.1443750E-04  0.1502191E+04  0.7818609E-02  0.8882997E-01
       -1   -1    0    0    0  501  0.00000000000E+00  0.00000000000E+00  0.34403788489E+03  0.34403788493E+03  0.50400001928E-02 0. -1.
        1   -1    0    0  501    0  0.00000000000E+00  0.00000000000E+00 -0.16397735801E+04  0.16397735801E+04  0.50400001928E-02 0.  1.
    10030    2    1    2    0    0  0.00000000000E+00  0.00000000000E+00 -0.12957356952E+04  0.19838114651E+04  0.15021907126E+04 0.  0.
        2    1    3    3  502    0  0.29765102936E+03 -0.62579056483E+03 -0.10304678573E+04  0.12418027103E+04  0.25500000920E-02 0.  1.
       -2    1    3    3    0  502 -0.29765102936E+03  0.62579056483E+03 -0.26526783791E+03  0.74200875476E+03  0.25500000920E-02 0. -1.
</event>
<event>
 5   0  0.1474203E-04  0.1500250E+04  0.7818609E-02  0.8884287E-01
        1   -1    0    0  501    0  0.00000000000E+00  0.00000000000E+00  0.78269779365E+03  0.78269779367E+03  0.50400001928E-02 0.  1.
       -1   -1    0    0    0  501  0.00000000000E+00  0.00000000000E+00 -0.71890739287E+03  0.71890739289E+03  0.50400001928E-02 0. -1.
    10030    2    1    2    0    0  0.00000000000E+00  0.00000000000E+00  0.63790400780E+02  0.15016051866E+04  0.15002496196E+04 0.  0.
        3    1    3    3  502    0 -0.69962837620E+03 -0.26561469187E+03 -0.19689613078E+02  0.74861119440E+03  0.10100000352E+00 0. -1.
       -3    1    3    3    0  502  0.69962837620E+03  0.26561469187E+03  0.83480013858E+02  0.75299399216E+03  0.10100000352E+00 0.  1.
</event>
<event>
 5   0  0.2618901E-04  0.1501038E+04  0.7818609E-02  0.8883763E-01
       -2   -1    0    0    0  501  0.00000000000E+00  0.00000000000E+00  0.13360188687E+04  0.13360188687E+04  0.25500000920E-02 0. -1.
        2   -1    0    0  501    0  0.00000000000E+00  0.00000000000E+00 -0.42161008340E+03  0.42161008341E+03  0.25500000920E-02 0.  1.
    10030    2    1    2    0    0  0.00000000000E+00  0.00000000000E+00  0.91440878531E+03  0.17576289521E+04  0.15010383428E+04 0.  0.
        1    1    3    3  502    0  0.32569112706E+03  0.44189974299E+03 -0.14207197130E+03  0.56704015568E+03  0.50400001928E-02 0.  1.
       -1    1    3    3    0  502 -0.32569112706E+03 -0.44189974299E+03  0.10564807566E+04  0.11905887964E+04  0.50400001928E-02 0. -1.
</event>
<event>
 5   0  0.1427609E-04  0.1499381E+04  0.7818609E-02  0.8884865E-01
        1   -1    0    0  501    0  0.00000000000E+00  0.00000000000E+00  0.58853575628E+03  0.58853575630E+03  0.50400001928E-02 0. -1.
       -1   -1    0    0    0  501  0.00000000000E+00  0.00000000000E+00 -0.95497313615E+03  0.95497313617E+03  0.50400001928E-02 0.  1.
    10030    2    1    2    0    0  0.00000000000E+00  0.00000000000E+00 -0.36643737988E+03  0.15435088925E+04  0.14993809882E+04 0.  0.
        4    1    3    3  502    0 -0.24189220762E+03 -0.70164448695E+03 -0.29224798342E+03  0.79763859165E+03  0.12699999809E+01 0.  1.
       -4    1    3    3    0  502  0.24189220762E+03  0.70164448695E+03 -0.74189396453E+02  0.74587030081E+03  0.12699999809E+01 0. -1.
</event>
<event>
 5   0  0.1427609E-04  0.1498775E+04  0.7818609E-02  0.8885268E-01
       -1   -1    0    0    0  501  0.00000000000E+00  0.00000000000E+00  0.65652991447E+03  0.65652991449E+03  0.50400001928E-02 0.  1.
        1   -1    0    0  501    0  0.00000000000E+00  0.00000000000E+00 -0.85537886215E+03  0.85537886216E+03  0.50400001928E-02 0. -1.
    10030    2    1    2    0    0  0.00000000000E+00  0.00000000000E+00 -0.19884894767E+03  0.15119087767E+04  0.14987752483E+04 0.  0.
        4    1    3    3  502    0 -0.42596869048E+03  0.37222137116E+03 -0.59524154251E+03  0.82116513640E+03  0.12699999809E+01 0. -1.
       -4    1    3    3    0  502  0.42596869048E+03 -0.37222137116E+03  0.39639259483E+03  0.69074364026E+03  0.12699999809E+01 0.  1.
</event>
<event>
 5   0  0.1484251E-04  0.1509642E+04  0.7818609E-02  0.8878066E-01
        1   -1    0    0  501    0  0.00000000000E+00  0.00000000000E+00  0.78613010979E+03  0.78613010981E+03  0.50400001928E-02 0.  1.
       -1   -1    0    0    0  501  0.00000000000E+00  0.00000000000E+00 -0.72475924832E+03  0.72475924834E+03  0.50400001928E-02 0. -1.
    10030    2    1    2    0    0  0.00000000000E+00  0.00000000000E+00  0.61370861467E+02  0.15108893581E+04  0.15096424312E+04 0.  0.
        5    1    3    3  502    0 -0.69515490500E+03 -0.18913935256E+03  0.25608010816E+03  0.76459999243E+03  0.46999998093E+01 0.  1.
       -5    1    3    3    0  502  0.69515490500E+03  0.18913935256E+03 -0.19470924669E+03  0.74628936572E+03  0.46999998093E+01 0. -1.
</event>
<event>
 5   0  0.2696040E-04  0.1496596E+04  0.7818609E-02  0.8886720E-01
       -2   -1    0    0    0  501  0.00000000000E+00  0.00000000000E+00  0.22977634266E+03  0.22977634267E+03  0.25500000920E-02 0.  1.
        2   -1    0    0  501    0  0.00000000000E+00  0.00000000000E+00 -0.24369343459E+04  0.24369343459E+04  0.25500000920E-02 0. -1.
    10030    2    1    2    0    0  0.00000000000E+00  0.00000000000E+00 -0.22071580032E+04  0.26667106886E+04  0.14965959526E+04 0.  0.
        2    1    3    3  502    0 -0.16452744830E+03  0.63908715534E+03 -0.47499167024E+03  0.81309209821E+03  0.25500000920E-02 0.  1.
       -2    1    3    3    0  502  0.16452744830E+03 -0.63908715534E+03 -0.17321663330E+04  0.18536185904E+04  0.25500000920E-02 0. -1.
</event>
<event>
 5   0  0.2641347E-04  0.1500075E+04  0.7818609E-02  0.8884403E-01
        2   -1    0    0  501    0  0.00000000000E+00  0.00000000000E+00  0.13655966320E+04  0.13655966320E+04  0.25500000920E-02 0. -1.
       -2   -1    0    0    0  501  0.00000000000E+00  0.00000000000E+00 -0.41194908823E+03  0.41194908824E+03  0.25500000920E-02 0.  1.
    10030    2    1    2    0    0  0.00000000000E+00  0.00000000000E+00  0.95364754380E+03  0.17775457203E+04  0.15000750481E+04 0.  0.
        4    1    3    3  502    0 -0.33209596170E+03 -0.66240258834E+03  0.61445274459E+03  0.96261035994E+03  0.12699999809E+01 0. -1.
       -4    1    3    3    0  502  0.33209596170E+03  0.66240258834E+03  0.33919479920E+03  0.81493536033E+03  0.12699999809E+01 0.  1.
</event>
<event>
 5   0  0.2734072E-04  0.1499758E+04  0.7818609E-02  0.8884614E-01
        2   -1    0    0  501    0  0.00000000000E+00  0.00000000000E+00  0.77561795853E+03  0.77561795854E+03  0.25500000920E-02 0. -1.
       -2   -1    0    0    0  501  0.00000000000E+00  0.00000000000E+00 -0.72499448911E+03  0.72499448912E+03  0.25500000920E-02 0.  1.
    10030    2    1    2    0    0  0.00000000000E+00  0.00000000000E+00  0.50623469420E+02  0.15006124477E+04  0.14997583080E+04 0.  0.
        5    1    3    3  502    0  0.58145063260E+03 -0.42485716610E+03 -0.18387240732E+03  0.74324935379E+03  0.46999998093E+01 0. -1.
       -5    1    3    3    0  502 -0.58145063260E+03  0.42485716610E+03  0.23449587674E+03  0.75736309386E+03  0.46999998093E+01 0.  1.
</event>
<event>
 5   0  0.2646718E-04  0.1512741E+04  0.7818609E-02  0.8876025E-01
       -2   -1    0    0    0  501  0.00000000000E+00  0.00000000000E+00  0.31530959647E+03  0.31530959648E+03  0.25500000920E-02 0.  1.
        2   -1    0    0  501    0  0.00000000000E+00  0.00000000000E+00 -0.18143943769E+04  0.18143943769E+04  0.25500000920E-02 0. -1.
    10030    2    1    2    0    0  0.00000000000E+00  0.00000000000E+00 -0.14990847805E+04  0.21297039734E+04  0.15127405050E+04 0.  0.
        3    1    3    3  502    0  0.71175728921E+02  0.13775037182E+02 -0.18094917860E+04  0.18109434751E+04  0.10100000352E+00 0. -1.
       -3    1    3    3    0  502 -0.71175728921E+02 -0.13775037182E+02  0.31040700553E+03  0.31876049837E+03  0.10100000352E+00 0.  1.
</event>
<event>
 5   0  0.2734072E-04  0.1546382E+04  0.7818609E-02  0.8854182E-01
        2   -1    0    0  501    0  0.00000000000E+00  0.00000000000E+00  0.13279314074E+04  0.13279314074E+04  0.25500000920E-02 0.  1.
       -2   -1    0    0    0  501  0.00000000000E+00  0.00000000000E+00 -0.45019221977E+03  0.45019221978E+03  0.25500000920E-02 0. -1.
    10030    2    1    2    0    0  0.00000000000E+00  0.00000000000E+00  0.87773918761E+03  0.17781236272E+04  0.15463820847E+04 0.  0.
        5    1    3    3  502    0 -0.67582462708E+03 -0.32164807023E+03  0.66185327498E+03  0.99913375244E+03  0.46999998093E+01 0.  1.
       -5    1    3    3    0  502  0.67582462708E+03  0.32164807023E+03  0.21588591263E+03  0.77898987473E+03  0.46999998093E+01 0. -1.
</event>
<event>
 5   0  0.2696040E-04  0.1500930E+04  0.7818609E-02  0.8883835E-01
       -2   -1    0    0    0  501  0.00000000000E+00  0.00000000000E+00  0.31438825192E+03  0.31438825193E+03  0.25500000920E-02 0. -1.
        2   -1    0    0  501    0  0.00000000000E+00  0.00000000000E+00 -0.17914085173E+04  0.17914085173E+04  0.25500000920E-02 0.  1.
    10030    2    1    2    0    0  0.00000000000E+00  0.00000000000E+00 -0.14770202654E+04  0.21057967692E+04  0.15009301013E+04 0.  0.
        2    1    3    3  502    0 -0.34926803993E+03  0.80953775506E+02  0.18646250209E+03  0.40411624835E+03  0.25500000920E-02 0. -1.
       -2    1    3    3    0  502  0.34926803993E+03 -0.80953775506E+02 -0.16634827675E+04  0.17016805209E+04  0.25500000920E-02 0.  1.
</event>
<event>
 5   0  0.1426929E-04  0.1497121E+04  0.7818609E-02  0.8886370E-01
        1   -1    0    0  501    0  0.00000000000E+00  0.00000000000E+00  0.10503316338E+04  0.10503316339E+04  0.50400001928E-02 0. -1.
       -1   -1    0    0    0  501  0.00000000000E+00  0.00000000000E+00 -0.53349135100E+03  0.53349135103E+03  0.50400001928E-02 0.  1.
    10030    2    1    2    0    0  0.00000000000E+00  0.00000000000E+00  0.51684028284E+03  0.15838229849E+04  0.14971210270E+04 0.  0.
        1    1    3    3  502    0  0.28257930644E+03  0.55316657875E+03  0.70034211638E+03  0.93612147090E+03  0.50400001928E-02 0. -1.
       -1    1    3    3    0  502 -0.28257930644E+03 -0.55316657875E+03 -0.18350183354E+03  0.64770151398E+03  0.50400001928E-02 0.  1.
</event>
<event>
 5   0  0.1427609E-04  0.1500423E+04  0.7818609E-02  0.8884172E-01
        1   -1    0    0  501    0  0.00000000000E+00  0.00000000000E+00  0.15109962304E+04  0.15109962304E+04  0.50400001928E-02 0.  1.
       -1   -1    0    0    0  501  0.00000000000E+00  0.00000000000E+00 -0.37248071555E+03  0.37248071558E+03  0.50400001928E-02 0. -1.
    10030    2    1    2    0    0  0.00000000000E+00  0.00000000000E+00  0.11385155149E+04  0.18834769460E+04  0.15004225500E+04 0.  0.
        4    1    3    3  502    0 -0.98684125629E+02  0.49406748569E+03 -0.12850497357E+03  0.51995805427E+03  0.12699999809E+01 0. -1.
       -4    1    3    3    0  502  0.98684125629E+02 -0.49406748569E+03  0.12670204884E+04  0.13635188917E+04  0.12699999809E+01 0.  1.
</event>
<event>
 5   0  0.2641347E-04  0.1499178E+04  0.7818609E-02  0.8885000E-01
       -2   -1    0    0    0  501  0.00000000000E+00  0.00000000000E+00  0.31103733034E+03  0.31103733035E+03  0.25500000920E-02 0.  1.
        2   -1    0    0  501    0  0.00000000000E+00  0.00000000000E+00 -0.18064822184E+04  0.18064822184E+04  0.25500000920E-02 0. -1.
    10030    2    1    2    0    0  0.00000000000E+00  0.00000000000E+00 -0.14954448880E+04  0.21175195487E+04  0.14991776499E+04 0.  0.
        4    1    3    3  502    0 -0.17694399229E+03  0.19623310033E+03  0.24307676168E+03  0.35903277154E+03  0.12699999809E+01 0.  1.
       -4    1    3    3    0  502  0.17694399229E+03 -0.19623310033E+03 -0.17385216497E+04  0.17584867772E+04  0.12699999809E+01 0. -1.
</event>
<event>
 5   0  0.2641347E-04  0.1441468E+04  0.7818609E-02  0.8924337E-01
       -2   -1    0    0    0  501  0.00000000000E+00  0.00000000000E+00  0.14957132877E+04  0.14957132877E+04  0.25500000920E-02 0.  1.
        2   -1    0    0  501    0  0.00000000000E+00  0.00000000000E+00 -0.34729731731E+03  0.34729731732E+03  0.25500000920E-02 0. -1.
    10030    2    1    2    0    0  0.00000000000E+00  0.00000000000E+00  0.11484159704E+04  0.18430106051E+04  0.14414676026E+04 0.  0.
        4    1    3    3  502    0  0.33425487588E+03  0.21922188700E+03  0.13409966508E+04  0.13993063239E+04  0.12699999809E+01 0.  1.
       -4    1    3    3    0  502 -0.33425487588E+03 -0.21922188700E+03 -0.19258068035E+03  0.44370428118E+03  0.12699999809E+01 0. -1.
</event>
<event>
 5   0  0.1443750E-04  0.1505145E+04  0.7818609E-02  0.8881039E-01
       -1   -1    0    0    0  501  0.00000000000E+00  0.00000000000E+00  0.38746313788E+03  0.38746313792E+03  0.50400001928E-02 0. -1.
        1   -1    0    0  501    0  0.00000000000E+00  0.00000000000E+00 -0.14617275762E+04  0.14617275762E+04  0.50400001928E-02 0.  1.
    10030    2    1    2    0    0  0.00000000000E+00  0.00000000000E+00 -0.10742644383E+04  0.18491907142E+04  0.15051452468E+04 0.  0.
        2    1    3    3  502    0 -0.28141528023E+03 -0.38163149173E+03 -0.12551194210E+04  0.13417011279E+04  0.25500000920E-02 0.  1.
       -2    1    3    3    0  502  0.28141528023E+03  0.38163149173E+03  0.18085498270E+03  0.50748958629E+03  0.25500000920E-02 0. -1.
</event>
<event>
 5   0  0.1443750E-04  0.1503098E+04  0.7818609E-02  0.8882396E-01
       -1   -1    0    0    0  501  0.00000000000E+00  0.00000000000E+00  0.39230425714E+03  0.39230425717E+03  0.50400001928E-02 0. -1.
        1   -1    0    0  501    0  0.00000000000E+00  0.00000000000E+00 -0.14397644341E+04  0.14397644341E+04  0.50400001928E-02 0.  1.
    10030    2    1    2    0    0  0.00000000000E+00  0.00000000000E+00 -0.10474601770E+04  0.18320686913E+04  0.15030977571E+04 0.  0.
        2    1    3    3  502    0 -0.53304686517E+03 -0.23481662778E+03  0.55130427752E+02  0.58507877523E+03  0.25500000920E-02 0. -1.
       -2    1    3    3    0  502  0.53304686517E+03  0.23481662778E+03 -0.11025906047E+04  0.12469899161E+04  0.25500000920E-02 0.  1.
</event>
<event>
 5   0  0.2696040E-04  0.1497675E+04  0.7818609E-02  0.8886001E-01
        2   -1    0    0  501    0  0.00000000000E+00  0.00000000000E+00  0.19711045066E+04  0.19711045066E+04  0.25500000920E-02 0. -1.
       -2   -1    0    0    0  501  0.00000000000E+00  0.00000000000E+00 -0.28448892696E+03  0.28448892697E+03  0.25500000920E-02 0.  1.
    10030    2    1    2    0    0  0.00000000000E+00  0.00000000000E+00  0.16866155796E+04  0.22555934336E+04  0.14976747391E+04 0.  0.
        2    1    3    3  502    0 -0.57356109561E+03  0.45930074943E+03  0.10606609853E+04  0.12903221437E+04  0.25500000920E-02 0. -1.
       -2    1    3    3    0  502  0.57356109561E+03 -0.45930074943E+03  0.62595459432E+03  0.96527128984E+03  0.25500000920E-02 0.  1.
</event>
<event>
 5   0  0.2646718E-04  0.1494022E+04  0.7818609E-02  0.8888438E-01
        2   -1    0    0  501    0  0.00000000000E+00  0.00000000000E+00  0.81990177341E+03  0.81990177341E+03  0.25500000920E-02 0. -1.
       -2   -1    0    0    0  501  0.00000000000E+00  0.00000000000E+00 -0.68060009681E+03  0.68060009681E+03  0.25500000920E-02 0.  1.
    10030    2    1    2    0    0  0.00000000000E+00  0.00000000000E+00  0.13930167660E+03  0.15005018702E+04  0.14940217219E+04 0.  0.
        3    1    3    3  502    0  0.50565946566E+03 -0.14975032722E+02 -0.48237804088E+03  0.69900238293E+03  0.10100000352E+00 0.  1.
       -3    1    3    3    0  502 -0.50565946566E+03  0.14975032722E+02  0.62167971747E+03  0.80149948730E+03  0.10100000352E+00 0. -1.
</event>
<event>
 5   0  0.2696040E-04  0.1496105E+04  0.7818609E-02  0.8887047E-01
        2   -1    0    0  501    0  0.00000000000E+00  0.00000000000E+00  0.82642882235E+03  0.82642882235E+03  0.25500000920E-02 0.  1.
       -2   -1    0    0    0  501  0.00000000000E+00  0.00000000000E+00 -0.67710948211E+03  0.67710948212E+03  0.25500000920E-02 0. -1.
    10030    2    1    2    0    0  0.00000000000E+00  0.00000000000E+00  0.14931934024E+03  0.15035383045E+04  0.14961053331E+04 0.  0.
        2    1    3    3  502    0  0.10287959891E+03  0.30725135088E+03  0.75224616686E+03  0.81906159723E+03  0.25500000920E-02 0.  1.
       -2    1    3    3    0  502 -0.10287959891E+03 -0.30725135088E+03 -0.60292682663E+03  0.68447670725E+03  0.25500000920E-02 0. -1.
</event>
<event>
 5   0  0.2618901E-04  0.1502032E+04  0.7818609E-02  0.8883103E-01
        2   -1    0    0  501    0  0.00000000000E+00  0.00000000000E+00  0.16964521795E+04  0.16964521795E+04  0.25500000920E-02 0.  1.
       -2   -1    0    0    0  501  0.00000000000E+00  0.00000000000E+00 -0.33247329210E+03  0.33247329211E+03  0.25500000920E-02 0. -1.
    10030    2    1    2    0    0  0.00000000000E+00  0.00000000000E+00  0.13639788874E+04  0.20289254716E+04  0.15020320117E+04 0.  0.
        1    1    3    3  502    0 -0.67801119005E+02 -0.73496158617E+03  0.86944986628E+03  0.11404861222E+04  0.50400001928E-02 0.  1.
       -1    1    3    3    0  502  0.67801119005E+02  0.73496158617E+03  0.49452902116E+03  0.88843934946E+03  0.50400001928E-02 0. -1.
</event>
<event>
 5   0  0.1474203E-04  0.1507324E+04  0.7818609E-02  0.8879597E-01
       -1   -1    0    0    0  501  0.00000000000E+00  0.00000000000E+00  0.85119841905E+03  0.85119841906E+03  0.50400001928E-02 0. -1.
        1   -1    0    0  501    0  0.00000000000E+00  0.00000000000E+00 -0.66730196155E+03  0.66730196156E+03  0.50400001928E-02 0.  1.
    10030    2    1    2    0    0  0.00000000000E+00  0.00000000000E+00  0.18389645750E+03  0.15185003806E+04  0.15073239529E+04 0.  0.
        3    1    3    3  502    0  0.41909362482E+03  0.54403334857E+03  0.40472514133E+03  0.79712872294E+03  0.10100000352E+00 0. -1.
       -3    1    3    3    0  502 -0.41909362482E+03 -0.54403334857E+03 -0.22082868383E+03  0.72137165769E+03  0.10100000352E+00 0.  1.
</event>
<event>
 5   0  0.2734072E-04  0.1491609E+04  0.7818609E-02  0.8890052E-01
       -2   -1    0    0    0  501  0.00000000000E+00  0.00000000000E+00  0.16934157926E+04  0.16934157926E+04  0.25500000920E-02 0.  1.
        2   -1    0    0  501    0  0.00000000000E+00  0.00000000000E+00 -0.32846283480E+03  0.32846283481E+03  0.25500000920E-02 0. -1.
    10030    2    1    2    0    0  0.00000000000E+00  0.00000000000E+00  0.13649529578E+04  0.20218786274E+04  0.14916087312E+04 0.  0.
        5    1    3    3  502    0  0.69094646578E+03  0.19776007586E+03  0.95251069952E+03  0.11932371051E+04  0.46999998093E+01 0.  1.
       -5    1    3    3    0  502 -0.69094646578E+03 -0.19776007586E+03  0.41244225832E+03  0.82864152239E+03  0.46999998093E+01 0. -1.
</event>
<event>
 5   0  0.2641347E-04  0.1524400E+04  0.7818609E-02  0.8868388E-01
        2   -1    0    0  501    0  0.00000000000E+00  0.00000000000E+00  0.64075180298E+03  0.64075180299E+03  0.25500000920E-02 0. -1.
       -2   -1    0    0    0  501  0.00000000000E+00  0.00000000000E+00 -0.90666711278E+03  0.90666711279E+03  0.25500000920E-02 0.  1.
    10030    2    1    2    0    0  0.00000000000E+00  0.00000000000E+00 -0.26591530980E+03  0.15474189158E+04  0.15243996684E+04 0.  0.
        4    1    3    3  502    0  0.52435092632E+03 -0.47897485858E+03 -0.41387866285E+03  0.82198416624E+03  0.12699999809E+01 0. -1.
       -4    1    3    3    0  502 -0.52435092632E+03  0.47897485858E+03  0.14796335305E+03  0.72543474953E+03  0.12699999809E+01 0.  1.
</event>
<event>
 5   0  0.2696040E-04  0.1462543E+04  0.7818609E-02  0.8909751E-01
       -2   -1    0    0    0  501  0.00000000000E+00  0.00000000000E+00  0.38758732021E+03  0.38758732021E+03  0.25500000920E-02 0.  1.
        2   -1    0    0  501    0  0.00000000000E+00  0.00000000000E+00 -0.13797091215E+04  0.13797091215E+04  0.25500000920E-02 0. -1.
    10030    2    1    2    0    0  0.00000000000E+00  0.00000000000E+00 -0.99212180134E+03  0.17672964418E+04  0.14625426641E+04 0.  0.
        2    1    3    3  502    0 -0.40701866900E+03  0.13299310818E+03  0.22025681323E+03  0.48152302906E+03  0.25500000920E-02 0.  1.
       -2    1    3    3    0  502  0.40701866900E+03 -0.13299310818E+03 -0.12123786146E+04  0.12857734127E+04  0.25500000920E-02 0. -1.
</event>
<event>
 5   0  0.1474203E-04  0.1503640E+04  0.7818609E-02  0.8882036E-01
       -1   -1    0    0    0  501  0.00000000000E+00  0.00000000000E+00  0.47523249256E+03  0.47523249258E+03  0.50400001928E-02 0. -1.
        1   -1    0    0  501    0  0.00000000000E+00  0.00000000000E+00 -0.11893822039E+04  0.11893822039E+04  0.50400001928E-02 0.  1.
    10030    2    1    2    0    0  0.00000000000E+00  0.00000000000E+00 -0.71414971130E+03  0.16646146964E+04  0.15036396767E+04 0.  0.
        3    1    3    3  502    0 -0.75158068068E+03  0.14399353141E+02 -0.34341724457E+03  0.82644798688E+03  0.10100000352E+00 0.  1.
       -3    1    3    3    0  502  0.75158068068E+03 -0.14399353141E+02 -0.37073246673E+03  0.83816670957E+03  0.10100000352E+00 0. -1.
</event>
<event>
 5   0  0.1484251E-04  0.1419470E+04  0.7818609E-02  0.8939845E-01
       -1   -1    0    0    0  501  0.00000000000E+00  0.00000000000E+00  0.55482830309E+03  0.55482830312E+03  0.50400001928E-02 0. -1.
        1   -1    0    0  501    0  0.00000000000E+00  0.00000000000E+00 -0.90789075933E+03  0.90789075934E+03  0.50400001928E-02 0.  1.
    10030    2    1    2    0    0  0.00000000000E+00  0.00000000000E+00 -0.35306245623E+03  0.14627190625E+04  0.14194696044E+04 0.  0.
        5    1    3    3  502    0  0.36218091818E+02  0.61904581298E+02 -0.90413080658E+03  0.90698320424E+03  0.46999998093E+01 0.  1.
       -5    1    3    3    0  502 -0.36218091818E+02 -0.61904581298E+02  0.55106835035E+03  0.55573585822E+03  0.46999998093E+01 0. -1.
</event>
<event>
 5   0  0.2618901E-04  0.1490853E+04  0.7818609E-02  0.8890559E-01
       -2   -1    0    0    0  501  0.00000000000E+00  0.00000000000E+00  0.18960408305E+03  0.18960408307E+03  0.25500000920E-02 0. -1.
        2   -1    0    0  501    0  0.00000000000E+00  0.00000000000E+00 -0.29306354956E+04  0.29306354956E+04  0.25500000920E-02 0.  1.
    10030    2    1    2    0    0  0.00000000000E+00  0.00000000000E+00 -0.27410314126E+04  0.31202395787E+04  0.14908527170E+04 0.  0.
        1    1    3    3  502    0 -0.48538679853E+03 -0.55287838860E+03 -0.11194905898E+04  0.13396021937E+04  0.50400001928E-02 0.  1.
       -1    1    3    3    0  502  0.48538679853E+03  0.55287838860E+03 -0.16215408228E+04  0.17806373849E+04  0.50400001928E-02 0. -1.
</event>
<event>
 5   0  0.2734072E-04  0.1508028E+04  0.7818609E-02  0.8879132E-01
        2   -1    0    0  501    0  0.00000000000E+00  0.00000000000E+00  0.17436451720E+04  0.17436451720E+04  0.25500000920E-02 0. -1.
       -2   -1    0    0    0  501  0.00000000000E+00  0.00000000000E+00 -0.32606230509E+03  0.32606230510E+03  0.25500000920E-02 0.  1.
    10030    2    1    2    0    0  0.00000000000E+00  0.00000000000E+00  0.14175828669E+04  0.20697074771E+04  0.15080278035E+04 0.  0.
        5    1    3    3  502    0  0.59640554144E+03 -0.33084885705E+03  0.11500203580E+04  0.13370600023E+04  0.46999998093E+01 0. -1.
       -5    1    3    3    0  502 -0.59640554144E+03  0.33084885705E+03  0.26756250891E+03  0.73264747475E+03  0.46999998093E+01 0.  1.
</event>
<event>
 5   0  0.2734072E-04  0.1503794E+04  0.7818609E-02  0.8881934E-01
        2   -1    0    0  501    0  0.00000000000E+00  0.00000000000E+00  0.16337905030E+04  0.16337905030E+04  0.25500000920E-02 0.  1.
       -2   -1    0    0    0  501  0.00000000000E+00  0.00000000000E+00 -0.34603543415E+03  0.34603543416E+03  0.25500000920E-02 0. -1.
    10030    2    1    2    0    0  0.00000000000E+00  0.00000000000E+00  0.12877550689E+04  0.19798259372E+04  0.15037944089E+04 0.  0.
        5    1    3    3  502    0 -0.48732029555E+03 -0.36224991711E+03  0.12276636511E+04  0.13696299511E+04  0.46999998093E+01 0. -1.
       -5    1    3    3    0  502  0.48732029555E+03  0.36224991711E+03  0.60091417811E+02  0.61019598605E+03  0.46999998093E+01 0.  1.
</event>
<event>
 5   0  0.1427609E-04  0.1495189E+04  0.7818609E-02  0.8887659E-01
       -1   -1    0    0    0  501  0.00000000000E+00  0.00000000000E+00  0.29962442033E+03  0.29962442037E+03  0.50400001928E-02 0. -1.
        1   -1    0    0  501    0  0.00000000000E+00  0.00000000000E+00 -0.18653261692E+04  0.18653261692E+04  0.50400001928E-02 0.  1.
    10030    2    1    2    0    0  0.00000000000E+00  0.00000000000E+00 -0.15657017489E+04  0.21649505896E+04  0.14951886466E+04 0.  0.
        4    1    3    3  502    0 -0.62109481274E+03 -0.35005740063E+03 -0.45715434272E+03  0.84693013650E+03  0.12699999809E+01 0.  1.
       -4    1    3    3    0  502  0.62109481274E+03  0.35005740063E+03 -0.11085474062E+04  0.13180204531E+04  0.12699999809E+01 0. -1.
</event>
<event>
 5   0  0.1427609E-04  0.1515220E+04  0.7818609E-02  0.8874394E-01
        1   -1    0    0  501    0  0.00000000000E+00  0.00000000000E+00  0.90762290474E+03  0.90762290475E+03  0.50400001928E-02 0. -1.
       -1   -1    0    0    0  501  0.00000000000E+00  0.00000000000E+00 -0.63239142357E+03  0.63239142359E+03  0.50400001928E-02 0.  1.
    10030    2    1    2    0    0  0.00000000000E+00  0.00000000000E+00  0.27523148116E+03  0.15400143283E+04  0.15152200379E+04 0.  0.
        4    1    3    3  502    0  0.15432526389E+03  0.16287208454E+03  0.87307796892E+03  0.90144903112E+03  0.12699999809E+01 0. -1.
       -4    1    3    3    0  502 -0.15432526389E+03 -0.16287208454E+03 -0.59784648775E+03  0.63856529722E+03  0.12699999809E+01 0.  1.
</event>
<event>
 5   0  0.1443750E-04  0.1499623E+04  0.7818609E-02  0.8884704E-01
       -1   -1    0    0    0  501  0.00000000000E+00  0.00000000000E+00  0.26847829219E+03  0.26847829224E+03  0.50400001928E-02 0. -1.
        1   -1    0    0  501    0  0.00000000000E+00  0.00000000000E+00 -0.20940882933E+04  0.20940882933E+04  0.50400001928E-02 0.  1.
    10030    2    1    2    0    0  0.00000000000E+00  0.00000000000E+00 -0.18256100011E+04  0.23625665855E+04  0.14996229509E+04 0.  0.
        2    1    3    3  502    0  0.13516823774E+03 -0.44346073755E+03  0.15621919316E+02  0.46386627665E+03  0.25500000920E-02 0. -1.
       -2    1    3    3    0  502 -0.13516823774E+03  0.44346073755E+03 -0.18412319204E+04  0.18987003089E+04  0.25500000920E-02 0.  1.
</event>
<event>
 5   0  0.2618901E-04  0.1499924E+04  0.7818609E-02  0.8884503E-01
        2   -1    0    0  501    0  0.00000000000E+00  0.00000000000E+00  0.30112968840E+04  0.30112968840E+04  0.25500000920E-02 0.  1.
       -2   -1    0    0    0  501  0.00000000000E+00  0.00000000000E+00 -0.18677773834E+03  0.18677773836E+03  0.25500000920E-02 0. -1.
    10030    2    1    2    0    0  0.00000000000E+00  0.00000000000E+00  0.28245191457E+04  0.31980746224E+04  0.14999242934E+04 0.  0.
        1    1    3    3  502    0 -0.32015533671E+03 -0.19479303637E+03  0.27973406592E+04  0.28223321084E+04  0.50400001928E-02 0.  1.
       -1    1    3    3    0  502  0.32015533671E+03  0.19479303637E+03  0.27178486490E+02  0.37574251396E+03  0.50400001928E-02 0. -1.
</event>
<event>
 5   0  0.2734072E-04  0.1469692E+04  0.7818609E-02  0.8904862E-01
        2   -1    0    0  501    0  0.00000000000E+00  0.00000000000E+00  0.14129810199E+04  0.14129810199E+04  0.25500000920E-02 0.  1.
       -2   -1    0    0    0  501  0.00000000000E+00  0.00000000000E+00 -0.38216955993E+03  0.38216955994E+03  0.25500000920E-02 0. -1.
    10030    2    1    2    0    0  0.00000000000E+00  0.00000000000E+00  0.10308114599E+04  0.17951505798E+04  0.14696915793E+04 0.  0.
        5    1    3    3  502    0  0.34334844783E+03  0.28844126530E+03 -0.19565038911E+03  0.48927260797E+03  0.46999998093E+01 0. -1.
       -5    1    3    3    0  502 -0.34334844783E+03 -0.28844126530E+03  0.12264618491E+04  0.13058779718E+04  0.46999998093E+01 0.  1.
</event>
<event>
 5   0  0.2646718E-04  0.1501060E+04  0.7818609E-02  0.8883749E-01
       -2   -1    0    0    0  501  0.00000000000E+00  0.00000000000E+00  0.55864070839E+03  0.55864070840E+03  0.25500000920E-02 0.  1.
        2   -1    0    0  501    0  0.00000000000E+00  0.00000000000E+00 -0.10083313187E+04  0.10083313187E+04  0.25500000920E-02 0. -1.
    10030    2    1    2    0    0  0.00000000000E+00  0.00000000000E+00 -0.44969061031E+03  0.15669720271E+04  0.15010595220E+04 0.  0.
        3    1    3    3  502    0 -0.15865742306E+03 -0.55281825376E+03 -0.72821671942E+03  0.92794385618E+03  0.10100000352E+00 0. -1.
       -3    1    3    3    0  502  0.15865742306E+03  0.55281825376E+03  0.27852610911E+03  0.63902817092E+03  0.10100000352E+00 0.  1.
</event>
<event>
 5   0  0.1427609E-04  0.1497802E+04  0.7818609E-02  0.8885916E-01
       -1   -1    0    0    0  501  0.00000000000E+00  0.00000000000E+00  0.59638871320E+03  0.59638871322E+03  0.50400001928E-02 0. -1.
        1   -1    0    0  501    0  0.00000000000E+00  0.00000000000E+00 -0.94041444292E+03  0.94041444294E+03  0.50400001928E-02 0.  1.
    10030    2    1    2    0    0  0.00000000000E+00  0.00000000000E+00 -0.34402572972E+03  0.15368031562E+04  0.14978018020E+04 0.  0.
        4    1    3    3  502    0 -0.12930720077E+03 -0.67585817822E+03 -0.47525266010E+03  0.83628424179E+03  0.12699999809E+01 0.  1.
       -4    1    3    3    0  502  0.12930720077E+03  0.67585817822E+03  0.13122693037E+03  0.70051891437E+03  0.12699999809E+01 0. -1.
</event>
<event>
 5   0  0.2618901E-04  0.1498077E+04  0.7818609E-02  0.8885733E-01
        2   -1    0    0  501    0  0.00000000000E+00  0.00000000000E+00  0.80576633089E+03  0.80576633090E+03  0.25500000920E-02 0. -1.
       -2   -1    0    0    0  501  0.00000000000E+00  0.00000000000E+00 -0.69630411484E+03  0.69630411485E+03  0.25500000920E-02 0.  1.
    10030    2    1    2    0    0  0.00000000000E+00  0.00000000000E+00  0.10946221605E+03  0.15020704457E+04  0.14980766493E+04 0.  0.
        1    1    3    3  502    0 -0.34245048839E+03 -0.17289456667E+03  0.69979182120E+03  0.79804352089E+03  0.50400001928E-02 0. -1.
       -1    1    3    3    0  502  0.34245048839E+03  0.17289456667E+03 -0.59032960515E+03  0.70402692486E+03  0.50400001928E-02 0.  1.
</event>
<event>
 5   0  0.1427609E-04  0.1500348E+04  0.7818609E-02  0.8884221E-01
        1   -1    0    0  501    0  0.00000000000E+00  0.00000000000E+00  0.15023439268E+04  0.15023439268E+04  0.50400001928E-02 0. -1.
       -1   -1    0    0    0  501  0.00000000000E+00  0.00000000000E+00 -0.37458875923E+03  0.37458875926E+03  0.50400001928E-02 0.  1.
    10030    2    1    2    0    0  0.00000000000E+00  0.00000000000E+00  0.11277551676E+04  0.18769326861E+04  0.15003481563E+04 0.  0.
        4    1    3    3  502    0  0.60915773562E+02  0.42004478487E+02  0.14977662441E+04  0.14995934258E+04  0.12699999809E+01 0. -1.
       -4    1    3    3    0  502 -0.60915773562E+02 -0.42004478487E+02 -0.37001107656E+03  0.37733926029E+03  0.12699999809E+01 0.  1.
</event>
<event>
 5   0  0.2646718E-04  0.1503840E+04  0.7818609E-02  0.8881903E-01
       -2   -1    0    0    0  501  0.00000000000E+00  0.00000000000E+00  0.55233345505E+03  0.55233345506E+03  0.25500000920E-02 0. -1.
        2   -1    0    0  501    0  0.00000000000E+00  0.00000000000E+00 -0.10236277320E+04  0.10236277320E+04  0.25500000920E-02 0.  1.
    10030    2    1    2    0    0  0.00000000000E+00  0.00000000000E+00 -0.47129427696E+03  0.15759611871E+04  0.15038402068E+04 0.  0.
        3    1    3    3  502    0 -0.13200360032E+03 -0.72746179889E+03 -0.37917610234E+03  0.83090321105E+03  0.10100000352E+00 0.  1.
       -3    1    3    3    0  502  0.13200360032E+03  0.72746179889E+03 -0.92118174621E+02  0.74505797602E+03  0.10100000352E+00 0. -1.
</event>
<event>
 5   0  0.2641347E-04  0.1504831E+04  0.7818609E-02  0.8881247E-01
        2   -1    0    0  501    0  0.00000000000E+00  0.00000000000E+00  0.12968343228E+04  0.12968343228E+04  0.25500000920E-02 0. -1.
       -2   -1    0    0    0  501  0.00000000000E+00  0.00000000000E+00 -0.43654702533E+03  0.43654702534E+03  0.25500000920E-02 0.  1.
    10030    2    1    2    0    0  0.00000000000E+00  0.00000000000E+00  0.86028729751E+03  0.17333813482E+04  0.15048311081E+04 0.  0.
        4    1    3    3  502    0 -0.28977134600E+03  0.47648618470E+03  0.10119513874E+04  0.11554452564E+04  0.12699999809E+01 0. -1.
       -4    1    3    3    0  502  0.28977134600E+03 -0.47648618470E+03 -0.15166408985E+03  0.57793609182E+03  0.12699999809E+01 0.  1.
</event>
<event>
 5   0  0.1426929E-04  0.1522216E+04  0.7818609E-02  0.8869813E-01
       -1   -1    0    0    0  501  0.00000000000E+00  0.00000000000E+00  0.57411021490E+03  0.57411021492E+03  0.50400001928E-02 0. -1.
        1   -1    0    0  501    0  0.00000000000E+00  0.00000000000E+00 -0.10090140605E+04  0.10090140605E+04  0.50400001928E-02 0.  1.
    10030    2    1    2    0    0  0.00000000000E+00  0.00000000000E+00 -0.43490384559E+03  0.15831242754E+04  0.15222158574E+04 0.  0.
        1    1    3    3  502    0  0.73410875019E+03 -0.70630731766E+02 -0.21827380875E+02  0.73782165322E+03  0.50400001928E-02 0.  1.
       -1    1    3    3    0  502 -0.73410875019E+03  0.70630731766E+02 -0.41307646472E+03  0.84530262221E+03  0.50400001928E-02 0. -1.
</event>
<event>
 5   0  0.2618901E-04  0.1500914E+04  0.7818609E-02  0.8883845E-01
       -2   -1    0    0    0  501  0.00000000000E+00  0.00000000000E+00  0.26374527548E+03  0.26374527550E+03  0.25500000920E-02 0. -1.
        2   -1    0    0  501    0  0.00000000000E+00  0.00000000000E+00 -0.21353403194E+04  0.21353403194E+04  0.25500000920E-02 0.  1.
    10030    2    1    2    0    0  0.00000000000E+00  0.00000000000E+00 -0.18715950439E+04  0.23990855949E+04  0.15009142824E+04 0.  0.
        1    1    3    3  502    0  0.53617531076E+03 -0.48510604639E+03 -0.61462293375E+03  0.94898534806E+03  0.50400001928E-02 0. -1.
       -1    1    3    3    0  502 -0.53617531076E+03  0.48510604639E+03 -0.12569721101E+04  0.14501002468E+04  0.50400001928E-02 0.  1.
</event>
<event>
 5   0  0.1484251E-04  0.1499979E+04  0.7818609E-02  0.8884467E-01
        1   -1    0    0  501    0  0.00000000000E+00  0.00000000000E+00  0.10212155342E+04  0.10212155343E+04  0.50400001928E-02 0. -1.
       -1   -1    0    0    0  501  0.00000000000E+00  0.00000000000E+00 -0.55079904178E+03  0.55079904180E+03  0.50400001928E-02 0.  1.
    10030    2    1    2    0    0  0.00000000000E+00  0.00000000000E+00  0.47041649246E+03  0.15720145761E+04  0.14999793835E+04 0.  0.
        5    1    3    3  502    0 -0.38056006271E+03 -0.61249098154E+03  0.45124179796E+03  0.85065410951E+03  0.46999998093E+01 0.  1.
       -5    1    3    3    0  502  0.38056006271E+03  0.61249098154E+03  0.19174694506E+02  0.72136046655E+03  0.46999998093E+01 0. -1.
</event>
<event>
 5   0  0.1484251E-04  0.1494988E+04  0.7818609E-02  0.8887793E-01
        1   -1    0    0  501    0  0.00000000000E+00  0.00000000000E+00  0.11354272883E+04  0.11354272883E+04  0.50400001928E-02 0. -1.
       -1   -1    0    0    0  501  0.00000000000E+00  0.00000000000E+00 -0.49210316062E+03  0.49210316065E+03  0.50400001928E-02 0.  1.
    10030    2    1    2    0    0  0.00000000000E+00  0.00000000000E+00  0.64332412769E+03  0.16275304490E+04  0.14949881033E+04 0.  0.
        5    1    3    3  502    0 -0.66541111775E+03  0.17524570557E+03  0.63950959981E+03  0.93940280561E+03  0.46999998093E+01 0. -1.
       -5    1    3    3    0  502  0.66541111775E+03 -0.17524570557E+03  0.38145278846E+01  0.68812764337E+03  0.46999998093E+01 0.  1.
</event>
<event>
 5   0  0.1427609E-04  0.1498537E+04  0.7818609E-02  0.8885426E-01
        1   -1    0    0  501    0  0.00000000000E+00  0.00000000000E+00  0.12099459099E+04  0.12099459099E+04  0.50400001928E-02 0. -1.
       -1   -1    0    0    0  501  0.00000000000E+00  0.00000000000E+00 -0.46399068632E+03  0.46399068634E+03  0.50400001928E-02 0.  1.
    10030    2    1    2    0    0  0.00000000000E+00  0.00000000000E+00  0.74595522362E+03  0.16739365963E+04  0.14985374646E+04 0.  0.
        4    1    3    3  502    0 -0.68941986202E+03  0.27481069328E+03  0.48788344670E+03  0.88817370697E+03  0.12699999809E+01 0. -1.
       -4    1    3    3    0  502  0.68941986202E+03 -0.27481069328E+03  0.25807177692E+03  0.78576288932E+03  0.12699999809E+01 0.  1.
</event>
<event>
 5   0  0.1474203E-04  0.1500734E+04  0.7818609E-02  0.8883965E-01
        1   -1    0    0  501    0  0.00000000000E+00  0.00000000000E+00  0.66820444340E+03  0.66820444342E+03  0.50400001928E-02 0.  1.
       -1   -1    0    0    0  501  0.00000000000E+00  0.00000000000E+00 -0.84263221042E+03  0.84263221043E+03  0.50400001928E-02 0. -1.
    10030    2    1    2    0    0  0.00000000000E+00  0.00000000000E+00 -0.17442776701E+03  0.15108366539E+04  0.15007339367E+04 0.  0.
        3    1    3    3  502    0  0.69923230123E+03  0.15588057867E+03 -0.31193395750E+03  0.78136250866E+03  0.10100000352E+00 0. -1.
       -3    1    3    3    0  502 -0.69923230123E+03 -0.15588057867E+03  0.13750619048E+03  0.72947414520E+03  0.10100000352E+00 0.  1.
</event>
<event>
 5   0  0.1474203E-04  0.1500273E+04  0.7818609E-02  0.8884271E-01
       -1   -1    0    0    0  501  0.00000000000E+00  0.00000000000E+00  0.62120149187E+03  0.62120149189E+03  0.50400001928E-02 0.  1.
        1   -1    0    0  501    0  0.00000000000E+00  0.00000000000E+00 -0.90583293208E+03  0.90583293209E+03  0.50400001928E-02 0. -1.
    10030    2    1    2    0    0  0.00000000000E+00  0.00000000000E+00 -0.28463144021E+03  0.15270344240E+04  0.15002730003E+04 0.  0.
        3    1    3    3  502    0 -0.30165201662E+03  0.66970124343E+03  0.12753662866E+02  0.73461306870E+03  0.10100000352E+00 0.  1.
       -3    1    3    3    0  502  0.30165201662E+03 -0.66970124343E+03 -0.29738510307E+03  0.79242135529E+03  0.10100000352E+00 0. -1.
</event>
<event>
 5   0  0.1427609E-04  0.1503801E+04  0.7818609E-02  0.8881929E-01
       -1   -1    0    0    0  501  0.00000000000E+00  0.00000000000E+00  0.10181032670E+04  0.10181032671E+04  0.50400001928E-02 0. -1.
        1   -1    0    0  501    0  0.00000000000E+00  0.00000000000E+00 -0.55530184670E+03  0.55530184672E+03  0.50400001928E-02 0.  1.
    10030    2    1    2    0    0  0.00000000000E+00  0.00000000000E+00  0.46280142034E+03  0.15734051138E+04  0.15038013490E+04 0.  0.
        4    1    3    3  502    0 -0.13958857680E+03 -0.99903434823E+02 -0.53452533460E+03  0.56141305052E+03  0.12699999809E+01 0.  1.
       -4    1    3    3    0  502  0.13958857680E+03  0.99903434823E+02  0.99732675494E+03  0.10119920633E+04  0.12699999809E+01 0. -1.
</event>
<event>
 5   0  0.1474203E-04  0.1496024E+04  0.7818609E-02  0.8887101E-01
       -1   -1    0    0    0  501  0.00000000000E+00  0.00000000000E+00  0.73718965789E+03  0.73718965791E+03  0.50400001928E-02 0.  1.
        1   -1    0    0  501    0  0.00000000000E+00  0.00000000000E+00 -0.75899304076E+03  0.75899304077E+03  0.50400001928E-02 0. -1.
    10030    2    1    2    0    0  0.00000000000E+00  0.00000000000E+00 -0.21803382867E+02  0.14961826987E+04  0.14960238234E+04 0.  0.
        3    1    3    3  502    0 -0.52125867349E+03  0.49327268620E+03 -0.22185835278E+03  0.75116555202E+03  0.10100000352E+00 0. -1.
       -3    1    3    3    0  502  0.52125867349E+03 -0.49327268620E+03  0.20005496991E+03  0.74501714666E+03  0.10100000352E+00 0.  1.
</event>
<event>
 5   0  0.1426929E-04  0.1500627E+04  0.7818609E-02  0.8884036E-01
        1   -1    0    0  501    0  0.00000000000E+00  0.00000000000E+00  0.83405212555E+03  0.83405212557E+03  0.50400001928E-02 0. -1.
       -1   -1    0    0    0  501  0.00000000000E+00  0.00000000000E+00 -0.67498188666E+03  0.67498188668E+03  0.50400001928E-02 0.  1.
    10030    2    1    2    0    0  0.00000000000E+00  0.00000000000E+00  0.15907023889E+03  0.15090340122E+04  0.15006266388E+04 0.  0.
        1    1    3    3  502    0 -0.20123969043E+03  0.62671713368E+03  0.44168931122E+03  0.79269239073E+03  0.50400001928E-02 0. -1.
       -1    1    3    3    0  502  0.20123969043E+03 -0.62671713368E+03 -0.28261907232E+03  0.71634162152E+03  0.50400001928E-02 0.  1.
</event>
<event>
 5   0  0.1484251E-04  0.1496795E+04  0.7818609E-02  0.8886587E-01
        1   -1    0    0  501    0  0.00000000000E+00  0.00000000000E+00  0.13500841023E+04  0.13500841023E+04  0.50400001928E-02 0.  1.
       -1   -1    0    0    0  501  0.00000000000E+00  0.00000000000E+00 -0.41486200426E+03  0.41486200429E+03  0.50400001928E-02 0. -1.
    10030    2    1    2    0    0  0.00000000000E+00  0.00000000000E+00  0.93522209802E+03  0.17649461066E+04  0.14967947042E+04 0.  0.
        5    1    3    3  502    0  0.75406744971E+02 -0.47371796259E+03 -0.20974043508E+03  0.52355326890E+03  0.46999998093E+01 0. -1.
       -5    1    3    3    0  502 -0.75406744971E+02  0.47371796259E+03  0.11449625331E+04  0.12413928377E+04  0.46999998093E+01 0.  1.
</event>
<event>
 5   0  0.2646718E-04  0.1504359E+04  0.7818609E-02  0.8881560E-01
        2   -1    0    0  501    0  0.00000000000E+00  0.00000000000E+00  0.18629816818E+04  0.18629816818E+04  0.25500000920E-02 0. -1.
       -2   -1    0    0    0  501  0.00000000000E+00  0.00000000000E+00 -0.30369266582E+03  0.30369266583E+03  0.25500000920E-02 0.  1.
    10030    2    1    2    0    0  0.00000000000E+00  0.00000000000E+00  0.15592890160E+04  0.21666743476E+04  0.15043588313E+04 0.  0.
        3    1    3    3  502    0 -0.74049269559E+02  0.48061419307E+03 -0.46847085091E+02  0.48853654570E+03  0.10100000352E+00 0.  1.
       -3    1    3    3    0  502  0.74049269559E+02 -0.48061419307E+03  0.16061361011E+04  0.16781378019E+04  0.10100000352E+00 0. -1.
</event>
<event>
 5   0  0.2696040E-04  0.1488431E+04  0.7818609E-02  0.8892183E-01
       -2   -1    0    0    0  501  0.00000000000E+00  0.00000000000E+00  0.28617083343E+03  0.28617083344E+03  0.25500000920E-02 0.  1.
        2   -1    0    0  501    0  0.00000000000E+00  0.00000000000E+00 -0.19354049139E+04  0.19354049139E+04  0.25500000920E-02 0. -1.
    10030    2    1    2    0    0  0.00000000000E+00  0.00000000000E+00 -0.16492340804E+04  0.22215757473E+04  0.14884306329E+04 0.  0.
        2    1    3    3  502    0  0.45214069127E+03  0.45140636717E+03 -0.25497899422E+03  0.68790493568E+03  0.25500000920E-02 0.  1.
       -2    1    3    3    0  502 -0.45214069127E+03 -0.45140636717E+03 -0.13942550862E+04  0.15336708116E+04  0.25500000920E-02 0. -1.
</event>
<event>
 5   0  0.1484251E-04  0.1498905E+04  0.7818609E-02  0.8885181E-01
        1   -1    0    0  501    0  0.00000000000E+00  0.00000000000E+00  0.26425577792E+04  0.26425577792E+04  0.50400001928E-02 0. -1.
       -1   -1    0    0    0  501  0.00000000000E+00  0.00000000000E+00 -0.21255135710E+03  0.21255135716E+03  0.50400001928E-02 0.  1.
    10030    2    1    2    0    0  0.00000000000E+00  0.00000000000E+00  0.24300064221E+04  0.28551091364E+04  0.14989052569E+04 0.  0.
        5    1    3    3  502    0  0.30410490283E+03  0.54106741102E+03  0.41493568016E+03  0.74661063739E+03  0.46999998093E+01 0.  1.
       -5    1    3    3    0  502 -0.30410490283E+03 -0.54106741102E+03  0.20150707419E+04  0.21084984990E+04  0.46999998093E+01 0. -1.
</event>
<event>
 5   0  0.2646718E-04  0.1499271E+04  0.7818609E-02  0.8884938E-01
        2   -1    0    0  501    0  0.00000000000E+00  0.00000000000E+00  0.90933066839E+03  0.90933066840E+03  0.25500000920E-02 0.  1.
       -2   -1    0    0    0  501  0.00000000000E+00  0.00000000000E+00 -0.61798612214E+03  0.61798612214E+03  0.25500000920E-02 0. -1.
    10030    2    1    2    0    0  0.00000000000E+00  0.00000000000E+00  0.29134454625E+03  0.15273167905E+04  0.14992714678E+04 0.  0.
        3    1    3    3  502    0  0.23332821864E+03  0.71076005031E+03  0.19486445016E+03  0.77304208867E+03  0.10100000352E+00 0.  1.
       -3    1    3    3    0  502 -0.23332821864E+03 -0.71076005031E+03  0.96480096099E+02  0.75427470186E+03  0.10100000352E+00 0. -1.
</event>
<event>
 5   0  0.2618901E-04  0.1508729E+04  0.7818609E-02  0.8878669E-01
       -2   -1    0    0    0  501  0.00000000000E+00  0.00000000000E+00  0.55497318810E+03  0.55497318810E+03  0.25500000920E-02 0. -1.
        2   -1    0    0  501    0  0.00000000000E+00  0.00000000000E+00 -0.10253933355E+04  0.10253933355E+04  0.25500000920E-02 0.  1.
    10030    2    1    2    0    0  0.00000000000E+00  0.00000000000E+00 -0.47042014742E+03  0.15803665236E+04  0.15087290127E+04 0.  0.
        1    1    3    3  502    0 -0.35305768274E+03  0.20510829348E+03 -0.89963632786E+03  0.98795984829E+03  0.50400001928E-02 0.  1.
       -1    1    3    3    0  502  0.35305768274E+03 -0.20510829348E+03  0.42921618045E+03  0.59240667533E+03  0.50400001928E-02 0. -1.
</event>
<event>
 5   0  0.2641347E-04  0.1501193E+04  0.7818609E-02  0.8883660E-01
        2   -1    0    0  501    0  0.00000000000E+00  0.00000000000E+00  0.13275721471E+04  0.13275721471E+04  0.25500000920E-02 0.  1.
       -2   -1    0    0    0  501  0.00000000000E+00  0.00000000000E+00 -0.42438004553E+03  0.42438004554E+03  0.25500000920E-02 0. -1.
    10030    2    1    2    0    0  0.00000000000E+00  0.00000000000E+00  0.90319210160E+03  0.17519521927E+04  0.15011930299E+04 0.  0.
        4    1    3    3  502    0  0.12981356569E+03  0.41652905953E+02 -0.40980827179E+03  0.43189230016E+03  0.12699999809E+01 0. -1.
       -4    1    3    3    0  502 -0.12981356569E+03 -0.41652905953E+02  0.13130003734E+04  0.13200598925E+04  0.12699999809E+01 0.  1.
</event>
<event>
 5   0  0.2696040E-04  0.1497925E+04  0.7818609E-02  0.8885834E-01
       -2   -1    0    0    0  501  0.00000000000E+00  0.00000000000E+00  0.88103177185E+03  0.88103177185E+03  0.25500000920E-02 0.  1.
        2   -1    0    0  501    0  0.00000000000E+00  0.00000000000E+00 -0.63669059932E+03  0.63669059932E+03  0.25500000920E-02 0. -1.
    10030    2    1    2    0    0  0.00000000000E+00  0.00000000000E+00  0.24434117253E+03  0.15177223712E+04  0.14979247602E+04 0.  0.
        2    1    3    3  502    0 -0.11990313512E+03  0.34011976072E+03 -0.54292451071E+03  0.65178619024E+03  0.25500000920E-02 0. -1.
       -2    1    3    3    0  502  0.11990313512E+03 -0.34011976072E+03  0.78726568324E+03  0.86593618094E+03  0.25500000920E-02 0.  1.
</event>
<event>
 5   0  0.1484251E-04  0.1507290E+04  0.7818609E-02  0.8879619E-01
        1   -1    0    0  501    0  0.00000000000E+00  0.00000000000E+00  0.10103148350E+04  0.10103148351E+04  0.50400001928E-02 0.  1.
       -1   -1    0    0    0  501  0.00000000000E+00  0.00000000000E+00 -0.56218215553E+03  0.56218215556E+03  0.50400001928E-02 0. -1.
    10030    2    1    2    0    0  0.00000000000E+00  0.00000000000E+00  0.44813267950E+03  0.15724969906E+04  0.15072902464E+04 0.  0.
        5    1    3    3  502    0  0.29807001731E+03  0.56712009339E+03  0.63808183327E+03  0.90423528547E+03  0.46999998093E+01 0.  1.
       -5    1    3    3    0  502 -0.29807001731E+03 -0.56712009339E+03 -0.18994915376E+03  0.66826170514E+03  0.46999998093E+01 0. -1.
</event>
<event>
 5   0  0.2696040E-04  0.1503667E+04  0.7818609E-02  0.8882018E-01
        2   -1    0    0  501    0  0.00000000000E+00  0.00000000000E+00  0.20910689071E+04  0.20910689071E+04  0.25500000920E-02 0. -1.
       -2   -1    0    0    0  501  0.00000000000E+00  0.00000000000E+00 -0.27031814958E+03  0.27031814959E+03  0.25500000920E-02 0.  1.
    10030    2    1    2    0    0  0.00000000000E+00  0.00000000000E+00  0.18207507575E+04  0.23613870567E+04  0.15036673537E+04 0.  0.
        2    1    3    3  502    0  0.13574839672E+03  0.47135502730E+03  0.15580330941E+02  0.49076056860E+03  0.25500000920E-02 0.  1.
       -2    1    3    3    0  502 -0.13574839672E+03 -0.47135502730E+03  0.18051704266E+04  0.18706264881E+04  0.25500000920E-02 0. -1.
</event>
<event>
 5   0  0.1484251E-04  0.1497565E+04  0.7818609E-02  0.8886074E-01
       -1   -1    0    0    0  501  0.00000000000E+00  0.00000000000E+00  0.10090444304E+04  0.10090444304E+04  0.50400001928E-02 0. -1.
        1   -1    0    0  501    0  0.00000000000E+00  0.00000000000E+00 -0.55564947071E+03  0.55564947073E+03  0.50400001928E-02 0.  1.
    10030    2    1    2    0    0  0.00000000000E+00  0.00000000000E+00  0.45339495968E+03  0.15646939011E+04  0.14975646947E+04 0.  0.
        5    1    3    3  502    0 -0.70227010775E+03  0.14504308802E+03  0.15572960246E+01  0.71710899924E+03  0.46999998093E+01 0.  1.
       -5    1    3    3    0  502  0.70227010775E+03 -0.14504308802E+03  0.45183766366E+03  0.84758490189E+03  0.46999998093E+01 0. -1.
</event>
<event>
 5   0  0.1443750E-04  0.1500155E+04  0.7818609E-02  0.8884350E-01
       -1   -1    0    0    0  501  0.00000000000E+00  0.00000000000E+00  0.53327974624E+03  0.53327974626E+03  0.50400001928E-02 0.  1.
        1   -1    0    0  501    0  0.00000000000E+00  0.00000000000E+00 -0.10550120335E+04  0.10550120335E+04  0.50400001928E-02 0. -1.
    10030    2    1    2    0    0  0.00000000000E+00  0.00000000000E+00 -0.52173228722E+03  0.15882917797E+04  0.15001553913E+04 0.  0.
        2    1    3    3  502    0  0.13788359610E+02  0.59471872306E+03  0.22285246330E+03  0.63525089439E+03  0.25500000920E-02 0.  1.
       -2    1    3    3    0  502 -0.13788359610E+02 -0.59471872306E+03 -0.74458475052E+03  0.95304088534E+03  0.25500000920E-02 0. -1.
</event>
<event>
 5   0  0.1443750E-04  0.1503833E+04  0.7818609E-02  0.8881908E-01
        1   -1    0    0  501    0  0.00000000000E+00  0.00000000000E+00  0.70055426540E+03  0.70055426542E+03  0.50400001928E-02 0. -1.
       -1   -1    0    0    0  501  0.00000000000E+00  0.00000000000E+00 -0.80704489512E+03  0.80704489513E+03  0.50400001928E-02 0.  1.
    10030    2    1    2    0    0  0.00000000000E+00  0.00000000000E+00 -0.10649062972E+03  0.15075991606E+04  0.15038334265E+04 0.  0.
        2    1    3    3  502    0 -0.17085396160E+03 -0.69801964711E+03  0.16856931123E+03  0.73813150362E+03  0.25500000920E-02 0. -1.
       -2    1    3    3    0  502  0.17085396160E+03  0.69801964711E+03 -0.27505994095E+03  0.76946765693E+03  0.25500000920E-02 0.  1.
</event>
<event>
 5   0  0.1427609E-04  0.1501594E+04  0.7818609E-02  0.8883394E-01
        1   -1    0    0  501    0  0.00000000000E+00  0.00000000000E+00  0.59224793289E+03  0.59224793291E+03  0.50400001928E-02 0. -1.
       -1   -1    0    0    0  501  0.00000000000E+00  0.00000000000E+00 -0.95179074877E+03  0.95179074879E+03  0.50400001928E-02 0.  1.
    10030    2    1    2    0    0  0.00000000000E+00  0.00000000000E+00 -0.35954281589E+03  0.15440386817E+04  0.15015939578E+04 0.  0.
        4    1    3    3  502    0 -0.70754923554E+03 -0.18568885949E+03 -0.35363121846E+03  0.81250410757E+03  0.12699999809E+01 0.  1.
       -4    1    3    3    0  502  0.70754923554E+03  0.18568885949E+03 -0.59115974311E+01  0.73153457412E+03  0.12699999809E+01 0. -1.
</event>
<event>
 5   0  0.2618901E-04  0.1500946E+04  0.7818609E-02  0.8883824E-01
        2   -1    0    0  501    0  0.00000000000E+00  0.00000000000E+00  0.62840780880E+03  0.62840780880E+03  0.25500000920E-02 0. -1.
       -2   -1    0    0    0  501  0.00000000000E+00  0.00000000000E+00 -0.89624843597E+03  0.89624843598E+03  0.25500000920E-02 0.  1.
    10030    2    1    2    0    0  0.00000000000E+00  0.00000000000E+00 -0.26784062718E+03  0.15246562448E+04  0.15009457229E+04 0.  0.
        1    1    3    3  502    0  0.64752564510E+03  0.11704827060E+03 -0.50048058186E+03  0.82672279003E+03  0.50400001928E-02 0.  1.
       -1    1    3    3    0  502 -0.64752564510E+03 -0.11704827060E+03  0.23263995469E+03  0.69793345475E+03  0.50400001928E-02 0. -1.
</event>
<event>
 5   0  0.2641347E-04  0.1499462E+04  0.7818609E-02  0.8884811E-01
       -2   -1    0    0    0  501  0.00000000000E+00  0.00000000000E+00  0.37630937846E+03  0.37630937847E+03  0.25500000920E-02 0. -1.
        2   -1    0    0  501    0  0.00000000000E+00  0.00000000000E+00 -0.14937093561E+04  0.14937093561E+04  0.25500000920E-02 0.  1.
    10030    2    1    2    0    0  0.00000000000E+00  0.00000000000E+00 -0.11173999776E+04  0.18700187345E+04  0.14994623562E+04 0.  0.
        4    1    3    3  502    0  0.15593128709E+03 -0.73049023286E+03 -0.47821753607E+03  0.88691835662E+03  0.12699999809E+01 0.  1.
       -4    1    3    3    0  502 -0.15593128709E+03  0.73049023286E+03 -0.63918244154E+03  0.98310037792E+03  0.12699999809E+01 0. -1.
</event>
<event>
 5   0  0.1474203E-04  0.1501361E+04  0.7818609E-02  0.8883548E-01
        1   -1    0    0  501    0  0.00000000000E+00  0.00000000000E+00  0.86254771317E+03  0.86254771319E+03  0.50400001928E-02 0. -1.
       -1   -1    0    0    0  501  0.00000000000E+00  0.00000000000E+00 -0.65332195128E+03  0.65332195130E+03  0.50400001928E-02 0.  1.
    10030    2    1    2    0    0  0.00000000000E+00  0.00000000000E+00  0.20922576190E+03  0.15158696645E+04  0.15013611891E+04 0.  0.
        3    1    3    3  502    0 -0.62028071021E+03  0.19640488441E+03  0.48266185279E+03  0.81011450575E+03  0.10100000352E+00 0. -1.
       -3    1    3    3    0  502  0.62028071021E+03 -0.19640488441E+03 -0.27343609089E+03  0.70575515874E+03  0.10100000352E+00 0.  1.
</event>
<event>
 5   0  0.2646718E-04  0.1494691E+04  0.7818609E-02  0.8887991E-01
        2   -1    0    0  501    0  0.00000000000E+00  0.00000000000E+00  0.24843542421E+04  0.24843542421E+04  0.25500000920E-02 0.  1.
       -2   -1    0    0    0  501  0.00000000000E+00  0.00000000000E+00 -0.22481710158E+03  0.22481710160E+03  0.25500000920E-02 0. -1.
    10030    2    1    2    0    0  0.00000000000E+00  0.00000000000E+00  0.22595371405E+04  0.27091713437E+04  0.14946910317E+04 0.  0.
        3    1    3    3  502    0 -0.21171639779E+03  0.37863341886E+03  0.26746235166E+02  0.43462911806E+03  0.10100000352E+00 0. -1.
       -3    1    3    3    0  502  0.21171639779E+03 -0.37863341886E+03  0.22327909053E+04  0.22745422256E+04  0.10100000352E+00 0.  1.
</event>
<event>
 5   0  0.1474203E-04  0.1508528E+04  0.7818609E-02  0.8878802E-01
       -1   -1    0    0    0  501  0.00000000000E+00  0.00000000000E+00  0.91490900409E+03  0.91490900410E+03  0.50400001928E-02 0. -1.
        1   -1    0    0  501    0  0.00000000000E+00  0.00000000000E+00 -0.62182578918E+03  0.62182578920E+03  0.50400001928E-02 0.  1.
    10030    2    1    2    0    0  0.00000000000E+00  0.00000000000E+00  0.29308321490E+03  0.15367347933E+04  0.15085277770E+04 0.  0.
        3    1    3    3  502    0 -0.60225909275E+03 -0.20062207604E+03  0.56152683125E+03  0.84751261030E+03  0.10100000352E+00 0. -1.
       -3    1    3    3    0  502  0.60225909275E+03  0.20062207604E+03 -0.26844361635E+03  0.68922218301E+03  0.10100000352E+00 0.  1.
</event>
<event>
 5   0  0.1443750E-04  0.1492064E+04  0.7818609E-02  0.8889748E-01
        1   -1    0    0  501    0  0.00000000000E+00  0.00000000000E+00  0.17669061332E+04  0.17669061332E+04  0.50400001928E-02 0. -1.
       -1   -1    0    0    0  501  0.00000000000E+00  0.00000000000E+00 -0.31499324829E+03  0.31499324833E+03  0.50400001928E-02 0.  1.
    10030    2    1    2    0    0  0.00000000000E+00  0.00000000000E+00  0.14519128849E+04  0.20818993816E+04  0.14920636748E+04 0.  0.
        2    1    3    3  502    0  0.52021044170E+03 -0.52414600022E+03  0.87372534169E+03  0.11440034554E+04  0.25500000920E-02 0. -1.
       -2    1    3    3    0  502 -0.52021044170E+03  0.52414600022E+03  0.57818754325E+03  0.93789592620E+03  0.25500000920E-02 0.  1.
</event>
<event>
 5   0  0.2696040E-04  0.1498092E+04  0.7818609E-02  0.8885722E-01
        2   -1    0    0  501    0  0.00000000000E+00  0.00000000000E+00  0.38111713504E+03  0.38111713504E+03  0.25500000920E-02 0.  1.
       -2   -1    0    0    0  501  0.00000000000E+00  0.00000000000E+00 -0.14721724689E+04  0.14721724690E+04  0.25500000920E-02 0. -1.
    10030    2    1    2    0    0  0.00000000000E+00  0.00000000000E+00 -0.10910553339E+04  0.18532896040E+04  0.14980923251E+04 0.  0.
        2    1    3    3  502    0 -0.99197042464E+02  0.20603602887E+03 -0.14279356086E+04  0.14461296625E+04  0.25500000920E-02 0. -1.
       -2    1    3    3    0  502  0.99197042464E+02 -0.20603602887E+03  0.33688027473E+03  0.40715994146E+03  0.25500000920E-02 0.  1.
</event>
<event>
 5   0  0.1484251E-04  0.1502294E+04  0.7818609E-02  0.8882929E-01
        1   -1    0    0  501    0  0.00000000000E+00  0.00000000000E+00  0.10698579436E+04  0.10698579436E+04  0.50400001928E-02 0.  1.
       -1   -1    0    0    0  501  0.00000000000E+00  0.00000000000E+00 -0.52738019383E+03  0.52738019385E+03  0.50400001928E-02 0. -1.
    10030    2    1    2    0    0  0.00000000000E+00  0.00000000000E+00  0.54247774973E+03  0.15972381374E+04  0.15022940986E+04 0.  0.
        5    1    3    3  502    0  0.37545314863E+03  0.31680117643E+03  0.87536794241E+03  0.10038023594E+04  0.46999998093E+01 0.  1.
       -5    1    3    3    0  502 -0.37545314863E+03 -0.31680117643E+03 -0.33289019269E+03  0.59343577799E+03  0.46999998093E+01 0. -1.
</event>
<event>
 5   0  0.1426929E-04  0.1503966E+04  0.7818609E-02  0.8881820E-01
       -1   -1    0    0    0  501  0.00000000000E+00  0.00000000000E+00  0.92221718920E+03  0.92221718921E+03  0.50400001928E-02 0. -1.
        1   -1    0    0  501    0  0.00000000000E+00  0.00000000000E+00 -0.61317288331E+03  0.61317288333E+03  0.50400001928E-02 0.  1.
    10030    2    1    2    0    0  0.00000000000E+00  0.00000000000E+00  0.30904430589E+03  0.15353900725E+04  0.15039661871E+04 0.  0.
        1    1    3    3  502    0  0.14362770354E+03  0.32149483716E+03 -0.52380850849E+03  0.63116020244E+03  0.50400001928E-02 0.  1.
       -1    1    3    3    0  502 -0.14362770354E+03 -0.32149483716E+03  0.83285281438E+03  0.90422987010E+03  0.50400001928E-02 0. -1.
</event>
<event>
 5   0  0.2641347E-04  0.1491404E+04  0.7818609E-02  0.8890190E-01
       -2   -1    0    0    0  501  0.00000000000E+00  0.00000000000E+00  0.13830536071E+04  0.13830536071E+04  0.25500000920E-02 0. -1.
        2   -1    0    0  501    0  0.00000000000E+00  0.00000000000E+00 -0.40206048003E+03  0.40206048004E+03  0.25500000920E-02 0.  1.
    10030    2    1    2    0    0  0.00000000000E+00  0.00000000000E+00  0.98099312705E+03  0.17851140871E+04  0.14914036304E+04 0.  0.
        4    1    3    3  502    0  0.53747392141E+03 -0.50769537981E+03  0.37422260642E+03  0.82865975341E+03  0.12699999809E+01 0.  1.
       -4    1    3    3    0  502 -0.53747392141E+03  0.50769537981E+03  0.60677052063E+03  0.95645433371E+03  0.12699999809E+01 0. -1.
</event>
<event>
 5   0  0.1426929E-04  0.1485040E+04  0.7818609E-02  0.8894463E-01
        1   -1    0    0  501    0  0.00000000000E+00  0.00000000000E+00  0.83704992438E+03  0.83704992439E+03  0.50400001928E-02 0. -1.
       -1   -1    0    0    0  501  0.00000000000E+00  0.00000000000E+00 -0.65866513715E+03  0.65866513717E+03  0.50400001928E-02 0.  1.
    10030    2    1    2    0    0  0.00000000000E+00  0.00000000000E+00  0.17838478723E+03  0.14957150616E+04  0.14850395325E+04 0.  0.
        1    1    3    3  502    0  0.27296506015E+03 -0.36956212648E+03 -0.49830995714E+03  0.67778971872E+03  0.50400001928E-02 0.  1.
       -1    1    3    3    0  502 -0.27296506015E+03  0.36956212648E+03  0.67669474437E+03  0.81792534285E+03  0.50400001928E-02 0. -1.
</event>
<event>
 5   0  0.2641347E-04  0.1454832E+04  0.7818609E-02  0.8915057E-01
       -2   -1    0    0    0  501  0.00000000000E+00  0.00000000000E+00  0.48423058468E+03  0.48423058469E+03  0.25500000920E-02 0. -1.
        2   -1    0    0  501    0  0.00000000000E+00  0.00000000000E+00 -0.10927314490E+04  0.10927314490E+04  0.25500000920E-02 0.  1.
    10030    2    1    2    0    0  0.00000000000E+00  0.00000000000E+00 -0.60850086435E+03  0.15769620337E+04  0.14548319332E+04 0.  0.
        4    1    3    3  502    0  0.16347816641E+03  0.43524195271E+03 -0.91065288866E+03  0.10224729653E+04  0.12699999809E+01 0.  1.
       -4    1    3    3    0  502 -0.16347816641E+03 -0.43524195271E+03  0.30215202431E+03  0.55448906841E+03  0.12699999809E+01 0. -1.
</event>
<event>
 5   0  0.2734072E-04  0.1496018E+04  0.7818609E-02  0.8887105E-01
        2   -1    0    0  501    0  0.00000000000E+00  0.00000000000E+00  0.12660871731E+04  0.12660871731E+04  0.25500000920E-02 0.  1.
       -2   -1    0    0    0  501  0.00000000000E+00  0.00000000000E+00 -0.44192658202E+03  0.44192658203E+03  0.25500000920E-02 0. -1.
    10030    2    1    2    0    0  0.00000000000E+00  0.00000000000E+00  0.82416059109E+03  0.17080137551E+04  0.14960181509E+04 0.  0.
        5    1    3    3  502    0 -0.61165167859E+03  0.17755981929E+03 -0.35739785458E+02  0.63792216423E+03  0.46999998093E+01 0. -1.
       -5    1    3    3    0  502  0.61165167859E+03 -0.17755981929E+03  0.85990037655E+03  0.10700915909E+04  0.46999998093E+01 0.  1.
</event>
<event>
 5   0  0.1427609E-04  0.1504928E+04  0.7818609E-02  0.8881182E-01
       -1   -1    0    0    0  501  0.00000000000E+00  0.00000000000E+00  0.97842597444E+03  0.97842597445E+03  0.50400001928E-02 0. -1.
        1   -1    0    0  501    0  0.00000000000E+00  0.00000000000E+00 -0.57868684389E+03  0.57868684391E+03  0.50400001928E-02 0.  1.
    10030    2    1    2    0    0  0.00000000000E+00  0.00000000000E+00  0.39973913054E+03  0.15571128184E+04  0.15049282231E+04 0.  0.
        4    1    3    3  502    0 -0.57722976072E+03 -0.27131474175E+03 -0.21321720520E+03  0.67250953543E+03  0.12699999809E+01 0.  1.
       -4    1    3    3    0  502  0.57722976072E+03  0.27131474175E+03  0.61295633575E+03  0.88460328294E+03  0.12699999809E+01 0. -1.
</event>
<event>
 5   0  0.2734072E-04  0.1497650E+04  0.7818609E-02  0.8886017E-01
       -2   -1    0    0    0  501  0.00000000000E+00  0.00000000000E+00  0.27282581126E+03  0.27282581127E+03  0.25500000920E-02 0. -1.
        2   -1    0    0  501    0  0.00000000000E+00  0.00000000000E+00 -0.20552991015E+04  0.20552991015E+04  0.25500000920E-02 0.  1.
    10030    2    1    2    0    0  0.00000000000E+00  0.00000000000E+00 -0.17824732902E+04  0.23281249127E+04  0.14976496850E+04 0.  0.
        5    1    3    3  502    0  0.26389554645E+03  0.66268612527E+03 -0.53701502211E+03  0.89286112247E+03  0.46999998093E+01 0.  1.
       -5    1    3    3    0  502 -0.26389554645E+03 -0.66268612527E+03 -0.12454582681E+04  0.14352637903E+04  0.46999998093E+01 0. -1.
</event>
<event>
 5   0  0.1004313E-04  0.1503991E+04  0.7818609E-02  0.8881804E-01
        4   -1    0    0  501    0  0.00000000000E+00  0.00000000000E+00  0.49040252975E+03  0.49040417421E+03  0.12699999809E+01 0. -1.
       -4   -1    0    0    0  501  0.00000000000E+00  0.00000000000E+00 -0.11531240773E+04  0.11531247767E+04  0.12699999809E+01 0.  1.
    10030    2    1    2    0    0  0.00000000000E+00  0.00000000000E+00 -0.66272154756E+03  0.16435289509E+04  0.15039905461E+04 0.  0.
        5    1    3    3  502    0 -0.23351527317E+03  0.38136242521E+03 -0.99202496195E+03  0.10881646462E+04  0.46999998093E+01 0.  1.
       -5    1    3    3    0  502  0.23351527317E+03 -0.38136242521E+03  0.32930341438E+03  0.55536430466E+03  0.46999998093E+01 0. -1.
</event>
<event>
 5   0  0.2696040E-04  0.1499629E+04  0.7818609E-02  0.8884700E-01
       -2   -1    0    0    0  501  0.00000000000E+00  0.00000000000E+00  0.61234718908E+03  0.61234718909E+03  0.25500000920E-02 0. -1.
        2   -1    0    0  501    0  0.00000000000E+00  0.00000000000E+00 -0.91814184537E+03  0.91814184537E+03  0.25500000920E-02 0.  1.
    10030    2    1    2    0    0  0.00000000000E+00  0.00000000000E+00 -0.30579465629E+03  0.15304890345E+04  0.14996287250E+04 0.  0.
        2    1    3    3  502    0  0.62073093302E+02 -0.49573483840E+03 -0.72352353180E+03  0.87925673155E+03  0.25500000920E-02 0.  1.
       -2    1    3    3    0  502 -0.62073093302E+02  0.49573483840E+03  0.41772887551E+03  0.65123230291E+03  0.25500000920E-02 0. -1.
</event>
<event>
 5   0  0.1484251E-04  0.1503103E+04  0.7818609E-02  0.8882392E-01
       -1   -1    0    0    0  501  0.00000000000E+00  0.00000000000E+00  0.74188222207E+03  0.74188222208E+03  0.50400001928E-02 0. -1.
        1   -1    0    0  501    0  0.00000000000E+00  0.00000000000E+00 -0.76134701286E+03  0.76134701287E+03  0.50400001928E-02 0.  1.
    10030    2    1    2    0    0  0.00000000000E+00  0.00000000000E+00 -0.19464790789E+02  0.15032292350E+04  0.15031032083E+04 0.  0.
        5    1    3    3  502    0  0.49339603131E+03  0.92673286722E+02 -0.56904643394E+03  0.75885697978E+03  0.46999998093E+01 0.  1.
       -5    1    3    3    0  502 -0.49339603131E+03 -0.92673286722E+02  0.54958164316E+03  0.74437225517E+03  0.46999998093E+01 0. -1.
</event>
</LesHouchesEvents>
